
     Program PWSCF v.7.1 starts on  6Dec2025 at 13:49:55 
        Git branch: heads/qe-7.1
        Last git commit: 48ba0178f8fede6d020eb786884699a9f063f55d-dirty
        Last git commit date: Fri Jan 27 14:22:33 2023 +0000
        Last git commit subject: Merge branch 'fix_hubbard' into 'develop'

     This program is part of the open-source Quantum ESPRESSO suite
     for quantum simulation of materials; please cite
         "P. Giannozzi et al., J. Phys.:Condens. Matter 21 395502 (2009);
         "P. Giannozzi et al., J. Phys.:Condens. Matter 29 465901 (2017);
         "P. Giannozzi et al., J. Chem. Phys. 152 154105 (2020);
          URL http://www.quantum-espresso.org", 
     in publications or presentations arising from this work. More details at
     http://www.quantum-espresso.org/quote

     Parallel version (MPI), running on    96 processors

     MPI processes distributed on     2 nodes
     82924 MiB available memory on the printing compute node when the environment starts

     Reading input from espresso.pwi
Warning: card &CELL ignored
Warning: card / ignored
Warning: card &FCP ignored
Warning: card / ignored
Warning: card &RISM ignored
Warning: card / ignored

     Current dimensions of program PWSCF are:
     Max number of different atomic species (ntypx) = 10
     Max number of k-points (npk) =  40000
     Max angular momentum in pseudopotentials (lmaxx) =  4
     file Co.pbe-n-kjpaw_psl.1.0.0.UPF: wavefunction(s)  4S 3D renormalized
     file C.pbe-n-kjpaw_psl.1.0.0.UPF: wavefunction(s)  2S 2P renormalized
     file O.pbe-nl-kjpaw_psl.1.0.0.UPF: wavefunction(s)  2S 2P renormalized
     file H.pbe-kjpaw_psl.1.0.0.UPF: wavefunction(s)  1S renormalized

     **************************************************************************
     Initializing libbeef V0.1.2 with the BEEF-vdW functional.
     Citation: Wellendorff et al., PRB 85, 235149 (2012).
     **************************************************************************


     IMPORTANT: XC functional enforced from input :
     Exchange-correlation= BEEF-VDW
                           (   1   4  43  14   2   0   0)
     Any further DFT definition will be discarded
     Please, verify this is what you really want


     R & G space division:  proc/nbgrp/npool/nimage =      96
     Subspace diagonalization in iterative solution of the eigenvalue problem:
     one sub-group per band group will be used
     custom distributed-memory algorithm (size of sub-group:  2*  2 procs)


     Parallelization info
     --------------------
     sticks:   dense  smooth     PW     G-vecs:    dense   smooth      PW
     Min          43      23      6                 7829     3049     440
     Max          44      24      7                 7845     3068     465
     Sum        4153    2221    613               752179   293251   42993

     Using Slab Decomposition



     bravais-lattice index     =            0
     lattice parameter (alat)  =      14.1729  a.u.
     unit-cell volume          =    8574.3059 (a.u.)^3
     number of atoms/cell      =           39
     number of atomic types    =            4
     number of electrons       =       335.00
     number of Kohn-Sham states=          202
     kinetic-energy cutoff     =      40.0000  Ry
     charge density cutoff     =     300.0000  Ry
     scf convergence threshold =      1.0E-06
     mixing beta               =       0.7000
     number of iterations used =            8  local-TF  mixing
     Exchange-correlation= BEEF-VDW
                           (   1   4  43  14   2   0   0)

     celldm(1)=  14.172946  celldm(2)=   0.000000  celldm(3)=   0.000000
     celldm(4)=   0.000000  celldm(5)=   0.000000  celldm(6)=   0.000000

     crystal axes: (cart. coord. in units of alat)
               a(1) = (   1.000000   0.000000   0.000000 )  
               a(2) = (   0.500000   0.866025   0.000000 )  
               a(3) = (   0.000000   0.000000   3.477667 )  

     reciprocal axes: (cart. coord. in units 2 pi/alat)
               b(1) = (  1.000000 -0.577350  0.000000 )  
               b(2) = (  0.000000  1.154701  0.000000 )  
               b(3) = (  0.000000  0.000000  0.287549 )  


     PseudoPot. # 1 for Co read from file:
     /users/kbadger1/espresso/pseudo/pslibrary.1.0.0/pbe/PSEUDOPOTENTIALS/Co.pbe-n-kjpaw_psl.1.0.0.UPF
     MD5 check sum: 88af6ec42553d4236c267fdfcb472151
     Pseudo is Projector augmented-wave + core cor, Zval =  9.0
     Generated using 'atomic' code by A. Dal Corso  v.7.0
     Shape of augmentation charge: PSQ
     Using radial grid of 1193 points,  6 beta functions with: 
                l(1) =   0
                l(2) =   0
                l(3) =   1
                l(4) =   1
                l(5) =   2
                l(6) =   2
     Q(r) pseudized with 0 coefficients 


     PseudoPot. # 2 for C  read from file:
     /users/kbadger1/espresso/pseudo/pslibrary.1.0.0/pbe/PSEUDOPOTENTIALS/C.pbe-n-kjpaw_psl.1.0.0.UPF
     MD5 check sum: 6408e75cdba28732cea38a4db8498ce4
     Pseudo is Projector augmented-wave + core cor, Zval =  4.0
     Generated using 'atomic' code by A. Dal Corso  v.7.0
     Shape of augmentation charge: PSQ
     Using radial grid of 1073 points,  4 beta functions with: 
                l(1) =   0
                l(2) =   0
                l(3) =   1
                l(4) =   1
     Q(r) pseudized with 0 coefficients 


     PseudoPot. # 3 for O  read from file:
     /users/kbadger1/espresso/pseudo/pslibrary.1.0.0/pbe/PSEUDOPOTENTIALS/O.pbe-nl-kjpaw_psl.1.0.0.UPF
     MD5 check sum: f0439fab3598ca4e468f064226030408
     Pseudo is Projector augmented-wave + core cor, Zval =  6.0
     Generated using 'atomic' code by A. Dal Corso  v.7.0
     Shape of augmentation charge: PSQ
     Using radial grid of 1095 points,  4 beta functions with: 
                l(1) =   0
                l(2) =   0
                l(3) =   1
                l(4) =   1
     Q(r) pseudized with 0 coefficients 


     PseudoPot. # 4 for H  read from file:
     /users/kbadger1/espresso/pseudo/pslibrary.1.0.0/pbe/PSEUDOPOTENTIALS/H.pbe-kjpaw_psl.1.0.0.UPF
     MD5 check sum: fe4c6fa958fa6d3815bf5d2419cbf1df
     Pseudo is Projector augmented-wave, Zval =  1.0
     Generated using 'atomic' code by A. Dal Corso  v.7.0
     Shape of augmentation charge: PSQ
     Using radial grid of  929 points,  2 beta functions with: 
                l(1) =   0
                l(2) =   0
     Q(r) pseudized with 0 coefficients 


     atomic species   valence    mass     pseudopotential
        Co             9.00    58.93319     Co( 1.00)
        C              4.00    12.01100     C ( 1.00)
        O              6.00    15.99900     O ( 1.00)
        H              1.00     1.00800     H ( 1.00)

     Starting magnetic structure 
     atomic species   magnetization
        Co           1.000
        C            1.000
        O            0.000
        H            0.000

     No symmetry found



   Cartesian axes

     site n.     atom                  positions (alat units)
         1           Co  tau(   1) = (   0.0000000   0.1924501   1.3333333  )
         2           Co  tau(   2) = (   0.3333333   0.1924501   1.3333333  )
         3           Co  tau(   3) = (   0.6666667   0.1924501   1.3333333  )
         4           Co  tau(   4) = (   0.1666667   0.4811252   1.3333333  )
         5           Co  tau(   5) = (   0.5000000   0.4811252   1.3333333  )
         6           Co  tau(   6) = (   0.8333333   0.4811252   1.3333333  )
         7           Co  tau(   7) = (   0.3333333   0.7698004   1.3333333  )
         8           Co  tau(   8) = (   0.6666667   0.7698004   1.3333333  )
         9           Co  tau(   9) = (   1.0000000   0.7698004   1.3333333  )
        10           Co  tau(  10) = (   0.0000000   0.0000000   1.6036667  )
        11           Co  tau(  11) = (   0.3333333   0.0000000   1.6036667  )
        12           Co  tau(  12) = (   0.6666667   0.0000000   1.6036667  )
        13           Co  tau(  13) = (   0.1666667   0.2886751   1.6036667  )
        14           Co  tau(  14) = (   0.5000000   0.2886751   1.6036667  )
        15           Co  tau(  15) = (   0.8333333   0.2886751   1.6036667  )
        16           Co  tau(  16) = (   0.3333333   0.5773503   1.6036667  )
        17           Co  tau(  17) = (   0.6666667   0.5773503   1.6036667  )
        18           Co  tau(  18) = (   1.0000000   0.5773503   1.6036667  )
        19           Co  tau(  19) = (   0.0000000   0.1924501   1.8740000  )
        20           Co  tau(  20) = (   0.3333333   0.1924501   1.8740000  )
        21           Co  tau(  21) = (   0.6666667   0.1924501   1.8740000  )
        22           Co  tau(  22) = (   0.1666667   0.4811252   1.8740000  )
        23           Co  tau(  23) = (   0.5000000   0.4811252   1.8740000  )
        24           Co  tau(  24) = (   0.8333333   0.4811252   1.8740000  )
        25           Co  tau(  25) = (   0.3333333   0.7698004   1.8740000  )
        26           Co  tau(  26) = (   0.6666667   0.7698004   1.8740000  )
        27           Co  tau(  27) = (   1.0000000   0.7698004   1.8740000  )
        28           Co  tau(  28) = (   0.0000000   0.0000000   2.1443333  )
        29           Co  tau(  29) = (   0.3333333   0.0000000   2.1443333  )
        30           Co  tau(  30) = (   0.6666667   0.0000000   2.1443333  )
        31           Co  tau(  31) = (   0.1666667   0.2886751   2.1443333  )
        32           Co  tau(  32) = (   0.5000000   0.2886751   2.1443333  )
        33           Co  tau(  33) = (   0.8333333   0.2886751   2.1443333  )
        34           Co  tau(  34) = (   0.3333333   0.5773503   2.1443333  )
        35           Co  tau(  35) = (   0.6666667   0.5773503   2.1443333  )
        36           Co  tau(  36) = (   1.0000000   0.5773503   2.1443333  )
        37           C   tau(  37) = (   0.1596637   0.0314591   2.3366430  )
        38           O   tau(  38) = (   0.1690855   0.0430985   2.4942683  )
        39           H   tau(  39) = (   0.5065215   0.0932492   2.2750167  )

     number of k points=    13  Marzari-Vanderbilt smearing, width (Ry)=  0.0010
                       cart. coord. in units 2pi/alat
        k(    1) = (   0.0000000   0.0000000   0.0000000), wk =   0.0400000
        k(    2) = (   0.0000000   0.2309401   0.0000000), wk =   0.0800000
        k(    3) = (   0.0000000   0.4618802   0.0000000), wk =   0.0800000
        k(    4) = (   0.2000000  -0.1154701   0.0000000), wk =   0.0800000
        k(    5) = (   0.2000000   0.1154701   0.0000000), wk =   0.0800000
        k(    6) = (   0.2000000   0.3464102   0.0000000), wk =   0.0800000
        k(    7) = (   0.2000000  -0.5773503   0.0000000), wk =   0.0800000
        k(    8) = (   0.2000000  -0.3464102   0.0000000), wk =   0.0800000
        k(    9) = (   0.4000000  -0.2309401   0.0000000), wk =   0.0800000
        k(   10) = (   0.4000000   0.0000000   0.0000000), wk =   0.0800000
        k(   11) = (   0.4000000   0.2309401   0.0000000), wk =   0.0800000
        k(   12) = (   0.4000000  -0.6928203   0.0000000), wk =   0.0800000
        k(   13) = (   0.4000000  -0.4618802   0.0000000), wk =   0.0800000

     Dense  grid:   752179 G-vectors     FFT dimensions: (  80,  80, 288)

     Smooth grid:   293251 G-vectors     FFT dimensions: (  60,  60, 200)

     Estimated max dynamical RAM per process >      84.82 MB

     Estimated total dynamical RAM >       7.95 GB
     Generating pointlists ...
     new r_m :   0.0935 (alat units)  1.3257 (a.u.) for type    1
     new r_m :   0.0653 (alat units)  0.9257 (a.u.) for type    2
     new r_m :   0.0653 (alat units)  0.9257 (a.u.) for type    3
     new r_m :   0.0935 (alat units)  1.3257 (a.u.) for type    4

     Initial potential from superposition of free atoms

     starting charge     334.9897, renormalised to     335.0000

     negative rho (up, down):  3.049E-03 4.494E-04


     %%%%%%%%%%%%%%%%%%%%%%%%%%%%%%%%%%%%%%%%%%%%%%%%%%%%%%%%%%%%%%%%%%%%%%%%
     %                                                                      %
     % You are using vdW-DF, which was implemented by the Thonhauser group. %
     % Please cite the following two papers that made this development      %
     % possible and the two reviews that describe the various versions:     %
     %                                                                      %
     %   T. Thonhauser et al., PRL 115, 136402 (2015).                      %
     %   T. Thonhauser et al., PRB 76, 125112 (2007).                       %
     %   K. Berland et al., Rep. Prog. Phys. 78, 066501 (2015).             %
     %   D.C. Langreth et al., J. Phys.: Condens. Matter 21, 084203 (2009). %
     %                                                                      %
     % If you are calculating stress with vdW-DF, please also cite:         %
     %                                                                      %
     %   R. Sabatini et al., J. Phys.: Condens. Matter 24, 424209 (2012).   %
     %   C.M. Frostenson et al., Electr. Struct. 4, 014001 (2022).          %
     %                                                                      %
     %%%%%%%%%%%%%%%%%%%%%%%%%%%%%%%%%%%%%%%%%%%%%%%%%%%%%%%%%%%%%%%%%%%%%%%%

     %%%%%%%%%%%%%%%%%%%%%%%%%%%%%%%%%%%%%%%%%%%%%%%%%%%%%%%%%%%%%%%%%%%%%%%%
     %                                                                      %
     %  vdW-DF NEWS:                                                        %
     %                                                                      %
     %  * vdW-DF3 is now available. DOI: 10.1021/acs.jctc.0c00471           %
     %    use with input_dft = 'vdW-DF3-opt1' or 'vdW-DF3-opt2'             %
     %                                                                      %
     %  * Unscreened and range-separated hybrid vdW-DF-cx functionals       %
     %    DOI: 10.1063/1.4986522 and 10.1088/1361-648X/ac2ad2               %
     %    use with input_dft = 'vdW-DF-cx0'    and 'vdW-DF-ahcx'            %
     %  * Unscreened and range-separated hybrid vdW-DF2-b86r functionals    %
     %    DOI: 10.1063/1.4986522 and DOI: 10.1103/PhysRevX.12.041003        %
     %    use with input_dft = 'vdW-DF2-br0' and 'vdW-DF2-ahbr'             %
     %                                                                      %
     %%%%%%%%%%%%%%%%%%%%%%%%%%%%%%%%%%%%%%%%%%%%%%%%%%%%%%%%%%%%%%%%%%%%%%%%


     Starting wfcs are  333 randomized atomic wfcs
     Checking if some PAW data can be deallocated... 

     total cpu time spent up to now is       11.5 secs

     per-process dynamical memory:   213.4 Mb

     Self-consistent Calculation

     iteration #  1     ecut=    40.00 Ry     beta= 0.70
     Davidson diagonalization with overlap
     ethr =  1.00E-02,  avg # of iterations =  2.0

     negative rho (up, down):  6.925E-05 1.614E-06

     total cpu time spent up to now is       35.8 secs

     total energy              =   -6053.03561853 Ry
     estimated scf accuracy    <      39.02580765 Ry

     total magnetization       =    69.00 Bohr mag/cell
     absolute magnetization    =    81.25 Bohr mag/cell

     iteration #  2     ecut=    40.00 Ry     beta= 0.70
     Davidson diagonalization with overlap
     ethr =  1.00E-02,  avg # of iterations =  1.0

     negative rho (up, down):  2.693E-05 8.564E-07

     total cpu time spent up to now is       55.9 secs

     total energy              =   -6052.65570173 Ry
     estimated scf accuracy    <      23.66899363 Ry

     total magnetization       =    69.01 Bohr mag/cell
     absolute magnetization    =    76.85 Bohr mag/cell

     iteration #  3     ecut=    40.00 Ry     beta= 0.70
     Davidson diagonalization with overlap
     ethr =  7.07E-03,  avg # of iterations =  1.4

     negative rho (up, down):  1.462E-06 3.122E-06

     total cpu time spent up to now is       68.6 secs

     total energy              =   -6055.05137788 Ry
     estimated scf accuracy    <      87.21364200 Ry

     total magnetization       =    66.12 Bohr mag/cell
     absolute magnetization    =    73.65 Bohr mag/cell

     iteration #  4     ecut=    40.00 Ry     beta= 0.70
     Davidson diagonalization with overlap
     ethr =  7.07E-03,  avg # of iterations =  1.0

     negative rho (up, down):  1.711E-06 8.647E-07

     total cpu time spent up to now is       88.5 secs

     total energy              =   -6056.37516886 Ry
     estimated scf accuracy    <       5.37402941 Ry

     total magnetization       =    60.25 Bohr mag/cell
     absolute magnetization    =    70.17 Bohr mag/cell

     iteration #  5     ecut=    40.00 Ry     beta= 0.70
     Davidson diagonalization with overlap
     ethr =  1.60E-03,  avg # of iterations =  1.1

     negative rho (up, down):  1.712E-06 6.845E-07

     total cpu time spent up to now is      100.1 secs

     total energy              =   -6056.35161599 Ry
     estimated scf accuracy    <       1.83260736 Ry

     total magnetization       =    60.60 Bohr mag/cell
     absolute magnetization    =    69.94 Bohr mag/cell

     iteration #  6     ecut=    40.00 Ry     beta= 0.70
     Davidson diagonalization with overlap
     ethr =  5.47E-04,  avg # of iterations =  2.5

     negative rho (up, down):  1.777E-06 8.418E-07

     total cpu time spent up to now is      121.9 secs

     total energy              =   -6056.43835813 Ry
     estimated scf accuracy    <       1.06410310 Ry

     total magnetization       =    60.18 Bohr mag/cell
     absolute magnetization    =    69.17 Bohr mag/cell

     iteration #  7     ecut=    40.00 Ry     beta= 0.70
     Davidson diagonalization with overlap
     ethr =  3.18E-04,  avg # of iterations =  2.9

     negative rho (up, down):  1.719E-06 8.452E-07

     total cpu time spent up to now is      144.3 secs

     total energy              =   -6056.46947037 Ry
     estimated scf accuracy    <       0.52965756 Ry

     total magnetization       =    60.27 Bohr mag/cell
     absolute magnetization    =    68.92 Bohr mag/cell

     iteration #  8     ecut=    40.00 Ry     beta= 0.70
     Davidson diagonalization with overlap
     ethr =  1.58E-04,  avg # of iterations =  3.6

     negative rho (up, down):  1.034E-06 4.974E-07

     total cpu time spent up to now is      158.0 secs

     total energy              =   -6056.49454658 Ry
     estimated scf accuracy    <       0.15164487 Ry

     total magnetization       =    60.41 Bohr mag/cell
     absolute magnetization    =    68.87 Bohr mag/cell

     iteration #  9     ecut=    40.00 Ry     beta= 0.70
     Davidson diagonalization with overlap
     c_bands:  1 eigenvalues not converged
     ethr =  4.53E-05,  avg # of iterations =  9.2

     negative rho (up, down):  6.231E-07 3.942E-07

     total cpu time spent up to now is      186.9 secs

     total energy              =   -6056.49770872 Ry
     estimated scf accuracy    <       0.14472317 Ry

     total magnetization       =    60.53 Bohr mag/cell
     absolute magnetization    =    68.67 Bohr mag/cell

     iteration # 10     ecut=    40.00 Ry     beta= 0.70
     Davidson diagonalization with overlap
     ethr =  4.32E-05,  avg # of iterations =  2.6

     negative rho (up, down):  6.057E-07 3.329E-07

     total cpu time spent up to now is      208.7 secs

     total energy              =   -6056.50291826 Ry
     estimated scf accuracy    <       0.15013944 Ry

     total magnetization       =    60.77 Bohr mag/cell
     absolute magnetization    =    68.69 Bohr mag/cell

     iteration # 11     ecut=    40.00 Ry     beta= 0.70
     Davidson diagonalization with overlap
     ethr =  4.32E-05,  avg # of iterations =  1.3

     negative rho (up, down):  1.833E-07 1.262E-07

     total cpu time spent up to now is      220.2 secs

     total energy              =   -6056.50101853 Ry
     estimated scf accuracy    <       0.13386294 Ry

     total magnetization       =    60.72 Bohr mag/cell
     absolute magnetization    =    68.57 Bohr mag/cell

     iteration # 12     ecut=    40.00 Ry     beta= 0.70
     Davidson diagonalization with overlap
     ethr =  4.00E-05,  avg # of iterations =  1.6

     negative rho (up, down):  7.750E-06 4.138E-07

     total cpu time spent up to now is      241.1 secs

     total energy              =   -6056.50173754 Ry
     estimated scf accuracy    <       0.08359457 Ry

     total magnetization       =    60.57 Bohr mag/cell
     absolute magnetization    =    68.38 Bohr mag/cell

     iteration # 13     ecut=    40.00 Ry     beta= 0.70
     Davidson diagonalization with overlap
     ethr =  2.50E-05,  avg # of iterations =  1.7

     negative rho (up, down):  1.923E-05 1.468E-06

     total cpu time spent up to now is      253.2 secs

     total energy              =   -6056.50130668 Ry
     estimated scf accuracy    <       0.12073871 Ry

     total magnetization       =    60.67 Bohr mag/cell
     absolute magnetization    =    68.39 Bohr mag/cell

     iteration # 14     ecut=    40.00 Ry     beta= 0.70
     Davidson diagonalization with overlap
     ethr =  2.50E-05,  avg # of iterations =  1.1

     negative rho (up, down):  1.317E-02 1.099E-02

     total cpu time spent up to now is      273.0 secs

     total energy              =   -6056.49768054 Ry
     estimated scf accuracy    <       0.07718198 Ry

     total magnetization       =    60.70 Bohr mag/cell
     absolute magnetization    =    68.37 Bohr mag/cell

     iteration # 15     ecut=    40.00 Ry     beta= 0.70
     Davidson diagonalization with overlap
     ethr =  2.30E-05,  avg # of iterations =  1.4

     negative rho (up, down):  1.588E-02 1.396E-02

     total cpu time spent up to now is      293.6 secs

     total energy              =   -6056.49641360 Ry
     estimated scf accuracy    <       0.03236333 Ry

     total magnetization       =    60.63 Bohr mag/cell
     absolute magnetization    =    68.30 Bohr mag/cell

     iteration # 16     ecut=    40.00 Ry     beta= 0.70
     Davidson diagonalization with overlap
     c_bands:  1 eigenvalues not converged
     c_bands:  4 eigenvalues not converged
     c_bands:  1 eigenvalues not converged
     c_bands:  2 eigenvalues not converged
     ethr =  9.66E-06,  avg # of iterations =  6.1

     negative rho (up, down):  2.852E-02 2.653E-02

     total cpu time spent up to now is      310.3 secs

     total energy              =   -6056.49608076 Ry
     estimated scf accuracy    <       0.04653703 Ry

     total magnetization       =    60.63 Bohr mag/cell
     absolute magnetization    =    68.28 Bohr mag/cell

     iteration # 17     ecut=    40.00 Ry     beta= 0.70
     Davidson diagonalization with overlap
     ethr =  9.66E-06,  avg # of iterations =  2.0

     negative rho (up, down):  1.972E-02 1.818E-02

     total cpu time spent up to now is      331.3 secs

     total energy              =   -6056.49709946 Ry
     estimated scf accuracy    <       0.01839412 Ry

     total magnetization       =    60.70 Bohr mag/cell
     absolute magnetization    =    68.32 Bohr mag/cell

     iteration # 18     ecut=    40.00 Ry     beta= 0.70
     Davidson diagonalization with overlap
     ethr =  5.49E-06,  avg # of iterations =  3.9

     negative rho (up, down):  6.296E-03 5.156E-03

     total cpu time spent up to now is      354.2 secs

     total energy              =   -6056.49708912 Ry
     estimated scf accuracy    <       0.01069798 Ry

     total magnetization       =    60.71 Bohr mag/cell
     absolute magnetization    =    68.32 Bohr mag/cell

     iteration # 19     ecut=    40.00 Ry     beta= 0.70
     Davidson diagonalization with overlap
     c_bands:  1 eigenvalues not converged
     c_bands:  1 eigenvalues not converged
     c_bands:  2 eigenvalues not converged
     ethr =  3.19E-06,  avg # of iterations =  6.8

     negative rho (up, down):  8.232E-03 7.060E-03

     total cpu time spent up to now is      371.1 secs

     total energy              =   -6056.49698997 Ry
     estimated scf accuracy    <       0.01044369 Ry

     total magnetization       =    60.70 Bohr mag/cell
     absolute magnetization    =    68.30 Bohr mag/cell

     iteration # 20     ecut=    40.00 Ry     beta= 0.70
     Davidson diagonalization with overlap
     ethr =  3.12E-06,  avg # of iterations =  1.9

     negative rho (up, down):  8.454E-03 7.834E-03

     total cpu time spent up to now is      391.8 secs

     total energy              =   -6056.49667271 Ry
     estimated scf accuracy    <       0.00922573 Ry

     total magnetization       =    60.69 Bohr mag/cell
     absolute magnetization    =    68.28 Bohr mag/cell

     iteration # 21     ecut=    40.00 Ry     beta= 0.70
     Davidson diagonalization with overlap
     ethr =  2.75E-06,  avg # of iterations =  1.9

     negative rho (up, down):  5.182E-03 4.795E-03

     total cpu time spent up to now is      413.2 secs

     total energy              =   -6056.49678681 Ry
     estimated scf accuracy    <       0.00907203 Ry

     total magnetization       =    60.68 Bohr mag/cell
     absolute magnetization    =    68.25 Bohr mag/cell

     iteration # 22     ecut=    40.00 Ry     beta= 0.70
     Davidson diagonalization with overlap
     ethr =  2.71E-06,  avg # of iterations =  1.5

     negative rho (up, down):  5.338E-03 4.951E-03

     total cpu time spent up to now is      425.6 secs

     total energy              =   -6056.49717580 Ry
     estimated scf accuracy    <       0.00336177 Ry

     total magnetization       =    60.67 Bohr mag/cell
     absolute magnetization    =    68.24 Bohr mag/cell

     iteration # 23     ecut=    40.00 Ry     beta= 0.70
     Davidson diagonalization with overlap
     ethr =  1.00E-06,  avg # of iterations =  2.5

     negative rho (up, down):  3.370E-03 2.910E-03

     total cpu time spent up to now is      447.0 secs

     total energy              =   -6056.49731448 Ry
     estimated scf accuracy    <       0.00312262 Ry

     total magnetization       =    60.68 Bohr mag/cell
     absolute magnetization    =    68.25 Bohr mag/cell

     iteration # 24     ecut=    40.00 Ry     beta= 0.70
     Davidson diagonalization with overlap
     ethr =  9.32E-07,  avg # of iterations =  1.7

     negative rho (up, down):  3.580E-03 2.929E-03

     total cpu time spent up to now is      459.1 secs

     total energy              =   -6056.49705879 Ry
     estimated scf accuracy    <       0.00625758 Ry

     total magnetization       =    60.68 Bohr mag/cell
     absolute magnetization    =    68.25 Bohr mag/cell

     iteration # 25     ecut=    40.00 Ry     beta= 0.70
     Davidson diagonalization with overlap
     ethr =  9.32E-07,  avg # of iterations =  1.5

     negative rho (up, down):  4.393E-03 3.720E-03

     total cpu time spent up to now is      480.2 secs

     total energy              =   -6056.49717914 Ry
     estimated scf accuracy    <       0.00285386 Ry

     total magnetization       =    60.71 Bohr mag/cell
     absolute magnetization    =    68.27 Bohr mag/cell

     iteration # 26     ecut=    40.00 Ry     beta= 0.70
     Davidson diagonalization with overlap
     ethr =  8.52E-07,  avg # of iterations =  1.3

     negative rho (up, down):  3.300E-03 2.540E-03

     total cpu time spent up to now is      491.8 secs

     total energy              =   -6056.49726028 Ry
     estimated scf accuracy    <       0.00136959 Ry

     total magnetization       =    60.70 Bohr mag/cell
     absolute magnetization    =    68.26 Bohr mag/cell

     iteration # 27     ecut=    40.00 Ry     beta= 0.70
     Davidson diagonalization with overlap
     ethr =  4.09E-07,  avg # of iterations =  2.2

     negative rho (up, down):  4.084E-03 3.209E-03

     total cpu time spent up to now is      513.2 secs

     total energy              =   -6056.49742366 Ry
     estimated scf accuracy    <       0.00320517 Ry

     total magnetization       =    60.72 Bohr mag/cell
     absolute magnetization    =    68.27 Bohr mag/cell

     iteration # 28     ecut=    40.00 Ry     beta= 0.70
     Davidson diagonalization with overlap
     ethr =  4.09E-07,  avg # of iterations =  1.4

     negative rho (up, down):  2.284E-03 1.419E-03

     total cpu time spent up to now is      533.7 secs

     total energy              =   -6056.49745676 Ry
     estimated scf accuracy    <       0.00017763 Ry

     total magnetization       =    60.72 Bohr mag/cell
     absolute magnetization    =    68.27 Bohr mag/cell

     iteration # 29     ecut=    40.00 Ry     beta= 0.70
     Davidson diagonalization with overlap
     ethr =  5.30E-08,  avg # of iterations =  7.7

     negative rho (up, down):  2.370E-03 1.403E-03

     total cpu time spent up to now is      563.3 secs

     total energy              =   -6056.49753448 Ry
     estimated scf accuracy    <       0.00064721 Ry

     total magnetization       =    60.72 Bohr mag/cell
     absolute magnetization    =    68.27 Bohr mag/cell

     iteration # 30     ecut=    40.00 Ry     beta= 0.70
     Davidson diagonalization with overlap
     ethr =  5.30E-08,  avg # of iterations =  1.7

     negative rho (up, down):  2.336E-03 1.322E-03

     total cpu time spent up to now is      575.5 secs

     total energy              =   -6056.49757787 Ry
     estimated scf accuracy    <       0.00010153 Ry

     total magnetization       =    60.72 Bohr mag/cell
     absolute magnetization    =    68.27 Bohr mag/cell

     iteration # 31     ecut=    40.00 Ry     beta= 0.70
     Davidson diagonalization with overlap
     ethr =  3.03E-08,  avg # of iterations =  1.2

     negative rho (up, down):  2.547E-03 1.452E-03

     total cpu time spent up to now is      595.5 secs

     total energy              =   -6056.49761316 Ry
     estimated scf accuracy    <       0.00004891 Ry

     total magnetization       =    60.72 Bohr mag/cell
     absolute magnetization    =    68.27 Bohr mag/cell

     iteration # 32     ecut=    40.00 Ry     beta= 0.70
     Davidson diagonalization with overlap
     ethr =  1.46E-08,  avg # of iterations =  3.0

     negative rho (up, down):  2.552E-03 1.444E-03

     total cpu time spent up to now is      609.7 secs

     total energy              =   -6056.49761653 Ry
     estimated scf accuracy    <       0.00001924 Ry

     total magnetization       =    60.72 Bohr mag/cell
     absolute magnetization    =    68.26 Bohr mag/cell

     iteration # 33     ecut=    40.00 Ry     beta= 0.70
     Davidson diagonalization with overlap
     ethr =  5.74E-09,  avg # of iterations =  3.5

     negative rho (up, down):  2.475E-03 1.361E-03

     total cpu time spent up to now is      632.2 secs

     total energy              =   -6056.49761771 Ry
     estimated scf accuracy    <       0.00001037 Ry

     total magnetization       =    60.72 Bohr mag/cell
     absolute magnetization    =    68.26 Bohr mag/cell

     iteration # 34     ecut=    40.00 Ry     beta= 0.70
     Davidson diagonalization with overlap
     ethr =  3.09E-09,  avg # of iterations =  3.1

     negative rho (up, down):  2.403E-03 1.291E-03

     total cpu time spent up to now is      655.2 secs

     total energy              =   -6056.49761694 Ry
     estimated scf accuracy    <       0.00003281 Ry

     total magnetization       =    60.72 Bohr mag/cell
     absolute magnetization    =    68.26 Bohr mag/cell

     iteration # 35     ecut=    40.00 Ry     beta= 0.70
     Davidson diagonalization with overlap
     ethr =  3.09E-09,  avg # of iterations =  1.5

     negative rho (up, down):  2.465E-03 1.362E-03

     total cpu time spent up to now is      668.0 secs

     total energy              =   -6056.49762038 Ry
     estimated scf accuracy    <       0.00000616 Ry

     total magnetization       =    60.72 Bohr mag/cell
     absolute magnetization    =    68.26 Bohr mag/cell

     iteration # 36     ecut=    40.00 Ry     beta= 0.70
     Davidson diagonalization with overlap
     ethr =  1.84E-09,  avg # of iterations =  2.4

     negative rho (up, down):  2.446E-03 1.343E-03

     total cpu time spent up to now is      689.6 secs

     total energy              =   -6056.49762091 Ry
     estimated scf accuracy    <       0.00000130 Ry

     total magnetization       =    60.72 Bohr mag/cell
     absolute magnetization    =    68.26 Bohr mag/cell

     iteration # 37     ecut=    40.00 Ry     beta= 0.70
     Davidson diagonalization with overlap
     c_bands:  1 eigenvalues not converged
     ethr =  3.88E-10,  avg # of iterations =  8.5

     negative rho (up, down):  2.373E-03 1.275E-03

     total cpu time spent up to now is      718.6 secs

     total energy              =   -6056.49762139 Ry
     estimated scf accuracy    <       0.00000121 Ry

     total magnetization       =    60.72 Bohr mag/cell
     absolute magnetization    =    68.26 Bohr mag/cell

     iteration # 38     ecut=    40.00 Ry     beta= 0.70
     Davidson diagonalization with overlap
     ethr =  3.60E-10,  avg # of iterations =  2.9

     negative rho (up, down):  2.250E-03 1.157E-03

     Magnetic moment per site  (integrated on atomic sphere of radius R)
     atom   1 (R=0.094)  charge=  5.8190  magn=  1.6870
     atom   2 (R=0.094)  charge=  5.8200  magn=  1.6826
     atom   3 (R=0.094)  charge=  5.8194  magn=  1.6898
     atom   4 (R=0.094)  charge=  5.8204  magn=  1.6951
     atom   5 (R=0.094)  charge=  5.8197  magn=  1.6916
     atom   6 (R=0.094)  charge=  5.8206  magn=  1.6906
     atom   7 (R=0.094)  charge=  5.8191  magn=  1.6865
     atom   8 (R=0.094)  charge=  5.8193  magn=  1.6863
     atom   9 (R=0.094)  charge=  5.8208  magn=  1.6863
     atom  10 (R=0.094)  charge=  5.8162  magn=  1.6195
     atom  11 (R=0.094)  charge=  5.8177  magn=  1.6240
     atom  12 (R=0.094)  charge=  5.8173  magn=  1.6261
     atom  13 (R=0.094)  charge=  5.8172  magn=  1.6274
     atom  14 (R=0.094)  charge=  5.8177  magn=  1.6212
     atom  15 (R=0.094)  charge=  5.8176  magn=  1.6279
     atom  16 (R=0.094)  charge=  5.8174  magn=  1.6188
     atom  17 (R=0.094)  charge=  5.8174  magn=  1.6267
     atom  18 (R=0.094)  charge=  5.8176  magn=  1.6184
     atom  19 (R=0.094)  charge=  5.8157  magn=  1.6231
     atom  20 (R=0.094)  charge=  5.8167  magn=  1.6386
     atom  21 (R=0.094)  charge=  5.8161  magn=  1.6432
     atom  22 (R=0.094)  charge=  5.8166  magn=  1.6151
     atom  23 (R=0.094)  charge=  5.8169  magn=  1.5979
     atom  24 (R=0.094)  charge=  5.8178  magn=  1.6109
     atom  25 (R=0.094)  charge=  5.8164  magn=  1.5669
     atom  26 (R=0.094)  charge=  5.8142  magn=  1.6388
     atom  27 (R=0.094)  charge=  5.8172  magn=  1.6200
     atom  28 (R=0.094)  charge=  5.8307  magn=  1.2621
     atom  29 (R=0.094)  charge=  5.8365  magn=  1.2044
     atom  30 (R=0.094)  charge=  5.8194  magn=  1.5668
     atom  31 (R=0.094)  charge=  5.8247  magn=  1.6619
     atom  32 (R=0.094)  charge=  5.8217  magn=  1.6171
     atom  33 (R=0.094)  charge=  5.8185  magn=  1.7252
     atom  34 (R=0.094)  charge=  5.8158  magn=  1.7132
     atom  35 (R=0.094)  charge=  5.8205  magn=  1.7027
     atom  36 (R=0.094)  charge=  5.8185  magn=  1.7244
     atom  37 (R=0.065)  charge=  1.0381  magn= -0.0201
     atom  38 (R=0.065)  charge=  2.9084  magn= -0.0436
     atom  39 (R=0.094)  charge=  0.9171  magn= -0.0166

     total cpu time spent up to now is      732.5 secs

     End of self-consistent calculation

 ------ SPIN UP ------------


          k = 0.0000 0.0000 0.0000 ( 36693 PWs)   bands (ev):

   -22.0359  -9.1377  -7.6809  -6.5880  -5.8415  -5.7204  -5.3794  -5.2302
    -4.8406  -4.8318  -4.8298  -4.8147  -4.7990  -4.7926  -4.6426  -4.3874
    -4.2986  -4.2950  -4.2748  -4.2579  -4.2322  -4.0987  -3.7793  -3.7744
    -3.7660  -3.7498  -3.7273  -3.6955  -3.6413  -3.6393  -3.6334  -3.6276
    -3.6064  -3.5644  -3.5607  -3.4995  -3.2566  -3.2514  -3.2497  -3.2466
    -3.1915  -3.1861  -3.1830  -3.1819  -3.1769  -3.1698  -3.1472  -3.1008
    -3.0222  -3.0210  -2.9539  -2.9475  -2.9434  -2.9389  -2.9117  -2.9104
    -2.9097  -2.9053  -2.8829  -2.8610  -2.8115  -2.8085  -2.8018  -2.7957
    -2.7417  -2.6246  -2.3125  -2.2770  -2.2751  -2.2738  -2.2693  -2.1614
    -2.1482  -2.1327  -2.1246  -2.1217  -2.1078  -2.1035  -2.0850  -2.0821
    -2.0654  -2.0445  -2.0383  -2.0149  -1.9913  -1.9841  -1.9706  -1.9620
    -1.9560  -1.9522  -1.9440  -1.9360  -1.9264  -1.9188  -1.9125  -1.9005
    -1.8998  -1.8964  -1.8943  -1.8935  -1.8900  -1.8879  -1.8849  -1.8739
    -1.8727  -1.8514  -1.8383  -1.8267  -1.8232  -1.7415  -1.7398  -1.6190
    -1.5768  -1.4507  -1.4489  -1.4442  -1.4430  -1.4335  -1.4147  -1.4036
    -1.4014  -1.3994  -1.3873  -1.3632  -1.3593  -1.2268  -1.2242  -1.2072
    -1.2008  -1.1198  -1.0839  -1.0574  -1.0444  -1.0320  -1.0016  -0.9784
    -0.9646  -0.9562  -0.9458  -0.9369  -0.9155  -0.8805  -0.8449  -0.8251
    -0.7748  -0.7029  -0.7020  -0.7008  -0.6878  -0.6540  -0.6449  -0.6396
    -0.6382  -0.6324  -0.6303  -0.6250  -0.6232  -0.6167  -0.6143  -0.6077
    -0.6002  -0.5941  -0.5769  -0.5746  -0.5670  -0.5583  -0.5449  -0.5395
    -0.5353  -0.5334  -0.5181  -0.5134  -0.5061  -0.5003  -0.4913  -0.4872
    -0.4831  -0.4787  -0.4661  -0.4493  -0.4277  -0.4060  -0.4054  -0.3999
    -0.3928  -0.3905  -0.3820  -0.3782  -0.3709  -0.3314  -0.3132  -0.3088
    -0.3030  -0.3024  -0.2457  -0.2417  -0.2375  -0.2286  -0.2225  -0.1996
     0.5185   0.6795

          k = 0.0000 0.2309 0.0000 ( 36641 PWs)   bands (ev):

   -22.0359  -9.1277  -7.5400  -6.4963  -5.8556  -5.7385  -5.5418  -5.3601
    -5.2201  -5.0516  -5.0249  -4.6581  -4.5040  -4.4845  -4.4693  -4.4165
    -4.3272  -4.2984  -4.2395  -4.1666  -4.1557  -4.0906  -3.8827  -3.7812
    -3.7722  -3.7038  -3.6606  -3.6469  -3.6433  -3.6284  -3.6226  -3.6096
    -3.5875  -3.5313  -3.5192  -3.5028  -3.4933  -3.4534  -3.2721  -3.2670
    -3.2519  -3.2136  -3.2119  -3.1957  -3.1694  -3.1005  -3.0765  -3.0585
    -3.0456  -3.0421  -3.0208  -2.9906  -2.9566  -2.9048  -2.8966  -2.8719
    -2.8400  -2.8341  -2.7980  -2.7935  -2.7759  -2.7412  -2.7261  -2.7150
    -2.6942  -2.6148  -2.3921  -2.3853  -2.3629  -2.3402  -2.3320  -2.2417
    -2.2358  -2.2223  -2.2184  -2.2070  -2.2002  -2.1893  -2.1600  -2.1093
    -2.0961  -2.0854  -2.0697  -2.0483  -2.0332  -2.0221  -2.0204  -2.0050
    -1.9918  -1.9874  -1.9823  -1.9775  -1.9752  -1.9688  -1.9645  -1.8908
    -1.8770  -1.8654  -1.8100  -1.8075  -1.7972  -1.7874  -1.7795  -1.7748
    -1.7688  -1.7576  -1.7501  -1.7462  -1.7387  -1.7168  -1.7066  -1.6869
    -1.6808  -1.6767  -1.6246  -1.5820  -1.5750  -1.4818  -1.4709  -1.4684
    -1.4633  -1.4415  -1.4356  -1.4281  -1.4122  -1.4080  -1.3624  -1.2798
    -1.2508  -1.2038  -1.1868  -1.1590  -1.1541  -1.0981  -1.0833  -1.0791
    -1.0567  -0.9839  -0.9708  -0.9555  -0.9499  -0.9295  -0.9029  -0.8890
    -0.8793  -0.8598  -0.8514  -0.8372  -0.8071  -0.7910  -0.7864  -0.7806
    -0.7349  -0.7030  -0.6998  -0.6944  -0.6880  -0.6529  -0.6405  -0.6281
    -0.6256  -0.6196  -0.6111  -0.6005  -0.5956  -0.5791  -0.5706  -0.5541
    -0.5162  -0.5041  -0.4932  -0.4714  -0.4448  -0.4346  -0.4050  -0.3803
    -0.3767  -0.3651  -0.3597  -0.3476  -0.3286  -0.3204  -0.3160  -0.2843
    -0.2523  -0.2465  -0.2268  -0.2089  -0.2017  -0.1903  -0.1807  -0.1652
    -0.1120  -0.0515   0.1211   0.1443   0.2165   0.2692   0.3827   0.4104
     0.4574   0.7147

          k = 0.0000 0.4619 0.0000 ( 36606 PWs)   bands (ev):

   -22.0358  -9.1121  -7.1251  -6.5024  -6.2140  -5.8269  -5.6420  -5.3782
    -5.2697  -5.1534  -5.1348  -4.9257  -4.3301  -4.3107  -4.2991  -4.2465
    -4.2131  -4.1243  -4.1209  -4.0527  -3.9880  -3.9812  -3.9760  -3.8236
    -3.8044  -3.8021  -3.7941  -3.7905  -3.7303  -3.6881  -3.6866  -3.5616
    -3.5183  -3.5109  -3.4880  -3.4771  -3.4734  -3.4572  -3.3639  -3.3570
    -3.3430  -3.3379  -3.2632  -3.1889  -3.1327  -3.0910  -3.0458  -3.0291
    -2.9965  -2.9740  -2.9576  -2.9420  -2.9353  -2.9236  -2.9128  -2.8579
    -2.8488  -2.8239  -2.7995  -2.7754  -2.6526  -2.6453  -2.6335  -2.6115
    -2.5583  -2.5292  -2.5059  -2.4938  -2.4867  -2.4119  -2.3610  -2.3589
    -2.3548  -2.3474  -2.3372  -2.3162  -2.3125  -2.2890  -2.2733  -2.2552
    -2.2300  -2.1996  -2.1790  -2.1472  -2.1362  -2.0876  -2.0657  -2.0422
    -2.0251  -2.0097  -1.9982  -1.9860  -1.9657  -1.9298  -1.9228  -1.9123
    -1.9028  -1.8925  -1.8739  -1.8502  -1.8439  -1.8369  -1.8322  -1.8157
    -1.7934  -1.7596  -1.7575  -1.7252  -1.6609  -1.6459  -1.6325  -1.6198
    -1.6055  -1.5673  -1.5394  -1.5196  -1.5161  -1.4903  -1.4892  -1.4830
    -1.4767  -1.4706  -1.4613  -1.4521  -1.4414  -1.4318  -1.4245  -1.4183
    -1.4105  -1.3509  -1.2952  -1.2855  -1.2652  -1.2519  -1.2255  -1.2189
    -1.1867  -1.1310  -1.1202  -1.1105  -1.0644  -1.0444  -1.0165  -0.9835
    -0.9665  -0.9554  -0.9253  -0.9104  -0.8989  -0.8823  -0.8600  -0.7757
    -0.7617  -0.7269  -0.7195  -0.7028  -0.6983  -0.6901  -0.6844  -0.6747
    -0.6687  -0.6395  -0.5638  -0.5500  -0.5398  -0.5293  -0.5227  -0.5174
    -0.5070  -0.4898  -0.4703  -0.4634  -0.4542  -0.4284  -0.3699  -0.3540
    -0.3487  -0.3314  -0.3173  -0.2561  -0.2493  -0.2235  -0.2154  -0.1717
    -0.1523  -0.1355  -0.1299  -0.1193  -0.1059  -0.0989  -0.0978  -0.0652
    -0.0041   0.0088   0.4789   0.5784   0.8663   1.1085   1.1306   1.3342
     1.4182   1.4877

          k = 0.2000-0.1155 0.0000 ( 36641 PWs)   bands (ev):

   -22.0359  -9.1254  -7.5420  -6.4994  -5.9149  -5.7085  -5.5166  -5.3614
    -5.1921  -5.0694  -5.0281  -4.6084  -4.5341  -4.4847  -4.4742  -4.4151
    -4.3513  -4.2952  -4.2187  -4.1975  -4.1492  -4.0617  -3.8932  -3.7795
    -3.7678  -3.6964  -3.6680  -3.6487  -3.6429  -3.6379  -3.6222  -3.6049
    -3.5819  -3.5454  -3.5192  -3.5011  -3.4931  -3.4528  -3.2792  -3.2693
    -3.2599  -3.2159  -3.2113  -3.1924  -3.1676  -3.1055  -3.0749  -3.0606
    -3.0442  -3.0390  -3.0297  -2.9884  -2.9469  -2.9052  -2.8960  -2.8757
    -2.8371  -2.8280  -2.7974  -2.7934  -2.7708  -2.7370  -2.7277  -2.7231
    -2.6789  -2.6215  -2.3953  -2.3833  -2.3556  -2.3398  -2.3323  -2.2422
    -2.2393  -2.2257  -2.2207  -2.2073  -2.1960  -2.1800  -2.1543  -2.1078
    -2.1012  -2.0850  -2.0690  -2.0513  -2.0377  -2.0214  -2.0151  -2.0068
    -1.9947  -1.9902  -1.9875  -1.9828  -1.9757  -1.9698  -1.9395  -1.8950
    -1.8717  -1.8603  -1.8124  -1.8092  -1.7963  -1.7882  -1.7836  -1.7745
    -1.7722  -1.7654  -1.7603  -1.7450  -1.7439  -1.7197  -1.7064  -1.6889
    -1.6784  -1.6672  -1.6363  -1.5927  -1.5759  -1.4967  -1.4678  -1.4662
    -1.4533  -1.4446  -1.4345  -1.4308  -1.4250  -1.3968  -1.3126  -1.2831
    -1.2490  -1.2029  -1.1897  -1.1592  -1.1431  -1.1199  -1.0903  -1.0815
    -1.0287  -1.0066  -0.9888  -0.9584  -0.9464  -0.9318  -0.9060  -0.8967
    -0.8739  -0.8605  -0.8428  -0.8249  -0.8143  -0.7979  -0.7895  -0.7792
    -0.7161  -0.7131  -0.6994  -0.6962  -0.6789  -0.6491  -0.6371  -0.6308
    -0.6281  -0.6180  -0.6134  -0.6023  -0.5973  -0.5735  -0.5696  -0.5495
    -0.5085  -0.4963  -0.4879  -0.4674  -0.4458  -0.4390  -0.4031  -0.3806
    -0.3779  -0.3704  -0.3570  -0.3514  -0.3291  -0.3206  -0.3155  -0.2816
    -0.2553  -0.2418  -0.2269  -0.2065  -0.2028  -0.1868  -0.1770  -0.1619
    -0.1135  -0.0472   0.1035   0.1457   0.1736   0.2585   0.3752   0.4130
     0.4418   0.8060

          k = 0.2000 0.1155 0.0000 ( 36641 PWs)   bands (ev):

   -22.0359  -9.1250  -7.5427  -6.5015  -5.9277  -5.6951  -5.5059  -5.3723
    -5.1828  -5.0585  -5.0504  -4.6018  -4.5191  -4.4840  -4.4783  -4.4127
    -4.3483  -4.3127  -4.2254  -4.1887  -4.1545  -4.0593  -3.8897  -3.7835
    -3.7660  -3.6881  -3.6647  -3.6487  -3.6436  -3.6406  -3.6317  -3.6061
    -3.5705  -3.5477  -3.5217  -3.4995  -3.4953  -3.4547  -3.2820  -3.2664
    -3.2615  -3.2146  -3.2126  -3.1943  -3.1627  -3.1048  -3.0787  -3.0578
    -3.0439  -3.0408  -3.0327  -2.9930  -2.9440  -2.9036  -2.8940  -2.8765
    -2.8405  -2.8212  -2.7976  -2.7937  -2.7764  -2.7332  -2.7291  -2.7224
    -2.6743  -2.6253  -2.3913  -2.3849  -2.3533  -2.3413  -2.3321  -2.2422
    -2.2363  -2.2277  -2.2202  -2.2145  -2.1946  -2.1807  -2.1459  -2.1055
    -2.0990  -2.0866  -2.0673  -2.0503  -2.0368  -2.0258  -2.0200  -2.0056
    -1.9952  -1.9892  -1.9876  -1.9835  -1.9789  -1.9714  -1.9358  -1.9032
    -1.8699  -1.8577  -1.8132  -1.8069  -1.7999  -1.7916  -1.7815  -1.7768
    -1.7722  -1.7641  -1.7574  -1.7453  -1.7438  -1.7320  -1.7005  -1.6904
    -1.6764  -1.6701  -1.6365  -1.5933  -1.5808  -1.4975  -1.4729  -1.4676
    -1.4562  -1.4404  -1.4343  -1.4317  -1.4241  -1.3865  -1.3067  -1.2803
    -1.2499  -1.2079  -1.1858  -1.1623  -1.1402  -1.1249  -1.0870  -1.0775
    -1.0367  -1.0010  -0.9823  -0.9629  -0.9474  -0.9333  -0.9086  -0.8963
    -0.8713  -0.8603  -0.8445  -0.8300  -0.8147  -0.7964  -0.7890  -0.7785
    -0.7192  -0.7062  -0.6995  -0.6973  -0.6883  -0.6505  -0.6427  -0.6327
    -0.6255  -0.6165  -0.6145  -0.5991  -0.5892  -0.5753  -0.5705  -0.5527
    -0.5110  -0.4911  -0.4831  -0.4714  -0.4497  -0.4362  -0.4040  -0.3806
    -0.3780  -0.3724  -0.3557  -0.3513  -0.3287  -0.3194  -0.3171  -0.2825
    -0.2509  -0.2429  -0.2265  -0.2070  -0.2032  -0.1878  -0.1633  -0.1615
    -0.1097  -0.0631   0.1155   0.1445   0.1713   0.2573   0.3807   0.4067
     0.4522   0.7573

          k = 0.2000 0.3464 0.0000 ( 36608 PWs)   bands (ev):

   -22.0358  -9.1122  -7.2654  -6.3729  -6.0497  -5.9369  -5.7097  -5.5356
    -5.3521  -5.1652  -4.7431  -4.6672  -4.4953  -4.4780  -4.3348  -4.2682
    -4.2645  -4.1675  -4.1563  -4.0688  -4.0314  -4.0092  -3.8907  -3.8797
    -3.8197  -3.7762  -3.6830  -3.6712  -3.6458  -3.6369  -3.6295  -3.6051
    -3.5873  -3.5759  -3.5387  -3.5129  -3.4778  -3.4413  -3.4246  -3.4084
    -3.2842  -3.2313  -3.2090  -3.1942  -3.1618  -3.1386  -3.0807  -3.0486
    -3.0037  -2.9836  -2.9693  -2.9525  -2.9406  -2.9086  -2.8974  -2.8843
    -2.8693  -2.8579  -2.7450  -2.7219  -2.6837  -2.6696  -2.6497  -2.6263
    -2.6043  -2.5803  -2.4957  -2.4275  -2.4155  -2.3833  -2.3746  -2.3400
    -2.3285  -2.3162  -2.3077  -2.2835  -2.2774  -2.2603  -2.2521  -2.2457
    -2.2298  -2.1747  -2.1504  -2.1225  -2.0611  -2.0594  -2.0357  -2.0319
    -2.0189  -1.9885  -1.9652  -1.9554  -1.9450  -1.9252  -1.9046  -1.8993
    -1.8945  -1.8846  -1.8783  -1.8681  -1.8489  -1.8382  -1.8291  -1.8147
    -1.8006  -1.7935  -1.7644  -1.7181  -1.7094  -1.6767  -1.6684  -1.6629
    -1.6534  -1.6448  -1.6110  -1.5765  -1.5627  -1.5462  -1.5318  -1.4985
    -1.4963  -1.4845  -1.4775  -1.4559  -1.4463  -1.4262  -1.4180  -1.3676
    -1.3581  -1.3227  -1.3048  -1.2491  -1.2107  -1.1835  -1.1618  -1.0993
    -1.0774  -1.0588  -1.0482  -1.0371  -1.0280  -1.0245  -0.9954  -0.9796
    -0.9673  -0.9504  -0.9372  -0.8999  -0.8908  -0.8652  -0.8543  -0.8340
    -0.8203  -0.7998  -0.7806  -0.7683  -0.7652  -0.7398  -0.6312  -0.6058
    -0.5924  -0.5804  -0.5616  -0.5563  -0.5372  -0.5307  -0.5125  -0.5066
    -0.4926  -0.4643  -0.4382  -0.4243  -0.4049  -0.3959  -0.3575  -0.3350
    -0.3245  -0.3228  -0.3166  -0.2960  -0.2894  -0.2837  -0.2703  -0.2613
    -0.2445  -0.1703  -0.1598  -0.1522  -0.1134  -0.1041  -0.0947   0.0510
     0.1284   0.2417   0.2508   0.4290   0.5130   0.6311   1.0331   1.1099
     1.2176   1.3782

          k = 0.2000-0.5774 0.0000 ( 36660 PWs)   bands (ev):

   -22.0359  -9.1050  -6.7720  -6.6936  -6.2121  -6.0572  -5.7336  -5.5650
    -5.2877  -5.2139  -4.9629  -4.7081  -4.4743  -4.2331  -4.1825  -4.0866
    -4.0530  -4.0443  -4.0179  -4.0148  -3.9627  -3.9497  -3.9424  -3.9397
    -3.9163  -3.8523  -3.7916  -3.7860  -3.7619  -3.7569  -3.7199  -3.6227
    -3.6071  -3.6016  -3.5712  -3.5361  -3.4638  -3.4487  -3.3951  -3.3091
    -3.3033  -3.2443  -3.2250  -3.1949  -3.1758  -3.1146  -3.0913  -3.0732
    -3.0326  -3.0206  -2.9864  -2.9280  -2.9071  -2.8701  -2.8601  -2.8223
    -2.8089  -2.7336  -2.7267  -2.7095  -2.7059  -2.6924  -2.6675  -2.6353
    -2.5716  -2.5152  -2.5025  -2.4922  -2.4629  -2.4337  -2.4081  -2.3644
    -2.3576  -2.3254  -2.3122  -2.3095  -2.3039  -2.2831  -2.2564  -2.2509
    -2.2368  -2.2227  -2.2089  -2.1814  -2.1755  -2.1444  -2.0972  -2.0812
    -2.0619  -2.0215  -2.0124  -1.9917  -1.9656  -1.9370  -1.9252  -1.9133
    -1.8995  -1.8920  -1.8866  -1.8714  -1.8646  -1.8368  -1.8336  -1.7954
    -1.7633  -1.7435  -1.7355  -1.7229  -1.7090  -1.7030  -1.6959  -1.6875
    -1.6772  -1.6650  -1.6537  -1.6273  -1.5940  -1.5761  -1.5633  -1.5423
    -1.4896  -1.4756  -1.4534  -1.4351  -1.4253  -1.4073  -1.3933  -1.3881
    -1.3414  -1.3257  -1.3186  -1.2656  -1.2111  -1.1833  -1.1737  -1.1674
    -1.1399  -1.1334  -1.1190  -1.0818  -1.0753  -1.0596  -1.0390  -1.0298
    -0.9811  -0.9675  -0.9541  -0.9415  -0.9251  -0.8838  -0.8704  -0.8534
    -0.8464  -0.8362  -0.8237  -0.7999  -0.7834  -0.7546  -0.7386  -0.5971
    -0.5777  -0.5635  -0.5500  -0.5403  -0.5279  -0.5237  -0.5127  -0.4830
    -0.4706  -0.4578  -0.4529  -0.4364  -0.3946  -0.3347  -0.3288  -0.3230
    -0.3138  -0.2919  -0.2835  -0.2702  -0.2280  -0.2268  -0.2163  -0.2102
    -0.2069  -0.1413  -0.1249  -0.1225  -0.1078  -0.0989  -0.0772  -0.0531
     0.1055   0.2582   0.4860   0.8686   1.0708   1.1791   1.2958   1.4940
     1.6640   1.7094

          k = 0.2000-0.3464 0.0000 ( 36608 PWs)   bands (ev):

   -22.0358  -9.1129  -7.2631  -6.3709  -6.0352  -5.9440  -5.7084  -5.5593
    -5.3488  -5.1513  -4.7333  -4.6977  -4.4878  -4.4797  -4.3319  -4.2696
    -4.2634  -4.1664  -4.1614  -4.0680  -4.0253  -4.0095  -3.8964  -3.8772
    -3.8187  -3.7777  -3.6826  -3.6715  -3.6564  -3.6379  -3.6235  -3.5964
    -3.5881  -3.5791  -3.5378  -3.5145  -3.4808  -3.4410  -3.4249  -3.4069
    -3.2834  -3.2334  -3.2097  -3.1902  -3.1660  -3.1345  -3.0731  -3.0479
    -3.0034  -2.9803  -2.9622  -2.9596  -2.9427  -2.9134  -2.8915  -2.8839
    -2.8700  -2.8632  -2.7506  -2.7192  -2.6867  -2.6717  -2.6444  -2.6230
    -2.6116  -2.5742  -2.4960  -2.4275  -2.4076  -2.3838  -2.3748  -2.3416
    -2.3324  -2.3147  -2.3092  -2.2866  -2.2760  -2.2587  -2.2464  -2.2447
    -2.2294  -2.1830  -2.1521  -2.1220  -2.0645  -2.0583  -2.0333  -2.0273
    -2.0168  -1.9903  -1.9664  -1.9544  -1.9433  -1.9227  -1.9081  -1.8967
    -1.8941  -1.8862  -1.8792  -1.8640  -1.8475  -1.8426  -1.8252  -1.8106
    -1.8032  -1.7956  -1.7685  -1.7172  -1.7123  -1.6777  -1.6689  -1.6613
    -1.6565  -1.6444  -1.6063  -1.5817  -1.5628  -1.5351  -1.5274  -1.5039
    -1.4957  -1.4866  -1.4817  -1.4509  -1.4398  -1.4281  -1.4186  -1.3690
    -1.3594  -1.3227  -1.3046  -1.2535  -1.2069  -1.1813  -1.1558  -1.1015
    -1.0762  -1.0547  -1.0456  -1.0410  -1.0363  -1.0243  -0.9957  -0.9796
    -0.9652  -0.9504  -0.9408  -0.9024  -0.8884  -0.8648  -0.8545  -0.8307
    -0.8133  -0.8105  -0.7794  -0.7681  -0.7640  -0.7402  -0.6288  -0.6128
    -0.5939  -0.5742  -0.5582  -0.5508  -0.5458  -0.5245  -0.5183  -0.5028
    -0.4952  -0.4699  -0.4328  -0.4260  -0.4042  -0.3967  -0.3572  -0.3340
    -0.3260  -0.3203  -0.3181  -0.2941  -0.2918  -0.2817  -0.2703  -0.2588
    -0.2464  -0.1689  -0.1601  -0.1553  -0.1111  -0.1051  -0.1028   0.0542
     0.1196   0.2422   0.2493   0.4457   0.5209   0.6228   1.0300   1.1066
     1.2216   1.3479

          k = 0.4000-0.2309 0.0000 ( 36606 PWs)   bands (ev):

   -22.0358  -9.1059  -7.1348  -6.5122  -6.2283  -5.9127  -5.5418  -5.3827
    -5.2114  -5.1706  -5.1260  -4.9402  -4.3588  -4.3163  -4.2863  -4.2404
    -4.2035  -4.1262  -4.1223  -4.0225  -3.9929  -3.9807  -3.9506  -3.8286
    -3.8048  -3.7973  -3.7951  -3.7924  -3.7134  -3.6931  -3.6811  -3.6327
    -3.5213  -3.5107  -3.4961  -3.4761  -3.4736  -3.4359  -3.3649  -3.3574
    -3.3459  -3.3369  -3.2995  -3.2071  -3.1275  -3.0991  -3.0354  -3.0229
    -2.9950  -2.9795  -2.9586  -2.9431  -2.9330  -2.9270  -2.9066  -2.8614
    -2.8471  -2.8238  -2.7878  -2.7632  -2.6540  -2.6417  -2.6170  -2.6021
    -2.5668  -2.5263  -2.5134  -2.4925  -2.4850  -2.4157  -2.3619  -2.3574
    -2.3535  -2.3437  -2.3366  -2.3181  -2.3051  -2.2924  -2.2673  -2.2433
    -2.2306  -2.1985  -2.1803  -2.1540  -2.1308  -2.1004  -2.0577  -2.0470
    -2.0254  -2.0154  -2.0012  -1.9790  -1.9676  -1.9259  -1.9198  -1.9071
    -1.9005  -1.8936  -1.8730  -1.8629  -1.8457  -1.8414  -1.8328  -1.8086
    -1.7979  -1.7685  -1.7475  -1.7270  -1.6590  -1.6542  -1.6255  -1.6159
    -1.6027  -1.5727  -1.5499  -1.5173  -1.5061  -1.4979  -1.4917  -1.4823
    -1.4772  -1.4675  -1.4599  -1.4578  -1.4484  -1.4325  -1.4176  -1.4068
    -1.3739  -1.3694  -1.3108  -1.2822  -1.2613  -1.2490  -1.2332  -1.2066
    -1.1901  -1.1418  -1.1148  -1.1080  -1.0840  -1.0564  -1.0231  -0.9995
    -0.9788  -0.9567  -0.9297  -0.9220  -0.8929  -0.8741  -0.8440  -0.7936
    -0.7397  -0.7251  -0.7131  -0.6990  -0.6957  -0.6889  -0.6822  -0.6708
    -0.6585  -0.6436  -0.5595  -0.5504  -0.5375  -0.5334  -0.5196  -0.5084
    -0.4967  -0.4837  -0.4678  -0.4630  -0.4555  -0.4333  -0.3646  -0.3473
    -0.3455  -0.3394  -0.3113  -0.2569  -0.2504  -0.2202  -0.2138  -0.1730
    -0.1522  -0.1337  -0.1293  -0.1079  -0.1032  -0.1008  -0.0946  -0.0645
    -0.0056   0.0082   0.3914   0.6162   0.9173   1.0816   1.1222   1.2388
     1.4362   1.4977

          k = 0.4000 0.0000 0.0000 ( 36608 PWs)   bands (ev):

   -22.0358  -9.1084  -7.2709  -6.3737  -6.1017  -5.9278  -5.7052  -5.4908
    -5.3697  -5.1342  -4.7833  -4.6160  -4.4972  -4.4897  -4.3361  -4.2702
    -4.2605  -4.1650  -4.1552  -4.0936  -4.0410  -3.9550  -3.8955  -3.8778
    -3.8190  -3.7801  -3.6867  -3.6808  -3.6475  -3.6383  -3.6292  -3.6011
    -3.5852  -3.5742  -3.5572  -3.5180  -3.4767  -3.4469  -3.4330  -3.3984
    -3.3026  -3.2352  -3.2105  -3.1892  -3.1568  -3.1466  -3.0684  -3.0374
    -3.0161  -2.9765  -2.9667  -2.9610  -2.9390  -2.9073  -2.8964  -2.8834
    -2.8729  -2.8626  -2.7626  -2.6941  -2.6878  -2.6682  -2.6363  -2.6206
    -2.6123  -2.5766  -2.4961  -2.4279  -2.4052  -2.3829  -2.3762  -2.3383
    -2.3357  -2.3176  -2.3104  -2.2903  -2.2710  -2.2632  -2.2539  -2.2449
    -2.2132  -2.1781  -2.1590  -2.1117  -2.0632  -2.0590  -2.0419  -2.0258
    -2.0103  -2.0001  -1.9754  -1.9486  -1.9449  -1.9238  -1.9001  -1.8959
    -1.8945  -1.8872  -1.8825  -1.8699  -1.8541  -1.8374  -1.8215  -1.8145
    -1.8028  -1.7809  -1.7375  -1.7187  -1.7104  -1.6906  -1.6671  -1.6594
    -1.6511  -1.6386  -1.6231  -1.5780  -1.5601  -1.5431  -1.5280  -1.5200
    -1.4990  -1.4882  -1.4801  -1.4698  -1.4488  -1.4305  -1.4193  -1.3625
    -1.3515  -1.3260  -1.3123  -1.2407  -1.2123  -1.1917  -1.1723  -1.0874
    -1.0772  -1.0568  -1.0522  -1.0340  -1.0318  -1.0209  -0.9966  -0.9861
    -0.9762  -0.9479  -0.9321  -0.8925  -0.8792  -0.8651  -0.8603  -0.8440
    -0.8118  -0.7986  -0.7875  -0.7691  -0.7624  -0.7403  -0.6221  -0.6024
    -0.5860  -0.5706  -0.5603  -0.5542  -0.5490  -0.5224  -0.5158  -0.5096
    -0.4924  -0.4725  -0.4409  -0.4263  -0.4072  -0.3926  -0.3533  -0.3342
    -0.3265  -0.3236  -0.3147  -0.2947  -0.2891  -0.2783  -0.2750  -0.2593
    -0.2445  -0.1685  -0.1617  -0.1535  -0.1163  -0.1083  -0.0839   0.0456
     0.1991   0.2355   0.2806   0.3358   0.5426   0.6202   0.9363   1.1196
     1.2063   1.4765

          k = 0.4000 0.2309 0.0000 ( 36606 PWs)   bands (ev):

   -22.0358  -9.1049  -7.1386  -6.5191  -6.2302  -5.9211  -5.4923  -5.3915
    -5.2423  -5.1620  -5.1239  -4.9344  -4.3562  -4.3171  -4.3019  -4.2357
    -4.1998  -4.1261  -4.1238  -4.0125  -3.9891  -3.9814  -3.9419  -3.8325
    -3.8049  -3.7999  -3.7931  -3.7920  -3.7075  -3.6909  -3.6817  -3.6418
    -3.5243  -3.5184  -3.5000  -3.4773  -3.4752  -3.4289  -3.3641  -3.3555
    -3.3413  -3.3318  -3.3043  -3.2099  -3.1298  -3.0941  -3.0383  -3.0236
    -3.0016  -2.9726  -2.9586  -2.9500  -2.9351  -2.9219  -2.8965  -2.8616
    -2.8499  -2.8241  -2.7929  -2.7572  -2.6481  -2.6448  -2.6210  -2.6102
    -2.5660  -2.5259  -2.5075  -2.4976  -2.4865  -2.4148  -2.3610  -2.3582
    -2.3520  -2.3456  -2.3367  -2.3167  -2.3049  -2.2925  -2.2693  -2.2349
    -2.2314  -2.1992  -2.1808  -2.1553  -2.1333  -2.0935  -2.0569  -2.0447
    -2.0275  -2.0187  -2.0009  -1.9885  -1.9689  -1.9277  -1.9211  -1.9119
    -1.9027  -1.8933  -1.8720  -1.8636  -1.8459  -1.8390  -1.8338  -1.8065
    -1.7949  -1.7769  -1.7455  -1.7278  -1.6619  -1.6544  -1.6276  -1.6171
    -1.6013  -1.5737  -1.5463  -1.5161  -1.5085  -1.5012  -1.4924  -1.4864
    -1.4790  -1.4679  -1.4620  -1.4553  -1.4481  -1.4306  -1.4138  -1.3969
    -1.3828  -1.3684  -1.3134  -1.2813  -1.2614  -1.2409  -1.2264  -1.2081
    -1.1949  -1.1415  -1.1178  -1.1060  -1.0830  -1.0603  -1.0248  -0.9935
    -0.9777  -0.9585  -0.9242  -0.9201  -0.8918  -0.8738  -0.8445  -0.8125
    -0.7374  -0.7207  -0.7065  -0.7000  -0.6955  -0.6881  -0.6814  -0.6711
    -0.6634  -0.6525  -0.5599  -0.5470  -0.5415  -0.5289  -0.5223  -0.5070
    -0.4972  -0.4828  -0.4772  -0.4617  -0.4456  -0.4351  -0.3654  -0.3491
    -0.3457  -0.3386  -0.3120  -0.2559  -0.2505  -0.2181  -0.2142  -0.1731
    -0.1587  -0.1314  -0.1285  -0.1085  -0.1052  -0.0965  -0.0879  -0.0693
    -0.0037   0.0111   0.4053   0.6389   0.8843   1.0500   1.1266   1.2073
     1.4594   1.5264

          k = 0.4000-0.6928 0.0000 ( 36660 PWs)   bands (ev):

   -22.0359  -9.1006  -6.8084  -6.6805  -6.2183  -5.9844  -5.9092  -5.4195
    -5.2286  -5.2224  -5.0334  -4.7064  -4.4767  -4.2318  -4.1763  -4.0567
    -4.0517  -4.0304  -4.0174  -4.0008  -3.9692  -3.9479  -3.9432  -3.9389
    -3.9229  -3.8233  -3.7950  -3.7893  -3.7695  -3.7553  -3.7487  -3.6200
    -3.6056  -3.6019  -3.5837  -3.5579  -3.5000  -3.4395  -3.3576  -3.3074
    -3.3040  -3.2937  -3.2081  -3.1933  -3.1707  -3.1246  -3.0896  -3.0849
    -3.0406  -3.0107  -2.9818  -2.9268  -2.9075  -2.8709  -2.8598  -2.8141
    -2.8010  -2.7351  -2.7243  -2.7190  -2.7065  -2.6966  -2.6478  -2.6347
    -2.5703  -2.5093  -2.5020  -2.4879  -2.4770  -2.4366  -2.4131  -2.3644
    -2.3489  -2.3255  -2.3179  -2.3106  -2.2932  -2.2696  -2.2579  -2.2480
    -2.2318  -2.2172  -2.1985  -2.1830  -2.1754  -2.1312  -2.1139  -2.0952
    -2.0780  -2.0428  -2.0171  -1.9788  -1.9581  -1.9362  -1.9257  -1.9143
    -1.9013  -1.8941  -1.8857  -1.8723  -1.8566  -1.8441  -1.8382  -1.7698
    -1.7592  -1.7420  -1.7351  -1.7250  -1.7070  -1.6996  -1.6957  -1.6889
    -1.6838  -1.6691  -1.6520  -1.6394  -1.5934  -1.5724  -1.5639  -1.5383
    -1.5124  -1.4885  -1.4582  -1.4299  -1.4196  -1.4091  -1.3942  -1.3767
    -1.3342  -1.3271  -1.3036  -1.2546  -1.2214  -1.1953  -1.1711  -1.1671
    -1.1379  -1.1246  -1.1154  -1.1009  -1.0828  -1.0683  -1.0448  -1.0223
    -0.9792  -0.9730  -0.9591  -0.9335  -0.9242  -0.8876  -0.8765  -0.8608
    -0.8444  -0.8352  -0.8199  -0.8013  -0.7731  -0.7585  -0.7350  -0.5847
    -0.5706  -0.5574  -0.5515  -0.5430  -0.5364  -0.5218  -0.5145  -0.4778
    -0.4728  -0.4600  -0.4517  -0.4326  -0.3940  -0.3381  -0.3298  -0.3225
    -0.3010  -0.2949  -0.2793  -0.2446  -0.2383  -0.2256  -0.2193  -0.2117
    -0.1999  -0.1948  -0.1257  -0.1208  -0.1070  -0.1009  -0.0742  -0.0493
     0.1493   0.2678   0.5377   0.7667   1.0422   1.1950   1.2184   1.5793
     1.6779   1.7172

          k = 0.4000-0.4619 0.0000 ( 36660 PWs)   bands (ev):

   -22.0359  -9.1012  -6.7989  -6.6823  -6.2225  -6.0125  -5.8637  -5.4497
    -5.2563  -5.2051  -5.0137  -4.7050  -4.4750  -4.2294  -4.1816  -4.0575
    -4.0521  -4.0369  -4.0182  -4.0114  -3.9694  -3.9454  -3.9433  -3.9382
    -3.9220  -3.8343  -3.7939  -3.7884  -3.7673  -3.7572  -3.7321  -3.6224
    -3.6051  -3.5988  -3.5797  -3.5558  -3.5006  -3.4411  -3.3669  -3.3082
    -3.3048  -3.2874  -3.2113  -3.1936  -3.1733  -3.1203  -3.0908  -3.0810
    -3.0345  -3.0121  -2.9879  -2.9253  -2.9077  -2.8738  -2.8582  -2.8170
    -2.7978  -2.7350  -2.7255  -2.7160  -2.7066  -2.6961  -2.6539  -2.6260
    -2.5675  -2.5093  -2.5022  -2.4893  -2.4748  -2.4291  -2.4214  -2.3661
    -2.3510  -2.3252  -2.3180  -2.3040  -2.2971  -2.2750  -2.2539  -2.2502
    -2.2328  -2.2225  -2.2019  -2.1823  -2.1749  -2.1288  -2.0986  -2.0956
    -2.0734  -2.0532  -2.0133  -1.9789  -1.9608  -1.9319  -1.9238  -1.9190
    -1.8997  -1.8947  -1.8851  -1.8741  -1.8575  -1.8437  -1.8342  -1.7698
    -1.7616  -1.7386  -1.7317  -1.7254  -1.7093  -1.7063  -1.6979  -1.6858
    -1.6818  -1.6735  -1.6498  -1.6364  -1.5937  -1.5743  -1.5662  -1.5366
    -1.4946  -1.4856  -1.4718  -1.4308  -1.4159  -1.4084  -1.3953  -1.3800
    -1.3334  -1.3303  -1.3072  -1.2552  -1.2169  -1.1945  -1.1720  -1.1647
    -1.1416  -1.1242  -1.1139  -1.1070  -1.0771  -1.0663  -1.0432  -1.0229
    -0.9821  -0.9750  -0.9586  -0.9356  -0.9198  -0.8878  -0.8740  -0.8575
    -0.8416  -0.8369  -0.8271  -0.7957  -0.7746  -0.7561  -0.7394  -0.5900
    -0.5703  -0.5550  -0.5505  -0.5419  -0.5308  -0.5248  -0.5106  -0.4771
    -0.4735  -0.4641  -0.4483  -0.4359  -0.3928  -0.3354  -0.3308  -0.3233
    -0.2962  -0.2929  -0.2842  -0.2609  -0.2408  -0.2262  -0.2172  -0.2058
    -0.1997  -0.1824  -0.1240  -0.1227  -0.1070  -0.1000  -0.0751  -0.0522
     0.1360   0.2653   0.5106   0.8492   1.0133   1.1927   1.2285   1.5333
     1.6525   1.7273

 ------ SPIN DOWN ----------


          k = 0.0000 0.0000 0.0000 ( 36693 PWs)   bands (ev):

   -22.1306  -9.2238  -7.8047  -6.6443  -5.8303  -5.7049  -5.4245  -5.1565
    -4.6412  -4.6284  -4.6267  -4.6107  -4.5971  -4.5616  -4.2419  -3.7593
    -3.7552  -3.7421  -3.7283  -3.7197  -3.6331  -3.3426  -2.8162  -2.8086
    -2.7994  -2.7953  -2.7079  -2.6099  -2.3521  -2.3449  -2.3382  -2.3324
    -2.3076  -2.2387  -2.1365  -2.1348  -2.0628  -2.0601  -2.0395  -2.0376
    -1.9542  -1.9538  -1.9031  -1.9001  -1.8333  -1.8192  -1.8019  -1.7891
    -1.7542  -1.7143  -1.5527  -1.5497  -1.5289  -1.5256  -1.5200  -1.5178
    -1.5020  -1.5003  -1.4700  -1.4553  -1.4317  -1.4285  -1.4243  -1.4231
    -1.3365  -1.2724  -0.9053  -0.8826  -0.8426  -0.8407  -0.7859  -0.7154
    -0.6538  -0.5763  -0.5609  -0.5436  -0.5246  -0.5168  -0.5054  -0.4963
    -0.4829  -0.4668  -0.4469  -0.4414  -0.4259  -0.4245  -0.4237  -0.4001
    -0.3674  -0.3196  -0.3142  -0.2969  -0.2932  -0.2787  -0.2695  -0.2658
    -0.2600  -0.2439  -0.2400  -0.2348  -0.2325  -0.2290  -0.2120  -0.1583
    -0.1288  -0.1140  -0.1014  -0.0579  -0.0259  -0.0238  -0.0107  -0.0041
    -0.0009   0.0032   0.0045   0.0713   0.0731   0.0799   0.1233   0.1405
     0.1427   0.1643   0.1699   0.2074   0.3045   0.3865   0.3886   0.4462
     0.4565   0.4671   0.4750   0.4795   0.6680   0.6752   0.7733   0.7896
     0.8248   0.8398   0.9979   1.0172   1.0278   1.0394   1.0480   1.0581
     1.0714   1.1585   1.1931   1.2012   1.2200   1.2232   1.2349   1.2553
     1.2594   1.2717   1.2866   1.2967   1.3146   1.3149   1.3295   1.3497
     1.3645   1.3680   1.3763   1.3978   1.4187   1.4228   1.4351   1.4479
     1.4530   1.4654   1.4750   1.4828   1.4893   1.5019   1.5048   1.5407
     1.5498   1.5659   1.5686   1.5769   1.5801   1.5857   1.5921   1.6311
     1.6358   1.6380   1.6423   1.6467   1.6482   1.6592   1.6608   1.6752
     1.6795   1.7236   1.7266   1.8630   1.8721   1.8762   1.8801   1.8818
     1.8836   2.0442

          k = 0.0000 0.2309 0.0000 ( 36641 PWs)   bands (ev):

   -22.1306  -9.2138  -7.6629  -6.5453  -5.8656  -5.7356  -5.5611  -5.3955
    -5.1578  -4.9882  -4.9107  -4.4718  -4.1209  -4.0788  -4.0549  -3.9615
    -3.8457  -3.7745  -3.4541  -3.4049  -3.3614  -3.2632  -2.9276  -2.8096
    -2.7670  -2.7182  -2.6824  -2.6202  -2.4443  -2.3733  -2.3673  -2.3470
    -2.3362  -2.2910  -2.2809  -2.2796  -2.2395  -2.2048  -2.1024  -2.0984
    -2.0153  -2.0115  -1.9381  -1.8571  -1.8302  -1.8195  -1.8064  -1.6966
    -1.6734  -1.6496  -1.6056  -1.5707  -1.5547  -1.5347  -1.5260  -1.5211
    -1.5098  -1.5005  -1.4119  -1.3983  -1.3818  -1.3626  -1.3271  -1.2765
    -1.2478  -1.1591  -0.9547  -0.9163  -0.8906  -0.8879  -0.8303  -0.7915
    -0.7273  -0.7064  -0.6831  -0.6564  -0.6014  -0.5767  -0.5637  -0.5513
    -0.5048  -0.4921  -0.4846  -0.4790  -0.4669  -0.4464  -0.4245  -0.4091
    -0.3880  -0.3148  -0.3135  -0.3005  -0.2800  -0.2678  -0.2496  -0.2425
    -0.2386  -0.2305  -0.2253  -0.2147  -0.2115  -0.2104  -0.1770  -0.1568
    -0.1449  -0.1318  -0.1161  -0.1075  -0.0786  -0.0774  -0.0564  -0.0290
    -0.0261   0.0017   0.0174   0.0848   0.0959   0.1043   0.1353   0.1388
     0.2354   0.2615   0.2957   0.3474   0.3562   0.3643   0.4231   0.4277
     0.4383   0.4450   0.4538   0.4596   0.6102   0.7119   0.7706   0.7834
     0.7941   0.8068   0.8151   0.8283   0.8720   0.8908   0.9380   0.9636
     0.9967   1.0350   1.0639   1.0739   1.0964   1.1178   1.1406   1.1894
     1.2229   1.2348   1.2469   1.2511   1.2804   1.2852   1.3285   1.3360
     1.3493   1.3744   1.4214   1.4278   1.4416   1.4454   1.4699   1.4851
     1.5182   1.5272   1.5314   1.5362   1.5623   1.6135   1.6183   1.6300
     1.6349   1.6596   1.6634   1.6874   1.6993   1.7043   1.7117   1.7175
     1.7403   1.7776   1.7861   1.7981   1.8004   1.8125   1.8233   1.8401
     1.8653   1.8663   1.8709   1.9078   1.9568   1.9709   1.9749   2.0230
     2.0531   2.1108

          k = 0.0000 0.4619 0.0000 ( 36606 PWs)   bands (ev):

   -22.1306  -9.1982  -7.2418  -6.5858  -6.2568  -5.8167  -5.6871  -5.4193
    -5.2829  -5.1627  -5.1051  -4.7956  -4.1118  -4.0158  -3.8698  -3.4615
    -3.4575  -3.3988  -3.3321  -3.1616  -3.0491  -3.0160  -2.9882  -2.8580
    -2.8552  -2.7962  -2.7428  -2.6982  -2.6384  -2.6169  -2.6032  -2.5517
    -2.5371  -2.4114  -2.3324  -2.3229  -2.2510  -2.2278  -2.1301  -2.1190
    -2.1044  -2.0933  -2.0139  -1.8294  -1.8180  -1.7941  -1.7741  -1.7273
    -1.6039  -1.5942  -1.5903  -1.5711  -1.5579  -1.5363  -1.5289  -1.5057
    -1.4807  -1.4161  -1.4044  -1.3905  -1.3670  -1.3567  -1.2177  -1.1765
    -1.0728  -1.0475  -0.9448  -0.9207  -0.9018  -0.8677  -0.8596  -0.8474
    -0.8234  -0.8058  -0.7847  -0.7756  -0.7031  -0.6896  -0.6662  -0.6382
    -0.6158  -0.5980  -0.5771  -0.5698  -0.5356  -0.5035  -0.4635  -0.4462
    -0.4274  -0.3668  -0.3628  -0.3501  -0.2930  -0.2757  -0.2602  -0.2216
    -0.2108  -0.1987  -0.1818  -0.1748  -0.1669  -0.1610  -0.1114  -0.1066
    -0.1008  -0.0714  -0.0639  -0.0557  -0.0490  -0.0329  -0.0236  -0.0009
     0.0156   0.0237   0.0785   0.1014   0.1489   0.1638   0.1729   0.1993
     0.2121   0.2215   0.2491   0.2672   0.3153   0.3213   0.3408   0.3618
     0.3873   0.4060   0.4192   0.4279   0.4652   0.5228   0.5881   0.5981
     0.6626   0.7065   0.7666   0.7886   0.8303   0.8486   0.8798   0.8833
     0.9071   0.9203   0.9450   0.9927   0.9970   1.0487   1.1722   1.1886
     1.1931   1.2224   1.2342   1.2434   1.2820   1.3063   1.3435   1.3462
     1.3736   1.3934   1.4021   1.4725   1.4811   1.4907   1.5417   1.5480
     1.5534   1.5547   1.5847   1.5898   1.6212   1.6338   1.6458   1.6651
     1.6726   1.7128   1.7296   1.7796   1.7901   1.8025   1.8135   1.8216
     1.8282   1.8677   1.8684   1.8836   1.8925   1.9039   1.9134   1.9153
     1.9618   2.0159   2.0503   2.1080   2.1248   2.1891   2.5479   2.6225
     2.6544   2.7105

          k = 0.2000-0.1155 0.0000 ( 36641 PWs)   bands (ev):

   -22.1306  -9.2117  -7.6647  -6.5484  -5.9268  -5.7023  -5.5295  -5.4008
    -5.1343  -4.9956  -4.9295  -4.3971  -4.2192  -4.0746  -4.0606  -3.9289
    -3.8412  -3.7779  -3.4713  -3.3925  -3.3234  -3.2608  -2.9798  -2.7883
    -2.7716  -2.7372  -2.6771  -2.5989  -2.4565  -2.3716  -2.3671  -2.3564
    -2.3244  -2.3044  -2.2826  -2.2803  -2.2372  -2.1941  -2.1016  -2.0972
    -2.0164  -2.0095  -1.9564  -1.8439  -1.8264  -1.8196  -1.7996  -1.6987
    -1.6705  -1.6475  -1.6109  -1.5650  -1.5543  -1.5332  -1.5266  -1.5209
    -1.5083  -1.4920  -1.4134  -1.3976  -1.3779  -1.3597  -1.3311  -1.2883
    -1.2392  -1.1696  -0.9469  -0.9089  -0.8967  -0.8877  -0.8317  -0.7894
    -0.7584  -0.7159  -0.6812  -0.6523  -0.6107  -0.5672  -0.5580  -0.5433
    -0.5129  -0.4991  -0.4838  -0.4743  -0.4580  -0.4548  -0.4337  -0.4132
    -0.3641  -0.3202  -0.3136  -0.3105  -0.2866  -0.2665  -0.2531  -0.2439
    -0.2384  -0.2319  -0.2219  -0.2162  -0.2100  -0.2063  -0.1724  -0.1602
    -0.1383  -0.1338  -0.1167  -0.1024  -0.0966  -0.0844  -0.0584  -0.0313
    -0.0129  -0.0067   0.0319   0.0781   0.0965   0.1115   0.1267   0.1411
     0.2358   0.2672   0.2993   0.3457   0.3553   0.3758   0.4108   0.4297
     0.4407   0.4498   0.4539   0.4588   0.6162   0.7173   0.7752   0.7892
     0.7942   0.8041   0.8161   0.8332   0.8581   0.8745   0.9453   0.9752
     0.9983   1.0468   1.0729   1.0808   1.1061   1.1239   1.1381   1.1562
     1.2176   1.2324   1.2528   1.2571   1.2798   1.2912   1.3250   1.3344
     1.3483   1.3606   1.4159   1.4250   1.4360   1.4477   1.4645   1.5069
     1.5218   1.5264   1.5328   1.5386   1.5567   1.6041   1.6161   1.6256
     1.6313   1.6546   1.6646   1.6904   1.7007   1.7046   1.7123   1.7240
     1.7407   1.7823   1.7848   1.8011   1.8038   1.8140   1.8231   1.8426
     1.8564   1.8656   1.8698   1.8862   1.9658   1.9696   1.9785   2.0314
     2.0513   2.1102

          k = 0.2000 0.1155 0.0000 ( 36641 PWs)   bands (ev):

   -22.1306  -9.2114  -7.6654  -6.5501  -5.9398  -5.6889  -5.5166  -5.4149
    -5.1197  -4.9927  -4.9488  -4.3725  -4.2159  -4.0797  -4.0628  -3.9569
    -3.8352  -3.7736  -3.4699  -3.4036  -3.3168  -3.2471  -2.9823  -2.8110
    -2.7642  -2.7262  -2.6866  -2.5889  -2.4575  -2.3727  -2.3670  -2.3537
    -2.3271  -2.3028  -2.2825  -2.2810  -2.2416  -2.1876  -2.1010  -2.0983
    -2.0137  -2.0108  -1.9574  -1.8531  -1.8236  -1.8182  -1.7902  -1.6960
    -1.6776  -1.6564  -1.5965  -1.5807  -1.5449  -1.5376  -1.5245  -1.5169
    -1.5140  -1.4764  -1.4282  -1.3973  -1.3779  -1.3600  -1.3318  -1.2926
    -1.2415  -1.1646  -0.9444  -0.9120  -0.8938  -0.8843  -0.8339  -0.8063
    -0.7808  -0.7020  -0.6677  -0.6468  -0.6108  -0.5732  -0.5616  -0.5321
    -0.5166  -0.5049  -0.4805  -0.4717  -0.4618  -0.4439  -0.4388  -0.4042
    -0.3646  -0.3157  -0.3134  -0.3071  -0.2906  -0.2657  -0.2547  -0.2440
    -0.2418  -0.2307  -0.2219  -0.2141  -0.2110  -0.2058  -0.1743  -0.1593
    -0.1451  -0.1322  -0.1171  -0.1034  -0.1010  -0.0849  -0.0549  -0.0326
    -0.0165   0.0023   0.0353   0.0659   0.0974   0.1118   0.1331   0.1407
     0.2117   0.2661   0.2959   0.3451   0.3545   0.3894   0.4128   0.4271
     0.4431   0.4500   0.4542   0.4590   0.6237   0.7153   0.7730   0.7883
     0.7969   0.8115   0.8151   0.8298   0.8525   0.8917   0.9495   0.9734
     1.0047   1.0521   1.0676   1.0856   1.1044   1.1260   1.1364   1.1600
     1.2092   1.2342   1.2526   1.2599   1.2804   1.2911   1.3167   1.3338
     1.3428   1.3651   1.4169   1.4241   1.4371   1.4469   1.4635   1.5088
     1.5238   1.5264   1.5317   1.5443   1.5512   1.5982   1.6167   1.6251
     1.6338   1.6586   1.6617   1.6890   1.6974   1.7076   1.7109   1.7231
     1.7420   1.7837   1.7852   1.7991   1.8051   1.8133   1.8274   1.8418
     1.8555   1.8643   1.8692   1.8814   1.9654   1.9708   1.9805   2.0303
     2.0534   2.1080

          k = 0.2000 0.3464 0.0000 ( 36608 PWs)   bands (ev):

   -22.1306  -9.1986  -7.3844  -6.4058  -6.1044  -6.0102  -5.7104  -5.5617
    -5.3963  -5.1082  -4.6574  -4.5286  -4.2686  -4.2408  -3.9172  -3.4420
    -3.4267  -3.4220  -3.4107  -3.2913  -3.1593  -3.1273  -3.0966  -2.8994
    -2.7582  -2.6839  -2.6704  -2.6484  -2.5793  -2.5704  -2.5566  -2.4732
    -2.4671  -2.4605  -2.4209  -2.3110  -2.2994  -2.2576  -2.0936  -2.0823
    -2.0618  -1.9906  -1.9572  -1.9437  -1.8978  -1.7915  -1.7318  -1.7250
    -1.6359  -1.6028  -1.5671  -1.5626  -1.5524  -1.5420  -1.5167  -1.5054
    -1.4946  -1.4757  -1.4174  -1.3733  -1.3484  -1.2940  -1.1897  -1.1640
    -1.1023  -1.0779  -0.9898  -0.9251  -0.8881  -0.8661  -0.8321  -0.8255
    -0.7939  -0.7754  -0.7374  -0.7234  -0.7067  -0.6799  -0.6540  -0.6376
    -0.6310  -0.6233  -0.5970  -0.5702  -0.5337  -0.4503  -0.4366  -0.4189
    -0.4020  -0.3858  -0.3582  -0.3337  -0.3175  -0.3031  -0.2846  -0.2788
    -0.2614  -0.2394  -0.2211  -0.2127  -0.1896  -0.1779  -0.1582  -0.1263
    -0.1139  -0.1091  -0.0978  -0.0853  -0.0659  -0.0559  -0.0461  -0.0378
     0.0417   0.0537   0.0670   0.0830   0.1167   0.1834   0.2104   0.2291
     0.2528   0.2644   0.3035   0.3322   0.3592   0.3638   0.3781   0.3883
     0.3959   0.4131   0.4385   0.4871   0.5208   0.6299   0.6884   0.7066
     0.7496   0.7716   0.8021   0.8275   0.8479   0.8606   0.8668   0.8816
     0.9033   0.9119   0.9319   0.9480   0.9849   1.0315   1.0898   1.0943
     1.1246   1.1527   1.1551   1.1829   1.2093   1.2566   1.2738   1.3207
     1.3321   1.3768   1.4687   1.4927   1.5065   1.5219   1.5376   1.5474
     1.5738   1.5832   1.5955   1.6015   1.6643   1.6683   1.6841   1.6904
     1.6992   1.7248   1.7383   1.7525   1.7629   1.7786   1.7817   1.8035
     1.8240   1.8255   1.8353   1.8498   1.8547   1.8670   1.9126   1.9406
     1.9491   1.9957   2.0548   2.0787   2.1832   2.2124   2.3607   2.4498
     2.5349   2.5522

          k = 0.2000-0.5774 0.0000 ( 36660 PWs)   bands (ev):

   -22.1306  -9.1914  -6.8674  -6.8063  -6.2609  -6.1002  -5.7319  -5.6163
    -5.3279  -5.2550  -4.8821  -4.5707  -4.3064  -3.7936  -3.4764  -3.4590
    -3.4526  -3.3796  -3.2060  -3.1342  -3.0454  -3.0371  -3.0311  -2.9067
    -2.9008  -2.8884  -2.8619  -2.8575  -2.7355  -2.6189  -2.5181  -2.5099
    -2.4889  -2.4607  -2.4348  -2.4192  -2.3587  -2.3111  -2.2604  -2.0228
    -1.9730  -1.9640  -1.9579  -1.8966  -1.8754  -1.7869  -1.7290  -1.7170
    -1.6806  -1.6667  -1.6536  -1.5640  -1.5450  -1.5055  -1.4960  -1.4745
    -1.4393  -1.3884  -1.3349  -1.3255  -1.2863  -1.2631  -1.2402  -1.1396
    -1.0931  -0.9818  -0.9521  -0.9415  -0.9267  -0.8688  -0.8664  -0.8325
    -0.8128  -0.7963  -0.7738  -0.7410  -0.7093  -0.6869  -0.6744  -0.6604
    -0.6340  -0.6234  -0.6028  -0.5948  -0.5828  -0.5639  -0.5351  -0.5178
    -0.5044  -0.4673  -0.4427  -0.4275  -0.3676  -0.3535  -0.3288  -0.3016
    -0.2625  -0.2224  -0.2156  -0.1953  -0.1832  -0.1617  -0.1532  -0.1228
    -0.1024  -0.0755  -0.0542  -0.0415  -0.0070   0.0052   0.0422   0.0823
     0.1024   0.1122   0.1302   0.1376   0.1574   0.1784   0.2324   0.2435
     0.2503   0.2671   0.3008   0.3182   0.3359   0.3531   0.3837   0.4085
     0.4174   0.4372   0.4454   0.4762   0.4851   0.5054   0.5280   0.5572
     0.6323   0.6695   0.7134   0.7683   0.7958   0.8108   0.8286   0.8414
     0.8626   0.8762   0.8929   0.9219   1.0095   1.0290   1.0484   1.0816
     1.0974   1.1087   1.1519   1.1868   1.2011   1.2115   1.2634   1.3192
     1.3543   1.4043   1.4550   1.4626   1.5334   1.5513   1.5866   1.5937
     1.6003   1.6107   1.6198   1.6400   1.6684   1.6827   1.6900   1.7036
     1.7245   1.7636   1.7709   1.7843   1.7931   1.7975   1.7999   1.8052
     1.8240   1.8453   1.8621   1.8976   1.9027   1.9155   1.9234   1.9419
     2.0051   2.0803   2.2148   2.3357   2.5378   2.6120   2.7110   2.7654
     2.8040   2.8504

          k = 0.2000-0.3464 0.0000 ( 36608 PWs)   bands (ev):

   -22.1306  -9.1992  -7.3825  -6.4043  -6.0895  -6.0185  -5.7030  -5.5868
    -5.3945  -5.0998  -4.6391  -4.5684  -4.2577  -4.2412  -3.9145  -3.4345
    -3.4297  -3.4229  -3.4060  -3.2967  -3.1575  -3.1320  -3.0932  -2.8941
    -2.7581  -2.6892  -2.6728  -2.6378  -2.5935  -2.5648  -2.5504  -2.4737
    -2.4693  -2.4615  -2.4183  -2.3191  -2.3023  -2.2556  -2.0965  -2.0814
    -2.0568  -1.9932  -1.9516  -1.9403  -1.9011  -1.7899  -1.7299  -1.7171
    -1.6637  -1.5912  -1.5704  -1.5603  -1.5498  -1.5428  -1.5248  -1.5060
    -1.4911  -1.4755  -1.4188  -1.3782  -1.3367  -1.2853  -1.1921  -1.1579
    -1.0954  -1.0812  -0.9864  -0.9184  -0.8915  -0.8660  -0.8346  -0.8126
    -0.7916  -0.7770  -0.7400  -0.7153  -0.7097  -0.6919  -0.6604  -0.6422
    -0.6293  -0.6212  -0.6105  -0.5820  -0.5079  -0.4607  -0.4394  -0.4155
    -0.4052  -0.3926  -0.3578  -0.3298  -0.3233  -0.3040  -0.2903  -0.2701
    -0.2575  -0.2415  -0.2162  -0.2045  -0.1947  -0.1737  -0.1522  -0.1324
    -0.1161  -0.1096  -0.1041  -0.0793  -0.0627  -0.0555  -0.0471  -0.0361
     0.0463   0.0538   0.0608   0.0738   0.1362   0.1869   0.2089   0.2299
     0.2542   0.2772   0.3038   0.3217   0.3573   0.3644   0.3746   0.3911
     0.3954   0.4160   0.4455   0.4860   0.4991   0.6294   0.6865   0.7036
     0.7485   0.7812   0.8095   0.8246   0.8406   0.8551   0.8717   0.8824
     0.8929   0.9162   0.9204   0.9511   0.9712   1.0321   1.0857   1.0940
     1.1259   1.1556   1.1593   1.1907   1.2063   1.2501   1.2739   1.3140
     1.3317   1.3914   1.4686   1.4949   1.5079   1.5217   1.5361   1.5517
     1.5651   1.5816   1.5996   1.6009   1.6603   1.6709   1.6843   1.6913
     1.7059   1.7215   1.7410   1.7534   1.7627   1.7765   1.7819   1.8024
     1.8242   1.8277   1.8343   1.8470   1.8596   1.8643   1.9129   1.9421
     1.9477   2.0065   2.0543   2.0762   2.1756   2.2165   2.3878   2.4063
     2.5334   2.5528

          k = 0.4000-0.2309 0.0000 ( 36606 PWs)   bands (ev):

   -22.1306  -9.1927  -7.2503  -6.5956  -6.2693  -5.9168  -5.5737  -5.4219
    -5.2294  -5.1820  -5.1044  -4.7942  -4.1352  -4.0455  -3.7981  -3.4624
    -3.4540  -3.3955  -3.3301  -3.1458  -3.1130  -3.0096  -2.9817  -2.8563
    -2.8552  -2.7824  -2.7539  -2.7142  -2.6408  -2.6143  -2.5905  -2.5546
    -2.5285  -2.4616  -2.3291  -2.3189  -2.2437  -2.2248  -2.1298  -2.1175
    -2.1100  -2.0835  -2.0346  -1.8209  -1.8037  -1.7912  -1.7502  -1.7259
    -1.6072  -1.5977  -1.5880  -1.5742  -1.5572  -1.5319  -1.5271  -1.4950
    -1.4769  -1.4163  -1.4069  -1.3805  -1.3671  -1.3514  -1.2087  -1.1875
    -1.0702  -1.0606  -0.9492  -0.9257  -0.8983  -0.8842  -0.8712  -0.8568
    -0.8296  -0.8152  -0.7758  -0.7635  -0.7289  -0.6890  -0.6798  -0.6288
    -0.6089  -0.5997  -0.5771  -0.5631  -0.5351  -0.4941  -0.4895  -0.4371
    -0.4121  -0.3782  -0.3654  -0.3311  -0.2997  -0.2751  -0.2596  -0.2370
    -0.2084  -0.2004  -0.1841  -0.1675  -0.1588  -0.1537  -0.1374  -0.1157
    -0.0985  -0.0843  -0.0691  -0.0508  -0.0462  -0.0409  -0.0267  -0.0047
     0.0079   0.0213   0.0867   0.1225   0.1543   0.1606   0.1816   0.1989
     0.2164   0.2227   0.2606   0.2853   0.3164   0.3179   0.3333   0.3552
     0.3873   0.4039   0.4218   0.4248   0.4665   0.5702   0.5884   0.5980
     0.6168   0.7203   0.7419   0.7935   0.8337   0.8534   0.8828   0.8906
     0.9140   0.9412   0.9605   0.9788   1.0003   1.0862   1.1433   1.1741
     1.1855   1.2126   1.2446   1.2512   1.2794   1.2971   1.3294   1.3460
     1.3743   1.3895   1.4057   1.4637   1.4816   1.5033   1.5321   1.5403
     1.5475   1.5536   1.5664   1.5916   1.6189   1.6306   1.6456   1.6617
     1.6737   1.7137   1.7652   1.7770   1.7976   1.8059   1.8145   1.8217
     1.8334   1.8641   1.8696   1.8837   1.8997   1.9043   1.9123   1.9160
     1.9630   2.0079   2.0525   2.1247   2.1326   2.2232   2.5392   2.6044
     2.6447   2.6977

          k = 0.4000 0.0000 0.0000 ( 36608 PWs)   bands (ev):

   -22.1306  -9.1952  -7.3893  -6.4065  -6.1535  -5.9987  -5.7123  -5.5104
    -5.4183  -5.0678  -4.7310  -4.4400  -4.2739  -4.2627  -3.9276  -3.4421
    -3.4276  -3.4225  -3.4050  -3.2413  -3.1869  -3.1232  -3.1040  -2.9182
    -2.7576  -2.6864  -2.6751  -2.6637  -2.5898  -2.5588  -2.5316  -2.4760
    -2.4674  -2.4568  -2.4370  -2.3309  -2.3084  -2.2512  -2.0875  -2.0717
    -2.0438  -2.0100  -1.9493  -1.9375  -1.9040  -1.7960  -1.7378  -1.7022
    -1.6225  -1.6013  -1.5786  -1.5587  -1.5531  -1.5314  -1.5195  -1.5047
    -1.5012  -1.4752  -1.3986  -1.3805  -1.3359  -1.2870  -1.2160  -1.1597
    -1.1109  -1.0690  -0.9904  -0.9426  -0.8928  -0.8741  -0.8432  -0.8333
    -0.7951  -0.7764  -0.7646  -0.7099  -0.7001  -0.6838  -0.6592  -0.6438
    -0.6158  -0.6103  -0.5846  -0.5662  -0.5327  -0.4761  -0.4299  -0.4222
    -0.4011  -0.3948  -0.3514  -0.3359  -0.3229  -0.2957  -0.2815  -0.2719
    -0.2570  -0.2427  -0.2236  -0.2115  -0.1869  -0.1704  -0.1555  -0.1251
    -0.1138  -0.1056  -0.0973  -0.0869  -0.0686  -0.0606  -0.0542  -0.0375
     0.0164   0.0381   0.0564   0.0813   0.1633   0.1864   0.2043   0.2446
     0.2517   0.2559   0.2935   0.3032   0.3510   0.3691   0.3866   0.3887
     0.3970   0.4121   0.4634   0.4870   0.5290   0.6415   0.6711   0.7201
     0.7613   0.7833   0.8050   0.8270   0.8393   0.8528   0.8637   0.8906
[...]
     atom    8 type  1   force =     0.00433968   -0.00240500   -0.10082192
     atom    9 type  1   force =    -0.00141055   -0.00139092   -0.10393185
     atom   10 type  1   force =    -0.00027821    0.00148618   -0.01257051
     atom   11 type  1   force =     0.00029994    0.00088998   -0.00768484
     atom   12 type  1   force =     0.00052681    0.00071412   -0.00993090
     atom   13 type  1   force =     0.00203902   -0.00210069   -0.01099711
     atom   14 type  1   force =    -0.00163802   -0.00057020   -0.01032975
     atom   15 type  1   force =    -0.00037984   -0.00100708   -0.01334518
     atom   16 type  1   force =    -0.00076575   -0.00060580   -0.01679984
     atom   17 type  1   force =     0.00198821   -0.00043378   -0.01180180
     atom   18 type  1   force =    -0.00154514    0.00169729   -0.01569400
     atom   19 type  1   force =    -0.00000267    0.00793718    0.00857016
     atom   20 type  1   force =    -0.00258521    0.00730445    0.00158903
     atom   21 type  1   force =     0.00253721    0.00220587    0.01385417
     atom   22 type  1   force =     0.00134766   -0.00049398    0.01850905
     atom   23 type  1   force =     0.00054180    0.00126643    0.01017549
     atom   24 type  1   force =    -0.00162524    0.00055964    0.01682419
     atom   25 type  1   force =    -0.00254914   -0.00417407   -0.00244900
     atom   26 type  1   force =     0.00263242   -0.00647085    0.00085918
     atom   27 type  1   force =     0.00063574   -0.00423497    0.00355528
     atom   28 type  1   force =     0.06056522    0.01277578    0.06852970
     atom   29 type  1   force =    -0.04703189    0.01405841    0.07981772
     atom   30 type  1   force =     0.00134181    0.00358090    0.07326936
     atom   31 type  1   force =     0.00464154   -0.04789447    0.14348127
     atom   32 type  1   force =    -0.00293498   -0.00503612    0.08829928
     atom   33 type  1   force =    -0.00257163   -0.00273709    0.11746124
     atom   34 type  1   force =    -0.00171507   -0.00546451    0.11037879
     atom   35 type  1   force =     0.00431271    0.03265908    0.13659701
     atom   36 type  1   force =    -0.00239626    0.00391734    0.11163386
     atom   37 type  2   force =     0.06820748    0.06775180    0.44176414
     atom   38 type  3   force =    -0.16084914   -0.18991787   -2.71235509
     atom   39 type  4   force =     0.00154967   -0.00054128   -0.02195492
     The ionic contribution  to forces
     atom    1 type  1   force =    -0.00651963    0.00674884 -111.13267809
     atom    2 type  1   force =     0.00477247    0.00736119 -111.13613320
     atom    3 type  1   force =     0.00174716    0.00312184 -111.12318166
     atom    4 type  1   force =    -0.00033894    0.00447915 -111.12008870
     atom    5 type  1   force =    -0.00039177   -0.00141611 -111.12151196
     atom    6 type  1   force =     0.00073071   -0.00319489 -111.12081293
     atom    7 type  1   force =    -0.00549488   -0.00409562 -111.12521412
     atom    8 type  1   force =    -0.00136668   -0.00768538 -111.13902294
     atom    9 type  1   force =     0.00686157   -0.00531904 -111.12798143
     atom   10 type  1   force =    -0.05586178   -0.01490333  -40.16015490
     atom   11 type  1   force =     0.04319822   -0.02008101  -40.18407541
     atom   12 type  1   force =     0.01266258   -0.01272257  -40.07474173
     atom   13 type  1   force =    -0.00970510    0.07285046  -40.12364148
     atom   14 type  1   force =     0.03222189    0.03720381  -40.07838855
     atom   15 type  1   force =    -0.02251695    0.02829785  -40.05799658
     atom   16 type  1   force =    -0.01866059   -0.00934281  -40.04441050
     atom   17 type  1   force =    -0.00174909   -0.05963579  -40.08604541
     atom   18 type  1   force =     0.02041027   -0.02166864  -40.04838612
     atom   19 type  1   force =    -0.34715869    0.35254735   31.11838328
     atom   20 type  1   force =     0.24258095    0.39473598   30.95700162
     atom   21 type  1   force =     0.10462144    0.14860638   31.56399227
     atom   22 type  1   force =    -0.01160941    0.20223465   31.71787963
     atom   23 type  1   force =    -0.02326807   -0.06721565   31.66896404
     atom   24 type  1   force =     0.03484770   -0.14318312   31.69720808
     atom   25 type  1   force =    -0.26994329   -0.18948240   31.50253595
     atom   26 type  1   force =    -0.05604306   -0.42730048   30.75641943
     atom   27 type  1   force =     0.32624240   -0.27376424   31.35952384
     atom   28 type  1   force =    -4.42954118   -0.98817477   99.12999001
     atom   29 type  1   force =     3.23400501   -1.46818338   98.76723924
     atom   30 type  1   force =     1.11202613   -0.78741100  103.56408350
     atom   31 type  1   force =    -0.21492579    3.62442541  101.95532352
     atom   32 type  1   force =     1.00079013    1.94288701  103.49941573
     atom   33 type  1   force =    -0.79178826    0.90873545  104.17649867
     atom   34 type  1   force =    -0.56571583   -0.33650343  104.43370427
     atom   35 type  1   force =    -0.01310434   -2.47504761  103.34840126
     atom   36 type  1   force =     0.58238484   -0.64061072  104.38976551
     atom   37 type  2   force =    -0.62960811   -0.54418837   51.00664835
     atom   38 type  3   force =     0.35601805    0.66663467   89.41948003
     atom   39 type  4   force =     0.35918994    0.10026033   14.97200749
     The local contribution  to forces
     atom    1 type  1   force =     0.00716964   -0.00804538  111.23680567
     atom    2 type  1   force =    -0.00263439   -0.00929844  111.24432542
     atom    3 type  1   force =    -0.00450316   -0.00378101  111.22553298
     atom    4 type  1   force =    -0.00186705   -0.00330080  111.22443708
     atom    5 type  1   force =    -0.00073796    0.00116387  111.22591138
     atom    6 type  1   force =     0.00166821    0.00089660  111.22694440
     atom    7 type  1   force =     0.00801841    0.00412965  111.23025641
     atom    8 type  1   force =    -0.00331193    0.01118227  111.24386262
     atom    9 type  1   force =    -0.00499192    0.00771062  111.23519950
     atom   10 type  1   force =     0.05542760    0.01155557   40.15192309
     atom   11 type  1   force =    -0.04236911    0.01911999   40.17017350
     atom   12 type  1   force =    -0.01308465    0.01121897   40.06558702
     atom   13 type  1   force =     0.00689740   -0.06989262   40.11662973
     atom   14 type  1   force =    -0.03094671   -0.03550392   40.06872764
     atom   15 type  1   force =     0.02394150   -0.02557456   40.04966757
     atom   16 type  1   force =     0.01921823    0.01083573   40.04122569
     atom   17 type  1   force =    -0.00088348    0.05862416   40.08022806
     atom   18 type  1   force =    -0.01815586    0.01962676   40.04358190
     atom   19 type  1   force =     0.34711927   -0.35843508  -31.10892291
     atom   20 type  1   force =    -0.24133113   -0.39983440  -30.94265443
     atom   21 type  1   force =    -0.10634028   -0.15136949  -31.55713711
     atom   22 type  1   force =     0.00918685   -0.20330402  -31.71151954
     atom   23 type  1   force =     0.02207840    0.06521116  -31.65779104
     atom   24 type  1   force =    -0.03204237    0.14217154  -31.69341607
     atom   25 type  1   force =     0.27199602    0.19363394  -31.48676387
     atom   26 type  1   force =     0.05370418    0.43414332  -30.73901153
     atom   27 type  1   force =    -0.32702256    0.27572078  -31.34988940
     atom   28 type  1   force =     4.35298956    0.97274725  -99.19574365
     atom   29 type  1   force =    -3.18156366    1.45089658  -98.83310148
     atom   30 type  1   force =    -1.09769822    0.77623008 -103.64466234
     atom   31 type  1   force =     0.20662218   -3.56531554 -102.10505531
     atom   32 type  1   force =    -0.99332052   -1.92208313 -103.59572862
     atom   33 type  1   force =     0.79407583   -0.90184468 -104.30368298
     atom   34 type  1   force =     0.56735353    0.34198673 -104.55073532
     atom   35 type  1   force =     0.00872630    2.43266923 -103.49125696
     atom   36 type  1   force =    -0.57861662    0.63219850 -104.50941046
     atom   37 type  2   force =     0.56160308    0.47518529  -51.44138347
     atom   38 type  3   force =    -0.19817214   -0.47760961  -86.72835880
     atom   39 type  4   force =    -0.36513857   -0.10158522  -14.95142269
     The core correction contribution to forces
     atom    1 type  1   force =    -0.00010971   -0.00016763    0.00989982
     atom    2 type  1   force =     0.00002203   -0.00036358    0.01002623
     atom    3 type  1   force =     0.00008842    0.00005437    0.01006508
     atom    4 type  1   force =     0.00003137    0.00011069    0.01018582
     atom    5 type  1   force =     0.00003355    0.00005507    0.01022359
     atom    6 type  1   force =    -0.00006078   -0.00009476    0.01005260
     atom    7 type  1   force =     0.00002043    0.00017391    0.01035937
     atom    8 type  1   force =    -0.00017551    0.00041088    0.01004582
     atom    9 type  1   force =    -0.00001299    0.00014687    0.01037781
     atom   10 type  1   force =     0.00023968    0.00004548   -0.00186258
     atom   11 type  1   force =    -0.00009193    0.00020143   -0.00161189
     atom   12 type  1   force =    -0.00016837    0.00014344   -0.00173135
     atom   13 type  1   force =    -0.00038880    0.00002080   -0.00178877
     atom   14 type  1   force =     0.00015472   -0.00006614   -0.00197798
     atom   15 type  1   force =     0.00023890    0.00010739   -0.00164977
     atom   16 type  1   force =     0.00007881   -0.00010056   -0.00178299
     atom   17 type  1   force =    -0.00013254    0.00003366   -0.00209843
     atom   18 type  1   force =     0.00004074   -0.00035689   -0.00168008
     atom   19 type  1   force =    -0.00023856    0.00057105    0.00084531
     atom   20 type  1   force =     0.00003481    0.00061227    0.00048184
     atom   21 type  1   force =     0.00033079    0.00019102    0.00187111
     atom   22 type  1   force =    -0.00020956    0.00006983    0.00234494
     atom   23 type  1   force =    -0.00028297    0.00068245    0.00134312
     atom   24 type  1   force =     0.00021534   -0.00034717    0.00142254
     atom   25 type  1   force =     0.00000789   -0.00058428    0.00108874
     atom   26 type  1   force =    -0.00091374   -0.00129184    0.00068802
     atom   27 type  1   force =     0.00033509   -0.00029595    0.00169004
     atom   28 type  1   force =     0.01257295    0.00182190   -0.00527767
     atom   29 type  1   force =    -0.00178660    0.00733010   -0.00081979
     atom   30 type  1   force =    -0.00909295    0.00513980   -0.00602692
     atom   31 type  1   force =     0.00014170   -0.00801389   -0.00586900
     atom   32 type  1   force =    -0.00012519   -0.01103044   -0.00537806
     atom   33 type  1   force =     0.00015658   -0.00241370   -0.00928345
     atom   34 type  1   force =     0.00059729    0.00098467   -0.00973700
     atom   35 type  1   force =    -0.00049095    0.00525323   -0.00792279
     atom   36 type  1   force =    -0.00006375    0.00226301   -0.00900954
     atom   37 type  2   force =    -0.00038679   -0.00109397   -0.00306127
     atom   38 type  3   force =     0.00117331    0.00135311    0.01967854
     atom   39 type  4   force =     0.00000000    0.00000000    0.00000000
     The Hubbard contrib.    to forces
     atom    1 type  1   force =     0.00000000    0.00000000    0.00000000
     atom    2 type  1   force =     0.00000000    0.00000000    0.00000000
     atom    3 type  1   force =     0.00000000    0.00000000    0.00000000
     atom    4 type  1   force =     0.00000000    0.00000000    0.00000000
     atom    5 type  1   force =     0.00000000    0.00000000    0.00000000
     atom    6 type  1   force =     0.00000000    0.00000000    0.00000000
     atom    7 type  1   force =     0.00000000    0.00000000    0.00000000
     atom    8 type  1   force =     0.00000000    0.00000000    0.00000000
     atom    9 type  1   force =     0.00000000    0.00000000    0.00000000
     atom   10 type  1   force =     0.00000000    0.00000000    0.00000000
     atom   11 type  1   force =     0.00000000    0.00000000    0.00000000
     atom   12 type  1   force =     0.00000000    0.00000000    0.00000000
     atom   13 type  1   force =     0.00000000    0.00000000    0.00000000
     atom   14 type  1   force =     0.00000000    0.00000000    0.00000000
     atom   15 type  1   force =     0.00000000    0.00000000    0.00000000
     atom   16 type  1   force =     0.00000000    0.00000000    0.00000000
     atom   17 type  1   force =     0.00000000    0.00000000    0.00000000
     atom   18 type  1   force =     0.00000000    0.00000000    0.00000000
     atom   19 type  1   force =     0.00000000    0.00000000    0.00000000
     atom   20 type  1   force =     0.00000000    0.00000000    0.00000000
     atom   21 type  1   force =     0.00000000    0.00000000    0.00000000
     atom   22 type  1   force =     0.00000000    0.00000000    0.00000000
     atom   23 type  1   force =     0.00000000    0.00000000    0.00000000
     atom   24 type  1   force =     0.00000000    0.00000000    0.00000000
     atom   25 type  1   force =     0.00000000    0.00000000    0.00000000
     atom   26 type  1   force =     0.00000000    0.00000000    0.00000000
     atom   27 type  1   force =     0.00000000    0.00000000    0.00000000
     atom   28 type  1   force =     0.00000000    0.00000000    0.00000000
     atom   29 type  1   force =     0.00000000    0.00000000    0.00000000
     atom   30 type  1   force =     0.00000000    0.00000000    0.00000000
     atom   31 type  1   force =     0.00000000    0.00000000    0.00000000
     atom   32 type  1   force =     0.00000000    0.00000000    0.00000000
     atom   33 type  1   force =     0.00000000    0.00000000    0.00000000
     atom   34 type  1   force =     0.00000000    0.00000000    0.00000000
     atom   35 type  1   force =     0.00000000    0.00000000    0.00000000
     atom   36 type  1   force =     0.00000000    0.00000000    0.00000000
     atom   37 type  2   force =     0.00000000    0.00000000    0.00000000
     atom   38 type  3   force =     0.00000000    0.00000000    0.00000000
     atom   39 type  4   force =     0.00000000    0.00000000    0.00000000
     The SCF correction term to forces
     atom    1 type  1   force =    -0.00000000   -0.00000000   -0.00000000
     atom    2 type  1   force =     0.00000000    0.00000000   -0.00000000
     atom    3 type  1   force =     0.00000000    0.00000000   -0.00000000
     atom    4 type  1   force =     0.00000000    0.00000000   -0.00000000
     atom    5 type  1   force =     0.00000000    0.00000000   -0.00000000
     atom    6 type  1   force =    -0.00000000    0.00000000   -0.00000000
     atom    7 type  1   force =     0.00000000    0.00000000   -0.00000000
     atom    8 type  1   force =    -0.00000000   -0.00000000   -0.00000000
     atom    9 type  1   force =     0.00000000   -0.00000000   -0.00000000
     atom   10 type  1   force =     0.00000000    0.00000000   -0.00000000
     atom   11 type  1   force =    -0.00000000    0.00000000   -0.00000000
     atom   12 type  1   force =     0.00000000    0.00000000   -0.00000000
     atom   13 type  1   force =    -0.00000000   -0.00000000   -0.00000000
     atom   14 type  1   force =     0.00000000    0.00000000   -0.00000000
     atom   15 type  1   force =    -0.00000000   -0.00000000   -0.00000000
     atom   16 type  1   force =     0.00000000   -0.00000000   -0.00000000
     atom   17 type  1   force =    -0.00000000    0.00000000   -0.00000000
     atom   18 type  1   force =    -0.00000000   -0.00000000   -0.00000000
     atom   19 type  1   force =     0.00000000   -0.00000000   -0.00000000
     atom   20 type  1   force =    -0.00000000    0.00000000   -0.00000000
     atom   21 type  1   force =    -0.00000000    0.00000000   -0.00000000
     atom   22 type  1   force =     0.00000000   -0.00000000   -0.00000000
     atom   23 type  1   force =     0.00000000   -0.00000000   -0.00000000
     atom   24 type  1   force =    -0.00000000   -0.00000000   -0.00000000
     atom   25 type  1   force =     0.00000000    0.00000000   -0.00000000
     atom   26 type  1   force =    -0.00000000   -0.00000000   -0.00000000
     atom   27 type  1   force =    -0.00000000    0.00000000   -0.00000000
     atom   28 type  1   force =     0.00000000   -0.00000000   -0.00000000
     atom   29 type  1   force =    -0.00000000   -0.00000000   -0.00000000
     atom   30 type  1   force =     0.00000000    0.00000000   -0.00000000
     atom   31 type  1   force =     0.00000000    0.00000000   -0.00000000
     atom   32 type  1   force =    -0.00000000    0.00000000   -0.00000000
     atom   33 type  1   force =     0.00000000    0.00000000   -0.00000000
     atom   34 type  1   force =     0.00000000   -0.00000000   -0.00000000
     atom   35 type  1   force =    -0.00000000   -0.00000000   -0.00000000
     atom   36 type  1   force =    -0.00000000   -0.00000000   -0.00000000
     atom   37 type  2   force =    -0.00000800    0.00003309    0.00000299
     atom   38 type  3   force =    -0.00000483    0.00000981   -0.00028343
     atom   39 type  4   force =    -0.00000010    0.00003148    0.00000053

     Total force =     0.007280     Total SCF correction =     0.000287

     Writing all to output data dir ./pwscf.save/

     init_run     :     10.69s CPU     11.14s WALL (       1 calls)
     electrons    :    707.94s CPU    721.14s WALL (       1 calls)
     forces       :     11.32s CPU     11.45s WALL (       1 calls)

     Called by init_run:
     wfcinit      :      7.43s CPU      7.76s WALL (       1 calls)
     potinit      :      2.16s CPU      2.25s WALL (       1 calls)
     hinit0       :      0.84s CPU      0.86s WALL (       1 calls)

     Called by electrons:
     c_bands      :    582.01s CPU    590.89s WALL (      38 calls)
     sum_band     :    100.98s CPU    104.69s WALL (      38 calls)
     v_of_rho     :      6.25s CPU      6.38s WALL (      39 calls)
     newd         :      2.07s CPU      2.11s WALL (      39 calls)
     PAW_pot      :      9.72s CPU      9.84s WALL (      39 calls)
     mix_rho      :      8.33s CPU      8.52s WALL (      38 calls)
     vdW_kernel   :      1.11s CPU      1.12s WALL (       1 calls)

     Called by c_bands:
     init_us_2    :      5.05s CPU      5.34s WALL (    2028 calls)
     init_us_2:cp :      5.04s CPU      5.34s WALL (    2028 calls)
     cegterg      :    565.45s CPU    573.81s WALL (     988 calls)

     Called by *egterg:
     cdiaghg      :    160.32s CPU    162.76s WALL (    3711 calls)
     h_psi        :    279.33s CPU    283.65s WALL (    3737 calls)
     s_psi        :     21.76s CPU     22.05s WALL (    3737 calls)
     g_psi        :      0.44s CPU      0.44s WALL (    2723 calls)

     Called by h_psi:
     h_psi:calbec :     41.86s CPU     42.54s WALL (    3737 calls)
     vloc_psi     :    213.67s CPU    217.01s WALL (    3737 calls)
     add_vuspsi   :     22.75s CPU     23.05s WALL (    3737 calls)

     General routines
     calbec       :     74.10s CPU     75.51s WALL (    4829 calls)
     fft          :      3.50s CPU      3.60s WALL (    3548 calls)
     ffts         :      5.20s CPU      5.31s WALL (   13915 calls)
     fftw         :    269.94s CPU    275.11s WALL ( 1035548 calls)
     interpolate  :      0.49s CPU      0.50s WALL (      78 calls)

     Parallel routines

     PWSCF        :  12m14.44s CPU  12m32.65s WALL


   This run was terminated on:  14: 2:28   6Dec2025            

=------------------------------------------------------------------------------=
   JOB DONE.
=------------------------------------------------------------------------------=
