
     Program PWSCF v.7.1 starts on 11Dec2025 at  4:52:42 
        Git branch: heads/qe-7.1
        Last git commit: 48ba0178f8fede6d020eb786884699a9f063f55d-dirty
        Last git commit date: Fri Jan 27 14:22:33 2023 +0000
        Last git commit subject: Merge branch 'fix_hubbard' into 'develop'

     This program is part of the open-source Quantum ESPRESSO suite
     for quantum simulation of materials; please cite
         "P. Giannozzi et al., J. Phys.:Condens. Matter 21 395502 (2009);
         "P. Giannozzi et al., J. Phys.:Condens. Matter 29 465901 (2017);
         "P. Giannozzi et al., J. Chem. Phys. 152 154105 (2020);
          URL http://www.quantum-espresso.org", 
     in publications or presentations arising from this work. More details at
     http://www.quantum-espresso.org/quote

     Parallel version (MPI), running on    96 processors

     MPI processes distributed on     2 nodes
     114096 MiB available memory on the printing compute node when the environment starts

     Reading input from espresso.pwi
Warning: card &CELL ignored
Warning: card / ignored
Warning: card &FCP ignored
Warning: card / ignored
Warning: card &RISM ignored
Warning: card / ignored

     Current dimensions of program PWSCF are:
     Max number of different atomic species (ntypx) = 10
     Max number of k-points (npk) =  40000
     Max angular momentum in pseudopotentials (lmaxx) =  4
     file Co.pbe-n-kjpaw_psl.1.0.0.UPF: wavefunction(s)  4S 3D renormalized
     file C.pbe-n-kjpaw_psl.1.0.0.UPF: wavefunction(s)  2S 2P renormalized
     file O.pbe-nl-kjpaw_psl.1.0.0.UPF: wavefunction(s)  2S 2P renormalized
     file H.pbe-kjpaw_psl.1.0.0.UPF: wavefunction(s)  1S renormalized

     **************************************************************************
     Initializing libbeef V0.1.2 with the BEEF-vdW functional.
     Citation: Wellendorff et al., PRB 85, 235149 (2012).
     **************************************************************************


     IMPORTANT: XC functional enforced from input :
     Exchange-correlation= BEEF-VDW
                           (   1   4  43  14   2   0   0)
     Any further DFT definition will be discarded
     Please, verify this is what you really want


     R & G space division:  proc/nbgrp/npool/nimage =      96
     Subspace diagonalization in iterative solution of the eigenvalue problem:
     one sub-group per band group will be used
     custom distributed-memory algorithm (size of sub-group:  2*  2 procs)


     Parallelization info
     --------------------
     sticks:   dense  smooth     PW     G-vecs:    dense   smooth      PW
     Min          43      28      7                 7829     4248     595
     Max          44      29      8                 7845     4281     630
     Sum        4153    2773    757               752179   409445   59217

     Using Slab Decomposition



     bravais-lattice index     =            0
     lattice parameter (alat)  =      14.1729  a.u.
     unit-cell volume          =    8574.3059 (a.u.)^3
     number of atoms/cell      =           39
     number of atomic types    =            4
     number of electrons       =       335.00
     number of Kohn-Sham states=          202
     kinetic-energy cutoff     =      50.0000  Ry
     charge density cutoff     =     300.0000  Ry
     scf convergence threshold =      1.0E-08
     mixing beta               =       0.7000
     number of iterations used =            8  local-TF  mixing
     Exchange-correlation= BEEF-VDW
                           (   1   4  43  14   2   0   0)

     celldm(1)=  14.172946  celldm(2)=   0.000000  celldm(3)=   0.000000
     celldm(4)=   0.000000  celldm(5)=   0.000000  celldm(6)=   0.000000

     crystal axes: (cart. coord. in units of alat)
               a(1) = (   1.000000   0.000000   0.000000 )  
               a(2) = (   0.500000   0.866025   0.000000 )  
               a(3) = (   0.000000   0.000000   3.477667 )  

     reciprocal axes: (cart. coord. in units 2 pi/alat)
               b(1) = (  1.000000 -0.577350  0.000000 )  
               b(2) = (  0.000000  1.154701  0.000000 )  
               b(3) = (  0.000000  0.000000  0.287549 )  


     PseudoPot. # 1 for Co read from file:
     /users/kbadger1/espresso/pseudo/pslibrary.1.0.0/pbe/PSEUDOPOTENTIALS/Co.pbe-n-kjpaw_psl.1.0.0.UPF
     MD5 check sum: 88af6ec42553d4236c267fdfcb472151
     Pseudo is Projector augmented-wave + core cor, Zval =  9.0
     Generated using 'atomic' code by A. Dal Corso  v.7.0
     Shape of augmentation charge: PSQ
     Using radial grid of 1193 points,  6 beta functions with: 
                l(1) =   0
                l(2) =   0
                l(3) =   1
                l(4) =   1
                l(5) =   2
                l(6) =   2
     Q(r) pseudized with 0 coefficients 


     PseudoPot. # 2 for C  read from file:
     /users/kbadger1/espresso/pseudo/pslibrary.1.0.0/pbe/PSEUDOPOTENTIALS/C.pbe-n-kjpaw_psl.1.0.0.UPF
     MD5 check sum: 6408e75cdba28732cea38a4db8498ce4
     Pseudo is Projector augmented-wave + core cor, Zval =  4.0
     Generated using 'atomic' code by A. Dal Corso  v.7.0
     Shape of augmentation charge: PSQ
     Using radial grid of 1073 points,  4 beta functions with: 
                l(1) =   0
                l(2) =   0
                l(3) =   1
                l(4) =   1
     Q(r) pseudized with 0 coefficients 


     PseudoPot. # 3 for O  read from file:
     /users/kbadger1/espresso/pseudo/pslibrary.1.0.0/pbe/PSEUDOPOTENTIALS/O.pbe-nl-kjpaw_psl.1.0.0.UPF
     MD5 check sum: f0439fab3598ca4e468f064226030408
     Pseudo is Projector augmented-wave + core cor, Zval =  6.0
     Generated using 'atomic' code by A. Dal Corso  v.7.0
     Shape of augmentation charge: PSQ
     Using radial grid of 1095 points,  4 beta functions with: 
                l(1) =   0
                l(2) =   0
                l(3) =   1
                l(4) =   1
     Q(r) pseudized with 0 coefficients 


     PseudoPot. # 4 for H  read from file:
     /users/kbadger1/espresso/pseudo/pslibrary.1.0.0/pbe/PSEUDOPOTENTIALS/H.pbe-kjpaw_psl.1.0.0.UPF
     MD5 check sum: fe4c6fa958fa6d3815bf5d2419cbf1df
     Pseudo is Projector augmented-wave, Zval =  1.0
     Generated using 'atomic' code by A. Dal Corso  v.7.0
     Shape of augmentation charge: PSQ
     Using radial grid of  929 points,  2 beta functions with: 
                l(1) =   0
                l(2) =   0
     Q(r) pseudized with 0 coefficients 


     atomic species   valence    mass     pseudopotential
        Co             9.00    58.93319     Co( 1.00)
        C              4.00    12.01100     C ( 1.00)
        O              6.00    15.99900     O ( 1.00)
        H              1.00     1.00800     H ( 1.00)

     Starting magnetic structure 
     atomic species   magnetization
        Co           1.000
        C            1.000
        O            0.000
        H            0.000

     No symmetry found



   Cartesian axes

     site n.     atom                  positions (alat units)
         1           Co  tau(   1) = (   0.0000000   0.1924501   1.3333333  )
         2           Co  tau(   2) = (   0.3333333   0.1924501   1.3333333  )
         3           Co  tau(   3) = (   0.6666667   0.1924501   1.3333333  )
         4           Co  tau(   4) = (   0.1666667   0.4811252   1.3333333  )
         5           Co  tau(   5) = (   0.5000000   0.4811252   1.3333333  )
         6           Co  tau(   6) = (   0.8333333   0.4811252   1.3333333  )
         7           Co  tau(   7) = (   0.3333333   0.7698004   1.3333333  )
         8           Co  tau(   8) = (   0.6666667   0.7698004   1.3333333  )
         9           Co  tau(   9) = (   1.0000000   0.7698004   1.3333333  )
        10           Co  tau(  10) = (   0.0000000   0.0000000   1.6036667  )
        11           Co  tau(  11) = (   0.3333333   0.0000000   1.6036667  )
        12           Co  tau(  12) = (   0.6666667   0.0000000   1.6036667  )
        13           Co  tau(  13) = (   0.1666667   0.2886751   1.6036667  )
        14           Co  tau(  14) = (   0.5000000   0.2886751   1.6036667  )
        15           Co  tau(  15) = (   0.8333333   0.2886751   1.6036667  )
        16           Co  tau(  16) = (   0.3333333   0.5773503   1.6036667  )
        17           Co  tau(  17) = (   0.6666667   0.5773503   1.6036667  )
        18           Co  tau(  18) = (   1.0000000   0.5773503   1.6036667  )
        19           Co  tau(  19) = (   0.0000000   0.1924501   1.8740000  )
        20           Co  tau(  20) = (   0.3333333   0.1924501   1.8740000  )
        21           Co  tau(  21) = (   0.6666667   0.1924501   1.8740000  )
        22           Co  tau(  22) = (   0.1666667   0.4811252   1.8740000  )
        23           Co  tau(  23) = (   0.5000000   0.4811252   1.8740000  )
        24           Co  tau(  24) = (   0.8333333   0.4811252   1.8740000  )
        25           Co  tau(  25) = (   0.3333333   0.7698004   1.8740000  )
        26           Co  tau(  26) = (   0.6666667   0.7698004   1.8740000  )
        27           Co  tau(  27) = (   1.0000000   0.7698004   1.8740000  )
        28           Co  tau(  28) = (   0.0000000   0.0000000   2.1443333  )
        29           Co  tau(  29) = (   0.3333333   0.0000000   2.1443333  )
        30           Co  tau(  30) = (   0.6666667   0.0000000   2.1443333  )
        31           Co  tau(  31) = (   0.1666667   0.2886751   2.1443333  )
        32           Co  tau(  32) = (   0.5000000   0.2886751   2.1443333  )
        33           Co  tau(  33) = (   0.8333333   0.2886751   2.1443333  )
        34           Co  tau(  34) = (   0.3333333   0.5773503   2.1443333  )
        35           Co  tau(  35) = (   0.6666667   0.5773503   2.1443333  )
        36           Co  tau(  36) = (   1.0000000   0.5773503   2.1443333  )
        37           C   tau(  37) = (   0.2427567  -0.0111737   2.3775131  )
        38           O   tau(  38) = (   0.0794481  -0.0078785   2.4170243  )
        39           H   tau(  39) = (   0.3364945  -0.0206270   2.4905005  )

     number of k points=    13  Marzari-Vanderbilt smearing, width (Ry)=  0.0010
                       cart. coord. in units 2pi/alat
        k(    1) = (   0.0000000   0.0000000   0.0000000), wk =   0.0400000
        k(    2) = (   0.0000000   0.2309401   0.0000000), wk =   0.0800000
        k(    3) = (   0.0000000   0.4618802   0.0000000), wk =   0.0800000
        k(    4) = (   0.2000000  -0.1154701   0.0000000), wk =   0.0800000
        k(    5) = (   0.2000000   0.1154701   0.0000000), wk =   0.0800000
        k(    6) = (   0.2000000   0.3464102   0.0000000), wk =   0.0800000
        k(    7) = (   0.2000000  -0.5773503   0.0000000), wk =   0.0800000
        k(    8) = (   0.2000000  -0.3464102   0.0000000), wk =   0.0800000
        k(    9) = (   0.4000000  -0.2309401   0.0000000), wk =   0.0800000
        k(   10) = (   0.4000000   0.0000000   0.0000000), wk =   0.0800000
        k(   11) = (   0.4000000   0.2309401   0.0000000), wk =   0.0800000
        k(   12) = (   0.4000000  -0.6928203   0.0000000), wk =   0.0800000
        k(   13) = (   0.4000000  -0.4618802   0.0000000), wk =   0.0800000

     Dense  grid:   752179 G-vectors     FFT dimensions: (  80,  80, 288)

     Smooth grid:   409445 G-vectors     FFT dimensions: (  64,  64, 225)

     Estimated max dynamical RAM per process >      99.02 MB

     Estimated total dynamical RAM >       9.28 GB
     Generating pointlists ...
     new r_m :   0.1033 (alat units)  1.4639 (a.u.) for type    1
     new r_m :   0.0607 (alat units)  0.8601 (a.u.) for type    2
     new r_m :   0.0693 (alat units)  0.9825 (a.u.) for type    3
     new r_m :   0.0607 (alat units)  0.8601 (a.u.) for type    4

     Initial potential from superposition of free atoms

     starting charge     334.9897, renormalised to     335.0000

     negative rho (up, down):  2.977E-03 4.700E-04


     %%%%%%%%%%%%%%%%%%%%%%%%%%%%%%%%%%%%%%%%%%%%%%%%%%%%%%%%%%%%%%%%%%%%%%%%
     %                                                                      %
     % You are using vdW-DF, which was implemented by the Thonhauser group. %
     % Please cite the following two papers that made this development      %
     % possible and the two reviews that describe the various versions:     %
     %                                                                      %
     %   T. Thonhauser et al., PRL 115, 136402 (2015).                      %
     %   T. Thonhauser et al., PRB 76, 125112 (2007).                       %
     %   K. Berland et al., Rep. Prog. Phys. 78, 066501 (2015).             %
     %   D.C. Langreth et al., J. Phys.: Condens. Matter 21, 084203 (2009). %
     %                                                                      %
     % If you are calculating stress with vdW-DF, please also cite:         %
     %                                                                      %
     %   R. Sabatini et al., J. Phys.: Condens. Matter 24, 424209 (2012).   %
     %   C.M. Frostenson et al., Electr. Struct. 4, 014001 (2022).          %
     %                                                                      %
     %%%%%%%%%%%%%%%%%%%%%%%%%%%%%%%%%%%%%%%%%%%%%%%%%%%%%%%%%%%%%%%%%%%%%%%%

     %%%%%%%%%%%%%%%%%%%%%%%%%%%%%%%%%%%%%%%%%%%%%%%%%%%%%%%%%%%%%%%%%%%%%%%%
     %                                                                      %
     %  vdW-DF NEWS:                                                        %
     %                                                                      %
     %  * vdW-DF3 is now available. DOI: 10.1021/acs.jctc.0c00471           %
     %    use with input_dft = 'vdW-DF3-opt1' or 'vdW-DF3-opt2'             %
     %                                                                      %
     %  * Unscreened and range-separated hybrid vdW-DF-cx functionals       %
     %    DOI: 10.1063/1.4986522 and 10.1088/1361-648X/ac2ad2               %
     %    use with input_dft = 'vdW-DF-cx0'    and 'vdW-DF-ahcx'            %
     %  * Unscreened and range-separated hybrid vdW-DF2-b86r functionals    %
     %    DOI: 10.1063/1.4986522 and DOI: 10.1103/PhysRevX.12.041003        %
     %    use with input_dft = 'vdW-DF2-br0' and 'vdW-DF2-ahbr'             %
     %                                                                      %
     %%%%%%%%%%%%%%%%%%%%%%%%%%%%%%%%%%%%%%%%%%%%%%%%%%%%%%%%%%%%%%%%%%%%%%%%


     Starting wfcs are  333 randomized atomic wfcs
     Checking if some PAW data can be deallocated... 

     total cpu time spent up to now is       12.3 secs

     per-process dynamical memory:   231.9 Mb

     Self-consistent Calculation

     iteration #  1     ecut=    50.00 Ry     beta= 0.70
     Davidson diagonalization with overlap
     ethr =  1.00E-02,  avg # of iterations =  2.0

     negative rho (up, down):  2.291E-05 2.669E-08

     total cpu time spent up to now is       31.0 secs

     total energy              =   -6053.06029950 Ry
     estimated scf accuracy    <      39.79016387 Ry

     total magnetization       =    69.00 Bohr mag/cell
     absolute magnetization    =    81.20 Bohr mag/cell

     iteration #  2     ecut=    50.00 Ry     beta= 0.70
     Davidson diagonalization with overlap
     ethr =  1.00E-02,  avg # of iterations =  1.0

     negative rho (up, down):  2.351E-06 8.449E-10

     total cpu time spent up to now is       45.1 secs

     total energy              =   -6052.43576430 Ry
     estimated scf accuracy    <      25.62855181 Ry

     total magnetization       =    69.00 Bohr mag/cell
     absolute magnetization    =    76.80 Bohr mag/cell

     iteration #  3     ecut=    50.00 Ry     beta= 0.70
     Davidson diagonalization with overlap
     ethr =  7.65E-03,  avg # of iterations =  1.0

     negative rho (up, down):  1.226E-08 0.000E+00

     total cpu time spent up to now is       59.3 secs

     total energy              =   -6055.17488145 Ry
     estimated scf accuracy    <      84.03136218 Ry

     total magnetization       =    66.12 Bohr mag/cell
     absolute magnetization    =    73.29 Bohr mag/cell

     iteration #  4     ecut=    50.00 Ry     beta= 0.70
     Davidson diagonalization with overlap
     ethr =  7.65E-03,  avg # of iterations =  1.0

     total cpu time spent up to now is       72.6 secs

     total energy              =   -6056.35927907 Ry
     estimated scf accuracy    <       5.80463357 Ry

     total magnetization       =    60.74 Bohr mag/cell
     absolute magnetization    =    70.55 Bohr mag/cell

     iteration #  5     ecut=    50.00 Ry     beta= 0.70
     Davidson diagonalization with overlap
     ethr =  1.73E-03,  avg # of iterations =  1.2

     total cpu time spent up to now is       86.9 secs

     total energy              =   -6056.37069932 Ry
     estimated scf accuracy    <       3.49257550 Ry

     total magnetization       =    60.61 Bohr mag/cell
     absolute magnetization    =    69.95 Bohr mag/cell

     iteration #  6     ecut=    50.00 Ry     beta= 0.70
     Davidson diagonalization with overlap
     ethr =  1.04E-03,  avg # of iterations =  1.4

     total cpu time spent up to now is      100.3 secs

     total energy              =   -6056.48271715 Ry
     estimated scf accuracy    <       0.55622906 Ry

     total magnetization       =    60.53 Bohr mag/cell
     absolute magnetization    =    69.68 Bohr mag/cell

     iteration #  7     ecut=    50.00 Ry     beta= 0.70
     Davidson diagonalization with overlap
     ethr =  1.66E-04,  avg # of iterations =  6.8

     total cpu time spent up to now is      121.1 secs

     total energy              =   -6056.51995876 Ry
     estimated scf accuracy    <       0.89329968 Ry

     total magnetization       =    61.03 Bohr mag/cell
     absolute magnetization    =    69.61 Bohr mag/cell

     iteration #  8     ecut=    50.00 Ry     beta= 0.70
     Davidson diagonalization with overlap
     ethr =  1.66E-04,  avg # of iterations =  1.7

     total cpu time spent up to now is      135.0 secs

     total energy              =   -6056.53723368 Ry
     estimated scf accuracy    <       0.18254910 Ry

     total magnetization       =    61.03 Bohr mag/cell
     absolute magnetization    =    69.49 Bohr mag/cell

     iteration #  9     ecut=    50.00 Ry     beta= 0.70
     Davidson diagonalization with overlap
     c_bands:  2 eigenvalues not converged
     ethr =  5.45E-05,  avg # of iterations =  9.0

     total cpu time spent up to now is      157.0 secs

     total energy              =   -6056.54319767 Ry
     estimated scf accuracy    <       0.13974101 Ry

     total magnetization       =    61.16 Bohr mag/cell
     absolute magnetization    =    69.41 Bohr mag/cell

     iteration # 10     ecut=    50.00 Ry     beta= 0.70
     Davidson diagonalization with overlap
     ethr =  4.17E-05,  avg # of iterations =  4.0

     total cpu time spent up to now is      173.8 secs

     total energy              =   -6056.54475770 Ry
     estimated scf accuracy    <       0.19607358 Ry

     total magnetization       =    61.33 Bohr mag/cell
     absolute magnetization    =    69.30 Bohr mag/cell

     iteration # 11     ecut=    50.00 Ry     beta= 0.70
     Davidson diagonalization with overlap
     ethr =  4.17E-05,  avg # of iterations =  1.5

     total cpu time spent up to now is      188.5 secs

     total energy              =   -6056.54112499 Ry
     estimated scf accuracy    <       0.09755109 Ry

     total magnetization       =    61.33 Bohr mag/cell
     absolute magnetization    =    69.20 Bohr mag/cell

     iteration # 12     ecut=    50.00 Ry     beta= 0.70
     Davidson diagonalization with overlap
     ethr =  2.91E-05,  avg # of iterations =  2.6

     total cpu time spent up to now is      203.6 secs

     total energy              =   -6056.54288449 Ry
     estimated scf accuracy    <       0.09658930 Ry

     total magnetization       =    61.30 Bohr mag/cell
     absolute magnetization    =    69.03 Bohr mag/cell

     iteration # 13     ecut=    50.00 Ry     beta= 0.70
     Davidson diagonalization with overlap
     ethr =  2.88E-05,  avg # of iterations =  1.3

     total cpu time spent up to now is      216.8 secs

     total energy              =   -6056.53963739 Ry
     estimated scf accuracy    <       0.09780403 Ry

     total magnetization       =    61.33 Bohr mag/cell
     absolute magnetization    =    68.99 Bohr mag/cell

     iteration # 14     ecut=    50.00 Ry     beta= 0.70
     Davidson diagonalization with overlap
     ethr =  2.88E-05,  avg # of iterations =  1.5

     negative rho (up, down):  2.169E-04 2.616E-05

     total cpu time spent up to now is      231.0 secs

     total energy              =   -6056.53336817 Ry
     estimated scf accuracy    <       0.06931405 Ry

     total magnetization       =    61.33 Bohr mag/cell
     absolute magnetization    =    69.02 Bohr mag/cell

     iteration # 15     ecut=    50.00 Ry     beta= 0.70
     Davidson diagonalization with overlap
     c_bands:  3 eigenvalues not converged
     c_bands:  3 eigenvalues not converged
     ethr =  2.07E-05,  avg # of iterations =  3.8

     negative rho (up, down):  9.367E-03 7.774E-03

     total cpu time spent up to now is      248.0 secs

     total energy              =   -6056.52986163 Ry
     estimated scf accuracy    <       0.13397980 Ry

     total magnetization       =    61.33 Bohr mag/cell
     absolute magnetization    =    68.95 Bohr mag/cell

     iteration # 16     ecut=    50.00 Ry     beta= 0.70
     Davidson diagonalization with overlap
     ethr =  2.07E-05,  avg # of iterations =  1.6

     negative rho (up, down):  1.462E-02 1.289E-02

     total cpu time spent up to now is      262.3 secs

     total energy              =   -6056.53093394 Ry
     estimated scf accuracy    <       0.02512295 Ry

     total magnetization       =    61.33 Bohr mag/cell
     absolute magnetization    =    68.92 Bohr mag/cell

     iteration # 17     ecut=    50.00 Ry     beta= 0.70
     Davidson diagonalization with overlap
     c_bands:  1 eigenvalues not converged
     c_bands:  1 eigenvalues not converged
     c_bands:  2 eigenvalues not converged
     ethr =  7.50E-06,  avg # of iterations =  9.8

     negative rho (up, down):  1.629E-02 1.459E-02

     total cpu time spent up to now is      283.9 secs

     total energy              =   -6056.52939816 Ry
     estimated scf accuracy    <       0.04475152 Ry

     total magnetization       =    61.33 Bohr mag/cell
     absolute magnetization    =    68.91 Bohr mag/cell

     iteration # 18     ecut=    50.00 Ry     beta= 0.70
     Davidson diagonalization with overlap
     ethr =  7.50E-06,  avg # of iterations =  1.6

     negative rho (up, down):  1.184E-02 1.047E-02

     total cpu time spent up to now is      299.5 secs

     total energy              =   -6056.52880699 Ry
     estimated scf accuracy    <       0.01771927 Ry

     total magnetization       =    61.33 Bohr mag/cell
     absolute magnetization    =    68.89 Bohr mag/cell

     iteration # 19     ecut=    50.00 Ry     beta= 0.70
     Davidson diagonalization with overlap
     ethr =  5.29E-06,  avg # of iterations =  2.0

     negative rho (up, down):  2.213E-02 2.038E-02

     total cpu time spent up to now is      313.6 secs

     total energy              =   -6056.52773718 Ry
     estimated scf accuracy    <       0.01816189 Ry

     total magnetization       =    61.33 Bohr mag/cell
     absolute magnetization    =    68.89 Bohr mag/cell

     iteration # 20     ecut=    50.00 Ry     beta= 0.70
     Davidson diagonalization with overlap
     ethr =  5.29E-06,  avg # of iterations =  1.8

     negative rho (up, down):  2.291E-02 2.165E-02

     total cpu time spent up to now is      328.5 secs

     total energy              =   -6056.52666525 Ry
     estimated scf accuracy    <       0.01183826 Ry

     total magnetization       =    61.33 Bohr mag/cell
     absolute magnetization    =    68.87 Bohr mag/cell

     iteration # 21     ecut=    50.00 Ry     beta= 0.70
     Davidson diagonalization with overlap
     ethr =  3.53E-06,  avg # of iterations =  2.3

     negative rho (up, down):  2.412E-02 2.288E-02

     total cpu time spent up to now is      343.1 secs

     total energy              =   -6056.52678771 Ry
     estimated scf accuracy    <       0.00824880 Ry

     total magnetization       =    61.33 Bohr mag/cell
     absolute magnetization    =    68.87 Bohr mag/cell

     iteration # 22     ecut=    50.00 Ry     beta= 0.70
     Davidson diagonalization with overlap
     c_bands:  1 eigenvalues not converged
     c_bands:  2 eigenvalues not converged
     ethr =  2.46E-06,  avg # of iterations =  3.2

     negative rho (up, down):  2.008E-02 1.899E-02

     total cpu time spent up to now is      360.3 secs

     total energy              =   -6056.52675406 Ry
     estimated scf accuracy    <       0.00277500 Ry

     total magnetization       =    61.33 Bohr mag/cell
     absolute magnetization    =    68.86 Bohr mag/cell

     iteration # 23     ecut=    50.00 Ry     beta= 0.70
     Davidson diagonalization with overlap
     ethr =  8.28E-07,  avg # of iterations =  4.0

     negative rho (up, down):  1.526E-02 1.435E-02

     total cpu time spent up to now is      376.4 secs

     total energy              =   -6056.52668961 Ry
     estimated scf accuracy    <       0.00160707 Ry

     total magnetization       =    61.33 Bohr mag/cell
     absolute magnetization    =    68.87 Bohr mag/cell

     iteration # 24     ecut=    50.00 Ry     beta= 0.70
     Davidson diagonalization with overlap
     ethr =  4.80E-07,  avg # of iterations =  3.2

     negative rho (up, down):  7.954E-03 7.179E-03

     total cpu time spent up to now is      392.5 secs

     total energy              =   -6056.52672816 Ry
     estimated scf accuracy    <       0.00193692 Ry

     total magnetization       =    61.33 Bohr mag/cell
     absolute magnetization    =    68.87 Bohr mag/cell

     iteration # 25     ecut=    50.00 Ry     beta= 0.70
     Davidson diagonalization with overlap
     ethr =  4.80E-07,  avg # of iterations =  1.8

     negative rho (up, down):  7.322E-03 6.557E-03

     total cpu time spent up to now is      406.8 secs

     total energy              =   -6056.52670950 Ry
     estimated scf accuracy    <       0.00061404 Ry

     total magnetization       =    61.32 Bohr mag/cell
     absolute magnetization    =    68.88 Bohr mag/cell

     iteration # 26     ecut=    50.00 Ry     beta= 0.70
     Davidson diagonalization with overlap
     ethr =  1.83E-07,  avg # of iterations =  2.7

     negative rho (up, down):  5.277E-03 4.461E-03

     total cpu time spent up to now is      423.3 secs

     total energy              =   -6056.52679043 Ry
     estimated scf accuracy    <       0.00055034 Ry

     total magnetization       =    61.33 Bohr mag/cell
     absolute magnetization    =    68.88 Bohr mag/cell

     iteration # 27     ecut=    50.00 Ry     beta= 0.70
     Davidson diagonalization with overlap
     ethr =  1.64E-07,  avg # of iterations =  1.5

     negative rho (up, down):  5.307E-03 4.453E-03

     total cpu time spent up to now is      437.0 secs

     total energy              =   -6056.52686922 Ry
     estimated scf accuracy    <       0.00041323 Ry

     total magnetization       =    61.33 Bohr mag/cell
     absolute magnetization    =    68.88 Bohr mag/cell

     iteration # 28     ecut=    50.00 Ry     beta= 0.70
     Davidson diagonalization with overlap
     ethr =  1.23E-07,  avg # of iterations =  1.7

     negative rho (up, down):  4.394E-03 3.528E-03

     total cpu time spent up to now is      451.9 secs

     total energy              =   -6056.52681706 Ry
     estimated scf accuracy    <       0.00022037 Ry

     total magnetization       =    61.33 Bohr mag/cell
     absolute magnetization    =    68.88 Bohr mag/cell

     iteration # 29     ecut=    50.00 Ry     beta= 0.70
     Davidson diagonalization with overlap
     ethr =  6.58E-08,  avg # of iterations =  4.7

     negative rho (up, down):  4.280E-03 3.394E-03

     total cpu time spent up to now is      469.2 secs

     total energy              =   -6056.52683385 Ry
     estimated scf accuracy    <       0.00024063 Ry

     total magnetization       =    61.33 Bohr mag/cell
     absolute magnetization    =    68.88 Bohr mag/cell

     iteration # 30     ecut=    50.00 Ry     beta= 0.70
     Davidson diagonalization with overlap
     ethr =  6.58E-08,  avg # of iterations =  1.3

     negative rho (up, down):  3.857E-03 2.875E-03

     total cpu time spent up to now is      483.8 secs

     total energy              =   -6056.52685133 Ry
     estimated scf accuracy    <       0.00015544 Ry

     total magnetization       =    61.33 Bohr mag/cell
     absolute magnetization    =    68.88 Bohr mag/cell

     iteration # 31     ecut=    50.00 Ry     beta= 0.70
     Davidson diagonalization with overlap
     ethr =  4.64E-08,  avg # of iterations =  1.6

     negative rho (up, down):  3.540E-03 2.491E-03

     total cpu time spent up to now is      498.8 secs

     total energy              =   -6056.52685639 Ry
     estimated scf accuracy    <       0.00032228 Ry

     total magnetization       =    61.33 Bohr mag/cell
     absolute magnetization    =    68.88 Bohr mag/cell

     iteration # 32     ecut=    50.00 Ry     beta= 0.70
     Davidson diagonalization with overlap
     ethr =  4.64E-08,  avg # of iterations =  1.8

     negative rho (up, down):  3.615E-03 2.631E-03

     total cpu time spent up to now is      513.2 secs

     total energy              =   -6056.52686474 Ry
     estimated scf accuracy    <       0.00013715 Ry

     total magnetization       =    61.33 Bohr mag/cell
     absolute magnetization    =    68.87 Bohr mag/cell

     iteration # 33     ecut=    50.00 Ry     beta= 0.70
     Davidson diagonalization with overlap
     ethr =  4.09E-08,  avg # of iterations =  1.0

     negative rho (up, down):  3.560E-03 2.576E-03

     total cpu time spent up to now is      526.3 secs

     total energy              =   -6056.52686827 Ry
     estimated scf accuracy    <       0.00003063 Ry

     total magnetization       =    61.33 Bohr mag/cell
     absolute magnetization    =    68.87 Bohr mag/cell

     iteration # 34     ecut=    50.00 Ry     beta= 0.70
     Davidson diagonalization with overlap
     ethr =  9.14E-09,  avg # of iterations =  5.2

     negative rho (up, down):  3.574E-03 2.609E-03

     total cpu time spent up to now is      545.9 secs

     total energy              =   -6056.52687029 Ry
     estimated scf accuracy    <       0.00006486 Ry

     total magnetization       =    61.33 Bohr mag/cell
     absolute magnetization    =    68.87 Bohr mag/cell

     iteration # 35     ecut=    50.00 Ry     beta= 0.70
     Davidson diagonalization with overlap
     ethr =  9.14E-09,  avg # of iterations =  1.4

     negative rho (up, down):  3.114E-03 2.072E-03

     total cpu time spent up to now is      560.5 secs

     total energy              =   -6056.52686240 Ry
     estimated scf accuracy    <       0.00001604 Ry

     total magnetization       =    61.33 Bohr mag/cell
     absolute magnetization    =    68.87 Bohr mag/cell

     iteration # 36     ecut=    50.00 Ry     beta= 0.70
     Davidson diagonalization with overlap
     ethr =  4.79E-09,  avg # of iterations =  2.6

     negative rho (up, down):  2.983E-03 1.931E-03

     total cpu time spent up to now is      575.8 secs

     total energy              =   -6056.52686092 Ry
     estimated scf accuracy    <       0.00007088 Ry

     total magnetization       =    61.33 Bohr mag/cell
     absolute magnetization    =    68.87 Bohr mag/cell

     iteration # 37     ecut=    50.00 Ry     beta= 0.70
     Davidson diagonalization with overlap
     ethr =  4.79E-09,  avg # of iterations =  1.3

     negative rho (up, down):  2.947E-03 1.913E-03

     total cpu time spent up to now is      590.1 secs

     total energy              =   -6056.52686077 Ry
     estimated scf accuracy    <       0.00002638 Ry

     total magnetization       =    61.33 Bohr mag/cell
     absolute magnetization    =    68.87 Bohr mag/cell

     iteration # 38     ecut=    50.00 Ry     beta= 0.70
     Davidson diagonalization with overlap
     ethr =  4.79E-09,  avg # of iterations =  1.8

     negative rho (up, down):  2.708E-03 1.624E-03

     total cpu time spent up to now is      605.8 secs

     total energy              =   -6056.52685769 Ry
     estimated scf accuracy    <       0.00005270 Ry

     total magnetization       =    61.33 Bohr mag/cell
     absolute magnetization    =    68.87 Bohr mag/cell

     iteration # 39     ecut=    50.00 Ry     beta= 0.70
     Davidson diagonalization with overlap
     ethr =  4.79E-09,  avg # of iterations =  1.0

     negative rho (up, down):  2.475E-03 1.377E-03

     total cpu time spent up to now is      619.9 secs

     total energy              =   -6056.52685905 Ry
     estimated scf accuracy    <       0.00000999 Ry

     total magnetization       =    61.33 Bohr mag/cell
     absolute magnetization    =    68.87 Bohr mag/cell

     iteration # 40     ecut=    50.00 Ry     beta= 0.70
     Davidson diagonalization with overlap
     ethr =  2.98E-09,  avg # of iterations =  1.5

     negative rho (up, down):  2.300E-03 1.191E-03

     total cpu time spent up to now is      633.8 secs

     total energy              =   -6056.52685902 Ry
     estimated scf accuracy    <       0.00001737 Ry

     total magnetization       =    61.33 Bohr mag/cell
     absolute magnetization    =    68.87 Bohr mag/cell

     iteration # 41     ecut=    50.00 Ry     beta= 0.70
     Davidson diagonalization with overlap
     ethr =  2.98E-09,  avg # of iterations =  1.3

     negative rho (up, down):  2.255E-03 1.143E-03

     total cpu time spent up to now is      647.9 secs

     total energy              =   -6056.52685931 Ry
     estimated scf accuracy    <       0.00000554 Ry

     total magnetization       =    61.33 Bohr mag/cell
     absolute magnetization    =    68.87 Bohr mag/cell

     iteration # 42     ecut=    50.00 Ry     beta= 0.70
     Davidson diagonalization with overlap
     ethr =  1.65E-09,  avg # of iterations =  1.4

     negative rho (up, down):  2.258E-03 1.151E-03

     total cpu time spent up to now is      663.0 secs

     total energy              =   -6056.52685940 Ry
     estimated scf accuracy    <       0.00000263 Ry

     total magnetization       =    61.33 Bohr mag/cell
     absolute magnetization    =    68.87 Bohr mag/cell

     iteration # 43     ecut=    50.00 Ry     beta= 0.70
     Davidson diagonalization with overlap
     ethr =  7.86E-10,  avg # of iterations =  2.6

     negative rho (up, down):  2.253E-03 1.146E-03

     total cpu time spent up to now is      679.0 secs

     total energy              =   -6056.52685949 Ry
     estimated scf accuracy    <       0.00000261 Ry

     total magnetization       =    61.33 Bohr mag/cell
     absolute magnetization    =    68.87 Bohr mag/cell

     iteration # 44     ecut=    50.00 Ry     beta= 0.70
     Davidson diagonalization with overlap
     ethr =  7.79E-10,  avg # of iterations =  1.3

     negative rho (up, down):  2.262E-03 1.154E-03

     total cpu time spent up to now is      692.7 secs

     total energy              =   -6056.52685954 Ry
     estimated scf accuracy    <       0.00000219 Ry

     total magnetization       =    61.33 Bohr mag/cell
     absolute magnetization    =    68.87 Bohr mag/cell

     iteration # 45     ecut=    50.00 Ry     beta= 0.70
     Davidson diagonalization with overlap
     ethr =  6.54E-10,  avg # of iterations =  1.2

     negative rho (up, down):  2.216E-03 1.110E-03

     total cpu time spent up to now is      706.2 secs

     total energy              =   -6056.52685951 Ry
     estimated scf accuracy    <       0.00000066 Ry

     total magnetization       =    61.33 Bohr mag/cell
     absolute magnetization    =    68.87 Bohr mag/cell

     iteration # 46     ecut=    50.00 Ry     beta= 0.70
     Davidson diagonalization with overlap
     ethr =  1.97E-10,  avg # of iterations =  3.4

     negative rho (up, down):  2.197E-03 1.093E-03

     total cpu time spent up to now is      723.4 secs

     total energy              =   -6056.52685951 Ry
     estimated scf accuracy    <       0.00000035 Ry

     total magnetization       =    61.33 Bohr mag/cell
     absolute magnetization    =    68.87 Bohr mag/cell

     iteration # 47     ecut=    50.00 Ry     beta= 0.70
     Davidson diagonalization with overlap
     ethr =  1.03E-10,  avg # of iterations =  3.2

     negative rho (up, down):  2.233E-03 1.129E-03

     total cpu time spent up to now is      740.4 secs

     total energy              =   -6056.52685960 Ry
     estimated scf accuracy    <       0.00000023 Ry

     total magnetization       =    61.33 Bohr mag/cell
     absolute magnetization    =    68.87 Bohr mag/cell

     iteration # 48     ecut=    50.00 Ry     beta= 0.70
     Davidson diagonalization with overlap
     ethr =  6.80E-11,  avg # of iterations =  2.2

     negative rho (up, down):  2.215E-03 1.112E-03

     total cpu time spent up to now is      755.5 secs

     total energy              =   -6056.52685957 Ry
     estimated scf accuracy    <       0.00000063 Ry

     total magnetization       =    61.33 Bohr mag/cell
     absolute magnetization    =    68.87 Bohr mag/cell

     iteration # 49     ecut=    50.00 Ry     beta= 0.70
     Davidson diagonalization with overlap
     ethr =  6.80E-11,  avg # of iterations =  1.5

     negative rho (up, down):  2.214E-03 1.111E-03

     total cpu time spent up to now is      770.4 secs

     total energy              =   -6056.52685959 Ry
     estimated scf accuracy    <       0.00000024 Ry

     total magnetization       =    61.33 Bohr mag/cell
     absolute magnetization    =    68.87 Bohr mag/cell

     iteration # 50     ecut=    50.00 Ry     beta= 0.70
     Davidson diagonalization with overlap
     ethr =  6.80E-11,  avg # of iterations =  1.0

     negative rho (up, down):  2.212E-03 1.110E-03

     total cpu time spent up to now is      784.6 secs

     total energy              =   -6056.52685962 Ry
     estimated scf accuracy    <       0.00000001 Ry

     total magnetization       =    61.33 Bohr mag/cell
     absolute magnetization    =    68.87 Bohr mag/cell

     iteration # 51     ecut=    50.00 Ry     beta= 0.70
     Davidson diagonalization with overlap
     c_bands:  1 eigenvalues not converged
     ethr =  3.10E-12,  avg # of iterations = 10.3

     negative rho (up, down):  2.214E-03 1.112E-03

     total cpu time spent up to now is      813.9 secs

     total energy              =   -6056.52685962 Ry
     estimated scf accuracy    <       0.00000002 Ry

     total magnetization       =    61.33 Bohr mag/cell
     absolute magnetization    =    68.87 Bohr mag/cell

     iteration # 52     ecut=    50.00 Ry     beta= 0.70
     Davidson diagonalization with overlap
     ethr =  3.10E-12,  avg # of iterations =  2.0

     negative rho (up, down):  2.214E-03 1.112E-03

     total cpu time spent up to now is      829.7 secs

     total energy              =   -6056.52685962 Ry
     estimated scf accuracy    <       0.00000003 Ry

     total magnetization       =    61.33 Bohr mag/cell
     absolute magnetization    =    68.87 Bohr mag/cell

     iteration # 53     ecut=    50.00 Ry     beta= 0.70
     Davidson diagonalization with overlap
     ethr =  3.10E-12,  avg # of iterations =  1.5

     negative rho (up, down):  2.213E-03 1.113E-03

     Magnetic moment per site  (integrated on atomic sphere of radius R)
     atom   1 (R=0.103)  charge=  6.2564  magn=  1.7704
     atom   2 (R=0.103)  charge=  6.2565  magn=  1.7720
     atom   3 (R=0.103)  charge=  6.2565  magn=  1.7725
     atom   4 (R=0.103)  charge=  6.2569  magn=  1.7756
     atom   5 (R=0.103)  charge=  6.2566  magn=  1.7749
     atom   6 (R=0.103)  charge=  6.2567  magn=  1.7751
     atom   7 (R=0.103)  charge=  6.2564  magn=  1.7749
     atom   8 (R=0.103)  charge=  6.2565  magn=  1.7687
     atom   9 (R=0.103)  charge=  6.2570  magn=  1.7706
     atom  10 (R=0.103)  charge=  6.2630  magn=  1.7112
     atom  11 (R=0.103)  charge=  6.2635  magn=  1.6893
     atom  12 (R=0.103)  charge=  6.2637  magn=  1.7078
     atom  13 (R=0.103)  charge=  6.2632  magn=  1.7068
     atom  14 (R=0.103)  charge=  6.2638  magn=  1.6986
     atom  15 (R=0.103)  charge=  6.2636  magn=  1.6966
     atom  16 (R=0.103)  charge=  6.2630  magn=  1.6939
     atom  17 (R=0.103)  charge=  6.2636  magn=  1.7075
     atom  18 (R=0.103)  charge=  6.2636  magn=  1.7009
     atom  19 (R=0.103)  charge=  6.2614  magn=  1.7000
     atom  20 (R=0.103)  charge=  6.2636  magn=  1.6774
     atom  21 (R=0.103)  charge=  6.2623  magn=  1.7112
     atom  22 (R=0.103)  charge=  6.2638  magn=  1.6955
     atom  23 (R=0.103)  charge=  6.2636  magn=  1.6891
     atom  24 (R=0.103)  charge=  6.2633  magn=  1.7062
     atom  25 (R=0.103)  charge=  6.2628  magn=  1.6782
     atom  26 (R=0.103)  charge=  6.2591  magn=  1.7179
     atom  27 (R=0.103)  charge=  6.2654  magn=  1.6677
     atom  28 (R=0.103)  charge=  6.2612  magn=  1.6881
     atom  29 (R=0.103)  charge=  6.2846  magn=  1.1288
     atom  30 (R=0.103)  charge=  6.2575  magn=  1.7826
     atom  31 (R=0.103)  charge=  6.2614  magn=  1.7763
     atom  32 (R=0.103)  charge=  6.2561  magn=  1.7781
     atom  33 (R=0.103)  charge=  6.2580  magn=  1.7885
     atom  34 (R=0.103)  charge=  6.2584  magn=  1.7949
     atom  35 (R=0.103)  charge=  6.2638  magn=  1.7606
     atom  36 (R=0.103)  charge=  6.2570  magn=  1.7705
     atom  37 (R=0.061)  charge=  0.8411  magn= -0.0199
     atom  38 (R=0.069)  charge=  3.1992  magn= -0.0144
     atom  39 (R=0.061)  charge=  0.5077  magn= -0.0047

     total cpu time spent up to now is      843.8 secs

     End of self-consistent calculation

 ------ SPIN UP ------------


          k = 0.0000 0.0000 0.0000 ( 51087 PWs)   bands (ev):

   -21.3090  -9.8210  -7.4787  -6.5458  -6.0949  -5.5013  -4.9707  -4.6146
    -4.5795  -4.5775  -4.5752  -4.5740  -4.5628  -4.5172  -4.2244  -4.0500
    -4.0461  -4.0456  -4.0411  -4.0233  -3.9816  -3.5348  -3.5332  -3.5278
    -3.5223  -3.5088  -3.4848  -3.4017  -3.3989  -3.3899  -3.3865  -3.3829
    -3.3620  -3.3257  -3.3192  -3.0124  -3.0083  -3.0070  -3.0061  -2.9527
    -2.9447  -2.9428  -2.9395  -2.9340  -2.9321  -2.9289  -2.9186  -2.7789
    -2.7744  -2.7159  -2.7132  -2.7087  -2.7031  -2.6920  -2.6910  -2.6759
    -2.6749  -2.6728  -2.6614  -2.5751  -2.5712  -2.5695  -2.5585  -2.5411
    -2.5073  -2.0657  -2.0395  -2.0289  -2.0279  -2.0269  -1.9834  -1.9232
    -1.9014  -1.9001  -1.8817  -1.8725  -1.8516  -1.8481  -1.8445  -1.8260
    -1.8075  -1.7960  -1.7866  -1.7512  -1.7478  -1.7268  -1.7217  -1.7181
    -1.7145  -1.7057  -1.7024  -1.6836  -1.6789  -1.6732  -1.6701  -1.6651
    -1.6636  -1.6602  -1.6556  -1.6547  -1.6514  -1.6481  -1.6431  -1.6419
    -1.6382  -1.5975  -1.5831  -1.5646  -1.5563  -1.4878  -1.4854  -1.4178
    -1.2856  -1.2104  -1.2067  -1.2026  -1.2015  -1.1915  -1.1734  -1.1611
    -1.1575  -1.1318  -1.1203  -1.1114  -1.0881  -1.0649  -0.9994  -0.9831
    -0.9765  -0.9533  -0.8935  -0.7992  -0.7900  -0.7762  -0.7631  -0.7571
    -0.7353  -0.7178  -0.7120  -0.7107  -0.7106  -0.6908  -0.6419  -0.5900
    -0.5516  -0.4735  -0.4675  -0.4644  -0.4355  -0.4141  -0.4050  -0.3999
    -0.3949  -0.3937  -0.3909  -0.3827  -0.3792  -0.3773  -0.3758  -0.3716
    -0.3566  -0.3549  -0.3301  -0.3219  -0.3207  -0.3196  -0.3117  -0.3057
    -0.2924  -0.2901  -0.2680  -0.2642  -0.2629  -0.2540  -0.2429  -0.2392
    -0.2369  -0.2349  -0.2083  -0.1891  -0.1788  -0.1628  -0.1615  -0.1591
    -0.1552  -0.1480  -0.1371  -0.1275  -0.1192  -0.1125  -0.0727  -0.0710
    -0.0660  -0.0626  -0.0036  -0.0012   0.0048   0.0066   0.0341   0.0593
     0.3986   0.9027

          k = 0.0000 0.2309 0.0000 ( 51134 PWs)   bands (ev):

   -21.3090  -9.8208  -7.3314  -6.5092  -6.0191  -5.5259  -5.2731  -4.9752
    -4.8301  -4.8163  -4.4612  -4.3084  -4.2405  -4.2357  -4.1680  -4.1198
    -4.0947  -4.0669  -3.9630  -3.9262  -3.9077  -3.6537  -3.5465  -3.5311
    -3.4542  -3.4266  -3.4194  -3.4070  -3.4024  -3.3871  -3.3822  -3.3631
    -3.3274  -3.2842  -3.2806  -3.2578  -3.2520  -3.0523  -3.0258  -3.0236
    -2.9741  -2.9700  -2.9633  -2.9535  -2.8741  -2.8426  -2.8339  -2.8051
    -2.7984  -2.7943  -2.7711  -2.7507  -2.6760  -2.6634  -2.6345  -2.6039
    -2.5839  -2.5694  -2.5573  -2.5478  -2.5214  -2.5108  -2.4924  -2.4872
    -2.4206  -2.1571  -2.1452  -2.1307  -2.1083  -2.0896  -2.0277  -1.9996
    -1.9958  -1.9905  -1.9729  -1.9714  -1.9532  -1.9282  -1.8895  -1.8667
    -1.8527  -1.8447  -1.8332  -1.8022  -1.7875  -1.7833  -1.7788  -1.7676
    -1.7512  -1.7481  -1.7438  -1.7388  -1.7207  -1.6868  -1.6603  -1.6535
    -1.6343  -1.5886  -1.5688  -1.5655  -1.5515  -1.5422  -1.5384  -1.5263
    -1.5129  -1.5060  -1.5026  -1.4951  -1.4722  -1.4637  -1.4567  -1.4347
    -1.4292  -1.4173  -1.3858  -1.3604  -1.3293  -1.3082  -1.2498  -1.2299
    -1.2228  -1.2077  -1.2013  -1.1944  -1.1900  -1.1818  -1.0883  -1.0398
    -1.0322  -1.0110  -0.9707  -0.9359  -0.9287  -0.8744  -0.8661  -0.8408
    -0.8144  -0.7425  -0.7407  -0.7138  -0.7017  -0.6871  -0.6830  -0.6646
    -0.6545  -0.6298  -0.6254  -0.5821  -0.5649  -0.5571  -0.5417  -0.5307
    -0.5140  -0.4966  -0.4672  -0.4619  -0.4351  -0.4223  -0.4041  -0.3917
    -0.3881  -0.3814  -0.3709  -0.3663  -0.3557  -0.3370  -0.3338  -0.3217
    -0.2745  -0.2541  -0.2502  -0.2169  -0.2034  -0.1966  -0.1700  -0.1467
    -0.1407  -0.1309  -0.1237  -0.1112  -0.0986  -0.0896  -0.0827  -0.0533
    -0.0433  -0.0033   0.0080   0.0126   0.0346   0.0390   0.0801   0.0952
     0.1002   0.1472   0.3754   0.3900   0.4947   0.5956   0.6384   0.6761
     0.7554   0.7665

          k = 0.0000 0.4619 0.0000 ( 51204 PWs)   bands (ev):

   -21.3090  -9.8204  -6.9136  -6.4785  -6.1485  -5.8036  -5.3856  -5.0010
    -4.9669  -4.9513  -4.7689  -4.1211  -4.0959  -4.0649  -4.0568  -3.9845
    -3.8832  -3.8789  -3.8385  -3.7514  -3.7458  -3.7354  -3.6451  -3.5672
    -3.5593  -3.5572  -3.5510  -3.4995  -3.4503  -3.4402  -3.4334  -3.2889
    -3.2741  -3.2713  -3.2586  -3.2346  -3.2281  -3.1244  -3.1187  -3.1067
    -3.1039  -3.0979  -2.9769  -2.9016  -2.8849  -2.8065  -2.7901  -2.7727
    -2.7550  -2.7213  -2.7142  -2.7092  -2.6974  -2.6764  -2.6224  -2.6097
    -2.5790  -2.5542  -2.5392  -2.4116  -2.4004  -2.3972  -2.3687  -2.3375
    -2.2876  -2.2723  -2.2638  -2.2497  -2.1844  -2.1476  -2.1258  -2.1165
    -2.1139  -2.1056  -2.0949  -2.0830  -2.0739  -2.0463  -2.0154  -1.9868
    -1.9765  -1.9504  -1.9406  -1.9265  -1.9033  -1.8668  -1.8231  -1.7977
    -1.7930  -1.7645  -1.7550  -1.7405  -1.6979  -1.6855  -1.6805  -1.6717
    -1.6583  -1.6361  -1.6271  -1.6117  -1.5929  -1.5887  -1.5719  -1.5667
    -1.5532  -1.5277  -1.4959  -1.4674  -1.4193  -1.4062  -1.3957  -1.3697
    -1.3506  -1.3289  -1.3189  -1.2937  -1.2624  -1.2480  -1.2452  -1.2417
    -1.2344  -1.2319  -1.2192  -1.2097  -1.1961  -1.1909  -1.1814  -1.1767
    -1.1455  -1.1132  -1.0729  -1.0550  -1.0155  -1.0023  -0.9852  -0.9563
    -0.9365  -0.9199  -0.8879  -0.8774  -0.8561  -0.8292  -0.8037  -0.7804
    -0.7421  -0.7342  -0.6884  -0.6739  -0.6544  -0.6425  -0.6271  -0.5653
    -0.5325  -0.4906  -0.4800  -0.4651  -0.4621  -0.4566  -0.4443  -0.4401
    -0.4216  -0.4143  -0.3476  -0.3224  -0.3031  -0.2996  -0.2884  -0.2874
    -0.2706  -0.2534  -0.2431  -0.2251  -0.2156  -0.1964  -0.1355  -0.1139
    -0.1095  -0.0938  -0.0839  -0.0409  -0.0169   0.0093   0.0203   0.0553
     0.0659   0.1062   0.1126   0.1301   0.1348   0.1395   0.1627   0.1730
     0.2376   0.2746   0.3968   0.8734   1.1673   1.3581   1.3824   1.4104
     1.6794   1.7587

          k = 0.2000-0.1155 0.0000 ( 51134 PWs)   bands (ev):

   -21.3090  -9.8218  -7.3301  -6.5089  -6.0123  -5.5047  -5.3009  -4.9863
    -4.8171  -4.8035  -4.4691  -4.3404  -4.2387  -4.2335  -4.1725  -4.1269
    -4.0821  -4.0448  -3.9764  -3.9207  -3.9022  -3.6558  -3.5442  -3.5333
    -3.4579  -3.4363  -3.4092  -3.4058  -3.4018  -3.3939  -3.3782  -3.3600
    -3.3281  -3.2825  -3.2803  -3.2544  -3.2523  -3.0582  -3.0284  -3.0205
    -2.9711  -2.9701  -2.9607  -2.9534  -2.8860  -2.8412  -2.8341  -2.8077
    -2.7995  -2.7961  -2.7617  -2.7519  -2.6778  -2.6627  -2.6399  -2.5997
    -2.5920  -2.5607  -2.5577  -2.5334  -2.5238  -2.5057  -2.4924  -2.4854
    -2.4310  -2.1559  -2.1456  -2.1180  -2.1167  -2.0932  -2.0325  -2.0005
    -1.9965  -1.9885  -1.9807  -1.9632  -1.9531  -1.9280  -1.8964  -1.8670
    -1.8535  -1.8371  -1.8263  -1.8029  -1.7884  -1.7818  -1.7764  -1.7666
    -1.7530  -1.7486  -1.7422  -1.7394  -1.7324  -1.6969  -1.6659  -1.6419
    -1.6304  -1.5962  -1.5708  -1.5584  -1.5543  -1.5480  -1.5405  -1.5303
    -1.5154  -1.5078  -1.5012  -1.4993  -1.4879  -1.4708  -1.4596  -1.4439
    -1.4251  -1.4156  -1.3989  -1.3620  -1.3010  -1.2945  -1.2421  -1.2264
    -1.2207  -1.2138  -1.1996  -1.1948  -1.1826  -1.1712  -1.0622  -1.0320
    -1.0158  -1.0091  -0.9765  -0.9359  -0.9244  -0.8962  -0.8651  -0.8320
    -0.8163  -0.7675  -0.7391  -0.7268  -0.7078  -0.6897  -0.6705  -0.6540
    -0.6509  -0.6323  -0.6133  -0.5859  -0.5653  -0.5575  -0.5413  -0.5401
    -0.5314  -0.4908  -0.4661  -0.4635  -0.4488  -0.4199  -0.4012  -0.3897
    -0.3867  -0.3794  -0.3747  -0.3711  -0.3539  -0.3411  -0.3353  -0.3071
    -0.2715  -0.2535  -0.2500  -0.2182  -0.2070  -0.1863  -0.1702  -0.1449
    -0.1378  -0.1296  -0.1249  -0.1123  -0.0996  -0.0893  -0.0824  -0.0583
    -0.0376  -0.0029   0.0104   0.0166   0.0348   0.0388   0.0832   0.0891
     0.1154   0.1504   0.3812   0.3883   0.4509   0.5575   0.6464   0.6639
     0.7038   0.8382

          k = 0.2000 0.1155 0.0000 ( 51134 PWs)   bands (ev):

   -21.3090  -9.8218  -7.3302  -6.5087  -6.0127  -5.5056  -5.3023  -4.9803
    -4.8162  -4.8085  -4.4675  -4.3392  -4.2394  -4.2335  -4.1721  -4.1267
    -4.0834  -4.0456  -3.9757  -3.9209  -3.9024  -3.6569  -3.5416  -3.5356
    -3.4560  -3.4362  -3.4114  -3.4068  -3.3998  -3.3944  -3.3780  -3.3594
    -3.3283  -3.2842  -3.2787  -3.2549  -3.2524  -3.0547  -3.0271  -3.0216
    -2.9716  -2.9685  -2.9601  -2.9561  -2.8802  -2.8391  -2.8356  -2.8089
    -2.7998  -2.7959  -2.7666  -2.7541  -2.6756  -2.6636  -2.6432  -2.5969
    -2.5923  -2.5610  -2.5579  -2.5298  -2.5274  -2.5092  -2.4946  -2.4863
    -2.4286  -2.1544  -2.1468  -2.1272  -2.1105  -2.0917  -2.0284  -1.9995
    -1.9948  -1.9888  -1.9766  -1.9660  -1.9567  -1.9300  -1.8899  -1.8667
    -1.8532  -1.8421  -1.8252  -1.8019  -1.7887  -1.7823  -1.7751  -1.7629
    -1.7539  -1.7506  -1.7406  -1.7377  -1.7249  -1.7008  -1.6701  -1.6439
    -1.6311  -1.5930  -1.5681  -1.5631  -1.5514  -1.5491  -1.5366  -1.5279
    -1.5145  -1.5096  -1.5039  -1.4991  -1.4881  -1.4675  -1.4538  -1.4416
    -1.4273  -1.4229  -1.4049  -1.3606  -1.3120  -1.2931  -1.2457  -1.2256
    -1.2185  -1.2117  -1.2027  -1.1938  -1.1889  -1.1768  -1.0758  -1.0448
    -1.0176  -0.9988  -0.9663  -0.9384  -0.9149  -0.8949  -0.8659  -0.8438
    -0.7948  -0.7550  -0.7404  -0.7202  -0.7022  -0.6951  -0.6855  -0.6633
    -0.6509  -0.6310  -0.6096  -0.5783  -0.5640  -0.5588  -0.5398  -0.5370
    -0.5288  -0.4944  -0.4667  -0.4621  -0.4409  -0.4181  -0.4022  -0.3936
    -0.3885  -0.3811  -0.3750  -0.3663  -0.3494  -0.3427  -0.3319  -0.3096
    -0.2721  -0.2540  -0.2496  -0.2213  -0.2024  -0.1934  -0.1651  -0.1479
    -0.1367  -0.1333  -0.1183  -0.1107  -0.0976  -0.0865  -0.0840  -0.0492
    -0.0403  -0.0020   0.0098   0.0148   0.0364   0.0385   0.0779   0.0850
     0.1112   0.1416   0.3716   0.3887   0.4683   0.5536   0.6501   0.6637
     0.7007   0.8493

          k = 0.2000 0.3464 0.0000 ( 51202 PWs)   bands (ev):

   -21.3090  -9.8214  -7.0457  -6.4719  -5.8768  -5.6826  -5.6546  -5.3444
    -4.9673  -4.5666  -4.4587  -4.2445  -4.2423  -4.1992  -4.0259  -4.0214
    -3.9325  -3.9242  -3.9079  -3.7942  -3.7862  -3.6557  -3.6444  -3.5815
    -3.5371  -3.4470  -3.4407  -3.4172  -3.3973  -3.3905  -3.3816  -3.3568
    -3.3454  -3.3176  -3.3084  -3.2689  -3.2331  -3.1883  -3.1797  -3.0565
    -3.0465  -2.9658  -2.9562  -2.9323  -2.9053  -2.8992  -2.8105  -2.7634
    -2.7544  -2.7348  -2.7261  -2.7130  -2.6760  -2.6689  -2.6491  -2.6354
    -2.6166  -2.5084  -2.5001  -2.4471  -2.4398  -2.4198  -2.3846  -2.3809
    -2.3696  -2.2758  -2.1859  -2.1788  -2.1510  -2.1275  -2.1148  -2.0952
    -2.0910  -2.0702  -2.0488  -2.0415  -2.0342  -2.0204  -2.0038  -1.9941
    -1.9720  -1.9501  -1.9019  -1.8504  -1.8236  -1.8100  -1.7902  -1.7798
    -1.7630  -1.7529  -1.7171  -1.7112  -1.6791  -1.6711  -1.6617  -1.6562
    -1.6489  -1.6341  -1.6311  -1.6178  -1.6047  -1.6003  -1.5743  -1.5577
    -1.5477  -1.5346  -1.5049  -1.4864  -1.4707  -1.4474  -1.4416  -1.4213
    -1.4124  -1.4002  -1.3809  -1.3607  -1.3349  -1.3126  -1.2947  -1.2698
    -1.2537  -1.2481  -1.2373  -1.2210  -1.2024  -1.1923  -1.1836  -1.1389
    -1.0991  -1.0849  -1.0629  -1.0493  -0.9811  -0.9431  -0.9306  -0.8937
    -0.8259  -0.8173  -0.8107  -0.7935  -0.7862  -0.7686  -0.7618  -0.7320
    -0.7266  -0.7091  -0.6821  -0.6647  -0.6447  -0.6372  -0.6181  -0.6083
    -0.5971  -0.5699  -0.5563  -0.5316  -0.5232  -0.5103  -0.4617  -0.3879
    -0.3643  -0.3441  -0.3294  -0.3195  -0.3127  -0.2868  -0.2763  -0.2720
    -0.2666  -0.2394  -0.1870  -0.1684  -0.1592  -0.1549  -0.1233  -0.1000
    -0.0947  -0.0855  -0.0802  -0.0593  -0.0531  -0.0423  -0.0374  -0.0285
    -0.0079   0.0555   0.0737   0.0863   0.0992   0.1326   0.1420   0.1579
     0.4489   0.4797   0.4936   0.6663   0.7891   0.8389   1.1250   1.3592
     1.3806   1.5792

          k = 0.2000-0.5774 0.0000 ( 51262 PWs)   bands (ev):

   -21.3090  -9.8213  -6.6464  -6.4369  -6.2940  -5.8013  -5.6755  -5.2806
    -4.9532  -4.8625  -4.5845  -4.2318  -3.9867  -3.9397  -3.8274  -3.8119
    -3.8103  -3.7819  -3.7788  -3.7614  -3.7168  -3.6973  -3.6963  -3.6928
    -3.6085  -3.5913  -3.5477  -3.5450  -3.5174  -3.5109  -3.4161  -3.3719
    -3.3623  -3.3537  -3.3358  -3.2911  -3.2123  -3.1900  -3.0745  -3.0649
    -3.0619  -2.9888  -2.9712  -2.9559  -2.9351  -2.8569  -2.8504  -2.8436
    -2.7800  -2.7693  -2.6927  -2.6611  -2.6285  -2.6228  -2.5744  -2.5649
    -2.4881  -2.4795  -2.4708  -2.4602  -2.4467  -2.4199  -2.4057  -2.3435
    -2.2743  -2.2667  -2.2556  -2.2468  -2.1974  -2.1884  -2.1361  -2.1249
    -2.1131  -2.0828  -2.0751  -2.0702  -2.0444  -2.0204  -2.0055  -1.9934
    -1.9902  -1.9811  -1.9491  -1.9358  -1.9327  -1.8852  -1.8636  -1.8379
    -1.8317  -1.7826  -1.7616  -1.7398  -1.7142  -1.6894  -1.6806  -1.6574
    -1.6525  -1.6459  -1.6359  -1.6308  -1.6251  -1.5987  -1.5867  -1.5827
    -1.5348  -1.5022  -1.4912  -1.4862  -1.4698  -1.4637  -1.4577  -1.4509
    -1.4440  -1.4274  -1.4144  -1.3865  -1.3743  -1.3488  -1.3289  -1.3083
    -1.2598  -1.2441  -1.2319  -1.1904  -1.1765  -1.1698  -1.1542  -1.1032
    -1.0817  -1.0712  -1.0487  -1.0293  -0.9982  -0.9467  -0.9393  -0.9185
    -0.9040  -0.8988  -0.8837  -0.8706  -0.8378  -0.8248  -0.7979  -0.7772
    -0.7596  -0.7324  -0.7146  -0.7036  -0.6996  -0.6637  -0.6273  -0.6240
    -0.6064  -0.5908  -0.5793  -0.5656  -0.5368  -0.5073  -0.4953  -0.4469
    -0.3586  -0.3228  -0.3147  -0.3026  -0.3008  -0.2934  -0.2835  -0.2720
    -0.2432  -0.2282  -0.2194  -0.2103  -0.1586  -0.1544  -0.0927  -0.0886
    -0.0660  -0.0559  -0.0535  -0.0351   0.0081   0.0129   0.0215   0.0309
     0.0395   0.1026   0.1131   0.1211   0.1341   0.1446   0.1663   0.2052
     0.2975   0.5182   0.5778   0.8751   1.3983   1.4154   1.4666   1.7160
     1.9058   1.9699

          k = 0.2000-0.3464 0.0000 ( 51202 PWs)   bands (ev):

   -21.3090  -9.8215  -7.0455  -6.4720  -5.8762  -5.6816  -5.6545  -5.3440
    -4.9699  -4.5654  -4.4603  -4.2461  -4.2411  -4.1981  -4.0257  -4.0215
    -3.9312  -3.9261  -3.9077  -3.7955  -3.7844  -3.6523  -3.6467  -3.5825
    -3.5376  -3.4474  -3.4401  -3.4150  -3.4009  -3.3895  -3.3819  -3.3556
    -3.3448  -3.3201  -3.3030  -3.2707  -3.2328  -3.1932  -3.1760  -3.0609
    -3.0468  -2.9661  -2.9554  -2.9312  -2.9130  -2.8961  -2.8105  -2.7709
    -2.7499  -2.7329  -2.7272  -2.7099  -2.6765  -2.6667  -2.6444  -2.6308
    -2.6201  -2.5094  -2.4914  -2.4480  -2.4382  -2.4210  -2.3872  -2.3788
    -2.3687  -2.2719  -2.1891  -2.1813  -2.1574  -2.1318  -2.1160  -2.0979
    -2.0899  -2.0702  -2.0481  -2.0403  -2.0282  -2.0212  -2.0078  -1.9935
    -1.9723  -1.9631  -1.8976  -1.8439  -1.8227  -1.8066  -1.7940  -1.7810
    -1.7638  -1.7422  -1.7259  -1.7100  -1.6862  -1.6691  -1.6638  -1.6565
    -1.6546  -1.6375  -1.6278  -1.6148  -1.6028  -1.5889  -1.5736  -1.5596
    -1.5372  -1.5315  -1.5148  -1.4910  -1.4741  -1.4616  -1.4257  -1.4205
    -1.4086  -1.3955  -1.3836  -1.3471  -1.3305  -1.3076  -1.2928  -1.2730
    -1.2552  -1.2469  -1.2377  -1.2207  -1.2057  -1.1981  -1.1761  -1.1388
    -1.1033  -1.0826  -1.0662  -1.0291  -0.9953  -0.9466  -0.9329  -0.9040
    -0.8296  -0.8142  -0.8107  -0.7978  -0.7859  -0.7785  -0.7528  -0.7360
    -0.7268  -0.7067  -0.6812  -0.6776  -0.6447  -0.6351  -0.6237  -0.6117
    -0.6010  -0.5834  -0.5386  -0.5298  -0.5195  -0.5082  -0.4541  -0.3833
    -0.3677  -0.3449  -0.3283  -0.3203  -0.3161  -0.2871  -0.2803  -0.2743
    -0.2542  -0.2407  -0.1795  -0.1751  -0.1653  -0.1544  -0.1246  -0.1099
    -0.0936  -0.0853  -0.0808  -0.0660  -0.0535  -0.0453  -0.0377  -0.0250
    -0.0067   0.0521   0.0775   0.0897   0.0928   0.1328   0.1424   0.1722
     0.4626   0.4787   0.4862   0.6710   0.7903   0.8340   1.1203   1.3570
     1.3781   1.6018

          k = 0.4000-0.2309 0.0000 ( 51204 PWs)   bands (ev):

   -21.3090  -9.8231  -6.9079  -6.4758  -6.1419  -5.7873  -5.3752  -5.0479
    -4.9682  -4.8990  -4.8243  -4.1444  -4.0787  -4.0676  -4.0263  -3.9982
    -3.8800  -3.8774  -3.8420  -3.7497  -3.7429  -3.7390  -3.6570  -3.5646
    -3.5605  -3.5528  -3.5513  -3.5008  -3.4539  -3.4460  -3.4365  -3.2775
    -3.2743  -3.2690  -3.2474  -3.2315  -3.2283  -3.1257  -3.1203  -3.1094
    -3.1039  -3.0970  -2.9908  -2.8931  -2.8876  -2.8025  -2.7969  -2.7670
    -2.7578  -2.7229  -2.7168  -2.7103  -2.6882  -2.6802  -2.6189  -2.6110
    -2.5866  -2.5505  -2.5429  -2.4103  -2.4056  -2.3866  -2.3711  -2.3395
    -2.2906  -2.2813  -2.2669  -2.2505  -2.1874  -2.1416  -2.1207  -2.1165
    -2.1153  -2.1001  -2.0814  -2.0779  -2.0722  -2.0459  -2.0239  -1.9971
    -1.9711  -1.9494  -1.9355  -1.9109  -1.9072  -1.8680  -1.8062  -1.7993
    -1.7892  -1.7858  -1.7623  -1.7506  -1.7110  -1.6850  -1.6820  -1.6736
    -1.6613  -1.6420  -1.6347  -1.6078  -1.6011  -1.5926  -1.5822  -1.5604
    -1.5518  -1.5423  -1.4895  -1.4393  -1.4279  -1.4088  -1.3836  -1.3726
    -1.3534  -1.3330  -1.3002  -1.2827  -1.2643  -1.2537  -1.2447  -1.2425
    -1.2396  -1.2298  -1.2217  -1.2089  -1.2014  -1.1885  -1.1733  -1.1613
    -1.1456  -1.1109  -1.0797  -1.0429  -1.0073  -0.9964  -0.9790  -0.9616
    -0.9373  -0.9114  -0.8943  -0.8770  -0.8562  -0.8391  -0.8130  -0.7691
    -0.7353  -0.7108  -0.6910  -0.6738  -0.6537  -0.6360  -0.6296  -0.6002
    -0.5447  -0.4876  -0.4766  -0.4677  -0.4598  -0.4558  -0.4453  -0.4398
    -0.4260  -0.4146  -0.3350  -0.3236  -0.3089  -0.2878  -0.2840  -0.2739
    -0.2684  -0.2568  -0.2461  -0.2392  -0.2190  -0.1971  -0.1317  -0.1137
    -0.1085  -0.0898  -0.0715  -0.0653  -0.0170   0.0055   0.0203   0.0513
     0.0672   0.1095   0.1120   0.1293   0.1354   0.1401   0.1568   0.1816
     0.2377   0.2783   0.3456   0.9635   1.1538   1.3181   1.3784   1.3898
     1.6354   1.7878

          k = 0.4000 0.0000 0.0000 ( 51202 PWs)   bands (ev):

   -21.3090  -9.8231  -7.0418  -6.4723  -5.8618  -5.6667  -5.6625  -5.3552
    -4.9810  -4.5256  -4.5006  -4.2533  -4.2419  -4.1961  -4.0284  -4.0219
    -3.9299  -3.9273  -3.9227  -3.7915  -3.7714  -3.6551  -3.6463  -3.5787
    -3.5351  -3.4445  -3.4357  -3.4201  -3.4001  -3.3912  -3.3783  -3.3606
    -3.3417  -3.3169  -3.3084  -3.2705  -3.2304  -3.1894  -3.1791  -3.0626
    -3.0440  -2.9683  -2.9517  -2.9270  -2.9161  -2.9045  -2.8175  -2.7672
    -2.7551  -2.7307  -2.7263  -2.7109  -2.6687  -2.6579  -2.6511  -2.6377
    -2.6183  -2.5109  -2.4913  -2.4459  -2.4403  -2.4310  -2.3842  -2.3814
    -2.3708  -2.2620  -2.1924  -2.1787  -2.1560  -2.1341  -2.1075  -2.0882
    -2.0800  -2.0715  -2.0576  -2.0473  -2.0317  -2.0191  -2.0178  -1.9945
    -1.9670  -1.9405  -1.9006  -1.8671  -1.8253  -1.8109  -1.7988  -1.7805
    -1.7580  -1.7470  -1.7295  -1.7171  -1.6790  -1.6701  -1.6594  -1.6567
    -1.6497  -1.6415  -1.6295  -1.6116  -1.6068  -1.5961  -1.5756  -1.5583
    -1.5502  -1.5296  -1.5054  -1.4831  -1.4668  -1.4626  -1.4488  -1.4202
    -1.4109  -1.3866  -1.3799  -1.3502  -1.3442  -1.3091  -1.2965  -1.2637
    -1.2537  -1.2420  -1.2383  -1.2157  -1.2069  -1.1901  -1.1736  -1.1386
    -1.0900  -1.0752  -1.0644  -1.0260  -0.9864  -0.9506  -0.9316  -0.8981
    -0.8311  -0.8148  -0.8118  -0.7855  -0.7800  -0.7663  -0.7620  -0.7483
    -0.7239  -0.7101  -0.6867  -0.6765  -0.6519  -0.6370  -0.6173  -0.6124
    -0.6012  -0.5787  -0.5493  -0.5312  -0.5186  -0.5063  -0.4398  -0.4069
    -0.3647  -0.3407  -0.3298  -0.3205  -0.3117  -0.2856  -0.2782  -0.2734
    -0.2520  -0.2439  -0.1871  -0.1720  -0.1574  -0.1554  -0.1158  -0.1126
    -0.0890  -0.0850  -0.0793  -0.0692  -0.0500  -0.0435  -0.0375  -0.0196
    -0.0078   0.0522   0.0734   0.0864   0.0927   0.1322   0.1369   0.1634
     0.4724   0.4781   0.5332   0.5639   0.8195   0.8263   1.1332   1.3549
     1.3773   1.6123

          k = 0.4000 0.2309 0.0000 ( 51204 PWs)   bands (ev):

   -21.3090  -9.8229  -6.9080  -6.4754  -6.1431  -5.7882  -5.3784  -5.0423
    -4.9678  -4.9057  -4.8168  -4.1433  -4.0797  -4.0693  -4.0260  -3.9979
    -3.8808  -3.8773  -3.8416  -3.7492  -3.7444  -3.7378  -3.6588  -3.5640
    -3.5606  -3.5525  -3.5515  -3.5017  -3.4542  -3.4447  -3.4355  -3.2787
    -3.2757  -3.2680  -3.2491  -3.2317  -3.2266  -3.1246  -3.1178  -3.1065
    -3.1019  -3.0991  -2.9856  -2.8962  -2.8874  -2.8066  -2.7947  -2.7696
    -2.7578  -2.7238  -2.7165  -2.7096  -2.6887  -2.6837  -2.6168  -2.6106
    -2.5852  -2.5504  -2.5456  -2.4115  -2.4015  -2.3918  -2.3773  -2.3410
    -2.2924  -2.2768  -2.2687  -2.2486  -2.1873  -2.1381  -2.1236  -2.1183
    -2.1165  -2.0997  -2.0869  -2.0767  -2.0690  -2.0490  -2.0345  -1.9964
    -1.9651  -1.9497  -1.9373  -1.9123  -1.8921  -1.8672  -1.8199  -1.7967
    -1.7876  -1.7780  -1.7590  -1.7447  -1.7044  -1.6845  -1.6798  -1.6710
    -1.6572  -1.6394  -1.6324  -1.6095  -1.6019  -1.5913  -1.5817  -1.5639
    -1.5514  -1.5365  -1.4904  -1.4728  -1.4222  -1.4060  -1.3835  -1.3728
    -1.3504  -1.3305  -1.3113  -1.2915  -1.2611  -1.2526  -1.2478  -1.2426
    -1.2373  -1.2335  -1.2210  -1.2117  -1.2012  -1.1890  -1.1724  -1.1632
    -1.1479  -1.1071  -1.0790  -1.0395  -1.0086  -1.0031  -0.9948  -0.9631
    -0.9410  -0.9147  -0.8868  -0.8778  -0.8581  -0.8185  -0.8012  -0.7696
    -0.7422  -0.6997  -0.6825  -0.6766  -0.6550  -0.6318  -0.6147  -0.6054
    -0.5492  -0.4860  -0.4792  -0.4689  -0.4584  -0.4548  -0.4430  -0.4378
    -0.4308  -0.4163  -0.3384  -0.3179  -0.3031  -0.2972  -0.2876  -0.2819
    -0.2659  -0.2480  -0.2406  -0.2303  -0.2207  -0.2009  -0.1300  -0.1132
    -0.1062  -0.1007  -0.0716  -0.0508  -0.0179   0.0054   0.0201   0.0551
     0.0674   0.1078   0.1111   0.1309   0.1341   0.1387   0.1529   0.1830
     0.2376   0.2698   0.3582   0.9318   1.1439   1.3168   1.3761   1.3866
     1.6951   1.7499

          k = 0.4000-0.6928 0.0000 ( 51262 PWs)   bands (ev):

   -21.3090  -9.8229  -6.6393  -6.4303  -6.2979  -5.8241  -5.6473  -5.2235
    -5.0337  -4.8917  -4.5396  -4.2267  -3.9908  -3.9450  -3.8478  -3.8125
    -3.8033  -3.7922  -3.7798  -3.7625  -3.7047  -3.6980  -3.6956  -3.6898
    -3.6119  -3.5933  -3.5482  -3.5441  -3.5154  -3.5133  -3.4009  -3.3759
    -3.3645  -3.3574  -3.3310  -3.2908  -3.2030  -3.1896  -3.0790  -3.0644
    -3.0629  -2.9825  -2.9742  -2.9599  -2.9325  -2.8595  -2.8522  -2.8368
    -2.7857  -2.7698  -2.6875  -2.6664  -2.6297  -2.6234  -2.5705  -2.5655
    -2.4939  -2.4794  -2.4674  -2.4645  -2.4467  -2.4277  -2.4068  -2.3422
    -2.2809  -2.2662  -2.2575  -2.2482  -2.2005  -2.1872  -2.1338  -2.1239
    -2.1024  -2.0827  -2.0746  -2.0633  -2.0525  -2.0299  -2.0117  -1.9893
    -1.9815  -1.9757  -1.9427  -1.9353  -1.9235  -1.8918  -1.8654  -1.8421
    -1.8257  -1.7821  -1.7628  -1.7399  -1.7207  -1.7011  -1.6832  -1.6728
    -1.6546  -1.6479  -1.6383  -1.6300  -1.6153  -1.5885  -1.5752  -1.5583
    -1.5361  -1.4980  -1.4882  -1.4849  -1.4754  -1.4625  -1.4616  -1.4505
    -1.4378  -1.4331  -1.4169  -1.3966  -1.3695  -1.3659  -1.3312  -1.3222
    -1.2799  -1.2432  -1.2051  -1.1879  -1.1786  -1.1709  -1.1597  -1.0904
    -1.0836  -1.0751  -1.0608  -1.0356  -0.9703  -0.9478  -0.9289  -0.9185
    -0.9046  -0.8962  -0.8806  -0.8764  -0.8372  -0.8148  -0.7887  -0.7804
    -0.7579  -0.7308  -0.7224  -0.7130  -0.6854  -0.6580  -0.6367  -0.6157
    -0.6002  -0.5875  -0.5788  -0.5693  -0.5439  -0.5245  -0.4985  -0.4309
    -0.3659  -0.3200  -0.3105  -0.3078  -0.2995  -0.2921  -0.2805  -0.2599
    -0.2453  -0.2322  -0.2168  -0.2114  -0.1630  -0.1523  -0.0942  -0.0808
    -0.0661  -0.0550  -0.0488  -0.0266  -0.0016   0.0152   0.0197   0.0259
     0.0384   0.0796   0.1143   0.1156   0.1336   0.1462   0.1650   0.2007
     0.2946   0.5182   0.6088   0.8681   1.3167   1.4242   1.4576   1.8206
     1.9107   1.9519

          k = 0.4000-0.4619 0.0000 ( 51262 PWs)   bands (ev):

   -21.3090  -9.8229  -6.6398  -6.4299  -6.2968  -5.8252  -5.6472  -5.2141
    -5.0409  -4.8974  -4.5361  -4.2267  -3.9906  -3.9450  -3.8493  -3.8120
    -3.8047  -3.7931  -3.7799  -3.7632  -3.7057  -3.6974  -3.6934  -3.6889
    -3.6115  -3.5921  -3.5482  -3.5439  -3.5170  -3.5120  -3.3999  -3.3781
    -3.3625  -3.3587  -3.3306  -3.2912  -3.2011  -3.1892  -3.0862  -3.0667
    -3.0627  -2.9778  -2.9702  -2.9678  -2.9327  -2.8542  -2.8487  -2.8415
    -2.7821  -2.7708  -2.6896  -2.6629  -2.6324  -2.6219  -2.5731  -2.5655
    -2.4925  -2.4799  -2.4704  -2.4614  -2.4485  -2.4209  -2.4094  -2.3408
    -2.2786  -2.2647  -2.2573  -2.2476  -2.2006  -2.1913  -2.1299  -2.1261
    -2.1034  -2.0858  -2.0769  -2.0661  -2.0471  -2.0204  -2.0126  -1.9897
    -1.9827  -1.9726  -1.9455  -1.9350  -1.9269  -1.8859  -1.8702  -1.8385
    -1.8349  -1.7808  -1.7649  -1.7501  -1.7113  -1.6947  -1.6866  -1.6745
    -1.6533  -1.6466  -1.6368  -1.6291  -1.6197  -1.5919  -1.5744  -1.5635
    -1.5294  -1.4984  -1.4914  -1.4890  -1.4770  -1.4665  -1.4581  -1.4534
    -1.4440  -1.4327  -1.4152  -1.3908  -1.3826  -1.3468  -1.3316  -1.3150
    -1.2746  -1.2409  -1.2089  -1.1889  -1.1759  -1.1679  -1.1567  -1.0989
    -1.0860  -1.0724  -1.0490  -1.0080  -1.0010  -0.9452  -0.9284  -0.9181
    -0.9036  -0.8876  -0.8861  -0.8697  -0.8475  -0.8260  -0.7970  -0.7706
    -0.7625  -0.7316  -0.7220  -0.7132  -0.6860  -0.6612  -0.6430  -0.6210
    -0.6014  -0.5911  -0.5804  -0.5699  -0.5405  -0.5250  -0.4893  -0.4262
    -0.3668  -0.3211  -0.3125  -0.3032  -0.2977  -0.2898  -0.2782  -0.2710
    -0.2414  -0.2288  -0.2183  -0.2117  -0.1686  -0.1504  -0.0934  -0.0825
    -0.0745  -0.0554  -0.0441  -0.0344   0.0003   0.0134   0.0196   0.0279
     0.0416   0.0800   0.1116   0.1198   0.1323   0.1451   0.1666   0.2073
     0.2789   0.5178   0.6276   0.8730   1.3234   1.4253   1.4486   1.8120
     1.9089   1.9600

 ------ SPIN DOWN ----------


          k = 0.0000 0.0000 0.0000 ( 51087 PWs)   bands (ev):

   -21.3480  -9.9128  -7.6108  -6.5998  -6.1560  -5.5039  -4.9998  -4.4095
    -4.3810  -4.3779  -4.3763  -4.3713  -4.3609  -4.2517  -3.5148  -3.5040
    -3.5021  -3.5009  -3.4776  -3.4675  -3.3535  -2.5658  -2.5559  -2.5531
    -2.5496  -2.5290  -2.4818  -2.0949  -2.0854  -2.0846  -2.0829  -2.0767
    -2.0752  -1.8925  -1.8861  -1.8139  -1.8036  -1.7994  -1.7935  -1.7034
    -1.6942  -1.6605  -1.6467  -1.6045  -1.5522  -1.5421  -1.5374  -1.5312
    -1.5255  -1.4854  -1.2957  -1.2747  -1.2682  -1.2676  -1.2647  -1.2577
    -1.2577  -1.2462  -1.2346  -1.1969  -1.1899  -1.1804  -1.1773  -1.1656
    -1.1238  -0.8961  -0.6203  -0.6070  -0.5925  -0.5873  -0.5443  -0.4461
    -0.3884  -0.2911  -0.2742  -0.2710  -0.2638  -0.2594  -0.2508  -0.2203
    -0.2085  -0.1961  -0.1811  -0.1805  -0.1795  -0.1672  -0.1372  -0.1047
    -0.0781  -0.0717  -0.0669  -0.0527  -0.0392  -0.0179  -0.0151  -0.0102
    -0.0081   0.0013   0.0135   0.0160   0.0266   0.0286   0.0748   0.1252
     0.1618   0.1758   0.2060   0.2320   0.2454   0.2460   0.2491   0.2525
     0.2532   0.2558   0.2589   0.2596   0.3216   0.3233   0.3420   0.4119
     0.4186   0.4312   0.4466   0.4651   0.5377   0.6342   0.6360   0.6931
     0.7192   0.7230   0.7286   0.7332   0.7341   0.8530   1.0372   1.0506
     1.0796   1.0820   1.2221   1.2580   1.2755   1.2929   1.2951   1.2983
     1.3009   1.4528   1.4549   1.4620   1.4670   1.4765   1.4940   1.4968
     1.5027   1.5307   1.5471   1.5537   1.5715   1.6052   1.6135   1.6149
     1.6219   1.6236   1.6274   1.6484   1.6784   1.6991   1.7028   1.7226
     1.7333   1.7407   1.7449   1.7467   1.7528   1.7534   1.7602   1.7958
     1.8022   1.8243   1.8291   1.8351   1.8430   1.8459   1.8488   1.8776
     1.8841   1.8891   1.8935   1.8962   1.9006   1.9050   1.9104   1.9145
     1.9184   1.9659   1.9725   1.9986   2.1237   2.1247   2.1275   2.1309
     2.1347   2.1373

          k = 0.0000 0.2309 0.0000 ( 51134 PWs)   bands (ev):

   -21.3480  -9.9126  -7.4621  -6.5569  -6.0823  -5.5495  -5.2889  -4.9940
    -4.7680  -4.7539  -4.2381  -4.0949  -3.8341  -3.8276  -3.7518  -3.7138
    -3.5344  -3.2931  -3.1682  -3.1466  -3.0441  -2.7674  -2.5808  -2.5522
    -2.4864  -2.4629  -2.4358  -2.2086  -2.1298  -2.1215  -2.1143  -2.0815
    -2.0740  -2.0427  -2.0306  -1.9949  -1.9886  -1.8652  -1.8426  -1.7665
    -1.7605  -1.7105  -1.6203  -1.5870  -1.5763  -1.5617  -1.4766  -1.4420
    -1.4157  -1.3901  -1.3488  -1.3281  -1.3128  -1.2864  -1.2719  -1.2618
    -1.2510  -1.2022  -1.1677  -1.1562  -1.1234  -1.0848  -1.0759  -1.0452
    -0.9393  -0.8978  -0.6904  -0.6548  -0.6393  -0.6205  -0.5752  -0.5455
    -0.5041  -0.4720  -0.4394  -0.4094  -0.3129  -0.2891  -0.2758  -0.2679
    -0.2540  -0.2367  -0.2295  -0.2119  -0.2008  -0.1755  -0.1483  -0.1054
    -0.0732  -0.0705  -0.0569  -0.0387  -0.0280  -0.0089   0.0003   0.0170
     0.0245   0.0301   0.0366   0.0378   0.0431   0.0523   0.0802   0.0950
     0.1122   0.1359   0.1434   0.1470   0.1832   0.1892   0.2060   0.2161
     0.2386   0.2620   0.2926   0.3202   0.3474   0.3597   0.3654   0.3895
     0.4160   0.5516   0.5825   0.6008   0.6071   0.6554   0.6641   0.6807
     0.7001   0.7087   0.7103   0.7148   0.7350   0.9137   1.0204   1.0428
     1.0479   1.0596   1.0737   1.0830   1.1047   1.1588   1.2140   1.2385
     1.2526   1.2648   1.3248   1.3324   1.3615   1.3850   1.4129   1.4266
     1.4688   1.4764   1.5177   1.5291   1.5382   1.5518   1.5700   1.5774
     1.6055   1.6227   1.6688   1.6762   1.7073   1.7159   1.7246   1.7354
     1.7804   1.7826   1.7928   1.7953   1.8125   1.8490   1.8703   1.8760
     1.8806   1.8868   1.9146   1.9324   1.9413   1.9515   1.9704   1.9793
     1.9907   2.0249   2.0314   2.0377   2.0554   2.0620   2.0691   2.0917
     2.1100   2.1163   2.1254   2.1509   2.1943   2.2263   2.2369   2.2604
     2.3025   2.3224

          k = 0.0000 0.4619 0.0000 ( 51204 PWs)   bands (ev):

   -21.3480  -9.9122  -7.0338  -6.5338  -6.2410  -5.8520  -5.4264  -5.0244
    -4.9747  -4.9544  -4.7645  -3.8874  -3.8790  -3.7781  -3.2717  -3.2128
    -3.2085  -3.0892  -2.9538  -2.8871  -2.7773  -2.7577  -2.6125  -2.6067
    -2.5634  -2.5413  -2.4875  -2.4555  -2.3799  -2.3627  -2.3012  -2.2976
    -2.2760  -2.0901  -2.0690  -1.9927  -1.9875  -1.8771  -1.8686  -1.8569
    -1.8526  -1.8248  -1.5720  -1.5634  -1.5410  -1.5311  -1.5098  -1.4600
    -1.3393  -1.3316  -1.3168  -1.3037  -1.2849  -1.2766  -1.2700  -1.2485
    -1.1926  -1.1555  -1.1499  -1.1358  -1.1070  -1.0428  -0.9722  -0.9238
    -0.8236  -0.7949  -0.7168  -0.6847  -0.6604  -0.6452  -0.6064  -0.5978
    -0.5805  -0.5640  -0.5316  -0.5125  -0.4632  -0.4385  -0.4213  -0.3986
    -0.3590  -0.3373  -0.3134  -0.3103  -0.2955  -0.2586  -0.1853  -0.1642
    -0.1189  -0.1016  -0.0930  -0.0384  -0.0177  -0.0098   0.0088   0.0411
     0.0632   0.0714   0.0816   0.0981   0.1057   0.1109   0.1250   0.1499
     0.1580   0.1741   0.1962   0.1988   0.2052   0.2132   0.2327   0.2405
     0.2677   0.2756   0.3037   0.3575   0.4106   0.4287   0.4413   0.4601
     0.4669   0.4717   0.4979   0.5078   0.5623   0.5767   0.5834   0.6220
     0.6446   0.6504   0.6778   0.6838   0.6928   0.7198   0.8269   0.8700
     0.9128   0.9497   1.0039   1.0419   1.1019   1.1206   1.1354   1.1559
     1.1612   1.1692   1.2123   1.2472   1.2629   1.3036   1.4011   1.4174
     1.4335   1.4439   1.5070   1.5175   1.5416   1.5472   1.5813   1.5854
     1.6232   1.6376   1.6677   1.7252   1.7522   1.7626   1.7743   1.7930
     1.8036   1.8063   1.8259   1.8617   1.8769   1.8825   1.8987   1.9146
     1.9326   1.9569   2.0258   2.0376   2.0432   2.0617   2.0662   2.0810
     2.0901   2.1196   2.1256   2.1305   2.1400   2.1526   2.1597   2.1637
     2.1911   2.2103   2.3250   2.3301   2.3715   2.4817   2.6434   2.8289
     2.8636   2.9325

          k = 0.2000-0.1155 0.0000 ( 51134 PWs)   bands (ev):

   -21.3480  -9.9136  -7.4609  -6.5566  -6.0754  -5.5231  -5.3195  -5.0140
    -4.7521  -4.7374  -4.2480  -4.1386  -3.8338  -3.8266  -3.7345  -3.6822
    -3.5408  -3.2945  -3.1618  -3.1366  -3.0615  -2.7927  -2.5669  -2.5399
    -2.5016  -2.4546  -2.4300  -2.2141  -2.1316  -2.1196  -2.1155  -2.0797
    -2.0750  -2.0412  -2.0308  -1.9932  -1.9880  -1.8535  -1.8430  -1.7696
    -1.7611  -1.7247  -1.6201  -1.5868  -1.5803  -1.5622  -1.5008  -1.4339
    -1.4181  -1.3900  -1.3421  -1.3198  -1.3130  -1.2874  -1.2691  -1.2614
    -1.2541  -1.1870  -1.1694  -1.1553  -1.1256  -1.0856  -1.0713  -1.0458
    -0.9680  -0.8858  -0.6905  -0.6546  -0.6450  -0.6143  -0.5841  -0.5539
    -0.4895  -0.4807  -0.4173  -0.4055  -0.3086  -0.2857  -0.2800  -0.2633
    -0.2545  -0.2365  -0.2306  -0.2084  -0.1987  -0.1781  -0.1399  -0.1009
    -0.0826  -0.0695  -0.0634  -0.0419  -0.0263  -0.0061   0.0004   0.0185
     0.0243   0.0288   0.0340   0.0383   0.0456   0.0642   0.0742   0.0950
     0.1083   0.1353   0.1400   0.1477   0.1693   0.1974   0.2069   0.2227
     0.2469   0.2866   0.3157   0.3237   0.3268   0.3621   0.3642   0.3871
     0.3914   0.5363   0.5792   0.6012   0.6061   0.6517   0.6616   0.6853
     0.6923   0.7066   0.7103   0.7141   0.7563   0.9234   1.0161   1.0346
     1.0472   1.0651   1.0693   1.0839   1.0965   1.1482   1.2097   1.2359
     1.2453   1.2754   1.3236   1.3295   1.3553   1.3861   1.3965   1.4163
     1.4751   1.4941   1.5139   1.5303   1.5392   1.5499   1.5675   1.5770
     1.6059   1.6315   1.6602   1.6831   1.7032   1.7186   1.7282   1.7595
     1.7733   1.7872   1.7894   1.7985   1.8116   1.8395   1.8672   1.8779
     1.8828   1.8857   1.9177   1.9317   1.9423   1.9536   1.9665   1.9843
     1.9905   2.0246   2.0299   2.0369   2.0548   2.0589   2.0695   2.0888
     2.0942   2.1207   2.1271   2.1484   2.2095   2.2262   2.2388   2.2483
     2.3109   2.3254

          k = 0.2000 0.1155 0.0000 ( 51134 PWs)   bands (ev):

   -21.3480  -9.9135  -7.4610  -6.5564  -6.0759  -5.5238  -5.3215  -5.0082
    -4.7525  -4.7409  -4.2445  -4.1396  -3.8334  -3.8267  -3.7363  -3.6827
    -3.5410  -3.2943  -3.1623  -3.1367  -3.0604  -2.7910  -2.5690  -2.5392
    -2.4995  -2.4573  -2.4307  -2.2131  -2.1287  -2.1190  -2.1155  -2.0788
    -2.0753  -2.0411  -2.0307  -1.9936  -1.9882  -1.8587  -1.8418  -1.7712
    -1.7600  -1.7121  -1.6382  -1.5920  -1.5811  -1.5625  -1.4755  -1.4372
    -1.4149  -1.3982  -1.3477  -1.3217  -1.3061  -1.2905  -1.2675  -1.2647
    -1.2513  -1.1893  -1.1740  -1.1571  -1.1251  -1.0874  -1.0734  -1.0484
    -0.9384  -0.8937  -0.6967  -0.6539  -0.6426  -0.6183  -0.5804  -0.5551
    -0.4988  -0.4797  -0.4222  -0.3998  -0.3112  -0.2871  -0.2811  -0.2706
    -0.2417  -0.2318  -0.2264  -0.2150  -0.2060  -0.1813  -0.1450  -0.1050
    -0.0805  -0.0705  -0.0590  -0.0488  -0.0324  -0.0013   0.0032   0.0153
     0.0252   0.0261   0.0345   0.0394   0.0484   0.0596   0.0857   0.0961
     0.1072   0.1368   0.1453   0.1478   0.1635   0.1944   0.2128   0.2224
     0.2497   0.2656   0.3118   0.3206   0.3469   0.3597   0.3644   0.3889
     0.4285   0.5491   0.5799   0.6030   0.6062   0.6523   0.6603   0.6859
     0.6979   0.7039   0.7105   0.7120   0.7314   0.9123   1.0201   1.0285
     1.0485   1.0688   1.0753   1.0826   1.0983   1.1616   1.1864   1.2317
     1.2474   1.2698   1.3257   1.3304   1.3558   1.3860   1.3997   1.4167
     1.4769   1.4887   1.5191   1.5314   1.5392   1.5502   1.5668   1.5779
     1.6059   1.6336   1.6678   1.6787   1.6980   1.7189   1.7283   1.7526
     1.7737   1.7867   1.7901   1.7998   1.8111   1.8425   1.8702   1.8780
     1.8812   1.8914   1.9101   1.9334   1.9426   1.9530   1.9668   1.9843
     1.9887   2.0240   2.0292   2.0365   2.0557   2.0591   2.0680   2.0898
     2.0950   2.1202   2.1247   2.1497   2.2082   2.2262   2.2397   2.2485
     2.3157   2.3249

          k = 0.2000 0.3464 0.0000 ( 51202 PWs)   bands (ev):

   -21.3480  -9.9132  -7.1712  -6.5163  -5.9263  -5.7610  -5.7323  -5.3645
    -4.9929  -4.5155  -4.3807  -4.0242  -4.0192  -3.9160  -3.2028  -3.1857
    -3.1767  -3.1726  -3.0644  -2.9856  -2.9063  -2.8769  -2.8410  -2.5103
    -2.4296  -2.4244  -2.4090  -2.3578  -2.3329  -2.3158  -2.2243  -2.2117
    -2.2049  -2.2008  -2.1848  -2.0672  -2.0017  -1.8452  -1.8296  -1.8209
    -1.7469  -1.7338  -1.6995  -1.6909  -1.5706  -1.4981  -1.4760  -1.4214
    -1.3701  -1.3485  -1.3106  -1.3047  -1.2894  -1.2867  -1.2507  -1.2438
    -1.2296  -1.2036  -1.1361  -1.1268  -1.0573  -0.9819  -0.9541  -0.9141
    -0.8497  -0.8386  -0.7232  -0.6934  -0.6141  -0.6052  -0.5861  -0.5491
    -0.5388  -0.5263  -0.5126  -0.5047  -0.4410  -0.4219  -0.3952  -0.3829
    -0.3766  -0.3470  -0.3338  -0.3198  -0.2721  -0.2404  -0.1738  -0.1583
    -0.1398  -0.1127  -0.0871  -0.0594  -0.0386  -0.0283  -0.0158   0.0016
     0.0146   0.0229   0.0415   0.0504   0.0644   0.0800   0.1045   0.1245
     0.1376   0.1490   0.1647   0.1820   0.1938   0.2071   0.2167   0.2210
     0.2353   0.3003   0.3222   0.3355   0.3737   0.4493   0.4635   0.4736
     0.5045   0.5067   0.5466   0.5762   0.6182   0.6241   0.6363   0.6494
     0.6589   0.6763   0.6986   0.7624   0.7820   0.8030   0.9000   0.9505
     0.9744   1.0499   1.0634   1.0945   1.1136   1.1225   1.1325   1.1501
     1.1699   1.1825   1.1911   1.2118   1.2475   1.2690   1.3244   1.3644
     1.3840   1.3986   1.4114   1.4521   1.4632   1.4994   1.5183   1.5474
     1.5711   1.6238   1.6967   1.7456   1.7607   1.7732   1.7918   1.8058
     1.8251   1.8348   1.8566   1.8651   1.8827   1.9026   1.9275   1.9349
     1.9519   1.9680   1.9852   1.9920   2.0100   2.0283   2.0394   2.0575
     2.0711   2.0800   2.0808   2.1099   2.1155   2.1211   2.1585   2.1980
     2.2135   2.2370   2.3273   2.3402   2.4011   2.4625   2.5002   2.6379
     2.7580   2.7951

          k = 0.2000-0.5774 0.0000 ( 51262 PWs)   bands (ev):

   -21.3480  -9.9131  -6.7257  -6.5580  -6.3651  -5.8736  -5.7200  -5.3372
    -4.9676  -4.8874  -4.5527  -4.0831  -3.5313  -3.4301  -3.2146  -3.2127
    -3.1949  -3.0068  -2.9576  -2.8058  -2.7930  -2.7896  -2.6666  -2.6549
    -2.6444  -2.6349  -2.6149  -2.6105  -2.4006  -2.2887  -2.2414  -2.2379
    -2.2319  -2.2148  -2.1838  -2.1739  -2.0703  -2.0549  -1.8106  -1.7291
    -1.7148  -1.7092  -1.6990  -1.6378  -1.5477  -1.5173  -1.4749  -1.4481
    -1.4158  -1.4117  -1.3185  -1.2938  -1.2529  -1.2341  -1.2230  -1.1981
[...]
     atom    8 type  1   force =     0.00073027   -0.00158921   -0.10201610
     atom    9 type  1   force =     0.00313954   -0.00176422   -0.10520606
     atom   10 type  1   force =     0.00168344    0.00062225   -0.00885740
     atom   11 type  1   force =     0.00084719    0.00016432   -0.01313567
     atom   12 type  1   force =    -0.00273569    0.00113984   -0.00942322
     atom   13 type  1   force =     0.00092488   -0.00083631   -0.01068460
     atom   14 type  1   force =     0.00015379   -0.00136935   -0.00969174
     atom   15 type  1   force =    -0.00075303   -0.00009837   -0.01267047
     atom   16 type  1   force =     0.00059932   -0.00081140   -0.01827011
     atom   17 type  1   force =    -0.00000828    0.00009339   -0.01029836
     atom   18 type  1   force =    -0.00048634    0.00167587   -0.01162109
     atom   19 type  1   force =     0.00087398    0.00963671    0.00354977
     atom   20 type  1   force =    -0.00282562    0.00990127    0.01004471
     atom   21 type  1   force =     0.00170898   -0.00091999    0.01660372
     atom   22 type  1   force =    -0.00093276   -0.00183826    0.01850702
     atom   23 type  1   force =     0.00201560   -0.00118194    0.01470936
     atom   24 type  1   force =    -0.00068284   -0.00059891    0.01794885
     atom   25 type  1   force =    -0.01086835   -0.00248732    0.00438794
     atom   26 type  1   force =    -0.00184233   -0.00858155   -0.00132303
     atom   27 type  1   force =     0.00857164   -0.00429639    0.01109593
     atom   28 type  1   force =     0.05271838   -0.00578828    0.10330394
     atom   29 type  1   force =    -0.01490326   -0.00309867   -0.00462530
     atom   30 type  1   force =     0.00508039   -0.00084134    0.11748338
     atom   31 type  1   force =    -0.00957890   -0.03633124    0.15174334
     atom   32 type  1   force =     0.00036889    0.00099250    0.10670234
     atom   33 type  1   force =     0.00429239   -0.00838708    0.11255700
     atom   34 type  1   force =     0.00545250    0.00989661    0.11933070
     atom   35 type  1   force =    -0.01341820    0.04751542    0.15913902
     atom   36 type  1   force =    -0.00122182    0.00110207    0.10788982
     atom   37 type  2   force =    -0.40756635   -0.01476409    0.22128221
     atom   38 type  3   force =     2.16598800   -0.03578381   -1.07054070
     atom   39 type  4   force =    -0.05019373    0.00495056   -0.05857876
     The ionic contribution  to forces
     atom    1 type  1   force =    -0.00558409    0.00767127 -111.16348935
     atom    2 type  1   force =     0.00572029    0.00761338 -111.16321847
     atom    3 type  1   force =    -0.00013619    0.00251223 -111.15209729
     atom    4 type  1   force =     0.00001602    0.00249905 -111.15147161
     atom    5 type  1   force =    -0.00159213   -0.00497913 -111.15458453
     atom    6 type  1   force =     0.00157612   -0.00483234 -111.15461729
     atom    7 type  1   force =    -0.00729593   -0.00274323 -111.15910649
     atom    8 type  1   force =     0.00011716   -0.00508538 -111.17351276
     atom    9 type  1   force =     0.00717876   -0.00265586 -111.15886972
     atom   10 type  1   force =    -0.05435853    0.00360708  -40.20662175
     atom   11 type  1   force =     0.05538475    0.00393471  -40.20470756
     atom   12 type  1   force =    -0.00102263    0.00171328  -40.09661458
     atom   13 type  1   force =     0.00076274    0.06675571  -40.13607539
     atom   14 type  1   force =     0.02432950    0.01867945  -40.08578346
     atom   15 type  1   force =    -0.02509317    0.01943342  -40.08735238
     atom   16 type  1   force =    -0.02814109   -0.02318406  -40.08989922
     atom   17 type  1   force =     0.00024004   -0.06876114  -40.14579422
     atom   18 type  1   force =     0.02789975   -0.02217767  -40.08935212
     atom   19 type  1   force =    -0.28137953    0.39684523   31.13163651
     atom   20 type  1   force =     0.28915882    0.39487656   31.14619099
     atom   21 type  1   force =    -0.00750034    0.11105677   31.66745188
     atom   22 type  1   force =     0.00047232    0.10963901   31.69565078
     atom   23 type  1   force =    -0.07603134   -0.23631303   31.56721854
     atom   24 type  1   force =     0.07560184   -0.22873188   31.56672505
     atom   25 type  1   force =    -0.36441489   -0.13282166   31.34690954
     atom   26 type  1   force =     0.00420578   -0.28735309   30.57235050
     atom   27 type  1   force =     0.35955938   -0.12852774   31.35972363
     atom   28 type  1   force =    -3.65964714    0.26124411   97.84892000
     atom   29 type  1   force =     3.90870132    0.33595716   97.79226862
     atom   30 type  1   force =    -0.06238434    0.05351154  103.93942491
     atom   31 type  1   force =     0.05127951    2.97072959  102.69683096
     atom   32 type  1   force =     0.80351177    0.70181443  104.16499998
     atom   33 type  1   force =    -0.85615004    0.76430272  104.09225942
     atom   34 type  1   force =    -0.98114922   -0.89849005  104.01758099
     atom   35 type  1   force =     0.01870269   -3.24284032  102.31064437
     atom   36 type  1   force =     0.95611312   -0.84369321  104.05967187
     atom   37 type  2   force =     6.34983979   -0.10983803   55.92450521
     atom   38 type  3   force =    -8.39420756    0.16465013   87.65920394
     atom   39 type  4   force =     1.86571668   -0.15601901   15.01300053
     The local contribution  to forces
     atom    1 type  1   force =     0.00269228   -0.00888202  111.26696771
     atom    2 type  1   force =    -0.00458020   -0.01033453  111.27032632
     atom    3 type  1   force =     0.00228483   -0.00153186  111.25838423
     atom    4 type  1   force =     0.00132939   -0.00186388  111.25983830
     atom    5 type  1   force =    -0.00069558    0.00697848  111.26227975
     atom    6 type  1   force =    -0.00061864    0.00224297  111.26178385
     atom    7 type  1   force =     0.01107605    0.00189818  111.26170101
     atom    8 type  1   force =    -0.00054408    0.00719486  111.27839580
     atom    9 type  1   force =    -0.01044003    0.00464021  111.26669054
     atom   10 type  1   force =     0.05189541   -0.00423269   40.19434218
     atom   11 type  1   force =    -0.05554864   -0.00445539   40.19569086
     atom   12 type  1   force =     0.00400493   -0.00282694   40.08499278
     atom   13 type  1   force =    -0.00147684   -0.06568881   40.12607716
     atom   14 type  1   force =    -0.02502425   -0.01673854   40.07492962
     atom   15 type  1   force =     0.02647396   -0.01927365   40.07830541
     atom   16 type  1   force =     0.02752158    0.02429594   40.08519689
     atom   17 type  1   force =    -0.00097768    0.06875624   40.13529468
     atom   18 type  1   force =    -0.02724541    0.02075330   40.07922122
     atom   19 type  1   force =     0.28010189   -0.40870620  -31.11353262
     atom   20 type  1   force =    -0.28606801   -0.40515873  -31.13714501
     atom   21 type  1   force =     0.00598784   -0.11087704  -31.66143512
     atom   22 type  1   force =    -0.00000474   -0.10846847  -31.68844476
     atom   23 type  1   force =     0.07429098    0.23724494  -31.55854898
     atom   24 type  1   force =    -0.07428857    0.22907676  -31.56075354
     atom   25 type  1   force =     0.37768800    0.13758018  -31.32885093
     atom   26 type  1   force =    -0.00284228    0.29734539  -30.55036038
     atom   27 type  1   force =    -0.36751364    0.13311638  -31.35427757
     atom   28 type  1   force =     3.59001113   -0.25309402  -97.95129333
     atom   29 type  1   force =    -3.88983510   -0.33232750  -97.76788505
     atom   30 type  1   force =     0.05596688   -0.05236865 -104.06761005
     atom   31 type  1   force =    -0.03928159   -2.92436030 -102.86070971
     atom   32 type  1   force =    -0.80077640   -0.70035348 -104.27816775
     atom   33 type  1   force =     0.84829235   -0.75226963 -104.21451441
     atom   34 type  1   force =     0.97135070    0.88436083 -104.14557811
     atom   35 type  1   force =    -0.00245873    3.18397378 -102.48141609
     atom   36 type  1   force =    -0.95169798    0.83903150 -104.17486954
     atom   37 type  2   force =    -5.94441782    0.12428097  -56.14601756
     atom   38 type  3   force =     6.24293431   -0.12993283  -86.60248655
     atom   39 type  4   force =    -1.81260255    0.15154155  -14.95108532
     The core correction contribution to forces
     atom    1 type  1   force =    -0.00014371   -0.00031346    0.01024285
     atom    2 type  1   force =    -0.00005087   -0.00029714    0.01054153
     atom    3 type  1   force =     0.00009659    0.00007136    0.01002234
     atom    4 type  1   force =     0.00000711    0.00005001    0.01008024
     atom    5 type  1   force =     0.00001952    0.00025814    0.01030369
     atom    6 type  1   force =    -0.00005606   -0.00017202    0.01015005
     atom    7 type  1   force =     0.00040102    0.00003936    0.01054816
     atom    8 type  1   force =    -0.00004879    0.00024168    0.01042755
     atom    9 type  1   force =    -0.00019783    0.00023329    0.01042541
     atom   10 type  1   force =    -0.00000004   -0.00002956   -0.00149427
     atom   11 type  1   force =    -0.00003615   -0.00001823   -0.00168317
     atom   12 type  1   force =     0.00003035    0.00017343   -0.00165448
     atom   13 type  1   force =     0.00000680   -0.00008283   -0.00182607
     atom   14 type  1   force =    -0.00006951   -0.00006279   -0.00171197
     atom   15 type  1   force =     0.00002345   -0.00006288   -0.00190644
     atom   16 type  1   force =     0.00020321    0.00005161   -0.00182415
     atom   17 type  1   force =     0.00003899    0.00011932   -0.00180238
     atom   18 type  1   force =    -0.00022545   -0.00004397   -0.00171893
     atom   19 type  1   force =     0.00000919    0.00000707    0.00084636
     atom   20 type  1   force =    -0.00051204    0.00107413    0.00029144
     atom   21 type  1   force =     0.00028014   -0.00005428    0.00165291
     atom   22 type  1   force =     0.00016634   -0.00030237    0.00223583
     atom   23 type  1   force =    -0.00014874    0.00011956    0.00168759
     atom   24 type  1   force =    -0.00009389   -0.00022750    0.00202667
     atom   25 type  1   force =     0.00022681    0.00004693    0.00138984
     atom   26 type  1   force =    -0.00041928   -0.00001439    0.00059325
     atom   27 type  1   force =     0.00120928   -0.00077390    0.00009107
     atom   28 type  1   force =     0.00843501   -0.00063495    0.00224447
     atom   29 type  1   force =    -0.00289355   -0.00072306   -0.00805006
     atom   30 type  1   force =    -0.00114894    0.00024423   -0.00939329
     atom   31 type  1   force =     0.00192045   -0.00401189   -0.00687194
     atom   32 type  1   force =    -0.00208526   -0.00223080   -0.00918547
     atom   33 type  1   force =     0.00005110   -0.00019581   -0.01036870
     atom   34 type  1   force =     0.00035972    0.00020524   -0.00971353
     atom   35 type  1   force =     0.00190754    0.00484833   -0.00641139
     atom   36 type  1   force =    -0.00227342    0.00205312   -0.00897857
     atom   37 type  2   force =     0.00398252    0.00028983   -0.00309681
     atom   38 type  3   force =    -0.01735167    0.00026305    0.00960636
     atom   39 type  4   force =     0.00000000    0.00000000    0.00000000
     The Hubbard contrib.    to forces
     atom    1 type  1   force =     0.00000000    0.00000000    0.00000000
     atom    2 type  1   force =     0.00000000    0.00000000    0.00000000
     atom    3 type  1   force =     0.00000000    0.00000000    0.00000000
     atom    4 type  1   force =     0.00000000    0.00000000    0.00000000
     atom    5 type  1   force =     0.00000000    0.00000000    0.00000000
     atom    6 type  1   force =     0.00000000    0.00000000    0.00000000
     atom    7 type  1   force =     0.00000000    0.00000000    0.00000000
     atom    8 type  1   force =     0.00000000    0.00000000    0.00000000
     atom    9 type  1   force =     0.00000000    0.00000000    0.00000000
     atom   10 type  1   force =     0.00000000    0.00000000    0.00000000
     atom   11 type  1   force =     0.00000000    0.00000000    0.00000000
     atom   12 type  1   force =     0.00000000    0.00000000    0.00000000
     atom   13 type  1   force =     0.00000000    0.00000000    0.00000000
     atom   14 type  1   force =     0.00000000    0.00000000    0.00000000
     atom   15 type  1   force =     0.00000000    0.00000000    0.00000000
     atom   16 type  1   force =     0.00000000    0.00000000    0.00000000
     atom   17 type  1   force =     0.00000000    0.00000000    0.00000000
     atom   18 type  1   force =     0.00000000    0.00000000    0.00000000
     atom   19 type  1   force =     0.00000000    0.00000000    0.00000000
     atom   20 type  1   force =     0.00000000    0.00000000    0.00000000
     atom   21 type  1   force =     0.00000000    0.00000000    0.00000000
     atom   22 type  1   force =     0.00000000    0.00000000    0.00000000
     atom   23 type  1   force =     0.00000000    0.00000000    0.00000000
     atom   24 type  1   force =     0.00000000    0.00000000    0.00000000
     atom   25 type  1   force =     0.00000000    0.00000000    0.00000000
     atom   26 type  1   force =     0.00000000    0.00000000    0.00000000
     atom   27 type  1   force =     0.00000000    0.00000000    0.00000000
     atom   28 type  1   force =     0.00000000    0.00000000    0.00000000
     atom   29 type  1   force =     0.00000000    0.00000000    0.00000000
     atom   30 type  1   force =     0.00000000    0.00000000    0.00000000
     atom   31 type  1   force =     0.00000000    0.00000000    0.00000000
     atom   32 type  1   force =     0.00000000    0.00000000    0.00000000
     atom   33 type  1   force =     0.00000000    0.00000000    0.00000000
     atom   34 type  1   force =     0.00000000    0.00000000    0.00000000
     atom   35 type  1   force =     0.00000000    0.00000000    0.00000000
     atom   36 type  1   force =     0.00000000    0.00000000    0.00000000
     atom   37 type  2   force =     0.00000000    0.00000000    0.00000000
     atom   38 type  3   force =     0.00000000    0.00000000    0.00000000
     atom   39 type  4   force =     0.00000000    0.00000000    0.00000000
     The SCF correction term to forces
     atom    1 type  1   force =    -0.00000000    0.00000000    0.00000000
     atom    2 type  1   force =    -0.00000000   -0.00000000    0.00000000
     atom    3 type  1   force =     0.00000000    0.00000000    0.00000000
     atom    4 type  1   force =    -0.00000000   -0.00000000    0.00000000
     atom    5 type  1   force =     0.00000000   -0.00000000    0.00000000
     atom    6 type  1   force =     0.00000000   -0.00000000    0.00000000
     atom    7 type  1   force =     0.00000000    0.00000000    0.00000000
     atom    8 type  1   force =     0.00000000    0.00000000    0.00000000
     atom    9 type  1   force =    -0.00000000   -0.00000000    0.00000000
     atom   10 type  1   force =     0.00000000    0.00000000    0.00000000
     atom   11 type  1   force =     0.00000000   -0.00000000    0.00000000
     atom   12 type  1   force =    -0.00000000    0.00000000    0.00000000
     atom   13 type  1   force =    -0.00000000   -0.00000000    0.00000000
     atom   14 type  1   force =     0.00000000   -0.00000000    0.00000000
     atom   15 type  1   force =     0.00000000    0.00000000    0.00000000
     atom   16 type  1   force =    -0.00000000    0.00000000    0.00000000
     atom   17 type  1   force =     0.00000000    0.00000000    0.00000000
     atom   18 type  1   force =    -0.00000000   -0.00000000    0.00000000
     atom   19 type  1   force =     0.00000000   -0.00000000   -0.00000000
     atom   20 type  1   force =     0.00000000   -0.00000000   -0.00000000
     atom   21 type  1   force =    -0.00000000   -0.00000000   -0.00000000
     atom   22 type  1   force =    -0.00000000    0.00000000   -0.00000000
     atom   23 type  1   force =     0.00000000    0.00000000   -0.00000000
     atom   24 type  1   force =     0.00000000    0.00000000   -0.00000000
     atom   25 type  1   force =     0.00000000    0.00000000    0.00000000
     atom   26 type  1   force =    -0.00000000    0.00000000   -0.00000000
     atom   27 type  1   force =    -0.00000000    0.00000000   -0.00000000
     atom   28 type  1   force =    -0.00000000   -0.00000000   -0.00000000
     atom   29 type  1   force =    -0.00000000   -0.00000000   -0.00000000
     atom   30 type  1   force =     0.00000000   -0.00000000   -0.00000000
     atom   31 type  1   force =     0.00000000   -0.00000000   -0.00000000
     atom   32 type  1   force =    -0.00000000    0.00000000   -0.00000000
     atom   33 type  1   force =    -0.00000000   -0.00000000   -0.00000000
     atom   34 type  1   force =     0.00000000    0.00000000   -0.00000000
     atom   35 type  1   force =    -0.00000000    0.00000000   -0.00000000
     atom   36 type  1   force =     0.00000000    0.00000000   -0.00000000
     atom   37 type  2   force =    -0.00000808   -0.00000252   -0.00003111
     atom   38 type  3   force =    -0.00000588   -0.00000458   -0.00006048
     atom   39 type  4   force =     0.00000024   -0.00000016   -0.00000563

     Total force =     0.007777     Total SCF correction =     0.000069

     Writing all to output data dir ./pwscf.save/

     init_run     :     11.50s CPU     11.95s WALL (       1 calls)
     electrons    :    820.30s CPU    831.81s WALL (       1 calls)
     forces       :      3.97s CPU      4.11s WALL (       1 calls)

     Called by init_run:
     wfcinit      :      8.40s CPU      8.73s WALL (       1 calls)
     potinit      :      2.01s CPU      2.09s WALL (       1 calls)
     hinit0       :      0.85s CPU      0.86s WALL (       1 calls)

     Called by electrons:
     c_bands      :    687.20s CPU    696.20s WALL (      53 calls)
     sum_band     :     88.73s CPU     90.19s WALL (      53 calls)
     v_of_rho     :      8.90s CPU      9.24s WALL (      54 calls)
     newd         :      2.94s CPU      2.99s WALL (      54 calls)
     PAW_pot      :     14.20s CPU     14.37s WALL (      54 calls)
     mix_rho      :     19.60s CPU     19.94s WALL (      53 calls)
     vdW_kernel   :      1.10s CPU      1.11s WALL (       1 calls)

     Called by c_bands:
     init_us_2    :      9.63s CPU      9.84s WALL (    2808 calls)
     init_us_2:cp :      9.61s CPU      9.84s WALL (    2808 calls)
     cegterg      :    663.30s CPU    671.57s WALL (    1378 calls)

     Called by *egterg:
     cdiaghg      :    213.71s CPU    215.36s WALL (    4889 calls)
     h_psi        :    296.91s CPU    301.68s WALL (    4915 calls)
     s_psi        :     39.26s CPU     39.77s WALL (    4915 calls)
     g_psi        :      0.99s CPU      1.02s WALL (    3511 calls)

     Called by h_psi:
     h_psi:calbec :     52.00s CPU     52.83s WALL (    4915 calls)
     vloc_psi     :    201.70s CPU    205.10s WALL (    4915 calls)
     add_vuspsi   :     40.69s CPU     41.20s WALL (    4915 calls)

     General routines
     calbec       :     76.93s CPU     78.12s WALL (    6397 calls)
     fft          :      5.67s CPU      6.00s WALL (    4883 calls)
     ffts         :     11.24s CPU     11.44s WALL (   23360 calls)
     fftw         :    233.90s CPU    237.84s WALL ( 1431186 calls)
     interpolate  :      0.40s CPU      0.41s WALL (     108 calls)

     Parallel routines

     PWSCF        :  14m 2.00s CPU  14m19.75s WALL


   This run was terminated on:   5: 7: 2  11Dec2025            

=------------------------------------------------------------------------------=
   JOB DONE.
=------------------------------------------------------------------------------=
