  37  37   0   0
  0.4190497E+02  0.8468310E-09  0.8468310E-09  0.2496566E-08  0.5000000E-15
  1.000000000000000E-004
  CAR 
 unknown system                          
      8.61664037     -9.89915601  301     -0.07585266      1.00000000
     -9.899  0.0000E+00  0.0000E+00
     -9.837  0.0000E+00  0.0000E+00
     -9.776  0.0000E+00  0.0000E+00
     -9.714 -0.4349E-28 -0.2684E-29
     -9.652 -0.6412E-24 -0.3958E-25
     -9.591 -0.4383E-20 -0.2706E-21
     -9.529 -0.1387E-16 -0.8565E-18
     -9.467 -0.1965E-13 -0.1214E-14
     -9.405 -0.1317E-10 -0.8139E-12
     -9.344 -0.4034E-08 -0.2498E-09
     -9.282 -0.5611E-06 -0.3488E-07
     -9.220 -0.3491E-04 -0.2190E-05
     -9.159 -0.9427E-03 -0.6037E-04
     -9.097 -0.1024E-01 -0.6923E-03
     -9.035 -0.3348E-01 -0.2759E-02
     -8.973  0.5034E-01  0.3479E-03
     -8.912  0.3291E+00  0.2066E-01
     -8.850  0.6023E+00  0.5783E-01
     -8.788  0.2027E+01  0.1829E+00
     -8.726  0.3808E+01  0.4179E+00
     -8.665  0.2280E+01  0.5587E+00
     -8.603 -0.8007E-02  0.5582E+00
     -8.541  0.1669E+00  0.5685E+00
     -8.480  0.2526E+01  0.7243E+00
     -8.418  0.3810E+01  0.9595E+00
     -8.356  0.3549E+01  0.1179E+01
     -8.294  0.3755E+01  0.1410E+01
     -8.233  0.1924E+01  0.1529E+01
     -8.171  0.2362E-01  0.1530E+01
     -8.109 -0.3604E+00  0.1508E+01
     -8.048 -0.3025E+00  0.1490E+01
     -7.986  0.2035E+01  0.1615E+01
     -7.924  0.6657E+01  0.2026E+01
     -7.862  0.6092E+01  0.2402E+01
     -7.801  0.1637E+01  0.2503E+01
     -7.739  0.1735E+01  0.2610E+01
     -7.677  0.5270E+01  0.2935E+01
     -7.616  0.6216E+01  0.3319E+01
     -7.554  0.3003E+01  0.3504E+01
     -7.492  0.9820E+00  0.3565E+01
     -7.430  0.2892E+01  0.3744E+01
     -7.369  0.5432E+01  0.4079E+01
     -7.307  0.7373E+01  0.4534E+01
     -7.245  0.9005E+01  0.5090E+01
     -7.184  0.9433E+01  0.5672E+01
     -7.122  0.6948E+01  0.6101E+01
     -7.060  0.5237E+01  0.6424E+01
     -6.998  0.5180E+01  0.6744E+01
     -6.937  0.4123E+01  0.6998E+01
     -6.875  0.4182E+01  0.7256E+01
     -6.813  0.6943E+01  0.7685E+01
     -6.751  0.8425E+01  0.8205E+01
     -6.690  0.6285E+01  0.8593E+01
     -6.628  0.7404E+01  0.9050E+01
     -6.566  0.1371E+02  0.9895E+01
     -6.505  0.1435E+02  0.1078E+02
     -6.443  0.1105E+02  0.1146E+02
     -6.381  0.1094E+02  0.1214E+02
     -6.319  0.9170E+01  0.1270E+02
     -6.258  0.1009E+02  0.1333E+02
     -6.196  0.1896E+02  0.1450E+02
     -6.134  0.3154E+02  0.1644E+02
     -6.073  0.3690E+02  0.1872E+02
     -6.011  0.3193E+02  0.2069E+02
     -5.949  0.2924E+02  0.2250E+02
     -5.887  0.3197E+02  0.2447E+02
     -5.826  0.3636E+02  0.2671E+02
     -5.764  0.3072E+02  0.2861E+02
     -5.702  0.2597E+02  0.3021E+02
     -5.641  0.3286E+02  0.3224E+02
     -5.579  0.4000E+02  0.3471E+02
     -5.517  0.4269E+02  0.3734E+02
     -5.455  0.5117E+02  0.4050E+02
     -5.394  0.6284E+02  0.4438E+02
     -5.332  0.6468E+02  0.4837E+02
     -5.270  0.5638E+02  0.5185E+02
     -5.208  0.4517E+02  0.5464E+02
     -5.147  0.4017E+02  0.5712E+02
     -5.085  0.4878E+02  0.6013E+02
     -5.023  0.6992E+02  0.6445E+02
     -4.962  0.6322E+02  0.6835E+02
     -4.900  0.3253E+02  0.7036E+02
     -4.838  0.2418E+02  0.7185E+02
     -4.776  0.3953E+02  0.7429E+02
     -4.715  0.4012E+02  0.7676E+02
     -4.653  0.2418E+02  0.7826E+02
     -4.591  0.2498E+02  0.7980E+02
     -4.530  0.4152E+02  0.8236E+02
     -4.468  0.5705E+02  0.8588E+02
     -4.406  0.6255E+02  0.8974E+02
     -4.344  0.5406E+02  0.9308E+02
     -4.283  0.4421E+02  0.9581E+02
     -4.221  0.4170E+02  0.9838E+02
     -4.159  0.4781E+02  0.1013E+03
     -4.098  0.5964E+02  0.1050E+03
     -4.036  0.5942E+02  0.1087E+03
     -3.974  0.4806E+02  0.1116E+03
     -3.912  0.4220E+02  0.1143E+03
     -3.851  0.4057E+02  0.1168E+03
     -3.789  0.3686E+02  0.1190E+03
     -3.727  0.4220E+02  0.1216E+03
     -3.666  0.5956E+02  0.1253E+03
     -3.604  0.6280E+02  0.1292E+03
     -3.542  0.5595E+02  0.1326E+03
     -3.480  0.5665E+02  0.1361E+03
     -3.419  0.6777E+02  0.1403E+03
     -3.357  0.7633E+02  0.1450E+03
     -3.295  0.7226E+02  0.1495E+03
     -3.233  0.6608E+02  0.1536E+03
     -3.172  0.7241E+02  0.1580E+03
     -3.110  0.8785E+02  0.1635E+03
     -3.048  0.8504E+02  0.1687E+03
     -2.987  0.7663E+02  0.1734E+03
     -2.925  0.7791E+02  0.1782E+03
     -2.863  0.7527E+02  0.1829E+03
     -2.801  0.8406E+02  0.1881E+03
     -2.740  0.1019E+03  0.1944E+03
     -2.678  0.1039E+03  0.2008E+03
     -2.616  0.8361E+02  0.2059E+03
     -2.555  0.6269E+02  0.2098E+03
     -2.493  0.6286E+02  0.2137E+03
     -2.431  0.6083E+02  0.2174E+03
     -2.369  0.4536E+02  0.2202E+03
     -2.308  0.2998E+02  0.2221E+03
     -2.246  0.2476E+02  0.2236E+03
     -2.184  0.3081E+02  0.2255E+03
     -2.123  0.4384E+02  0.2282E+03
     -2.061  0.6434E+02  0.2322E+03
     -1.999  0.8730E+02  0.2376E+03
     -1.937  0.9217E+02  0.2433E+03
     -1.876  0.7977E+02  0.2482E+03
     -1.814  0.6047E+02  0.2519E+03
     -1.752  0.4466E+02  0.2547E+03
     -1.690  0.4261E+02  0.2573E+03
     -1.629  0.4736E+02  0.2602E+03
     -1.567  0.5627E+02  0.2637E+03
     -1.505  0.5878E+02  0.2673E+03
     -1.444  0.5418E+02  0.2707E+03
     -1.382  0.5855E+02  0.2743E+03
     -1.320  0.6026E+02  0.2780E+03
     -1.258  0.5165E+02  0.2812E+03
     -1.197  0.5520E+02  0.2846E+03
     -1.135  0.7382E+02  0.2892E+03
     -1.073  0.8479E+02  0.2944E+03
     -1.012  0.8530E+02  0.2997E+03
     -0.950  0.7089E+02  0.3040E+03
     -0.888  0.5723E+02  0.3076E+03
     -0.826  0.5699E+02  0.3111E+03
     -0.765  0.5156E+02  0.3143E+03
     -0.703  0.4273E+02  0.3169E+03
     -0.641  0.5103E+02  0.3201E+03
     -0.580  0.6265E+02  0.3239E+03
     -0.518  0.6009E+02  0.3276E+03
     -0.456  0.5952E+02  0.3313E+03
     -0.394  0.6957E+02  0.3356E+03
     -0.333  0.8786E+02  0.3410E+03
     -0.271  0.9421E+02  0.3468E+03
     -0.209  0.7166E+02  0.3513E+03
     -0.148  0.5680E+02  0.3548E+03
     -0.086  0.8463E+02  0.3600E+03
     -0.024  0.9576E+02  0.3659E+03
      0.038  0.5614E+02  0.3694E+03
      0.099  0.3293E+02  0.3714E+03
      0.161  0.5126E+02  0.3746E+03
      0.223  0.5604E+02  0.3780E+03
      0.285  0.4372E+02  0.3807E+03
      0.346  0.3846E+02  0.3831E+03
      0.408  0.2722E+02  0.3848E+03
      0.470  0.1313E+02  0.3856E+03
      0.531  0.4312E+01  0.3859E+03
      0.593  0.1970E+01  0.3860E+03
      0.655  0.4736E+01  0.3863E+03
      0.717  0.1142E+02  0.3870E+03
      0.778  0.1629E+02  0.3880E+03
      0.840  0.1208E+02  0.3887E+03
      0.902  0.7670E+01  0.3892E+03
      0.963  0.1073E+02  0.3899E+03
      1.025  0.9889E+01  0.3905E+03
      1.087  0.2736E+01  0.3906E+03
      1.149  0.2704E+01  0.3908E+03
      1.210  0.1076E+02  0.3915E+03
      1.272  0.1437E+02  0.3924E+03
      1.334  0.1233E+02  0.3931E+03
      1.395  0.1035E+02  0.3938E+03
      1.457  0.1412E+02  0.3946E+03
      1.519  0.2573E+02  0.3962E+03
      1.581  0.2627E+02  0.3978E+03
      1.642  0.1852E+02  0.3990E+03
      1.704  0.1583E+02  0.4000E+03
      1.766  0.1073E+02  0.4006E+03
      1.828  0.2454E+01  0.4008E+03
      1.889  0.1450E+01  0.4009E+03
      1.951  0.4986E+01  0.4012E+03
      2.013  0.7059E+01  0.4016E+03
      2.074  0.5885E+01  0.4020E+03
      2.136  0.4353E+01  0.4022E+03
      2.198  0.8159E+01  0.4027E+03
      2.260  0.1134E+02  0.4034E+03
      2.321  0.1085E+02  0.4041E+03
      2.383  0.1454E+02  0.4050E+03
      2.445  0.2145E+02  0.4063E+03
      2.506  0.2091E+02  0.4076E+03
      2.568  0.1133E+02  0.4083E+03
      2.630  0.6368E+01  0.4087E+03
      2.692  0.6901E+01  0.4091E+03
      2.753  0.1134E+02  0.4098E+03
      2.815  0.1896E+02  0.4110E+03
      2.877  0.1844E+02  0.4121E+03
      2.938  0.1239E+02  0.4129E+03
      3.000  0.7967E+01  0.4134E+03
      3.062  0.1105E+02  0.4141E+03
      3.124  0.1468E+02  0.4150E+03
      3.185  0.1164E+02  0.4157E+03
      3.247  0.9737E+01  0.4163E+03
      3.309  0.8166E+01  0.4168E+03
      3.370  0.3295E+01  0.4170E+03
      3.432  0.8399E+00  0.4171E+03
      3.494  0.4817E+01  0.4174E+03
      3.556  0.1174E+02  0.4181E+03
      3.617  0.1873E+02  0.4192E+03
      3.679  0.2385E+02  0.4207E+03
      3.741  0.2157E+02  0.4221E+03
      3.803  0.1263E+02  0.4228E+03
      3.864  0.5282E+01  0.4232E+03
      3.926  0.3141E+01  0.4234E+03
      3.988  0.3681E+01  0.4236E+03
      4.049  0.5265E+01  0.4239E+03
      4.111  0.7535E+01  0.4244E+03
      4.173  0.8346E+01  0.4249E+03
      4.235  0.6582E+01  0.4253E+03
      4.296  0.4951E+01  0.4256E+03
      4.358  0.1200E+02  0.4263E+03
      4.420  0.2469E+02  0.4279E+03
      4.481  0.2162E+02  0.4292E+03
      4.543  0.9214E+01  0.4298E+03
      4.605  0.7289E+01  0.4302E+03
      4.667  0.1166E+02  0.4309E+03
      4.728  0.1471E+02  0.4318E+03
      4.790  0.1274E+02  0.4326E+03
      4.852  0.8211E+01  0.4331E+03
      4.913  0.6186E+01  0.4335E+03
      4.975  0.8597E+01  0.4340E+03
      5.037  0.9942E+01  0.4347E+03
      5.099  0.6894E+01  0.4351E+03
      5.160  0.7519E+01  0.4355E+03
      5.222  0.1186E+02  0.4363E+03
      5.284  0.1397E+02  0.4371E+03
      5.346  0.1180E+02  0.4379E+03
      5.407  0.9639E+01  0.4385E+03
      5.469  0.1371E+02  0.4393E+03
      5.531  0.2099E+02  0.4406E+03
      5.592  0.2564E+02  0.4422E+03
      5.654  0.2484E+02  0.4437E+03
      5.716  0.2258E+02  0.4451E+03
      5.778  0.2061E+02  0.4464E+03
      5.839  0.1819E+02  0.4475E+03
      5.901  0.1740E+02  0.4486E+03
      5.963  0.2260E+02  0.4500E+03
      6.024  0.3036E+02  0.4519E+03
      6.086  0.2839E+02  0.4536E+03
      6.148  0.1809E+02  0.4547E+03
      6.210  0.1344E+02  0.4556E+03
      6.271  0.1863E+02  0.4567E+03
      6.333  0.2973E+02  0.4585E+03
      6.395  0.3088E+02  0.4604E+03
      6.456  0.1907E+02  0.4616E+03
      6.518  0.1448E+02  0.4625E+03
      6.580  0.2078E+02  0.4638E+03
      6.642  0.2577E+02  0.4654E+03
      6.703  0.2640E+02  0.4670E+03
      6.765  0.2630E+02  0.4686E+03
      6.827  0.2518E+02  0.4702E+03
      6.888  0.1927E+02  0.4714E+03
      6.950  0.9805E+01  0.4720E+03
      7.012  0.9643E+01  0.4726E+03
      7.074  0.1954E+02  0.4738E+03
      7.135  0.2348E+02  0.4752E+03
      7.197  0.1958E+02  0.4764E+03
      7.259  0.1621E+02  0.4774E+03
      7.321  0.1136E+02  0.4782E+03
      7.382  0.5058E+01  0.4785E+03
      7.444  0.2839E+01  0.4786E+03
      7.506  0.4699E+01  0.4789E+03
      7.567  0.6723E+01  0.4793E+03
      7.629  0.7117E+01  0.4798E+03
      7.691  0.3661E+01  0.4800E+03
      7.753  0.2501E+00  0.4800E+03
      7.814 -0.2957E+00  0.4800E+03
      7.876 -0.7188E-01  0.4800E+03
      7.938 -0.5828E-02  0.4800E+03
      7.999 -0.1959E-03  0.4800E+03
      8.061 -0.2902E-05  0.4800E+03
      8.123 -0.1942E-07  0.4800E+03
      8.185 -0.5945E-10  0.4800E+03
      8.246 -0.8375E-13  0.4800E+03
      8.308  0.0000E+00  0.4800E+03
      8.370  0.0000E+00  0.4800E+03
      8.431  0.0000E+00  0.4800E+03
      8.493  0.0000E+00  0.4800E+03
      8.555  0.0000E+00  0.4800E+03
      8.617  0.0000E+00  0.4800E+03
