   37   37    1    1
  0.4190497E+02  0.8468310E-09  0.8468310E-09  0.2496566E-08  0.5000000E-15
  1.000000000000000E-004
  CAR 
 unknown system                          
    361     13    240
 
  0.1276756E-14  0.1276756E-14  0.1276756E-14  0.4000000E-01
      1         -8.899156   1.000000
      2         -7.756383   1.000000
      3         -7.017127   1.000000
      4         -6.502817   1.000000
      5         -6.476667   1.000000
      6         -6.465285   1.000000
      7         -6.459323   1.000000
      8         -6.443412   1.000000
      9         -6.432323   1.000000
     10         -6.423888   1.000000
     11         -6.145291   1.000000
     12         -5.918898   1.000000
     13         -5.915083   1.000000
     14         -5.908650   1.000000
     15         -5.900311   1.000000
     16         -5.897842   1.000000
     17         -5.829142   1.000000
     18         -5.469792   1.000000
     19         -5.459107   1.000000
     20         -5.457460   1.000000
     21         -5.448475   1.000000
     22         -5.444524   1.000000
     23         -5.342445   1.000000
     24         -5.235707   1.000000
     25         -5.230789   1.000000
     26         -5.227833   1.000000
     27         -5.221224   1.000000
     28         -5.215744   1.000000
     29         -5.124256   1.000000
     30         -5.032564   1.000000
     31         -5.027811   1.000000
     32         -5.025945   1.000000
     33         -5.016638   1.000000
     34         -5.012710   1.000000
     35         -4.972190   1.000000
     36         -4.962221   1.000000
     37         -4.953569   1.000000
     38         -4.947354   1.000000
     39         -4.920905   1.000000
     40         -4.913407   1.000000
     41         -4.590623   1.000000
     42         -4.383194   1.000000
     43         -4.381426   1.000000
     44         -4.355503   1.000000
     45         -4.342553   1.000000
     46         -4.329726   1.000000
     47         -4.314400   1.000000
     48         -4.298716   1.000000
     49         -4.290517   1.000000
     50         -4.288402   1.000000
     51         -4.142247   1.000000
     52         -4.134747   1.000000
     53         -4.122227   1.000000
     54         -4.042408   1.000000
     55         -4.031363   1.000000
     56         -3.587862   1.000000
     57         -3.577713   1.000000
     58         -3.576746   1.000000
     59         -3.562775   1.000000
     60         -3.554010   1.000000
     61         -3.498948   1.000000
     62         -3.488450   1.000000
     63         -3.389901   1.000000
     64         -3.383853   1.000000
     65         -3.375979   1.000000
     66         -3.374284   1.000000
     67         -3.366834   1.000000
     68         -3.359422   1.000000
     69         -3.353252   1.000000
     70         -3.325728   1.000000
     71         -3.306927   1.000000
     72         -3.302990   1.000000
     73         -3.299004   1.000000
     74         -3.295223   1.000000
     75         -3.273270   1.000000
     76         -3.264926   1.000000
     77         -3.253123   1.000000
     78         -3.158309   1.000000
     79         -3.151270   1.000000
     80         -3.148496   1.000000
     81         -3.141172   1.000000
     82         -3.130628   1.000000
     83         -3.123688   1.000000
     84         -2.947864   1.000000
     85         -2.937762   1.000000
     86         -2.932917   1.000000
     87         -2.914051   1.000000
     88         -2.911954   1.000000
     89         -2.898492   1.000000
     90         -2.896079   1.000000
     91         -2.882524   1.000000
     92         -2.841080   1.000000
     93         -2.824361   1.000000
     94         -2.799735   1.000000
     95         -2.784004   1.000000
     96         -2.741931   1.000000
     97         -2.737881   1.000000
     98         -2.696314   1.000000
     99         -2.693365   1.000000
    100         -2.683215   1.000000
    101         -2.620752   1.000000
    102         -2.530610   1.000000
    103         -2.523714   1.000000
    104         -2.515272   1.000000
    105         -2.507800   1.000000
    106         -2.497969   1.000000
    107         -2.493566   1.000000
    108         -2.258269   1.000000
    109         -2.031958   1.000000
    110         -2.008079   1.000000
    111         -2.004732   1.000000
    112         -2.000749   1.000000
    113         -1.993229   1.000000
    114         -1.981828   1.000000
    115         -1.979056   1.000000
    116         -1.972090   1.000000
    117         -1.957943   1.000000
    118         -1.950834   1.000000
    119         -1.936394   1.000000
    120         -1.876675   1.000000
    121         -1.862082   1.000000
    122         -1.813271   1.000000
    123         -1.736517   1.000000
    124         -1.732870   1.000000
    125         -1.718614   1.000000
    126         -1.716197   1.000000
    127         -1.700762   1.000000
    128         -1.606043   1.000000
    129         -1.588405   1.000000
    130         -1.539245   1.000000
    131         -1.537014   1.000000
    132         -1.521480   1.000000
    133         -1.495587   1.000000
    134         -1.301257   1.000000
    135         -1.284006   1.000000
    136         -1.276288   1.000000
    137         -1.260537   1.000000
    138         -1.256107   1.000000
    139         -1.250729   1.000000
    140         -1.193140   1.000000
    141         -1.178375   1.000000
    142         -1.064506   1.000000
    143         -1.050642   1.000000
    144         -1.034213   1.000000
    145         -1.027531   1.000000
    146         -1.023159   1.000000
    147         -1.016554   1.000000
    148         -0.916156   1.000000
    149         -0.879369   1.000000
    150         -0.865379   1.000000
    151         -0.844811   1.000000
    152         -0.835479   1.000000
    153         -0.831435   1.000000
    154         -0.827833   1.000000
    155         -0.818128   1.000000
    156         -0.808149   1.000000
    157         -0.803672   1.000000
    158         -0.798091   1.000000
    159         -0.797315   1.000000
    160         -0.736018   1.000000
    161         -0.711281   1.000000
    162         -0.697573   1.000000
    163         -0.692415   1.000000
    164         -0.671599   1.000000
    165         -0.663474   1.000000
    166         -0.643176   1.000000
    167         -0.640713   1.000000
    168         -0.602484   1.000000
    169         -0.589633   1.000000
    170         -0.573667   1.000000
    171         -0.569655   1.000000
    172         -0.558603   1.000000
    173         -0.543734   1.000000
    174         -0.539446   1.000000
    175         -0.537064   1.000000
    176         -0.460183   1.000000
    177         -0.453845   1.000001
    178         -0.446155   1.000001
    179         -0.438379   1.000002
    180         -0.429114   1.000003
    181         -0.427401   1.000004
    182         -0.390508   1.000040
    183         -0.348029   1.000406
    184         -0.337068   1.000691
    185         -0.324525   1.001228
    186         -0.323165   1.001305
    187         -0.310929   1.002197
    188         -0.304955   1.002798
    189         -0.122138   0.849021
    190         -0.103724   0.726019
    191         -0.022202   0.110515
    192         -0.016403   0.082472
    193         -0.006014   0.040691
    194          0.005990   0.005387
    195          0.007566   0.001715
    196          0.012813  -0.009018
    197          0.516814  -0.000000
    198          0.821569  -0.000000
    199          0.830091  -0.000000
    200          0.886030  -0.000000
    201          0.889425  -0.000000
    202          0.901990  -0.000000
    203          0.907115  -0.000000
    204          2.796892   0.000000
    205          3.113145   0.000000
    206          3.175708   0.000000
    207          3.191107   0.000000
    208          3.222598   0.000000
    209          3.223060   0.000000
    210          4.534316   0.000000
    211          4.720517   0.000000
    212          4.791977   0.000000
    213          4.808183   0.000000
    214          4.825649   0.000000
    215          4.827403   0.000000
    216          4.909794   0.000000
    217          5.076823   0.000000
    218          5.151911   0.000000
    219          5.436203   0.000000
    220          5.546301   0.000000
    221          5.777078   0.000000
    222          5.831749   0.000000
    223          5.846603   0.000000
    224          5.862339   0.000000
    225          5.866451   0.000000
    226          6.018291   0.000000
    227          6.389297   0.000000
    228          6.603155   0.000000
    229          6.621555   0.000000
    230          6.628965   0.000000
    231          6.773093   0.000000
    232          6.995212   0.000000
    233          7.126733   0.000000
    234          7.153483   0.000000
    235          7.162228   0.000000
    236          7.175447   0.000000
    237          7.180632   0.000000
    238          7.208016   0.000000
    239          7.256043   0.000000
    240          7.614740   0.000000
 
  0.2000000E+00  0.1278043E-14  0.1276756E-14  0.8000000E-01
      1         -8.750837   1.000000
      2         -7.624375   1.000000
      3         -6.998562   1.000000
      4         -6.904163   1.000000
      5         -6.560142   1.000000
      6         -6.545714   1.000000
      7         -6.360599   1.000000
      8         -6.272116   1.000000
      9         -6.226687   1.000000
     10         -6.212667   1.000000
     11         -6.102154   1.000000
     12         -6.002565   1.000000
     13         -5.991011   1.000000
     14         -5.848297   1.000000
     15         -5.837609   1.000000
     16         -5.828620   1.000000
     17         -5.735906   1.000000
     18         -5.537068   1.000000
     19         -5.428032   1.000000
     20         -5.418030   1.000000
     21         -5.411415   1.000000
     22         -5.394044   1.000000
     23         -5.333696   1.000000
     24         -5.302662   1.000000
     25         -5.276546   1.000000
     26         -5.225024   1.000000
     27         -5.220611   1.000000
     28         -5.213164   1.000000
     29         -5.172505   1.000000
     30         -5.116671   1.000000
     31         -5.107523   1.000000
     32         -5.041670   1.000000
     33         -5.018075   1.000000
     34         -5.011047   1.000000
     35         -5.009606   1.000000
     36         -4.873961   1.000000
     37         -4.810641   1.000000
     38         -4.783683   1.000000
     39         -4.771314   1.000000
     40         -4.745000   1.000000
     41         -4.597390   1.000000
     42         -4.498846   1.000000
     43         -4.493095   1.000000
     44         -4.451836   1.000000
     45         -4.420613   1.000000
     46         -4.401936   1.000000
     47         -4.391140   1.000000
     48         -4.298444   1.000000
     49         -4.211187   1.000000
     50         -4.157058   1.000000
     51         -4.128220   1.000000
     52         -4.111120   1.000000
     53         -4.077213   1.000000
     54         -4.055775   1.000000
     55         -4.029450   1.000000
     56         -3.828740   1.000000
     57         -3.739069   1.000000
     58         -3.735249   1.000000
     59         -3.679314   1.000000
     60         -3.656667   1.000000
     61         -3.629819   1.000000
     62         -3.582363   1.000000
     63         -3.570142   1.000000
     64         -3.562466   1.000000
     65         -3.534061   1.000000
     66         -3.526766   1.000000
     67         -3.462362   1.000000
     68         -3.449723   1.000000
     69         -3.409580   1.000000
     70         -3.372023   1.000000
     71         -3.363175   1.000000
     72         -3.336049   1.000000
     73         -3.281337   1.000000
     74         -3.271794   1.000000
     75         -3.261518   1.000000
     76         -3.182937   1.000000
     77         -3.174915   1.000000
     78         -3.159518   1.000000
     79         -3.133861   1.000000
     80         -3.097185   1.000000
     81         -3.071239   1.000000
     82         -3.062788   1.000000
     83         -3.040606   1.000000
     84         -2.999192   1.000000
     85         -2.968154   1.000000
     86         -2.956020   1.000000
     87         -2.945875   1.000000
     88         -2.934975   1.000000
     89         -2.913238   1.000000
     90         -2.899260   1.000000
     91         -2.868481   1.000000
     92         -2.815387   1.000000
     93         -2.805056   1.000000
     94         -2.789754   1.000000
     95         -2.772397   1.000000
     96         -2.761275   1.000000
     97         -2.746029   1.000000
     98         -2.719491   1.000000
     99         -2.701577   1.000000
    100         -2.691734   1.000000
    101         -2.608814   1.000000
    102         -2.568944   1.000000
    103         -2.540198   1.000000
    104         -2.529871   1.000000
    105         -2.509338   1.000000
    106         -2.503557   1.000000
    107         -2.502403   1.000000
    108         -2.478699   1.000000
    109         -2.445075   1.000000
    110         -2.435346   1.000000
    111         -2.425534   1.000000
    112         -2.409052   1.000000
    113         -2.194887   1.000000
    114         -2.073272   1.000000
    115         -2.041557   1.000000
    116         -2.015387   1.000000
    117         -2.001478   1.000000
    118         -1.991887   1.000000
    119         -1.989537   1.000000
    120         -1.955435   1.000000
    121         -1.945983   1.000000
    122         -1.859206   1.000000
    123         -1.803193   1.000000
    124         -1.785723   1.000000
    125         -1.716540   1.000000
    126         -1.660397   1.000000
    127         -1.653308   1.000000
    128         -1.600176   1.000000
    129         -1.593822   1.000000
    130         -1.576554   1.000000
    131         -1.547415   1.000000
    132         -1.534286   1.000000
    133         -1.522966   1.000000
    134         -1.448453   1.000000
    135         -1.410668   1.000000
    136         -1.400732   1.000000
    137         -1.388460   1.000000
    138         -1.377419   1.000000
    139         -1.298156   1.000000
    140         -1.192418   1.000000
    141         -1.185122   1.000000
    142         -1.164685   1.000000
    143         -1.152442   1.000000
    144         -1.136956   1.000000
    145         -1.118431   1.000000
    146         -1.069523   1.000000
    147         -1.033612   1.000000
    148         -1.003108   1.000000
    149         -0.989780   1.000000
    150         -0.980708   1.000000
    151         -0.938464   1.000000
    152         -0.918956   1.000000
    153         -0.905065   1.000000
    154         -0.892619   1.000000
    155         -0.825246   1.000000
    156         -0.793534   1.000000
    157         -0.778576   1.000000
    158         -0.758908   1.000000
    159         -0.731287   1.000000
    160         -0.663661   1.000000
    161         -0.642525   1.000000
    162         -0.627089   1.000000
    163         -0.601968   1.000000
    164         -0.593259   1.000000
    165         -0.571274   1.000000
    166         -0.548613   1.000000
    167         -0.485153   1.000000
    168         -0.472251   1.000000
    169         -0.420833   1.000006
    170         -0.406084   1.000016
    171         -0.401284   1.000021
    172         -0.384913   1.000056
    173         -0.359943   1.000221
    174         -0.352923   1.000318
    175         -0.343988   1.000496
    176         -0.341904   1.000549
    177         -0.328323   1.001036
    178         -0.276939   1.007718
    179         -0.273629   1.008584
    180         -0.140932   0.941507
    181         -0.123313   0.855830
    182         -0.102426   0.716318
    183         -0.089830   0.617016
    184         -0.070176   0.452048
    185         -0.068643   0.439161
    186         -0.033711   0.176064
    187         -0.022300   0.111018
    188          0.000498   0.019887
    189          0.009948  -0.003434
    190          0.069411  -0.029702
    191          0.109024  -0.012628
    192          0.130649  -0.006443
    193          0.183946  -0.000739
    194          0.290210  -0.000001
    195          0.306237  -0.000000
    196          0.314229  -0.000000
    197          0.348173  -0.000000
    198          0.694350  -0.000000
    199          0.757711  -0.000000
    200          1.240677  -0.000000
    201          1.466621  -0.000000
    202          1.482522  -0.000000
    203          1.596624  -0.000000
    204          2.388177  -0.000000
    205          2.785417   0.000000
    206          2.910453   0.000000
    207          3.541547   0.000000
    208          3.645038   0.000000
    209          3.659508   0.000000
    210          3.743765   0.000000
    211          3.985949   0.000000
    212          4.407981   0.000000
    213          4.603767   0.000000
    214          4.736265   0.000000
    215          4.935184   0.000000
    216          4.999504   0.000000
    217          5.007215   0.000000
    218          5.195763   0.000000
    219          5.255972   0.000000
    220          5.475348   0.000000
    221          5.657281   0.000000
    222          5.689384   0.000000
    223          5.798079   0.000000
    224          5.921218   0.000000
    225          6.105023   0.000000
    226          6.133756   0.000000
    227          6.199665   0.000000
    228          6.333379   0.000000
    229          6.357261   0.000000
    230          6.556241   0.000000
    231          6.707853   0.000000
    232          6.757162   0.000000
    233          6.796619   0.000000
    234          6.866025   0.000000
    235          6.880880   0.000000
    236          7.044122   0.000000
    237          7.273874   0.000000
    238          7.466892   0.000000
    239          7.541385   0.000000
    240          7.597671   0.000000
 
  0.2000000E+00  0.2000000E+00  0.1276756E-14  0.8000000E-01
      1         -8.750728   1.000000
      2         -7.624332   1.000000
      3         -6.994898   1.000000
      4         -6.904413   1.000000
      5         -6.564342   1.000000
      6         -6.545822   1.000000
      7         -6.360543   1.000000
      8         -6.266596   1.000000
      9         -6.226435   1.000000
     10         -6.218374   1.000000
     11         -6.102376   1.000000
     12         -6.005548   1.000000
     13         -5.990455   1.000000
     14         -5.847139   1.000000
     15         -5.835011   1.000000
     16         -5.826814   1.000000
     17         -5.734806   1.000000
     18         -5.539790   1.000000
     19         -5.427409   1.000000
     20         -5.415354   1.000000
     21         -5.410747   1.000000
     22         -5.391819   1.000000
     23         -5.336598   1.000000
     24         -5.302796   1.000000
     25         -5.278592   1.000000
     26         -5.225170   1.000000
     27         -5.219965   1.000000
     28         -5.208848   1.000000
     29         -5.173202   1.000000
     30         -5.121286   1.000000
     31         -5.108921   1.000000
     32         -5.036184   1.000000
     33         -5.019464   1.000000
     34         -5.012350   1.000000
     35         -5.009127   1.000000
     36         -4.872033   1.000000
     37         -4.811316   1.000000
     38         -4.783715   1.000000
     39         -4.772563   1.000000
     40         -4.749418   1.000000
     41         -4.597136   1.000000
     42         -4.500844   1.000000
     43         -4.494871   1.000000
     44         -4.452111   1.000000
     45         -4.421828   1.000000
     46         -4.396940   1.000000
     47         -4.390171   1.000000
     48         -4.300551   1.000000
     49         -4.212100   1.000000
     50         -4.159150   1.000000
     51         -4.126393   1.000000
     52         -4.112899   1.000000
     53         -4.077522   1.000000
     54         -4.055009   1.000000
     55         -4.028838   1.000000
     56         -3.836046   1.000000
     57         -3.738613   1.000000
     58         -3.733548   1.000000
     59         -3.687019   1.000000
     60         -3.663701   1.000000
     61         -3.632680   1.000000
     62         -3.589558   1.000000
     63         -3.563401   1.000000
     64         -3.554719   1.000000
     65         -3.531974   1.000000
     66         -3.523806   1.000000
     67         -3.463164   1.000000
     68         -3.449954   1.000000
     69         -3.409274   1.000000
     70         -3.375783   1.000000
     71         -3.365203   1.000000
     72         -3.339563   1.000000
     73         -3.269324   1.000000
     74         -3.261865   1.000000
     75         -3.249739   1.000000
     76         -3.184753   1.000000
     77         -3.177359   1.000000
     78         -3.161959   1.000000
     79         -3.132668   1.000000
     80         -3.099705   1.000000
     81         -3.080871   1.000000
     82         -3.076655   1.000000
     83         -3.031066   1.000000
     84         -2.997956   1.000000
     85         -2.965297   1.000000
     86         -2.956676   1.000000
     87         -2.944397   1.000000
     88         -2.937088   1.000000
     89         -2.913611   1.000000
     90         -2.899332   1.000000
     91         -2.867980   1.000000
     92         -2.816229   1.000000
     93         -2.805023   1.000000
     94         -2.785097   1.000000
     95         -2.773448   1.000000
     96         -2.762230   1.000000
     97         -2.749525   1.000000
     98         -2.717663   1.000000
     99         -2.699467   1.000000
    100         -2.686720   1.000000
    101         -2.609404   1.000000
    102         -2.568574   1.000000
    103         -2.543184   1.000000
    104         -2.529768   1.000000
    105         -2.506130   1.000000
    106         -2.500708   1.000000
    107         -2.499082   1.000000
    108         -2.478554   1.000000
    109         -2.449158   1.000000
    110         -2.434766   1.000000
    111         -2.426494   1.000000
    112         -2.408808   1.000000
    113         -2.200616   1.000000
    114         -2.080014   1.000000
    115         -2.042105   1.000000
    116         -2.013485   1.000000
    117         -2.002187   1.000000
    118         -1.991213   1.000000
    119         -1.982495   1.000000
    120         -1.951991   1.000000
    121         -1.944524   1.000000
    122         -1.859248   1.000000
    123         -1.802585   1.000000
    124         -1.781710   1.000000
    125         -1.711424   1.000000
    126         -1.657050   1.000000
    127         -1.652847   1.000000
    128         -1.611064   1.000000
    129         -1.586213   1.000000
    130         -1.572024   1.000000
    131         -1.547592   1.000000
    132         -1.532642   1.000000
    133         -1.520594   1.000000
    134         -1.450616   1.000000
    135         -1.408881   1.000000
    136         -1.399305   1.000000
    137         -1.387767   1.000000
    138         -1.381032   1.000000
    139         -1.298421   1.000000
    140         -1.192639   1.000000
    141         -1.184074   1.000000
    142         -1.162778   1.000000
    143         -1.155653   1.000000
    144         -1.139415   1.000000
    145         -1.121890   1.000000
    146         -1.069327   1.000000
    147         -1.034646   1.000000
    148         -1.003173   1.000000
    149         -0.992420   1.000000
    150         -0.982532   1.000000
    151         -0.938963   1.000000
    152         -0.917448   1.000000
    153         -0.906097   1.000000
    154         -0.895730   1.000000
    155         -0.822657   1.000000
    156         -0.792740   1.000000
    157         -0.779380   1.000000
    158         -0.760347   1.000000
    159         -0.726879   1.000000
    160         -0.663845   1.000000
    161         -0.641788   1.000000
    162         -0.625154   1.000000
    163         -0.600343   1.000000
    164         -0.590821   1.000000
    165         -0.569415   1.000000
    166         -0.546145   1.000000
    167         -0.484554   1.000000
    168         -0.472180   1.000000
    169         -0.421974   1.000006
    170         -0.405548   1.000016
    171         -0.399884   1.000023
    172         -0.386975   1.000049
    173         -0.357682   1.000249
    174         -0.355815   1.000274
    175         -0.344673   1.000480
    176         -0.339748   1.000609
    177         -0.331260   1.000906
    178         -0.272209   1.008978
    179         -0.269591   1.009736
    180         -0.137390   0.926795
    181         -0.120933   0.841896
    182         -0.104556   0.732169
    183         -0.090410   0.621762
    184         -0.075771   0.499307
    185         -0.070414   0.454052
    186         -0.039582   0.214292
    187         -0.025751   0.129344
    188         -0.006243   0.041498
    189          0.005922   0.005550
    190          0.070436  -0.029270
    191          0.109122  -0.012594
    192          0.129967  -0.006594
    193          0.185973  -0.000672
    194          0.289980  -0.000001
    195          0.302879  -0.000001
    196          0.314387  -0.000000
    197          0.353429  -0.000000
    198          0.689784  -0.000000
    199          0.749471  -0.000000
    200          1.241546  -0.000000
    201          1.466479  -0.000000
    202          1.485920  -0.000000
    203          1.600041  -0.000000
    204          2.394375  -0.000000
    205          2.781405   0.000000
    206          2.903871   0.000000
    207          3.541315   0.000000
    208          3.646359   0.000000
    209          3.659546   0.000000
    210          3.741029   0.000000
    211          3.989728   0.000000
    212          4.409357   0.000000
    213          4.604850   0.000000
    214          4.744740   0.000000
    215          4.935477   0.000000
    216          4.996803   0.000000
    217          5.007396   0.000000
    218          5.193542   0.000000
    219          5.255815   0.000000
    220          5.465495   0.000000
    221          5.657917   0.000000
    222          5.697055   0.000000
    223          5.800191   0.000000
    224          5.914404   0.000000
    225          6.105644   0.000000
    226          6.133638   0.000000
    227          6.199189   0.000000
    228          6.330129   0.000000
    229          6.348271   0.000000
    230          6.552457   0.000000
    231          6.706160   0.000000
    232          6.758822   0.000000
    233          6.799314   0.000000
    234          6.866738   0.000000
    235          6.882421   0.000000
    236          7.047414   0.000000
    237          7.279085   0.000000
    238          7.473450   0.000000
    239          7.538042   0.000000
    240          7.604499   0.000000
 
  0.1276756E-14  0.2000000E+00  0.1276756E-14  0.8000000E-01
      1         -8.751848   1.000000
      2         -7.636130   1.000000
      3         -7.049615   1.000000
      4         -6.846970   1.000000
      5         -6.565818   1.000000
      6         -6.557330   1.000000
      7         -6.360958   1.000000
      8         -6.270162   1.000000
      9         -6.220823   1.000000
     10         -6.214170   1.000000
     11         -6.154419   1.000000
     12         -6.003239   1.000000
     13         -5.884601   1.000000
     14         -5.848760   1.000000
     15         -5.837217   1.000000
     16         -5.828805   1.000000
     17         -5.799721   1.000000
     18         -5.535794   1.000000
     19         -5.418974   1.000000
     20         -5.414831   1.000000
     21         -5.407995   1.000000
     22         -5.343907   1.000000
     23         -5.333806   1.000000
     24         -5.302392   1.000000
     25         -5.275664   1.000000
     26         -5.270130   1.000000
     27         -5.226237   1.000000
     28         -5.213226   1.000000
     29         -5.117609   1.000000
     30         -5.112381   1.000000
     31         -5.103125   1.000000
     32         -5.023534   1.000000
     33         -5.016241   1.000000
     34         -5.013367   1.000000
     35         -5.006207   1.000000
     36         -4.837963   1.000000
     37         -4.809373   1.000000
     38         -4.785804   1.000000
     39         -4.782667   1.000000
     40         -4.764054   1.000000
     41         -4.580039   1.000000
     42         -4.499730   1.000000
     43         -4.496382   1.000000
     44         -4.453861   1.000000
     45         -4.418756   1.000000
     46         -4.413791   1.000000
     47         -4.392278   1.000000
     48         -4.318510   1.000000
     49         -4.216993   1.000000
     50         -4.169218   1.000000
     51         -4.128964   1.000000
     52         -4.118471   1.000000
     53         -4.070968   1.000000
     54         -4.045944   1.000000
     55         -4.009871   1.000000
     56         -3.834735   1.000000
     57         -3.736723   1.000000
     58         -3.731080   1.000000
     59         -3.682183   1.000000
     60         -3.671125   1.000000
     61         -3.637475   1.000000
     62         -3.586598   1.000000
     63         -3.571437   1.000000
     64         -3.550236   1.000000
     65         -3.530281   1.000000
     66         -3.523484   1.000000
     67         -3.494089   1.000000
     68         -3.443409   1.000000
     69         -3.395942   1.000000
     70         -3.385585   1.000000
     71         -3.368625   1.000000
     72         -3.349226   1.000000
     73         -3.269946   1.000000
     74         -3.265146   1.000000
     75         -3.250832   1.000000
     76         -3.187654   1.000000
     77         -3.172114   1.000000
     78         -3.163958   1.000000