       N       E                     dE             d eps       ncg     rms          rms(c)
DAV:   1    -0.104870569855E+03   -0.10487E+03   -0.25666E+00  7008   0.258E+00    0.574E+00
RMM:   2    -0.129904718349E+03   -0.25034E+02   -0.47529E+00  6784   0.320E+00    0.419E+01
RMM:   3    -0.104962792130E+03    0.24942E+02   -0.29520E+00  6832   0.294E+00    0.669E+00
RMM:   4    -0.104602298418E+03    0.36049E+00   -0.29561E-01  6910   0.876E-01    0.238E+00
RMM:   5    -0.104597313969E+03    0.49844E-02   -0.61409E-02  6978   0.380E-01    0.185E+00
RMM:   6    -0.104574326851E+03    0.22987E-01   -0.16695E-02  7024   0.202E-01    0.102E+00
RMM:   7    -0.104571757522E+03    0.25693E-02   -0.68864E-03  7084   0.123E-01    0.711E-01
RMM:   8    -0.104568692882E+03    0.30646E-02   -0.28160E-03  7065   0.842E-02    0.226E-01
RMM:   9    -0.104568514909E+03    0.17797E-03   -0.98611E-04  7097   0.482E-02    0.164E-01
RMM:  10    -0.104568446795E+03    0.68114E-04   -0.31242E-04  7046   0.282E-02    0.129E-01
RMM:  11    -0.104568420517E+03    0.26278E-04   -0.12669E-04  7038   0.174E-02    0.981E-02
RMM:  12    -0.104568411571E+03    0.89460E-05   -0.66180E-05  6510   0.127E-02
   1 F= -.10456841E+03 E0= -.10453731E+03  d E =-.932899E-01
