<?xml version="1.0" encoding="ISO-8859-1"?>
<modeling>
 <generator>
  <i name="program" type="string">vasp </i>
  <i name="version" type="string">6.4.2  </i>
  <i name="subversion" type="string">20Jul23 (build Mar 01 2024 16:46:03) complex                          parallel </i>
  <i name="platform" type="string">LinuxIFC </i>
  <i name="date" type="string">2025 01 15 </i>
  <i name="time" type="string">06:02:09 </i>
 </generator>
 <incar>
  <i type="string" name="ALGO">Fast</i>
  <i type="int" name="ISPIN">     1</i>
  <i type="int" name="IBRION">    -1</i>
  <i name="EDIFF">      0.00001000</i>
  <i type="int" name="ISYM">     0</i>
  <i name="ENCUT">    680.29000000</i>
  <i type="string" name="LREAL">Auto</i>
  <i type="int" name="ISMEAR">     1</i>
  <i name="SIGMA">      0.10000000</i>
  <i type="string" name="GGA">BF</i>
  <i type="logical" name="LUSE_VDW"> T  </i>
  <i name="Zab_VDW">     -1.88670000</i>
 </incar>
 <primitive_cell>
  <structure name="primitive_cell" >
   <crystal>
    <varray name="basis" >
     <v>       8.46831000       0.00000000       0.00000000 </v>
     <v>       4.23415500       7.33377159       0.00000000 </v>
     <v>       0.00000000       0.00000000      24.96566199 </v>
    </varray>
    <i name="volume">   1550.48373159 </i>
    <varray name="rec_basis" >
     <v>       0.11808732      -0.06817774       0.00000000 </v>
     <v>       0.00000000       0.13635549       0.00000000 </v>
     <v>       0.00000000       0.00000000       0.04005502 </v>
    </varray>
   </crystal>
   <varray name="positions" >
    <v>       0.00000000       0.00000000       0.34046764 </v>
    <v>       0.33400137       0.00000000       0.34046764 </v>
    <v>       0.66800274       0.00000000       0.34046764 </v>
    <v>       1.00000000       0.33400137       0.34046764 </v>
    <v>       0.33400137       0.33400137       0.34046764 </v>
    <v>       0.66800274       0.33400137       0.34046764 </v>
    <v>       1.00000000       0.66800274       0.34046764 </v>
    <v>       0.33400137       0.66800274       0.34046764 </v>
    <v>       0.66800274       0.66800274       0.34046764 </v>
    <v>       0.11133379       0.11133379       0.43297074 </v>
    <v>       0.44533516       0.11133379       0.43297074 </v>
    <v>       0.77933653       0.11133379       0.43297074 </v>
    <v>       0.11133379       0.44533516       0.43297074 </v>
    <v>       0.44533516       0.44533516       0.43297074 </v>
    <v>       0.77933653       0.44533516       0.43297074 </v>
    <v>       0.11133379       0.77933653       0.43297074 </v>
    <v>       0.44533516       0.77933653       0.43297074 </v>
    <v>       0.77933653       0.77933653       0.43297074 </v>
    <v>       0.88890668       0.22530192       0.52525398 </v>
    <v>       0.22133142       0.22412292       0.52586495 </v>
    <v>       0.55320924       0.22498113       0.52508479 </v>
    <v>       0.88899878       0.55630839       0.52501733 </v>
    <v>       0.22141450       0.55623289       0.52478788 </v>
    <v>       0.55496258       0.55679778       0.52424543 </v>
    <v>       0.88761061       0.89178154       0.52411326 </v>
    <v>       0.22126818       0.89017718       0.52422412 </v>
    <v>       0.55530005       0.89000646       0.52417426 </v>
    <v>       0.99811830       0.00112905       0.61771109 </v>
    <v>       0.33399906       0.99621760       0.61744946 </v>
    <v>       0.66495265       0.00100387       0.61757488 </v>
    <v>       0.99707990       0.33312407       0.62139430 </v>
    <v>       0.33515412       0.33288015       0.62088454 </v>
    <v>       0.66527803       0.33476106       0.61791665 </v>
    <v>       0.99560177       0.67320317       0.61727234 </v>
    <v>       0.33177783       0.66795579       0.61739098 </v>
    <v>       0.66452832       0.66777047       0.61748235 </v>
    <v>       0.15616203       0.35185079       0.66135408 </v>
   </varray>
  </structure>
  <varray name="primitive_index" >
   <v type="int" >        1 </v>
   <v type="int" >        2 </v>
   <v type="int" >        3 </v>
   <v type="int" >        4 </v>
   <v type="int" >        5 </v>
   <v type="int" >        6 </v>
   <v type="int" >        7 </v>
   <v type="int" >        8 </v>
   <v type="int" >        9 </v>
   <v type="int" >       10 </v>
   <v type="int" >       11 </v>
   <v type="int" >       12 </v>
   <v type="int" >       13 </v>
   <v type="int" >       14 </v>
   <v type="int" >       15 </v>
   <v type="int" >       16 </v>
   <v type="int" >       17 </v>
   <v type="int" >       18 </v>
   <v type="int" >       19 </v>
   <v type="int" >       20 </v>
   <v type="int" >       21 </v>
   <v type="int" >       22 </v>
   <v type="int" >       23 </v>
   <v type="int" >       24 </v>
   <v type="int" >       25 </v>
   <v type="int" >       26 </v>
   <v type="int" >       27 </v>
   <v type="int" >       28 </v>
   <v type="int" >       29 </v>
   <v type="int" >       30 </v>
   <v type="int" >       31 </v>
   <v type="int" >       32 </v>
   <v type="int" >       33 </v>
   <v type="int" >       34 </v>
   <v type="int" >       35 </v>
   <v type="int" >       36 </v>
   <v type="int" >       37 </v>
  </varray>
 </primitive_cell>
 <kpoints>
  <generation param="Monkhorst-Pack">
   <v type="int" name="divisions">       5        5        1 </v>
   <v name="usershift">      0.00000000       0.00000000       0.00000000 </v>
   <v name="genvec1">      0.20000000      -0.00000000       0.00000000 </v>
   <v name="genvec2">      0.00000000       0.20000000       0.00000000 </v>
   <v name="genvec3">      0.00000000       0.00000000       1.00000000 </v>
   <v name="shift">      0.00000000       0.00000000       0.00000000 </v>
  </generation>
  <varray name="kpointlist" >
   <v>       0.00000000       0.00000000       0.00000000 </v>
   <v>       0.20000000       0.00000000       0.00000000 </v>
   <v>       0.20000000       0.20000000       0.00000000 </v>
   <v>       0.00000000       0.20000000       0.00000000 </v>
   <v>       0.40000000       0.00000000       0.00000000 </v>
   <v>       0.40000000       0.40000000       0.00000000 </v>
   <v>       0.00000000       0.40000000       0.00000000 </v>
   <v>       0.40000000       0.20000000       0.00000000 </v>
   <v>       0.20000000       0.40000000       0.00000000 </v>
   <v>      -0.20000000       0.20000000       0.00000000 </v>
   <v>      -0.40000000       0.20000000       0.00000000 </v>
   <v>       0.40000000      -0.40000000       0.00000000 </v>
   <v>      -0.20000000       0.40000000       0.00000000 </v>
  </varray>
  <varray name="weights" >
   <v>       0.04000000 </v>
   <v>       0.08000000 </v>
   <v>       0.08000000 </v>
   <v>       0.08000000 </v>
   <v>       0.08000000 </v>
   <v>       0.08000000 </v>
   <v>       0.08000000 </v>
   <v>       0.08000000 </v>
   <v>       0.08000000 </v>
   <v>       0.08000000 </v>
   <v>       0.08000000 </v>
   <v>       0.08000000 </v>
   <v>       0.08000000 </v>
  </varray>
 </kpoints>
 <parameters>
  <separator name="general" >
   <i type="string" name="SYSTEM">unknown system</i>
   <i type="logical" name="LCOMPAT"> F  </i>
  </separator>
  <separator name="electronic" >
   <i type="string" name="PREC">normal</i>
   <i name="ENMAX">    680.29000000</i>
   <i name="ENAUG">    400.00000000</i>
   <i name="EDIFF">      0.00001000</i>
   <i type="int" name="IALGO">    68</i>
   <i type="int" name="IWAVPR">    10</i>
   <i type="int" name="NBANDS">   240</i>
   <i type="int" name="NBANDSLOW">    -1</i>
   <i type="int" name="NBANDSHIGH">    -1</i>
   <i name="NELECT">    361.00000000</i>
   <i type="int" name="TURBO">     0</i>
   <i type="int" name="IRESTART">     0</i>
   <i type="int" name="NREBOOT">     0</i>
   <i type="int" name="NMIN">     0</i>
   <i name="EREF">      0.00000000</i>
   <separator name="electronic smearing" >
    <i type="int" name="ISMEAR">     1</i>
    <i name="SIGMA">      0.10000000</i>
    <i name="KSPACING">      0.50000000</i>
    <i type="logical" name="KGAMMA"> T  </i>
    <i type="logical" name="KBLOWUP"> T  </i>
   </separator>
   <separator name="electronic projectors" >
    <i type="logical" name="LREAL"> T  </i>
    <v name="ROPT">     -0.00050000     -0.00050000</v>
    <i type="int" name="LMAXPAW">  -100</i>
    <i type="int" name="LMAXMIX">     2</i>
    <i type="logical" name="NLSPLINE"> F  </i>
   </separator>
   <separator name="electronic startup" >
    <i type="int" name="ISTART">     1</i>
    <i type="int" name="ICHARG">     0</i>
    <i type="int" name="INIWAV">     1</i>
   </separator>
   <separator name="electronic spin" >
    <i type="int" name="ISPIN">     1</i>
    <i type="logical" name="LNONCOLLINEAR"> F  </i>
    <v name="MAGMOM">      1.00000000      1.00000000      1.00000000      1.00000000      1.00000000      1.00000000      1.00000000      1.00000000      1.00000000      1.00000000      1.00000000      1.00000000      1.00000000      1.00000000      1.00000000      1.00000000      1.00000000      1.00000000      1.00000000      1.00000000
      1.00000000      1.00000000      1.00000000      1.00000000      1.00000000      1.00000000      1.00000000      1.00000000      1.00000000      1.00000000      1.00000000      1.00000000      1.00000000      1.00000000      1.00000000      1.00000000      1.00000000</v>
    <i name="NUPDOWN">     -1.00000000</i>
    <i type="logical" name="LSORBIT"> F  </i>
    <v name="SAXIS">      0.00000000      0.00000000      1.00000000</v>
    <i type="logical" name="LSPIRAL"> F  </i>
    <v name="QSPIRAL">      0.00000000      0.00000000      0.00000000</v>
    <i type="logical" name="LZEROZ"> F  </i>
   </separator>
   <separator name="electronic exchange-correlation" >
    <i type="logical" name="LASPH"> F  </i>
    <i type="logical" name="LMETAGGA"> F  </i>
   </separator>
   <separator name="electronic convergence" >
    <i type="int" name="NELM">    60</i>
    <i type="int" name="NELMDL">     0</i>
    <i type="int" name="NELMIN">     2</i>
    <i name="ENINI">    680.29000000</i>
    <separator name="electronic convergence detail" >
     <i type="logical" name="LDIAG"> T  </i>
     <i type="logical" name="LSUBROT"> F  </i>
     <i name="WEIMIN">      0.00000000</i>
     <i name="EBREAK">      0.00000001</i>
     <i name="DEPER">      0.30000000</i>
     <i type="int" name="NRMM">     4</i>
     <i name="TIME">      0.40000000</i>
    </separator>
   </separator>
   <separator name="electronic mixer" >
    <i name="AMIX">      0.40000000</i>
    <i name="BMIX">      1.00000000</i>
    <i name="AMIN">      0.10000000</i>
    <i name="AMIX_MAG">      1.60000000</i>
    <i name="BMIX_MAG">      1.00000000</i>
    <separator name="electronic mixer details" >
     <i type="int" name="IMIX">     4</i>
     <i type="logical" name="MIXFIRST"> F  </i>
     <i type="int" name="MAXMIX">   -45</i>
     <i name="WC">    100.00000000</i>
     <i type="int" name="INIMIX">     1</i>
     <i type="int" name="MIXPRE">     1</i>
     <i type="int" name="MREMOVE">     5</i>
    </separator>
   </separator>
   <separator name="electronic dipolcorrection" >
    <i type="logical" name="LDIPOL"> F  </i>
    <i type="logical" name="LMONO"> F  </i>
    <i type="int" name="IDIPOL">     0</i>
    <i name="EPSILON">      1.00000000</i>
    <v name="DIPOL">   -100.00000000   -100.00000000   -100.00000000</v>
    <i name="EFIELD">      0.00000000</i>
   </separator>
  </separator>
  <separator name="grids" >
   <i type="int" name="NGX">    54</i>
   <i type="int" name="NGY">    54</i>
   <i type="int" name="NGZ">   160</i>
   <i type="int" name="NGXF">   108</i>
   <i type="int" name="NGYF">   108</i>
   <i type="int" name="NGZF">   320</i>
   <i type="logical" name="ADDGRID"> F  </i>
  </separator>
  <separator name="ionic" >
   <i type="int" name="NSW">     0</i>
   <i type="int" name="IBRION">    -1</i>
   <i type="int" name="MDALGO">     0</i>
   <i type="int" name="ISIF">     2</i>
   <i name="PSTRESS">      0.00000000</i>
   <i name="EDIFFG">      0.00010000</i>
   <i type="int" name="NFREE">     0</i>
   <i name="POTIM">      0.50000000</i>
   <i name="SMASS">     -3.00000000</i>
   <i name="SCALEE">      1.00000000</i>
  </separator>
  <separator name="ionic md" >
   <i name="TEBEG">      0.00010000</i>
   <i name="TEEND">      0.00010000</i>
   <i type="int" name="NBLOCK">     1</i>
   <i type="int" name="KBLOCK">     1</i>
   <i type="int" name="NPACO">   256</i>
   <i name="APACO">     10.00000000</i>
  </separator>
  <separator name="symmetry" >
   <i type="int" name="ISYM">     0</i>
   <i name="SYMPREC">      0.00001000</i>
  </separator>
  <separator name="dos" >
   <i type="int" name="LORBIT">     0</i>
   <v name="RWIGS">     -1.00000000     -1.00000000</v>
   <i type="int" name="NEDOS">   301</i>
   <i name="EMIN">     10.00000000</i>
   <i name="EMAX">    -10.00000000</i>
   <i name="EFERMI">      0.00000000</i>
  </separator>
  <separator name="writing" >
   <i type="int" name="NWRITE">     2</i>
   <i type="logical" name="LWAVE"> T  </i>
   <i type="logical" name="LDOWNSAMPLE"> F  </i>
   <i type="logical" name="LCHARG"> T  </i>
   <i type="logical" name="LPARD"> F  </i>
   <i type="logical" name="LVTOT"> F  </i>
   <i type="logical" name="LVHAR"> F  </i>
   <i type="logical" name="LELF"> F  </i>
   <i type="logical" name="LOPTICS"> F  </i>
   <v name="STM">      0.00000000      0.00000000      0.00000000      0.00000000      0.00000000      0.00000000      0.00000000</v>
  </separator>
  <separator name="performance" >
   <i type="int" name="NPAR">    48</i>
   <i type="int" name="NSIM">     4</i>
   <i type="int" name="NBLK">    -1</i>
   <i type="logical" name="LPLANE"> T  </i>
   <i type="logical" name="LSCALAPACK"> T  </i>
   <i type="logical" name="LSCAAWARE"> F  </i>
   <i type="logical" name="LSCALU"> F  </i>
   <i type="logical" name="LASYNC"> F  </i>
   <i type="logical" name="LORBITALREAL"> F  </i>
  </separator>
  <separator name="miscellaneous" >
   <i type="int" name="IDIOT">     3</i>
   <i type="int" name="PHON_NSTRUCT">    -1</i>
   <i type="logical" name="LMUSIC"> F  </i>
   <v name="POMASS">    195.08000000      1.00000000</v>
   <v name="DARWINR">      0.00000000      0.00000000</v>
   <v name="DARWINV">      1.00000000      1.00000000</v>
   <i type="logical" name="LCORR"> T  </i>
  </separator>
  <i type="logical" name="GGA_COMPAT"> T  </i>
  <i type="logical" name="LBERRY"> F  </i>
  <i type="int" name="ICORELEVEL">     0</i>
  <i type="logical" name="LDAU"> F  </i>
  <i type="int" name="I_CONSTRAINED_M">     0</i>
  <separator name="electronic exchange-correlation" >
   <i type="string" name="GGA">BF</i>
   <i type="int" name="VOSKOWN">     0</i>
   <i type="logical" name="LHFCALC"> F  </i>
   <i type="string" name="PRECFOCK"></i>
   <i type="logical" name="LSYMGRAD"> F  </i>
   <i type="logical" name="LHFONE"> F  </i>
   <i type="logical" name="LRHFCALC"> F  </i>
   <i type="logical" name="LTHOMAS"> F  </i>
   <i type="logical" name="LMODELHF"> F  </i>
   <i type="logical" name="LFOCKACE"> F  </i>
   <i name="ENCUT4O">     -1.00000000</i>
   <i type="int" name="EXXOEP">     0</i>
   <i type="int" name="FOURORBIT">     0</i>
   <i name="AEXX">      0.00000000</i>
   <i name="HFALPHA">      0.00000000</i>
   <i name="MCALPHA">      0.00000000</i>
   <i name="ALDAX">      1.00000000</i>
   <i name="AGGAX">      1.00000000</i>
   <i name="ALDAC">      1.00000000</i>
   <i name="AGGAC">      1.00000000</i>
   <i type="int" name="NKREDX">     1</i>
   <i type="int" name="NKREDY">     1</i>
   <i type="int" name="NKREDZ">     1</i>
   <i type="logical" name="SHIFTRED"> F  </i>
   <i type="logical" name="ODDONLY"> F  </i>
   <i type="logical" name="EVENONLY"> F  </i>
   <i type="int" name="LMAXFOCK">     0</i>
   <i type="int" name="NMAXFOCKAE">     0</i>
   <i type="logical" name="LFOCKAEDFT"> F  </i>
   <i name="HFSCREEN">      0.00000000</i>
   <i name="HFSCREENC">      0.00000000</i>
   <i type="int" name="NBANDSGWLOW">     0</i>
  </separator>
  <separator name="vdW DFT" >
   <i type="logical" name="LUSE_VDW"> T  </i>
   <i type="int" name="IVDW_NL">     1</i>
   <i type="logical" name="LSPIN_VDW"> F  </i>
   <i name="Zab_VDW">     -1.88670000</i>
   <i name="PARAM1">      0.12340000</i>
   <i name="PARAM2">      1.00000000</i>
   <i name="PARAM3">      0.00000000</i>
  </separator>
  <separator name="model GW" >
   <i type="int" name="MODEL_GW">     0</i>
   <i name="MODEL_EPS0">     25.14297943</i>
   <i name="MODEL_ALPHA">      1.00000000</i>
  </separator>
  <separator name="linear response parameters" >
   <i type="logical" name="LEPSILON"> F  </i>
   <i type="logical" name="LRPA"> F  </i>
   <i type="logical" name="LNABLA"> F  </i>
   <i type="logical" name="LVEL"> F  </i>
   <i name="CSHIFT">      0.10000000</i>
   <i name="OMEGAMAX">     -1.00000000</i>
   <i name="DEG_THRESHOLD">      0.00200000</i>
   <i name="RTIME">     -0.10000000</i>
   <i name="WPLASMAI">      0.00000000</i>
   <v name="DFIELD">      0.00000000      0.00000000      0.00000000</v>
   <v name="WPLASMA">      0.00000000      0.00000000      0.00000000      0.00000000      0.00000000      0.00000000      0.00000000      0.00000000      0.00000000</v>
  </separator>
  <separator name="orbital magnetization" >
   <i type="logical" name="NUCIND"> F  </i>
   <v name="MAGPOS">      0.00000000      0.00000000      0.00000000</v>
   <i type="logical" name="LNICSALL"> T  </i>
   <i type="logical" name="ORBITALMAG"> F  </i>
   <i type="logical" name="LMAGBLOCH"> F  </i>
   <i type="logical" name="LCHIMAG"> F  </i>
   <i type="logical" name="LGAUGE"> T  </i>
   <i type="int" name="MAGATOM">     0</i>
   <v name="MAGDIPOL">      0.00000000      0.00000000      0.00000000</v>
   <v name="AVECCONST">      0.00000000      0.00000000      0.00000000</v>
  </separator>
  <separator name="response functions" >
   <i type="logical" name="LALL_IN_ONE"> F  </i>
   <i type="int" name="IALL_IN_ONE">    -1</i>
   <i type="int" name="NBANDS_WAVE">    -1</i>
   <i type="logical" name="LFINITE_TEMPERATURE"> F  </i>
   <i type="logical" name="LADDER"> F  </i>
   <i type="logical" name="LRPAFORCE"> F  </i>
   <i type="logical" name="LFXC"> F  </i>
   <i type="logical" name="LHARTREE"> T  </i>
   <i type="int" name="IBSE">     0</i>
   <v type="int" name="KPOINT">    -1     0     0     0</v>
   <i type="logical" name="LTCTC"> F  </i>
   <i type="logical" name="LTCTE"> F  </i>
   <i type="logical" name="LTETE"> F  </i>
   <i type="logical" name="LTRIPLET"> F  </i>
   <i type="logical" name="LFXCEPS"> F  </i>
   <i type="logical" name="LFXHEG"> F  </i>
   <i type="int" name="NATURALO">     2</i>
   <i type="logical" name="LHOLEGF"> F  </i>
   <i type="logical" name="L2ORDER"> F  </i>
   <i type="logical" name="LDMP1"> F  </i>
   <i type="logical" name="LMP2LT"> F  </i>
   <i type="logical" name="LSMP2LT"> F  </i>
   <i type="logical" name="LGWLF"> F  </i>
   <i name="ENCUTGW">     -1.60000002</i>
   <i name="ENCUTGWSOFT">     -1.60000002</i>
   <i name="ENCUTLF">     -1.00000000</i>
   <i type="logical" name="LESF_SPLINES"> F  </i>
   <i type="int" name="LMAXMP2">    -1</i>
   <i name="SCISSOR">      0.00000000</i>
   <i type="int" name="NOMEGA">     0</i>
   <i type="int" name="NOMEGAR">     0</i>
   <i type="int" name="NBANDSGW">    -1</i>
   <i type="int" name="NBANDSO">    -1</i>
   <i type="int" name="NBANDSV">    -1</i>
   <i type="int" name="NELMGW">     1</i>
   <i type="int" name="NELMHF">     1</i>
   <i type="int" name="DIM">     3</i>
   <i type="int" name="IESPILON">     4</i>
   <i type="int" name="ANTIRES">     0</i>
   <i name="OMEGAMAX">    -30.00000000</i>
   <i name="OMEGAMIN">    -30.00000000</i>
   <i name="OMEGATL">   -200.00000000</i>
   <i type="int" name="OMEGAGRID">     0</i>
   <i name="CSHIFT">     -0.10000000</i>
   <i type="logical" name="LSELFENERGY"> F  </i>
   <i type="logical" name="LSPECTRAL"> F  </i>
   <i type="logical" name="LSPECTRALGW"> F  </i>
   <i type="logical" name="LSINGLES"> F  </i>
   <i type="logical" name="LFERMIGW"> F  </i>
   <i type="logical" name="ODDONLYGW"> F  </i>
   <i type="logical" name="EVENONLYGW"> F  </i>
   <i type="int" name="NKREDLFX">     1</i>
   <i type="int" name="NKREDLFY">     1</i>
   <i type="int" name="NKREDLFZ">     1</i>
   <i type="int" name="MAXMEM">  2800</i>
   <i type="int" name="TELESCOPE">     0</i>
   <i type="int" name="NTAUPAR">    -1</i>
   <i type="int" name="NOMEGAPAR">    -1</i>
   <i name="DAMP_NEWTON">      0.80000001</i>
   <i name="LAMBDA">      1.00000000</i>
  </separator>
  <separator name="External order field" >
   <i name="OFIELD_KAPPA">      0.00000000</i>
   <v name="OFIELD_K">      0.00000000      0.00000000      0.00000000</v>
   <i name="OFIELD_Q6_NEAR">      0.00000000</i>
   <i name="OFIELD_Q6_FAR">      0.00000000</i>
   <i name="OFIELD_A">      0.00000000</i>
  </separator>
  <separator name="optional k-points parameters" >
   <i type="int" name="KPOINTS_OPT_MODE">     1</i>
   <i type="logical" name="LKPOINTS_OPT"> F  </i>
  </separator>
 </parameters>
 <atominfo>
  <atoms>      37 </atoms>
  <types>       2 </types>
  <array name="atoms" >
   <dimension dim="1">ion</dimension>
   <field type="string">element</field>
   <field type="int">atomtype</field>
   <set>
    <rc><c>Pt</c><c>   1</c></rc>
    <rc><c>Pt</c><c>   1</c></rc>
    <rc><c>Pt</c><c>   1</c></rc>
    <rc><c>Pt</c><c>   1</c></rc>
    <rc><c>Pt</c><c>   1</c></rc>
    <rc><c>Pt</c><c>   1</c></rc>
    <rc><c>Pt</c><c>   1</c></rc>
    <rc><c>Pt</c><c>   1</c></rc>
    <rc><c>Pt</c><c>   1</c></rc>
    <rc><c>Pt</c><c>   1</c></rc>
    <rc><c>Pt</c><c>   1</c></rc>
    <rc><c>Pt</c><c>   1</c></rc>
    <rc><c>Pt</c><c>   1</c></rc>
    <rc><c>Pt</c><c>   1</c></rc>
    <rc><c>Pt</c><c>   1</c></rc>
    <rc><c>Pt</c><c>   1</c></rc>
    <rc><c>Pt</c><c>   1</c></rc>
    <rc><c>Pt</c><c>   1</c></rc>
    <rc><c>Pt</c><c>   1</c></rc>
    <rc><c>Pt</c><c>   1</c></rc>
    <rc><c>Pt</c><c>   1</c></rc>
    <rc><c>Pt</c><c>   1</c></rc>
    <rc><c>Pt</c><c>   1</c></rc>
    <rc><c>Pt</c><c>   1</c></rc>
    <rc><c>Pt</c><c>   1</c></rc>
    <rc><c>Pt</c><c>   1</c></rc>
    <rc><c>Pt</c><c>   1</c></rc>
    <rc><c>Pt</c><c>   1</c></rc>
    <rc><c>Pt</c><c>   1</c></rc>
    <rc><c>Pt</c><c>   1</c></rc>
    <rc><c>Pt</c><c>   1</c></rc>
    <rc><c>Pt</c><c>   1</c></rc>
    <rc><c>Pt</c><c>   1</c></rc>
    <rc><c>Pt</c><c>   1</c></rc>
    <rc><c>Pt</c><c>   1</c></rc>
    <rc><c>Pt</c><c>   1</c></rc>
    <rc><c>H </c><c>   2</c></rc>
   </set>
  </array>
  <array name="atomtypes" >
   <dimension dim="1">type</dimension>
   <field type="int">atomspertype</field>
   <field type="string">element</field>
   <field>mass</field>
   <field>valence</field>
   <field type="string">pseudopotential</field>
   <set>
    <rc><c>  36</c><c>Pt</c><c>    195.08000000</c><c>     10.00000000</c><c>  PAW_PBE Pt 04Feb2005                  </c></rc>
    <rc><c>   1</c><c>H </c><c>      1.00000000</c><c>      1.00000000</c><c>  PAW_PBE H 15Jun2001                   </c></rc>
   </set>
  </array>
 </atominfo>
 <structure name="initialpos" >
  <crystal>
   <varray name="basis" >
    <v>       8.46831000       0.00000000       0.00000000 </v>
    <v>       4.23415500       7.33377159       0.00000000 </v>
    <v>       0.00000000       0.00000000      24.96566199 </v>
   </varray>
   <i name="volume">   1550.48373159 </i>
   <varray name="rec_basis" >
    <v>       0.11808732      -0.06817774       0.00000000 </v>
    <v>       0.00000000       0.13635549       0.00000000 </v>
    <v>       0.00000000       0.00000000       0.04005502 </v>
   </varray>
  </crystal>
  <varray name="positions" >
   <v>       0.00000000       0.00000000       0.34046764 </v>
   <v>       0.33400137       0.00000000       0.34046764 </v>
   <v>       0.66800274       0.00000000       0.34046764 </v>
   <v>       0.00000000       0.33400137       0.34046764 </v>
   <v>       0.33400137       0.33400137       0.34046764 </v>
   <v>       0.66800274       0.33400137       0.34046764 </v>
   <v>       0.00000000       0.66800274       0.34046764 </v>
   <v>       0.33400137       0.66800274       0.34046764 </v>
   <v>       0.66800274       0.66800274       0.34046764 </v>
   <v>       0.11133379       0.11133379       0.43297074 </v>
   <v>       0.44533516       0.11133379       0.43297074 </v>
   <v>       0.77933653       0.11133379       0.43297074 </v>
   <v>       0.11133379       0.44533516       0.43297074 </v>
   <v>       0.44533516       0.44533516       0.43297074 </v>
   <v>       0.77933653       0.44533516       0.43297074 </v>
   <v>       0.11133379       0.77933653       0.43297074 </v>
   <v>       0.44533516       0.77933653       0.43297074 </v>
   <v>       0.77933653       0.77933653       0.43297074 </v>
   <v>       0.88890668       0.22530192       0.52525398 </v>
   <v>       0.22133142       0.22412292       0.52586495 </v>
   <v>       0.55320924       0.22498113       0.52508479 </v>
   <v>       0.88899878       0.55630839       0.52501733 </v>
   <v>       0.22141450       0.55623289       0.52478788 </v>
   <v>       0.55496258       0.55679778       0.52424543 </v>
   <v>       0.88761061       0.89178154       0.52411326 </v>
   <v>       0.22126818       0.89017718       0.52422412 </v>
   <v>       0.55530005       0.89000646       0.52417426 </v>
   <v>       0.99811830       0.00112905       0.61771109 </v>
   <v>       0.33399906       0.99621760       0.61744946 </v>
   <v>       0.66495265       0.00100387       0.61757488 </v>
   <v>       0.99707990       0.33312407       0.62139430 </v>
   <v>       0.33515412       0.33288015       0.62088454 </v>
   <v>       0.66527803       0.33476106       0.61791665 </v>
   <v>       0.99560177       0.67320317       0.61727234 </v>
   <v>       0.33177783       0.66795579       0.61739098 </v>
   <v>       0.66452832       0.66777047       0.61748235 </v>
   <v>       0.15616203       0.35185079       0.66135408 </v>
  </varray>
  <varray name="selective"  type="logical" >
   <v type="logical" >  F  F  F </v>
   <v type="logical" >  F  F  F </v>
   <v type="logical" >  F  F  F </v>
   <v type="logical" >  F  F  F </v>
   <v type="logical" >  F  F  F </v>
   <v type="logical" >  F  F  F </v>
   <v type="logical" >  F  F  F </v>
   <v type="logical" >  F  F  F </v>
   <v type="logical" >  F  F  F </v>
   <v type="logical" >  F  F  F </v>
   <v type="logical" >  F  F  F </v>
   <v type="logical" >  F  F  F </v>
   <v type="logical" >  F  F  F </v>
   <v type="logical" >  F  F  F </v>
   <v type="logical" >  F  F  F </v>
   <v type="logical" >  F  F  F </v>
   <v type="logical" >  F  F  F </v>
   <v type="logical" >  F  F  F </v>
   <v type="logical" >  T  T  T </v>
   <v type="logical" >  T  T  T </v>
   <v type="logical" >  T  T  T </v>
   <v type="logical" >  T  T  T </v>
   <v type="logical" >  T  T  T </v>
   <v type="logical" >  T  T  T </v>
   <v type="logical" >  T  T  T </v>
   <v type="logical" >  T  T  T </v>
   <v type="logical" >  T  T  T </v>
   <v type="logical" >  T  T  T </v>
   <v type="logical" >  T  T  T </v>
   <v type="logical" >  T  T  T </v>
   <v type="logical" >  T  T  T </v>
   <v type="logical" >  T  T  T </v>
   <v type="logical" >  T  T  T </v>
   <v type="logical" >  T  T  T </v>
   <v type="logical" >  T  T  T </v>
   <v type="logical" >  T  T  T </v>
   <v type="logical" >  T  T  T </v>
  </varray>
  <nose>
   <v>      -3.00000000       0.00000000       0.00010000       0.00010000 </v>
  </nose>
 </structure>
 <calculation>
  <scstep>
   <time name="dav">   16.02   16.18</time>
   <time name="total">   19.41   19.60</time>
   <energy>
    <i name="alphaZ">    797.33612757 </i>
    <i name="ewald"> 132203.39729089 </i>
    <i name="hartreedc">-159611.08860403 </i>
    <i name="XCdc">     89.66857801 </i>
    <i name="pawpsdc">  32177.22485487 </i>
    <i name="pawaedc"> -31179.42678045 </i>
    <i name="eentropy">     -0.07971223 </i>
    <i name="bandstr">  -1078.70548349 </i>
    <i name="atom">  26496.80315902 </i>
    <i name="e_fr_energy">   -104.87056986 </i>
    <i name="e_wo_entrp">   -104.79085763 </i>
    <i name="e_0_energy">   -104.84399911 </i>
   </energy>
  </scstep>
  <scstep>
   <time name="diag">    3.25    3.27</time>
   <time name="diis">    8.61    8.66</time>
   <time name="orth">    0.76    0.77</time>
   <time name="total">   15.75   15.94</time>
   <energy>
    <i name="e_fr_energy">   -129.90471835 </i>
    <i name="e_wo_entrp">   -129.90613766 </i>
    <i name="e_0_energy">   -129.90519145 </i>
   </energy>
  </scstep>
  <scstep>
   <time name="diag">    2.94    2.96</time>
   <time name="diis">    8.77    8.84</time>
   <time name="orth">    0.79    0.80</time>
   <time name="total">   15.72   15.84</time>
   <energy>
    <i name="e_fr_energy">   -104.96279213 </i>
    <i name="e_wo_entrp">   -104.88695749 </i>
    <i name="e_0_energy">   -104.93751392 </i>
   </energy>
  </scstep>
  <scstep>
   <time name="diag">    3.28    3.30</time>
   <time name="diis">    8.64    8.70</time>
   <time name="orth">    0.76    0.77</time>
   <time name="total">   16.06   16.22</time>
   <energy>
    <i name="e_fr_energy">   -104.60229842 </i>
    <i name="e_wo_entrp">   -104.51053184 </i>
    <i name="e_0_energy">   -104.57170956 </i>
   </energy>
  </scstep>
  <scstep>
   <time name="diag">    2.88    2.90</time>
   <time name="diis">    8.68    8.74</time>
   <time name="orth">    0.66    0.66</time>
   <time name="total">   15.37   15.48</time>
   <energy>
    <i name="e_fr_energy">   -104.59731397 </i>
    <i name="e_wo_entrp">   -104.50670216 </i>
    <i name="e_0_energy">   -104.56711003 </i>
   </energy>
  </scstep>
  <scstep>
   <time name="diag">    2.86    2.88</time>
   <time name="diis">    8.95    9.02</time>
   <time name="orth">    0.63    0.64</time>
   <time name="total">   15.74   15.92</time>
   <energy>
    <i name="e_fr_energy">   -104.57432685 </i>
    <i name="e_wo_entrp">   -104.48187943 </i>
    <i name="e_0_energy">   -104.54351104 </i>
   </energy>
  </scstep>
  <scstep>
   <time name="diag">    2.54    2.56</time>
   <time name="diis">    8.98    9.04</time>
   <time name="orth">    0.64    0.65</time>
   <time name="total">   15.36   15.48</time>
   <energy>
    <i name="e_fr_energy">   -104.57175752 </i>
    <i name="e_wo_entrp">   -104.47862812 </i>
    <i name="e_0_energy">   -104.54071439 </i>
   </energy>
  </scstep>
  <scstep>
   <time name="diag">    2.80    2.83</time>
   <time name="diis">    9.04    9.10</time>
   <time name="orth">    0.61    0.62</time>
   <time name="total">   16.15   16.34</time>
   <energy>
    <i name="e_fr_energy">   -104.56869288 </i>
    <i name="e_wo_entrp">   -104.47554576 </i>
    <i name="e_0_energy">   -104.53764384 </i>
   </energy>
  </scstep>
  <scstep>
   <time name="diag">    2.85    2.87</time>
   <time name="diis">    9.11    9.18</time>
   <time name="orth">    0.44    0.45</time>
   <time name="total">   15.55   15.66</time>
   <energy>
    <i name="e_fr_energy">   -104.56851491 </i>
    <i name="e_wo_entrp">   -104.47533308 </i>
    <i name="e_0_energy">   -104.53745430 </i>
   </energy>
  </scstep>
  <scstep>
   <time name="diag">    2.72    2.74</time>
   <time name="diis">    9.08    9.15</time>
   <time name="orth">    0.55    0.55</time>
   <time name="total">   15.50   15.68</time>
   <energy>
    <i name="e_fr_energy">   -104.56844680 </i>
    <i name="e_wo_entrp">   -104.47528112 </i>
    <i name="e_0_energy">   -104.53739157 </i>
   </energy>
  </scstep>
  <scstep>
   <time name="diag">    2.69    2.71</time>
   <time name="diis">    8.98    9.05</time>
   <time name="orth">    0.58    0.58</time>
   <time name="total">   15.41   15.52</time>
   <energy>
    <i name="e_fr_energy">   -104.56842052 </i>
    <i name="e_wo_entrp">   -104.47521266 </i>
    <i name="e_0_energy">   -104.53735123 </i>
   </energy>
  </scstep>
  <scstep>
   <time name="diag">    2.70    2.72</time>
   <time name="diis">    8.40    8.45</time>
   <time name="orth">    0.65    0.66</time>
   <time name="total">   14.12   14.30</time>
   <energy>
    <i name="alphaZ">    797.33612757 </i>
    <i name="ewald"> 132203.39729089 </i>
    <i name="hartreedc">-159601.32982630 </i>
    <i name="XCdc">     89.66186134 </i>
    <i name="pawpsdc">  32176.85573987 </i>
    <i name="pawaedc"> -31179.05768243 </i>
    <i name="eentropy">     -0.09328991 </i>
    <i name="bandstr">  -1088.14179162 </i>
    <i name="atom">  26496.80315902 </i>
    <i name="e_fr_energy">   -104.56841157 </i>
    <i name="e_wo_entrp">   -104.47512166 </i>
    <i name="e_0_energy">   -104.53731493 </i>
   </energy>
  </scstep>
  <structure>
   <crystal>
    <varray name="basis" >
     <v>       8.46831000       0.00000000       0.00000000 </v>
     <v>       4.23415500       7.33377159       0.00000000 </v>
     <v>       0.00000000       0.00000000      24.96566199 </v>
    </varray>
    <i name="volume">   1550.48373159 </i>
    <varray name="rec_basis" >
     <v>       0.11808732      -0.06817774       0.00000000 </v>
     <v>       0.00000000       0.13635549       0.00000000 </v>
     <v>       0.00000000       0.00000000       0.04005502 </v>
    </varray>
   </crystal>
   <varray name="positions" >
    <v>       0.00000000       0.00000000       0.34046764 </v>
    <v>       0.33400137       0.00000000       0.34046764 </v>
    <v>       0.66800274       0.00000000       0.34046764 </v>
    <v>       0.00000000       0.33400137       0.34046764 </v>
    <v>       0.33400137       0.33400137       0.34046764 </v>
    <v>       0.66800274       0.33400137       0.34046764 </v>
    <v>       0.00000000       0.66800274       0.34046764 </v>
    <v>       0.33400137       0.66800274       0.34046764 </v>
    <v>       0.66800274       0.66800274       0.34046764 </v>
    <v>       0.11133379       0.11133379       0.43297074 </v>
    <v>       0.44533516       0.11133379       0.43297074 </v>
    <v>       0.77933653       0.11133379       0.43297074 </v>
    <v>       0.11133379       0.44533516       0.43297074 </v>
    <v>       0.44533516       0.44533516       0.43297074 </v>
    <v>       0.77933653       0.44533516       0.43297074 </v>
    <v>       0.11133379       0.77933653       0.43297074 </v>
    <v>       0.44533516       0.77933653       0.43297074 </v>
    <v>       0.77933653       0.77933653       0.43297074 </v>
    <v>       0.88890668       0.22530192       0.52525398 </v>
    <v>       0.22133142       0.22412292       0.52586495 </v>
    <v>       0.55320924       0.22498113       0.52508479 </v>
    <v>       0.88899878       0.55630839       0.52501733 </v>
    <v>       0.22141450       0.55623289       0.52478788 </v>
    <v>       0.55496258       0.55679778       0.52424543 </v>
    <v>       0.88761061       0.89178154       0.52411326 </v>
    <v>       0.22126818       0.89017718       0.52422412 </v>
    <v>       0.55530005       0.89000646       0.52417426 </v>
    <v>       0.99811830       0.00112905       0.61771109 </v>
    <v>       0.33399906       0.99621760       0.61744946 </v>
    <v>       0.66495265       0.00100387       0.61757488 </v>
    <v>       0.99707990       0.33312407       0.62139430 </v>
    <v>       0.33515412       0.33288015       0.62088454 </v>
    <v>       0.66527803       0.33476106       0.61791665 </v>
    <v>       0.99560177       0.67320317       0.61727234 </v>
    <v>       0.33177783       0.66795579       0.61739098 </v>
    <v>       0.66452832       0.66777047       0.61748235 </v>
    <v>       0.15616203       0.35185079       0.66135408 </v>
   </varray>
  </structure>
  <varray name="forces" >
   <v>       0.08533709       0.02730254      -0.15760760 </v>
   <v>       0.02063964       0.05170846      -0.09752887 </v>
   <v>      -0.04545021       0.06199030      -0.15285816 </v>
   <v>       0.05592815      -0.02414543      -0.07823392 </v>
   <v>       0.01551378      -0.00815368      -0.05406418 </v>
   <v>      -0.03808432      -0.00011058      -0.06410132 </v>
   <v>       0.05152495      -0.04951291      -0.11853503 </v>
   <v>      -0.00150053      -0.04368504      -0.08589383 </v>
   <v>      -0.05579986      -0.03503066      -0.10114416 </v>
   <v>       0.05179729       0.08784840       0.14340299 </v>
   <v>       0.00949265       0.11104313       0.12819926 </v>
   <v>      -0.06921635       0.10297497       0.01810738 </v>
   <v>       0.04499203      -0.05473591       0.19820342 </v>
   <v>      -0.03626336      -0.01987799       0.11274248 </v>
   <v>      -0.06376048       0.00747226       0.15714156 </v>
   <v>       0.03517472      -0.09809378       0.04122086 </v>
   <v>      -0.03235568      -0.07606459       0.05511930 </v>
   <v>      -0.09132436      -0.04963571       0.07072231 </v>
   <v>       0.00067401      -0.00285331       0.01047807 </v>
   <v>      -0.00398798       0.00114540      -0.03772211 </v>
   <v>      -0.01267923       0.00028787       0.00380291 </v>
   <v>      -0.00470173       0.00260494       0.00195397 </v>
   <v>       0.01518880       0.00038775       0.00474557 </v>
   <v>       0.00505733       0.00490513       0.00440536 </v>
   <v>       0.00509093      -0.01476032       0.00535403 </v>
   <v>       0.01679146      -0.00251928       0.00473565 </v>
   <v>       0.01073300       0.00600991       0.00672032 </v>
   <v>       0.01276597       0.00373013       0.00297420 </v>
   <v>       0.00745111      -0.00827746      -0.00114557 </v>
   <v>       0.00555025       0.00097036       0.00666101 </v>
   <v>      -0.05667551      -0.01201054      -0.06054294 </v>
   <v>       0.01603785       0.00653818      -0.01541962 </v>
   <v>      -0.01153732      -0.01145525      -0.01866441 </v>
   <v>       0.01104114       0.00682980      -0.00174206 </v>
   <v>       0.00194472      -0.00444891       0.00908264 </v>
   <v>       0.01764817       0.00611800       0.00685761 </v>
   <v>       0.02696187       0.02550380       0.05257289 </v>
  </varray>
  <varray name="stress" >
   <v>     -34.28761192       0.03266483       0.00148863 </v>
   <v>       0.03266478     -33.80482044       0.09391107 </v>
   <v>       0.00148837       0.09391121       2.41114935 </v>
  </varray>
  <energy>
   <i name="e_fr_energy">   -104.56841157 </i>
   <i name="e_wo_entrp">   -104.47512166 </i>
   <i name="e_0_energy">   -104.53731493 </i>
  </energy>
  <time name="totalsc">  217.68  220.21</time>
  <eigenvalues>
   <array>
    <dimension dim="1">band</dimension>
    <dimension dim="2">kpoint</dimension>
    <dimension dim="3">spin</dimension>
    <field>eigene</field>
    <field>occ</field>
    <set>
     <set comment="spin 1">
      <set comment="kpoint 1">
       <r>   -8.8992    1.0000 </r>
       <r>   -7.7564    1.0000 </r>
       <r>   -7.0171    1.0000 </r>
       <r>   -6.5028    1.0000 </r>
       <r>   -6.4767    1.0000 </r>
       <r>   -6.4653    1.0000 </r>
       <r>   -6.4593    1.0000 </r>
       <r>   -6.4434    1.0000 </r>
       <r>   -6.4323    1.0000 </r>
       <r>   -6.4239    1.0000 </r>
       <r>   -6.1453    1.0000 </r>
       <r>   -5.9189    1.0000 </r>
       <r>   -5.9151    1.0000 </r>
       <r>   -5.9086    1.0000 </r>
       <r>   -5.9003    1.0000 </r>
       <r>   -5.8978    1.0000 </r>
       <r>   -5.8291    1.0000 </r>
       <r>   -5.4698    1.0000 </r>
       <r>   -5.4591    1.0000 </r>
       <r>   -5.4575    1.0000 </r>
       <r>   -5.4485    1.0000 </r>
       <r>   -5.4445    1.0000 </r>
       <r>   -5.3424    1.0000 </r>
       <r>   -5.2357    1.0000 </r>
       <r>   -5.2308    1.0000 </r>
       <r>   -5.2278    1.0000 </r>
       <r>   -5.2212    1.0000 </r>
       <r>   -5.2157    1.0000 </r>
       <r>   -5.1243    1.0000 </r>
       <r>   -5.0326    1.0000 </r>
       <r>   -5.0278    1.0000 </r>
       <r>   -5.0259    1.0000 </r>
       <r>   -5.0166    1.0000 </r>
       <r>   -5.0127    1.0000 </r>
       <r>   -4.9722    1.0000 </r>
       <r>   -4.9622    1.0000 </r>
       <r>   -4.9536    1.0000 </r>
       <r>   -4.9474    1.0000 </r>
       <r>   -4.9209    1.0000 </r>
       <r>   -4.9134    1.0000 </r>
       <r>   -4.5906    1.0000 </r>
       <r>   -4.3832    1.0000 </r>
       <r>   -4.3814    1.0000 </r>
       <r>   -4.3555    1.0000 </r>
       <r>   -4.3426    1.0000 </r>
       <r>   -4.3297    1.0000 </r>
       <r>   -4.3144    1.0000 </r>
       <r>   -4.2987    1.0000 </r>
       <r>   -4.2905    1.0000 </r>
       <r>   -4.2884    1.0000 </r>
       <r>   -4.1422    1.0000 </r>
       <r>   -4.1347    1.0000 </r>
       <r>   -4.1222    1.0000 </r>
       <r>   -4.0424    1.0000 </r>
       <r>   -4.0314    1.0000 </r>
       <r>   -3.5879    1.0000 </r>
       <r>   -3.5777    1.0000 </r>
       <r>   -3.5767    1.0000 </r>
       <r>   -3.5628    1.0000 </r>
       <r>   -3.5540    1.0000 </r>
       <r>   -3.4989    1.0000 </r>
       <r>   -3.4885    1.0000 </r>
       <r>   -3.3899    1.0000 </r>
       <r>   -3.3839    1.0000 </r>
       <r>   -3.3760    1.0000 </r>
       <r>   -3.3743    1.0000 </r>
       <r>   -3.3668    1.0000 </r>
       <r>   -3.3594    1.0000 </r>
       <r>   -3.3533    1.0000 </r>
       <r>   -3.3257    1.0000 </r>
       <r>   -3.3069    1.0000 </r>
       <r>   -3.3030    1.0000 </r>
       <r>   -3.2990    1.0000 </r>
       <r>   -3.2952    1.0000 </r>
       <r>   -3.2733    1.0000 </r>
       <r>   -3.2649    1.0000 </r>
       <r>   -3.2531    1.0000 </r>
       <r>   -3.1583    1.0000 </r>
       <r>   -3.1513    1.0000 </r>
       <r>   -3.1485    1.0000 </r>
       <r>   -3.1412    1.0000 </r>
       <r>   -3.1306    1.0000 </r>
       <r>   -3.1237    1.0000 </r>
       <r>   -2.9479    1.0000 </r>
       <r>   -2.9378    1.0000 </r>
       <r>   -2.9329    1.0000 </r>
       <r>   -2.9141    1.0000 </r>
       <r>   -2.9120    1.0000 </r>
       <r>   -2.8985    1.0000 </r>
       <r>   -2.8961    1.0000 </r>
       <r>   -2.8825    1.0000 </r>
       <r>   -2.8411    1.0000 </r>
       <r>   -2.8244    1.0000 </r>
       <r>   -2.7997    1.0000 </r>
       <r>   -2.7840    1.0000 </r>
       <r>   -2.7419    1.0000 </r>
       <r>   -2.7379    1.0000 </r>
       <r>   -2.6963    1.0000 </r>
       <r>   -2.6934    1.0000 </r>
       <r>   -2.6832    1.0000 </r>
       <r>   -2.6208    1.0000 </r>
       <r>   -2.5306    1.0000 </r>
       <r>   -2.5237    1.0000 </r>
       <r>   -2.5153    1.0000 </r>
       <r>   -2.5078    1.0000 </r>
       <r>   -2.4980    1.0000 </r>
       <r>   -2.4936    1.0000 </r>
       <r>   -2.2583    1.0000 </r>
       <r>   -2.0320    1.0000 </r>
       <r>   -2.0081    1.0000 </r>
       <r>   -2.0047    1.0000 </r>
       <r>   -2.0007    1.0000 </r>
       <r>   -1.9932    1.0000 </r>
       <r>   -1.9818    1.0000 </r>
       <r>   -1.9791    1.0000 </r>
       <r>   -1.9721    1.0000 </r>
       <r>   -1.9579    1.0000 </r>
       <r>   -1.9508    1.0000 </r>
       <r>   -1.9364    1.0000 </r>
       <r>   -1.8767    1.0000 </r>
       <r>   -1.8621    1.0000 </r>
       <r>   -1.8133    1.0000 </r>
       <r>   -1.7365    1.0000 </r>
       <r>   -1.7329    1.0000 </r>
       <r>   -1.7186    1.0000 </r>
       <r>   -1.7162    1.0000 </r>
       <r>   -1.7008    1.0000 </r>
       <r>   -1.6060    1.0000 </r>
       <r>   -1.5884    1.0000 </r>
       <r>   -1.5392    1.0000 </r>
       <r>   -1.5370    1.0000 </r>
       <r>   -1.5215    1.0000 </r>
       <r>   -1.4956    1.0000 </r>
       <r>   -1.3013    1.0000 </r>
       <r>   -1.2840    1.0000 </r>
       <r>   -1.2763    1.0000 </r>
       <r>   -1.2605    1.0000 </r>
       <r>   -1.2561    1.0000 </r>
       <r>   -1.2507    1.0000 </r>
       <r>   -1.1931    1.0000 </r>
       <r>   -1.1784    1.0000 </r>
       <r>   -1.0645    1.0000 </r>
       <r>   -1.0506    1.0000 </r>
       <r>   -1.0342    1.0000 </r>
       <r>   -1.0275    1.0000 </r>
       <r>   -1.0232    1.0000 </r>
       <r>   -1.0166    1.0000 </r>
       <r>   -0.9162    1.0000 </r>
       <r>   -0.8794    1.0000 </r>
       <r>   -0.8654    1.0000 </r>
       <r>   -0.8448    1.0000 </r>
       <r>   -0.8355    1.0000 </r>
       <r>   -0.8314    1.0000 </r>
       <r>   -0.8278    1.0000 </r>
       <r>   -0.8181    1.0000 </r>
       <r>   -0.8081    1.0000 </r>
       <r>   -0.8037    1.0000 </r>
       <r>   -0.7981    1.0000 </r>
       <r>   -0.7973    1.0000 </r>
       <r>   -0.7360    1.0000 </r>
       <r>   -0.7113    1.0000 </r>
       <r>   -0.6976    1.0000 </r>
       <r>   -0.6924    1.0000 </r>
       <r>   -0.6716    1.0000 </r>
       <r>   -0.6635    1.0000 </r>
       <r>   -0.6432    1.0000 </r>
       <r>   -0.6407    1.0000 </r>
       <r>   -0.6025    1.0000 </r>
       <r>   -0.5896    1.0000 </r>
       <r>   -0.5737    1.0000 </r>
       <r>   -0.5697    1.0000 </r>
       <r>   -0.5586    1.0000 </r>
       <r>   -0.5437    1.0000 </r>
       <r>   -0.5394    1.0000 </r>
       <r>   -0.5371    1.0000 </r>
       <r>   -0.4602    1.0000 </r>
       <r>   -0.4538    1.0000 </r>
       <r>   -0.4462    1.0000 </r>
       <r>   -0.4384    1.0000 </r>
       <r>   -0.4291    1.0000 </r>
       <r>   -0.4274    1.0000 </r>
       <r>   -0.3905    1.0000 </r>
       <r>   -0.3480    1.0004 </r>
       <r>   -0.3371    1.0007 </r>
       <r>   -0.3245    1.0012 </r>
       <r>   -0.3232    1.0013 </r>
       <r>   -0.3109    1.0022 </r>
       <r>   -0.3050    1.0028 </r>
       <r>   -0.1221    0.8490 </r>
       <r>   -0.1037    0.7260 </r>
       <r>   -0.0222    0.1105 </r>
       <r>   -0.0164    0.0825 </r>
       <r>   -0.0060    0.0407 </r>
       <r>    0.0060    0.0054 </r>
       <r>    0.0076    0.0017 </r>
       <r>    0.0128   -0.0090 </r>
       <r>    0.5168   -0.0000 </r>
       <r>    0.8216   -0.0000 </r>
       <r>    0.8301   -0.0000 </r>
       <r>    0.8860   -0.0000 </r>
       <r>    0.8894   -0.0000 </r>
       <r>    0.9020   -0.0000 </r>
       <r>    0.9071   -0.0000 </r>
       <r>    2.7969    0.0000 </r>
       <r>    3.1131    0.0000 </r>
       <r>    3.1757    0.0000 </r>
       <r>    3.1911    0.0000 </r>
       <r>    3.2226    0.0000 </r>
       <r>    3.2231    0.0000 </r>
       <r>    4.5343    0.0000 </r>
       <r>    4.7205    0.0000 </r>
       <r>    4.7920    0.0000 </r>
       <r>    4.8082    0.0000 </r>
       <r>    4.8256    0.0000 </r>
       <r>    4.8274    0.0000 </r>
       <r>    4.9098    0.0000 </r>
       <r>    5.0768    0.0000 </r>
       <r>    5.1519    0.0000 </r>
       <r>    5.4362    0.0000 </r>
       <r>    5.5463    0.0000 </r>
       <r>    5.7771    0.0000 </r>
       <r>    5.8317    0.0000 </r>
       <r>    5.8466    0.0000 </r>
       <r>    5.8623    0.0000 </r>
       <r>    5.8665    0.0000 </r>
       <r>    6.0183    0.0000 </r>
       <r>    6.3893    0.0000 </r>
       <r>    6.6032    0.0000 </r>
       <r>    6.6216    0.0000 </r>
       <r>    6.6290    0.0000 </r>
       <r>    6.7731    0.0000 </r>
       <r>    6.9952    0.0000 </r>
       <r>    7.1267    0.0000 </r>
       <r>    7.1535    0.0000 </r>
       <r>    7.1622    0.0000 </r>
       <r>    7.1754    0.0000 </r>
       <r>    7.1806    0.0000 </r>
       <r>    7.2080    0.0000 </r>
       <r>    7.2560    0.0000 </r>
       <r>    7.6147    0.0000 </r>
      </set>
      <set comment="kpoint 2">
       <r>   -8.7508    1.0000 </r>
       <r>   -7.6244    1.0000 </r>
       <r>   -6.9986    1.0000 </r>
       <r>   -6.9042    1.0000 </r>
       <r>   -6.5601    1.0000 </r>
       <r>   -6.5457    1.0000 </r>
       <r>   -6.3606    1.0000 </r>
       <r>   -6.2721    1.0000 </r>
       <r>   -6.2267    1.0000 </r>
       <r>   -6.2127    1.0000 </r>
       <r>   -6.1022    1.0000 </r>
       <r>   -6.0026    1.0000 </r>
       <r>   -5.9910    1.0000 </r>
       <r>   -5.8483    1.0000 </r>
       <r>   -5.8376    1.0000 </r>
       <r>   -5.8286    1.0000 </r>
       <r>   -5.7359    1.0000 </r>
       <r>   -5.5371    1.0000 </r>
       <r>   -5.4280    1.0000 </r>
       <r>   -5.4180    1.0000 </r>
       <r>   -5.4114    1.0000 </r>
       <r>   -5.3940    1.0000 </r>
       <r>   -5.3337    1.0000 </r>
       <r>   -5.3027    1.0000 </r>
       <r>   -5.2765    1.0000 </r>
       <r>   -5.2250    1.0000 </r>
       <r>   -5.2206    1.0000 </r>
       <r>   -5.2132    1.0000 </r>
       <r>   -5.1725    1.0000 </r>
       <r>   -5.1167    1.0000 </r>
       <r>   -5.1075    1.0000 </r>
       <r>   -5.0417    1.0000 </r>
       <r>   -5.0181    1.0000 </r>
       <r>   -5.0110    1.0000 </r>
       <r>   -5.0096    1.0000 </r>
       <r>   -4.8740    1.0000 </r>
       <r>   -4.8106    1.0000 </r>
       <r>   -4.7837    1.0000 </r>
       <r>   -4.7713    1.0000 </r>
       <r>   -4.7450    1.0000 </r>
       <r>   -4.5974    1.0000 </r>
       <r>   -4.4988    1.0000 </r>
       <r>   -4.4931    1.0000 </r>
       <r>   -4.4518    1.0000 </r>
       <r>   -4.4206    1.0000 </r>
       <r>   -4.4019    1.0000 </r>
       <r>   -4.3911    1.0000 </r>
       <r>   -4.2984    1.0000 </r>
       <r>   -4.2112    1.0000 </r>
       <r>   -4.1571    1.0000 </r>
       <r>   -4.1282    1.0000 </r>
       <r>   -4.1111    1.0000 </r>
       <r>   -4.0772    1.0000 </r>
       <r>   -4.0558    1.0000 </r>
       <r>   -4.0294    1.0000 </r>
       <r>   -3.8287    1.0000 </r>
       <r>   -3.7391    1.0000 </r>
       <r>   -3.7352    1.0000 </r>
       <r>   -3.6793    1.0000 </r>
       <r>   -3.6567    1.0000 </r>
       <r>   -3.6298    1.0000 </r>
       <r>   -3.5824    1.0000 </r>
       <r>   -3.5701    1.0000 </r>
       <r>   -3.5625    1.0000 </r>
       <r>   -3.5341    1.0000 </r>
       <r>   -3.5268    1.0000 </r>
       <r>   -3.4624    1.0000 </r>
       <r>   -3.4497    1.0000 </r>
       <r>   -3.4096    1.0000 </r>
       <r>   -3.3720    1.0000 </r>
       <r>   -3.3632    1.0000 </r>
       <r>   -3.3360    1.0000 </r>
       <r>   -3.2813    1.0000 </r>
       <r>   -3.2718    1.0000 </r>
       <r>   -3.2615    1.0000 </r>
       <r>   -3.1829    1.0000 </r>
       <r>   -3.1749    1.0000 </r>
       <r>   -3.1595    1.0000 </r>
       <r>   -3.1339    1.0000 </r>
       <r>   -3.0972    1.0000 </r>
       <r>   -3.0712    1.0000 </r>
       <r>   -3.0628    1.0000 </r>
       <r>   -3.0406    1.0000 </r>
       <r>   -2.9992    1.0000 </r>
       <r>   -2.9682    1.0000 </r>
       <r>   -2.9560    1.0000 </r>
       <r>   -2.9459    1.0000 </r>
       <r>   -2.9350    1.0000 </r>
       <r>   -2.9132    1.0000 </r>
       <r>   -2.8993    1.0000 </r>
       <r>   -2.8685    1.0000 </r>
       <r>   -2.8154    1.0000 </r>
       <r>   -2.8051    1.0000 </r>
       <r>   -2.7898    1.0000 </r>
       <r>   -2.7724    1.0000 </r>
       <r>   -2.7613    1.0000 </r>
       <r>   -2.7460    1.0000 </r>
       <r>   -2.7195    1.0000 </r>
       <r>   -2.7016    1.0000 </r>
       <r>   -2.6917    1.0000 </r>
       <r>   -2.6088    1.0000 </r>
       <r>   -2.5689    1.0000 </r>
       <r>   -2.5402    1.0000 </r>
       <r>   -2.5299    1.0000 </r>
       <r>   -2.5093    1.0000 </r>
       <r>   -2.5036    1.0000 </r>
       <r>   -2.5024    1.0000 </r>
       <r>   -2.4787    1.0000 </r>
       <r>   -2.4451    1.0000 </r>
       <r>   -2.4353    1.0000 </r>
       <r>   -2.4255    1.0000 </r>
       <r>   -2.4091    1.0000 </r>
       <r>   -2.1949    1.0000 </r>
       <r>   -2.0733    1.0000 </r>
       <r>   -2.0416    1.0000 </r>
       <r>   -2.0154    1.0000 </r>
       <r>   -2.0015    1.0000 </r>
       <r>   -1.9919    1.0000 </r>
       <r>   -1.9895    1.0000 </r>
       <r>   -1.9554    1.0000 </r>
       <r>   -1.9460    1.0000 </r>
       <r>   -1.8592    1.0000 </r>
       <r>   -1.8032    1.0000 </r>
       <r>   -1.7857    1.0000 </r>
       <r>   -1.7165    1.0000 </r>
       <r>   -1.6604    1.0000 </r>
       <r>   -1.6533    1.0000 </r>
       <r>   -1.6002    1.0000 </r>
       <r>   -1.5938    1.0000 </r>
       <r>   -1.5766    1.0000 </r>
       <r>   -1.5474    1.0000 </r>
       <r>   -1.5343    1.0000 </r>
       <r>   -1.5230    1.0000 </r>
       <r>   -1.4485    1.0000 </r>
       <r>   -1.4107    1.0000 </r>
       <r>   -1.4007    1.0000 </r>
       <r>   -1.3885    1.0000 </r>
       <r>   -1.3774    1.0000 </r>
       <r>   -1.2982    1.0000 </r>
       <r>   -1.1924    1.0000 </r>
       <r>   -1.1851    1.0000 </r>
       <r>   -1.1647    1.0000 </r>
       <r>   -1.1524    1.0000 </r>
       <r>   -1.1370    1.0000 </r>
       <r>   -1.1184    1.0000 </r>
       <r>   -1.0695    1.0000 </r>
       <r>   -1.0336    1.0000 </r>
       <r>   -1.0031    1.0000 </r>
       <r>   -0.9898    1.0000 </r>
       <r>   -0.9807    1.0000 </r>
       <r>   -0.9385    1.0000 </r>
       <r>   -0.9190    1.0000 </r>
       <r>   -0.9051    1.0000 </r>
       <r>   -0.8926    1.0000 </r>
       <r>   -0.8252    1.0000 </r>
       <r>   -0.7935    1.0000 </r>
       <r>   -0.7786    1.0000 </r>
       <r>   -0.7589    1.0000 </r>
       <r>   -0.7313    1.0000 </r>
       <r>   -0.6637    1.0000 </r>
       <r>   -0.6425    1.0000 </r>
       <r>   -0.6271    1.0000 </r>
       <r>   -0.6020    1.0000 </r>
       <r>   -0.5933    1.0000 </r>
       <r>   -0.5713    1.0000 </r>
       <r>   -0.5486    1.0000 </r>
       <r>   -0.4852    1.0000 </r>
       <r>   -0.4723    1.0000 </r>
       <r>   -0.4208    1.0000 </r>
       <r>   -0.4061    1.0000 </r>
       <r>   -0.4013    1.0000 </r>
       <r>   -0.3849    1.0001 </r>
       <r>   -0.3599    1.0002 </r>
       <r>   -0.3529    1.0003 </r>
       <r>   -0.3440    1.0005 </r>
       <r>   -0.3419    1.0005 </r>
       <r>   -0.3283    1.0010 </r>
       <r>   -0.2769    1.0077 </r>
       <r>   -0.2736    1.0086 </r>
       <r>   -0.1409    0.9415 </r>
       <r>   -0.1233    0.8558 </r>
       <r>   -0.1024    0.7163 </r>
       <r>   -0.0898    0.6170 </r>
       <r>   -0.0702    0.4520 </r>
       <r>   -0.0686    0.4392 </r>
       <r>   -0.0337    0.1761 </r>
       <r>   -0.0223    0.1110 </r>
       <r>    0.0005    0.0199 </r>
       <r>    0.0099   -0.0034 </r>
       <r>    0.0694   -0.0297 </r>
       <r>    0.1090   -0.0126 </r>
       <r>    0.1306   -0.0064 </r>
       <r>    0.1839   -0.0007 </r>
       <r>    0.2902   -0.0000 </r>
       <r>    0.3062   -0.0000 </r>
       <r>    0.3142   -0.0000 </r>
       <r>    0.3482   -0.0000 </r>
       <r>    0.6944   -0.0000 </r>
       <r>    0.7577   -0.0000 </r>
       <r>    1.2407   -0.0000 </r>
       <r>    1.4666   -0.0000 </r>
       <r>    1.4825   -0.0000 </r>
       <r>    1.5966   -0.0000 </r>
       <r>    2.3882   -0.0000 </r>
       <r>    2.7854    0.0000 </r>
       <r>    2.9105    0.0000 </r>
       <r>    3.5415    0.0000 </r>
       <r>    3.6450    0.0000 </r>
       <r>    3.6595    0.0000 </r>
       <r>    3.7438    0.0000 </r>
       <r>    3.9859    0.0000 </r>
       <r>    4.4080    0.0000 </r>
       <r>    4.6038    0.0000 </r>
       <r>    4.7363    0.0000 </r>
       <r>    4.9352    0.0000 </r>
       <r>    4.9995    0.0000 </r>
       <r>    5.0072    0.0000 </r>
       <r>    5.1958    0.0000 </r>
       <r>    5.2560    0.0000 </r>
       <r>    5.4753    0.0000 </r>
       <r>    5.6573    0.0000 </r>
       <r>    5.6894    0.0000 </r>
       <r>    5.7981    0.0000 </r>
       <r>    5.9212    0.0000 </r>
       <r>    6.1050    0.0000 </r>
       <r>    6.1338    0.0000 </r>
       <r>    6.1997    0.0000 </r>
       <r>    6.3334    0.0000 </r>
       <r>    6.3573    0.0000 </r>
       <r>    6.5562    0.0000 </r>
       <r>    6.7079    0.0000 </r>
       <r>    6.7572    0.0000 </r>
       <r>    6.7966    0.0000 </r>
       <r>    6.8660    0.0000 </r>
       <r>    6.8809    0.0000 </r>
       <r>    7.0441    0.0000 </r>
       <r>    7.2739    0.0000 </r>
       <r>    7.4669    0.0000 </r>
       <r>    7.5414    0.0000 </r>
       <r>    7.5977    0.0000 </r>
      </set>
      <set comment="kpoint 3">
       <r>   -8.7507    1.0000 </r>
       <r>   -7.6243    1.0000 </r>
       <r>   -6.9949    1.0000 </r>
       <r>   -6.9044    1.0000 </r>
       <r>   -6.5643    1.0000 </r>
       <r>   -6.5458    1.0000 </r>
       <r>   -6.3605    1.0000 </r>
       <r>   -6.2666    1.0000 </r>
       <r>   -6.2264    1.0000 </r>
       <r>   -6.2184    1.0000 </r>
       <r>   -6.1024    1.0000 </r>
       <r>   -6.0055    1.0000 </r>
       <r>   -5.9905    1.0000 </r>
       <r>   -5.8471    1.0000 </r>
       <r>   -5.8350    1.0000 </r>
       <r>   -5.8268    1.0000 </r>
       <r>   -5.7348    1.0000 </r>
       <r>   -5.5398    1.0000 </r>
       <r>   -5.4274    1.0000 </r>
       <r>   -5.4154    1.0000 </r>
       <r>   -5.4107    1.0000 </r>
       <r>   -5.3918    1.0000 </r>
       <r>   -5.3366    1.0000 </r>
       <r>   -5.3028    1.0000 </r>
       <r>   -5.2786    1.0000 </r>
       <r>   -5.2252    1.0000 </r>
       <r>   -5.2200    1.0000 </r>
       <r>   -5.2088    1.0000 </r>
       <r>   -5.1732    1.0000 </r>
       <r>   -5.1213    1.0000 </r>
       <r>   -5.1089    1.0000 </r>
       <r>   -5.0362    1.0000 </r>
       <r>   -5.0195    1.0000 </r>
       <r>   -5.0123    1.0000 </r>
       <r>   -5.0091    1.0000 </r>
       <r>   -4.8720    1.0000 </r>
       <r>   -4.8113    1.0000 </r>
       <r>   -4.7837    1.0000 </r>
       <r>   -4.7726    1.0000 </r>
       <r>   -4.7494    1.0000 </r>
       <r>   -4.5971    1.0000 </r>
       <r>   -4.5008    1.0000 </r>
       <r>   -4.4949    1.0000 </r>
       <r>   -4.4521    1.0000 </r>
       <r>   -4.4218    1.0000 </r>
       <r>   -4.3969    1.0000 </r>
       <r>   -4.3902    1.0000 </r>
       <r>   -4.3006    1.0000 </r>
       <r>   -4.2121    1.0000 </r>
       <r>   -4.1592    1.0000 </r>
       <r>   -4.1264    1.0000 </r>
       <r>   -4.1129    1.0000 </r>
       <r>   -4.0775    1.0000 </r>
       <r>   -4.0550    1.0000 </r>
       <r>   -4.0288    1.0000 </r>
       <r>   -3.8360    1.0000 </r>
       <r>   -3.7386    1.0000 </r>
       <r>   -3.7335    1.0000 </r>
       <r>   -3.6870    1.0000 </r>
       <r>   -3.6637    1.0000 </r>
       <r>   -3.6327    1.0000 </r>
       <r>   -3.5896    1.0000 </r>
       <r>   -3.5634    1.0000 </r>
       <r>   -3.5547    1.0000 </r>
       <r>   -3.5320    1.0000 </r>
       <r>   -3.5238    1.0000 </r>
       <r>   -3.4632    1.0000 </r>
       <r>   -3.4500    1.0000 </r>
       <r>   -3.4093    1.0000 </r>
       <r>   -3.3758    1.0000 </r>
       <r>   -3.3652    1.0000 </r>
       <r>   -3.3396    1.0000 </r>
       <r>   -3.2693    1.0000 </r>
       <r>   -3.2619    1.0000 </r>
       <r>   -3.2497    1.0000 </r>
       <r>   -3.1848    1.0000 </r>
       <r>   -3.1774    1.0000 </r>
       <r>   -3.1620    1.0000 </r>
       <r>   -3.1327    1.0000 </r>
       <r>   -3.0997    1.0000 </r>
       <r>   -3.0809    1.0000 </r>
       <r>   -3.0767    1.0000 </r>
       <r>   -3.0311    1.0000 </r>
       <r>   -2.9980    1.0000 </r>
       <r>   -2.9653    1.0000 </r>
       <r>   -2.9567    1.0000 </r>
       <r>   -2.9444    1.0000 </r>
       <r>   -2.9371    1.0000 </r>
       <r>   -2.9136    1.0000 </r>
       <r>   -2.8993    1.0000 </r>
       <r>   -2.8680    1.0000 </r>
       <r>   -2.8162    1.0000 </r>
       <r>   -2.8050    1.0000 </r>
       <r>   -2.7851    1.0000 </r>
       <r>   -2.7734    1.0000 </r>
       <r>   -2.7622    1.0000 </r>
       <r>   -2.7495    1.0000 </r>
       <r>   -2.7177    1.0000 </r>
       <r>   -2.6995    1.0000 </r>
       <r>   -2.6867    1.0000 </r>
       <r>   -2.6094    1.0000 </r>
       <r>   -2.5686    1.0000 </r>
       <r>   -2.5432    1.0000 </r>
       <r>   -2.5298    1.0000 </r>
       <r>   -2.5061    1.0000 </r>
       <r>   -2.5007    1.0000 </r>
       <r>   -2.4991    1.0000 </r>
       <r>   -2.4786    1.0000 </r>
       <r>   -2.4492    1.0000 </r>
       <r>   -2.4348    1.0000 </r>
       <r>   -2.4265    1.0000 </r>
       <r>   -2.4088    1.0000 </r>
       <r>   -2.2006    1.0000 </r>
       <r>   -2.0800    1.0000 </r>
       <r>   -2.0421    1.0000 </r>
       <r>   -2.0135    1.0000 </r>
       <r>   -2.0022    1.0000 </r>
       <r>   -1.9912    1.0000 </r>
       <r>   -1.9825    1.0000 </r>
       <r>   -1.9520    1.0000 </r>
       <r>   -1.9445    1.0000 </r>
       <r>   -1.8592    1.0000 </r>
       <r>   -1.8026    1.0000 </r>
       <r>   -1.7817    1.0000 </r>
       <r>   -1.7114    1.0000 </r>
       <r>   -1.6570    1.0000 </r>
       <r>   -1.6528    1.0000 </r>
       <r>   -1.6111    1.0000 </r>
       <r>   -1.5862    1.0000 </r>
       <r>   -1.5720    1.0000 </r>
       <r>   -1.5476    1.0000 </r>
       <r>   -1.5326    1.0000 </r>
       <r>   -1.5206    1.0000 </r>
       <r>   -1.4506    1.0000 </r>
       <r>   -1.4089    1.0000 </r>
       <r>   -1.3993    1.0000 </r>
       <r>   -1.3878    1.0000 </r>
       <r>   -1.3810    1.0000 </r>
       <r>   -1.2984    1.0000 </r>
       <r>   -1.1926    1.0000 </r>
       <r>   -1.1841    1.0000 </r>
       <r>   -1.1628    1.0000 </r>
       <r>   -1.1557    1.0000 </r>
       <r>   -1.1394    1.0000 </r>
       <r>   -1.1219    1.0000 </r>
       <r>   -1.0693    1.0000 </r>
       <r>   -1.0346    1.0000 </r>
       <r>   -1.0032    1.0000 </r>
       <r>   -0.9924    1.0000 </r>
       <r>   -0.9825    1.0000 </r>
       <r>   -0.9390    1.0000 </r>
       <r>   -0.9174    1.0000 </r>
       <r>   -0.9061    1.0000 </r>
       <r>   -0.8957    1.0000 </r>
       <r>   -0.8227    1.0000 </r>
       <r>   -0.7927    1.0000 </r>
       <r>   -0.7794    1.0000 </r>
       <r>   -0.7603    1.0000 </r>
       <r>   -0.7269    1.0000 </r>
       <r>   -0.6638    1.0000 </r>
       <r>   -0.6418    1.0000 </r>
       <r>   -0.6252    1.0000 </r>
       <r>   -0.6003    1.0000 </r>
       <r>   -0.5908    1.0000 </r>
       <r>   -0.5694    1.0000 </r>
       <r>   -0.5461    1.0000 </r>
       <r>   -0.4846    1.0000 </r>
       <r>   -0.4722    1.0000 </r>
       <r>   -0.4220    1.0000 </r>
       <r>   -0.4055    1.0000 </r>
       <r>   -0.3999    1.0000 </r>
       <r>   -0.3870    1.0000 </r>
       <r>   -0.3577    1.0002 </r>
       <r>   -0.3558    1.0003 </r>
       <r>   -0.3447    1.0005 </r>
       <r>   -0.3397    1.0006 </r>
       <r>   -0.3313    1.0009 </r>
       <r>   -0.2722    1.0090 </r>
       <r>   -0.2696    1.0097 </r>
       <r>   -0.1374    0.9268 </r>
       <r>   -0.1209    0.8419 </r>
       <r>   -0.1046    0.7322 </r>
       <r>   -0.0904    0.6218 </r>
       <r>   -0.0758    0.4993 </r>
       <r>   -0.0704    0.4541 </r>
       <r>   -0.0396    0.2143 </r>
       <r>   -0.0258    0.1293 </r>
       <r>   -0.0062    0.0415 </r>
       <r>    0.0059    0.0055 </r>
       <r>    0.0704   -0.0293 </r>
       <r>    0.1091   -0.0126 </r>
       <r>    0.1300   -0.0066 </r>
       <r>    0.1860   -0.0007 </r>
       <r>    0.2900   -0.0000 </r>
       <r>    0.3029   -0.0000 </r>
       <r>    0.3144   -0.0000 </r>
       <r>    0.3534   -0.0000 </r>
       <r>    0.6898   -0.0000 </r>
       <r>    0.7495   -0.0000 </r>
       <r>    1.2415   -0.0000 </r>
       <r>    1.4665   -0.0000 </r>
       <r>    1.4859   -0.0000 </r>
       <r>    1.6000   -0.0000 </r>
       <r>    2.3944   -0.0000 </r>
       <r>    2.7814    0.0000 </r>
       <r>    2.9039    0.0000 </r>
       <r>    3.5413    0.0000 </r>
       <r>    3.6464    0.0000 </r>
       <r>    3.6595    0.0000 </r>
       <r>    3.7410    0.0000 </r>
       <r>    3.9897    0.0000 </r>
       <r>    4.4094    0.0000 </r>
       <r>    4.6049    0.0000 </r>
       <r>    4.7447    0.0000 </r>
       <r>    4.9355    0.0000 </r>
       <r>    4.9968    0.0000 </r>
       <r>    5.0074    0.0000 </r>
       <r>    5.1935    0.0000 </r>
       <r>    5.2558    0.0000 </r>
       <r>    5.4655    0.0000 </r>
       <r>    5.6579    0.0000 </r>
       <r>    5.6971    0.0000 </r>
       <r>    5.8002    0.0000 </r>
       <r>    5.9144    0.0000 </r>
       <r>    6.1056    0.0000 </r>
       <r>    6.1336    0.0000 </r>
       <r>    6.1992    0.0000 </r>
       <r>    6.3301    0.0000 </r>
       <r>    6.3483    0.0000 </r>
       <r>    6.5525    0.0000 </r>
       <r>    6.7062    0.0000 </r>
       <r>    6.7588    0.0000 </r>
       <r>    6.7993    0.0000 </r>
       <r>    6.8667    0.0000 </r>
       <r>    6.8824    0.0000 </r>
       <r>    7.0474    0.0000 </r>
       <r>    7.2791    0.0000 </r>
       <r>    7.4734    0.0000 </r>
       <r>    7.5380    0.0000 </r>
       <r>    7.6045    0.0000 </r>
      </set>
      <set comment="kpoint 4">
       <r>   -8.7518    1.0000 </r>
       <r>   -7.6361    1.0000 </r>
       <r>   -7.0496    1.0000 </r>
       <r>   -6.8470    1.0000 </r>
       <r>   -6.5658    1.0000 </r>
       <r>   -6.5573    1.0000 </r>
       <r>   -6.3610    1.0000 </r>
       <r>   -6.2702    1.0000 </r>
       <r>   -6.2208    1.0000 </r>
       <r>   -6.2142    1.0000 </r>
       <r>   -6.1544    1.0000 </r>
       <r>   -6.0032    1.0000 </r>
       <r>   -5.8846    1.0000 </r>
       <r>   -5.8488    1.0000 </r>
       <r>   -5.8372    1.0000 </r>
       <r>   -5.8288    1.0000 </r>
       <r>   -5.7997    1.0000 </r>
       <r>   -5.5358    1.0000 </r>
       <r>   -5.4190    1.0000 </r>
       <r>   -5.4148    1.0000 </r>
       <r>   -5.4080    1.0000 </r>
       <r>   -5.3439    1.0000 </r>
       <r>   -5.3338    1.0000 </r>
       <r>   -5.3024    1.0000 </r>
       <r>   -5.2757    1.0000 </r>
       <r>   -5.2701    1.0000 </r>
       <r>   -5.2262    1.0000 </r>
       <r>   -5.2132    1.0000 </r>
       <r>   -5.1176    1.0000 </r>
       <r>   -5.1124    1.0000 </r>
       <r>   -5.1031    1.0000 </r>
       <r>   -5.0235    1.0000 </r>
       <r>   -5.0162    1.0000 </r>
       <r>   -5.0134    1.0000 </r>
       <r>   -5.0062    1.0000 </r>
       <r>   -4.8380    1.0000 </r>
       <r>   -4.8094    1.0000 </r>
       <r>   -4.7858    1.0000 </r>
       <r>   -4.7827    1.0000 </r>
       <r>   -4.7641    1.0000 </r>
       <r>   -4.5800    1.0000 </r>
       <r>   -4.4997    1.0000 </r>
       <r>   -4.4964    1.0000 </r>
       <r>   -4.4539    1.0000 </r>
       <r>   -4.4188    1.0000 </r>
       <r>   -4.4138    1.0000 </r>
       <r>   -4.3923    1.0000 </r>
       <r>   -4.3185    1.0000 </r>
       <r>   -4.2170    1.0000 </r>
       <r>   -4.1692    1.0000 </r>
       <r>   -4.1290    1.0000 </r>
       <r>   -4.1185    1.0000 </r>
       <r>   -4.0710    1.0000 </r>
       <r>   -4.0459    1.0000 </r>
       <r>   -4.0099    1.0000 </r>
       <r>   -3.8347    1.0000 </r>
       <r>   -3.7367    1.0000 </r>
       <r>   -3.7311    1.0000 </r>
       <r>   -3.6822    1.0000 </r>
       <r>   -3.6711    1.0000 </r>
       <r>   -3.6375    1.0000 </r>
       <r>   -3.5866    1.0000 </r>
       <r>   -3.5714    1.0000 </r>
       <r>   -3.5502    1.0000 </r>
       <r>   -3.5303    1.0000 </r>
       <r>   -3.5235    1.0000 </r>
       <r>   -3.4941    1.0000 </r>
       <r>   -3.4434    1.0000 </r>
       <r>   -3.3959    1.0000 </r>
       <r>   -3.3856    1.0000 </r>
       <r>   -3.3686    1.0000 </r>
       <r>   -3.3492    1.0000 </r>
       <r>   -3.2699    1.0000 </r>
       <r>   -3.2651    1.0000 </r>
       <r>   -3.2508    1.0000 </r>
       <r>   -3.1877    1.0000 </r>
       <r>   -3.1721    1.0000 </r>
       <r>   -3.1640    1.0000 </r>
       <r>   -3.1329    1.0000 </r>
       <r>   -3.0902    1.0000 </r>
       <r>   -3.0822    1.0000 </r>
       <r>   -3.0706    1.0000 </r>
       <r>   -3.0348    1.0000 </r>
       <r>   -2.9849    1.0000 </r>
       <r>   -2.9700    1.0000 </r>
       <r>   -2.9648    1.0000 </r>
       <r>   -2.9385    1.0000 </r>
       <r>   -2.9335    1.0000 </r>
       <r>   -2.9047    1.0000 </r>
       <r>   -2.9039    1.0000 </r>
       <r>   -2.8648    1.0000 </r>
       <r>   -2.8255    1.0000 </r>
       <r>   -2.8066    1.0000 </r>
       <r>   -2.7849    1.0000 </r>
       <r>   -2.7819    1.0000 </r>
       <r>   -2.7597    1.0000 </r>
       <r>   -2.7586    1.0000 </r>
       <r>   -2.7256    1.0000 </r>
       <r>   -2.7006    1.0000 </r>
       <r>   -2.6855    1.0000 </r>
       <r>   -2.6125    1.0000 </r>
       <r>   -2.5631    1.0000 </r>
       <r>   -2.5508    1.0000 </r>
       <r>   -2.5464    1.0000 </r>
       <r>   -2.5125    1.0000 </r>
       <r>   -2.5018    1.0000 </r>
       <r>   -2.4978    1.0000 </r>
       <r>   -2.4947    1.0000 </r>
       <r>   -2.4498    1.0000 </r>
       <r>   -2.4396    1.0000 </r>
       <r>   -2.4380    1.0000 </r>
       <r>   -2.4127    1.0000 </r>
       <r>   -2.1785    1.0000 </r>
       <r>   -2.0838    1.0000 </r>
       <r>   -2.0455    1.0000 </r>
       <r>   -2.0271    1.0000 </r>
       <r>   -2.0024    1.0000 </r>
       <r>   -1.9849    1.0000 </r>
       <r>   -1.9819    1.0000 </r>
       <r>   -1.9533    1.0000 </r>
       <r>   -1.9304    1.0000 </r>
       <r>   -1.9152    1.0000 </r>
       <r>   -1.8189    1.0000 </r>
       <r>   -1.7852    1.0000 </r>
       <r>   -1.7091    1.0000 </r>
       <r>   -1.6643    1.0000 </r>
       <r>   -1.6486    1.0000 </r>
       <r>   -1.6121    1.0000 </r>
       <r>   -1.5963    1.0000 </r>
       <r>   -1.5795    1.0000 </r>
       <r>   -1.5484    1.0000 </r>
       <r>   -1.5322    1.0000 </r>
       <r>   -1.5281    1.0000 </r>
       <r>   -1.4399    1.0000 </r>
       <r>   -1.4014    1.0000 </r>
       <r>   -1.3964    1.0000 </r>
       <r>   -1.3832    1.0000 </r>
       <r>   -1.3779    1.0000 </r>
       <r>   -1.2047    1.0000 </r>
       <r>   -1.1967    1.0000 </r>
       <r>   -1.1913    1.0000 </r>
       <r>   -1.1715    1.0000 </r>
       <r>   -1.1608    1.0000 </r>
       <r>   -1.1415    1.0000 </r>
       <r>   -1.1183    1.0000 </r>
       <r>   -1.0574    1.0000 </r>
       <r>   -1.0463    1.0000 </r>
       <r>   -1.0235    1.0000 </r>
       <r>   -0.9935    1.0000 </r>
       <r>   -0.9855    1.0000 </r>
       <r>   -0.9368    1.0000 </r>
       <r>   -0.9262    1.0000 </r>
       <r>   -0.9087    1.0000 </r>
       <r>   -0.9048    1.0000 </r>
       <r>   -0.8227    1.0000 </r>
       <r>   -0.8030    1.0000 </r>
       <r>   -0.7734    1.0000 </r>
       <r>   -0.7602    1.0000 </r>
       <r>   -0.7084    1.0000 </r>
       <r>   -0.6750    1.0000 </r>
       <r>   -0.6645    1.0000 </r>
       <r>   -0.6213    1.0000 </r>
       <r>   -0.6105    1.0000 </r>
       <r>   -0.6067    1.0000 </r>
       <r>   -0.5592    1.0000 </r>
       <r>   -0.5427    1.0000 </r>
       <r>   -0.4872    1.0000 </r>
       <r>   -0.4750    1.0000 </r>
       <r>   -0.4137    1.0000 </r>
       <r>   -0.4069    1.0000 </r>
       <r>   -0.3897    1.0000 </r>
       <r>   -0.3720    1.0001 </r>
       <r>   -0.3647    1.0002 </r>
       <r>   -0.3502    1.0004 </r>
       <r>   -0.3450    1.0005 </r>
       <r>   -0.3370    1.0007 </r>
       <r>   -0.3304    1.0009 </r>
       <r>   -0.2730    1.0088 </r>
       <r>   -0.2676    1.0103 </r>
       <r>   -0.1312    0.8982 </r>
       <r>   -0.1209    0.8415 </r>
       <r>   -0.1121    0.7856 </r>
       <r>   -0.0824    0.5550 </r>
       <r>   -0.0687    0.4394 </r>
       <r>   -0.0635    0.3964 </r>
       <r>   -0.0390    0.2101 </r>
       <r>   -0.0112    0.0602 </r>
       <r>   -0.0087    0.0504 </r>
       <r>    0.0027    0.0137 </r>
       <r>    0.0934   -0.0189 </r>
       <r>    0.1052   -0.0140 </r>
       <r>    0.1282   -0.0070 </r>
       <r>    0.1901   -0.0006 </r>
       <r>    0.2944   -0.0000 </r>
       <r>    0.2975   -0.0000 </r>
       <r>    0.3101   -0.0000 </r>
       <r>    0.3605   -0.0000 </r>
       <r>    0.7011   -0.0000 </r>
       <r>    0.7349   -0.0000 </r>
       <r>    1.2565   -0.0000 </r>
       <r>    1.4517   -0.0000 </r>
       <r>    1.4842   -0.0000 </r>
       <r>    1.6107   -0.0000 </r>
       <r>    2.3569   -0.0000 </r>
       <r>    2.8585    0.0000 </r>
       <r>    2.8978    0.0000 </r>
       <r>    3.4968    0.0000 </r>
       <r>    3.6499    0.0000 </r>
       <r>    3.6887    0.0000 </r>
       <r>    3.7310    0.0000 </r>
       <r>    3.9362    0.0000 </r>
       <r>    4.3930    0.0000 </r>
       <r>    4.6103    0.0000 </r>
       <r>    4.7342    0.0000 </r>
       <r>    4.9720    0.0000 </r>
       <r>    5.0006    0.0000 </r>
       <r>    5.0079    0.0000 </r>
       <r>    5.2261    0.0000 </r>
       <r>    5.3242    0.0000 </r>
       <r>    5.4435    0.0000 </r>
       <r>    5.5881    0.0000 </r>
       <r>    5.7079    0.0000 </r>
       <r>    5.8744    0.0000 </r>
       <r>    5.8913    0.0000 </r>
       <r>    6.0876    0.0000 </r>
       <r>    6.1350    0.0000 </r>
       <r>    6.2567    0.0000 </r>
       <r>    6.3390    0.0000 </r>
       <r>    6.3452    0.0000 </r>
       <r>    6.6203    0.0000 </r>
       <r>    6.6881    0.0000 </r>
       <r>    6.7289    0.0000 </r>
       <r>    6.7920    0.0000 </r>
       <r>    6.7940    0.0000 </r>
       <r>    6.8784    0.0000 </r>
       <r>    7.0377    0.0000 </r>
       <r>    7.2313    0.0000 </r>
       <r>    7.4624    0.0000 </r>
       <r>    7.6075    0.0000 </r>
       <r>    7.6166    0.0000 </r>
      </set>
      <set comment="kpoint 5">
       <r>   -8.3245    1.0000 </r>
       <r>   -7.6879    1.0000 </r>
       <r>   -7.2824    1.0000 </r>
       <r>   -6.8009    1.0000 </r>
       <r>   -6.5909    1.0000 </r>
       <r>   -6.5703    1.0000 </r>
       <r>   -6.3891    1.0000 </r>
       <r>   -6.2407    1.0000 </r>
       <r>   -6.0918    1.0000 </r>
       <r>   -5.9749    1.0000 </r>
       <r>   -5.8875    1.0000 </r>
       <r>   -5.8733    1.0000 </r>
       <r>   -5.8365    1.0000 </r>
       <r>   -5.7186    1.0000 </r>
       <r>   -5.6706    1.0000 </r>
       <r>   -5.6570    1.0000 </r>
       <r>   -5.6519    1.0000 </r>
       <r>   -5.6376    1.0000 </r>
       <r>   -5.5139    1.0000 </r>
       <r>   -5.4823    1.0000 </r>
       <r>   -5.4720    1.0000 </r>
       <r>   -5.4538    1.0000 </r>
       <r>   -5.4326    1.0000 </r>
       <r>   -5.4303    1.0000 </r>
       <r>   -5.3538    1.0000 </r>
       <r>   -5.3206    1.0000 </r>
       <r>   -5.3105    1.0000 </r>
       <r>   -5.2845    1.0000 </r>
       <r>   -5.0589    1.0000 </r>
       <r>   -5.0534    1.0000 </r>
       <r>   -5.0418    1.0000 </r>
       <r>   -5.0356    1.0000 </r>
       <r>   -5.0186    1.0000 </r>
       <r>   -4.9461    1.0000 </r>
       <r>   -4.7973    1.0000 </r>
       <r>   -4.7960    1.0000 </r>
       <r>   -4.7861    1.0000 </r>
       <r>   -4.7528    1.0000 </r>
       <r>   -4.7352    1.0000 </r>
       <r>   -4.6622    1.0000 </r>
       <r>   -4.5464    1.0000 </r>
       <r>   -4.4815    1.0000 </r>
       <r>   -4.4714    1.0000 </r>
       <r>   -4.4507    1.0000 </r>
       <r>   -4.4207    1.0000 </r>
       <r>   -4.3987    1.0000 </r>
       <r>   -4.3481    1.0000 </r>
       <r>   -4.3220    1.0000 </r>
       <r>   -4.3102    1.0000 </r>
       <r>   -4.2869    1.0000 </r>
       <r>   -4.2562    1.0000 </r>
       <r>   -4.1788    1.0000 </r>
       <r>   -4.0915    1.0000 </r>
       <r>   -4.0853    1.0000 </r>
       <r>   -4.0721    1.0000 </r>
       <r>   -4.0052    1.0000 </r>
       <r>   -3.9414    1.0000 </r>
       <r>   -3.9045    1.0000 </r>
       <r>   -3.8763    1.0000 </r>
       <r>   -3.8628    1.0000 </r>
       <r>   -3.8228    1.0000 </r>
       <r>   -3.7191    1.0000 </r>
       <r>   -3.6676    1.0000 </r>
       <r>   -3.6635    1.0000 </r>
       <r>   -3.6505    1.0000 </r>
       <r>   -3.6317    1.0000 </r>
       <r>   -3.5574    1.0000 </r>
       <r>   -3.5358    1.0000 </r>
       <r>   -3.5054    1.0000 </r>
       <r>   -3.4276    1.0000 </r>
       <r>   -3.4192    1.0000 </r>
       <r>   -3.4092    1.0000 </r>
       <r>   -3.3518    1.0000 </r>
       <r>   -3.2995    1.0000 </r>
       <r>   -3.2934    1.0000 </r>
       <r>   -3.2603    1.0000 </r>
       <r>   -3.2496    1.0000 </r>
       <r>   -3.2199    1.0000 </r>
       <r>   -3.1900    1.0000 </r>
       <r>   -3.1742    1.0000 </r>
       <r>   -3.1524    1.0000 </r>
       <r>   -3.1436    1.0000 </r>
       <r>   -3.1343    1.0000 </r>
       <r>   -3.1231    1.0000 </r>
       <r>   -3.1103    1.0000 </r>
       <r>   -3.1078    1.0000 </r>
       <r>   -3.0350    1.0000 </r>
       <r>   -2.9933    1.0000 </r>
       <r>   -2.9827    1.0000 </r>
       <r>   -2.9680    1.0000 </r>
       <r>   -2.9562    1.0000 </r>
       <r>   -2.9495    1.0000 </r>
       <r>   -2.9306    1.0000 </r>
       <r>   -2.8374    1.0000 </r>
       <r>   -2.7965    1.0000 </r>
       <r>   -2.7834    1.0000 </r>
       <r>   -2.7553    1.0000 </r>
       <r>   -2.7432    1.0000 </r>
       <r>   -2.7098    1.0000 </r>
       <r>   -2.6938    1.0000 </r>
       <r>   -2.6573    1.0000 </r>
       <r>   -2.6515    1.0000 </r>
       <r>   -2.5772    1.0000 </r>
       <r>   -2.5293    1.0000 </r>
       <r>   -2.4963    1.0000 </r>
       <r>   -2.4767    1.0000 </r>
       <r>   -2.4511    1.0000 </r>
       <r>   -2.4312    1.0000 </r>
       <r>   -2.3949    1.0000 </r>
       <r>   -2.2866    1.0000 </r>
       <r>   -2.2549    1.0000 </r>
       <r>   -2.1872    1.0000 </r>
       <r>   -2.1642    1.0000 </r>
       <r>   -2.1335    1.0000 </r>
       <r>   -2.1146    1.0000 </r>
       <r>   -2.0670    1.0000 </r>
       <r>   -2.0589    1.0000 </r>
       <r>   -2.0480    1.0000 </r>
       <r>   -2.0447    1.0000 </r>
       <r>   -2.0031    1.0000 </r>
       <r>   -1.9845    1.0000 </r>
       <r>   -1.9512    1.0000 </r>
       <r>   -1.9500    1.0000 </r>
       <r>   -1.9358    1.0000 </r>
       <r>   -1.9115    1.0000 </r>
       <r>   -1.8976    1.0000 </r>
       <r>   -1.8869    1.0000 </r>
       <r>   -1.8571    1.0000 </r>
       <r>   -1.8299    1.0000 </r>
       <r>   -1.7338    1.0000 </r>
       <r>   -1.7072    1.0000 </r>
       <r>   -1.7014    1.0000 </r>
       <r>   -1.6414    1.0000 </r>
       <r>   -1.6168    1.0000 </r>
       <r>   -1.5154    1.0000 </r>
       <r>   -1.5101    1.0000 </r>
       <r>   -1.4243    1.0000 </r>
       <r>   -1.3991    1.0000 </r>
       <r>   -1.3540    1.0000 </r>
       <r>   -1.2947    1.0000 </r>
       <r>   -1.2376    1.0000 </r>
       <r>   -1.2192    1.0000 </r>
       <r>   -1.1749    1.0000 </r>
       <r>   -1.1681    1.0000 </r>
       <r>   -1.1370    1.0000 </r>
       <r>   -1.1185    1.0000 </r>
       <r>   -1.0919    1.0000 </r>
       <r>   -1.0657    1.0000 </r>
       <r>   -1.0286    1.0000 </r>
       <r>   -1.0200    1.0000 </r>
       <r>   -0.9691    1.0000 </r>
       <r>   -0.9324    1.0000 </r>
       <r>   -0.9087    1.0000 </r>
       <r>   -0.8723    1.0000 </r>
       <r>   -0.8545    1.0000 </r>
       <r>   -0.8483    1.0000 </r>
       <r>   -0.8348    1.0000 </r>
       <r>   -0.7912    1.0000 </r>
       <r>   -0.7036    1.0000 </r>
       <r>   -0.6561    1.0000 </r>
       <r>   -0.5963    1.0000 </r>
       <r>   -0.5880    1.0000 </r>
       <r>   -0.5646    1.0000 </r>
       <r>   -0.5538    1.0000 </r>
       <r>   -0.5089    1.0000 </r>
       <r>   -0.4601    1.0000 </r>
       <r>   -0.4461    1.0000 </r>
       <r>   -0.3854    1.0001 </r>
       <r>   -0.3701    1.0001 </r>
       <r>   -0.3486    1.0004 </r>
       <r>   -0.3381    1.0007 </r>
       <r>   -0.2929    1.0044 </r>
       <r>   -0.2715    1.0092 </r>
       <r>   -0.2541    1.0151 </r>
       <r>   -0.2268    1.0272 </r>
       <r>   -0.1277    0.8802 </r>
       <r>   -0.1178    0.8227 </r>
[...]
       <r>    6.8197    0.0000 </r>
       <r>    6.8311    0.0000 </r>
       <r>    7.0808    0.0000 </r>
       <r>    7.2325    0.0000 </r>
       <r>    7.3303    0.0000 </r>
      </set>
     </set>
    </set>
   </array>
  </eigenvalues>
  <separator name="orbital magnetization" >
   <v name="MAGDIPOLOUT">      0.00000000      0.00000000      0.00000000</v>
  </separator>
  <dos>
   <i name="efermi">     -0.07585266 </i>
   <total>
    <array>
     <dimension dim="1">gridpoints</dimension>
     <dimension dim="2">spin</dimension>
     <field>energy</field>
     <field>total</field>
     <field>integrated</field>
     <set>
      <set comment="spin 1">
       <r>    -9.8992     0.0000     0.0000 </r>
       <r>    -9.8374     0.0000     0.0000 </r>
       <r>    -9.7757     0.0000     0.0000 </r>
       <r>    -9.7140    -0.0000    -0.0000 </r>
       <r>    -9.6523    -0.0000    -0.0000 </r>
       <r>    -9.5906    -0.0000    -0.0000 </r>
       <r>    -9.5288    -0.0000    -0.0000 </r>
       <r>    -9.4671    -0.0000    -0.0000 </r>
       <r>    -9.4054    -0.0000    -0.0000 </r>
       <r>    -9.3437    -0.0000    -0.0000 </r>
       <r>    -9.2820    -0.0000    -0.0000 </r>
       <r>    -9.2202    -0.0000    -0.0000 </r>
       <r>    -9.1585    -0.0009    -0.0001 </r>
       <r>    -9.0968    -0.0102    -0.0007 </r>
       <r>    -9.0351    -0.0335    -0.0028 </r>
       <r>    -8.9734     0.0503     0.0003 </r>
       <r>    -8.9116     0.3291     0.0207 </r>
       <r>    -8.8499     0.6023     0.0578 </r>
       <r>    -8.7882     2.0266     0.1829 </r>
       <r>    -8.7265     3.8075     0.4179 </r>
       <r>    -8.6648     2.2804     0.5587 </r>
       <r>    -8.6031    -0.0080     0.5582 </r>
       <r>    -8.5413     0.1669     0.5685 </r>
       <r>    -8.4796     2.5258     0.7243 </r>
       <r>    -8.4179     3.8104     0.9595 </r>
       <r>    -8.3562     3.5486     1.1785 </r>
       <r>    -8.2945     3.7548     1.4103 </r>
       <r>    -8.2327     1.9242     1.5290 </r>
       <r>    -8.1710     0.0236     1.5305 </r>
       <r>    -8.1093    -0.3604     1.5083 </r>
       <r>    -8.0476    -0.3025     1.4896 </r>
       <r>    -7.9859     2.0351     1.6152 </r>
       <r>    -7.9241     6.6574     2.0261 </r>
       <r>    -7.8624     6.0921     2.4021 </r>
       <r>    -7.8007     1.6369     2.5031 </r>
       <r>    -7.7390     1.7350     2.6102 </r>
       <r>    -7.6773     5.2705     2.9355 </r>
       <r>    -7.6155     6.2156     3.3191 </r>
       <r>    -7.5538     3.0029     3.5044 </r>
       <r>    -7.4921     0.9820     3.5651 </r>
       <r>    -7.4304     2.8915     3.7435 </r>
       <r>    -7.3687     5.4316     4.0788 </r>
       <r>    -7.3069     7.3726     4.5338 </r>
       <r>    -7.2452     9.0052     5.0896 </r>
       <r>    -7.1835     9.4333     5.6718 </r>
       <r>    -7.1218     6.9481     6.1006 </r>
       <r>    -7.0601     5.2371     6.4239 </r>
       <r>    -6.9983     5.1801     6.7436 </r>
       <r>    -6.9366     4.1226     6.9980 </r>
       <r>    -6.8749     4.1820     7.2561 </r>
       <r>    -6.8132     6.9431     7.6847 </r>
       <r>    -6.7515     8.4245     8.2046 </r>
       <r>    -6.6898     6.2851     8.5925 </r>
       <r>    -6.6280     7.4043     9.0495 </r>
       <r>    -6.5663    13.7066     9.8955 </r>
       <r>    -6.5046    14.3512    10.7812 </r>
       <r>    -6.4429    11.0486    11.4631 </r>
       <r>    -6.3812    10.9407    12.1384 </r>
       <r>    -6.3194     9.1705    12.7044 </r>
       <r>    -6.2577    10.0891    13.3271 </r>
       <r>    -6.1960    18.9552    14.4970 </r>
       <r>    -6.1343    31.5407    16.4436 </r>
       <r>    -6.0726    36.9013    18.7212 </r>
       <r>    -6.0108    31.9260    20.6916 </r>
       <r>    -5.9491    29.2422    22.4964 </r>
       <r>    -5.8874    31.9655    24.4693 </r>
       <r>    -5.8257    36.3598    26.7134 </r>
       <r>    -5.7640    30.7232    28.6096 </r>
       <r>    -5.7022    25.9694    30.2125 </r>
       <r>    -5.6405    32.8550    32.2402 </r>
       <r>    -5.5788    40.0039    34.7093 </r>
       <r>    -5.5171    42.6899    37.3441 </r>
       <r>    -5.4554    51.1727    40.5024 </r>
       <r>    -5.3936    62.8444    44.3811 </r>
       <r>    -5.3319    64.6775    48.3730 </r>
       <r>    -5.2702    56.3820    51.8528 </r>
       <r>    -5.2085    45.1719    54.6408 </r>
       <r>    -5.1468    40.1664    57.1198 </r>
       <r>    -5.0850    48.7762    60.1303 </r>
       <r>    -5.0233    69.9162    64.4455 </r>
       <r>    -4.9616    63.2190    68.3473 </r>
       <r>    -4.8999    32.5324    70.3552 </r>
       <r>    -4.8382    24.1833    71.8477 </r>
       <r>    -4.7765    39.5317    74.2876 </r>
       <r>    -4.7147    40.1189    76.7637 </r>
       <r>    -4.6530    24.1751    78.2558 </r>
       <r>    -4.5913    24.9780    79.7974 </r>
       <r>    -4.5296    41.5249    82.3603 </r>
       <r>    -4.4679    57.0546    85.8817 </r>
       <r>    -4.4061    62.5524    89.7424 </r>
       <r>    -4.3444    54.0569    93.0787 </r>
       <r>    -4.2827    44.2149    95.8076 </r>
       <r>    -4.2210    41.6959    98.3811 </r>
       <r>    -4.1593    47.8105   101.3319 </r>
       <r>    -4.0975    59.6406   105.0129 </r>
       <r>    -4.0358    59.4151   108.6799 </r>
       <r>    -3.9741    48.0625   111.6463 </r>
       <r>    -3.9124    42.2005   114.2509 </r>
       <r>    -3.8507    40.5717   116.7550 </r>
       <r>    -3.7889    36.8580   119.0298 </r>
       <r>    -3.7272    42.1954   121.6341 </r>
       <r>    -3.6655    59.5574   125.3099 </r>
       <r>    -3.6038    62.7961   129.1857 </r>
       <r>    -3.5421    55.9509   132.6389 </r>
       <r>    -3.4803    56.6481   136.1352 </r>
       <r>    -3.4186    67.7688   140.3179 </r>
       <r>    -3.3569    76.3286   145.0288 </r>
       <r>    -3.2952    72.2622   149.4888 </r>
       <r>    -3.2335    66.0781   153.5671 </r>
       <r>    -3.1717    72.4108   158.0362 </r>
       <r>    -3.1100    87.8546   163.4585 </r>
       <r>    -3.0483    85.0373   168.7070 </r>
       <r>    -2.9866    76.6329   173.4367 </r>
       <r>    -2.9249    77.9132   178.2455 </r>
       <r>    -2.8632    75.2679   182.8910 </r>
       <r>    -2.8014    84.0609   188.0791 </r>
       <r>    -2.7397   101.9272   194.3700 </r>
       <r>    -2.6780   103.9256   200.7842 </r>
       <r>    -2.6163    83.6067   205.9444 </r>
       <r>    -2.5546    62.6921   209.8137 </r>
       <r>    -2.4928    62.8567   213.6932 </r>
       <r>    -2.4311    60.8339   217.4478 </r>
       <r>    -2.3694    45.3615   220.2475 </r>
       <r>    -2.3077    29.9809   222.0979 </r>
       <r>    -2.2460    24.7575   223.6259 </r>
       <r>    -2.1842    30.8069   225.5273 </r>
       <r>    -2.1225    43.8390   228.2330 </r>
       <r>    -2.0608    64.3411   232.2041 </r>
       <r>    -1.9991    87.3003   237.5922 </r>
       <r>    -1.9374    92.1687   243.2808 </r>
       <r>    -1.8756    79.7746   248.2044 </r>
       <r>    -1.8139    60.4726   251.9368 </r>
       <r>    -1.7522    44.6638   254.6934 </r>
       <r>    -1.6905    42.6112   257.3233 </r>
       <r>    -1.6288    47.3586   260.2463 </r>
       <r>    -1.5670    56.2675   263.7191 </r>
       <r>    -1.5053    58.7784   267.3468 </r>
       <r>    -1.4436    54.1848   270.6911 </r>
       <r>    -1.3819    58.5465   274.3045 </r>
       <r>    -1.3202    60.2571   278.0235 </r>
       <r>    -1.2585    51.6471   281.2112 </r>
       <r>    -1.1967    55.1974   284.6179 </r>
       <r>    -1.1350    73.8177   289.1739 </r>
       <r>    -1.0733    84.7919   294.4072 </r>
       <r>    -1.0116    85.3010   299.6719 </r>
       <r>    -0.9499    70.8878   304.0471 </r>
       <r>    -0.8881    57.2263   307.5790 </r>
       <r>    -0.8264    56.9916   311.0965 </r>
       <r>    -0.7647    51.5567   314.2785 </r>
       <r>    -0.7030    42.7327   316.9160 </r>
       <r>    -0.6413    51.0287   320.0654 </r>
       <r>    -0.5795    62.6463   323.9319 </r>
       <r>    -0.5178    60.0929   327.6408 </r>
       <r>    -0.4561    59.5193   331.3143 </r>
       <r>    -0.3944    69.5664   335.6079 </r>
       <r>    -0.3327    87.8622   341.0307 </r>
       <r>    -0.2709    94.2052   346.8450 </r>
       <r>    -0.2092    71.6592   351.2677 </r>
       <r>    -0.1475    56.8035   354.7736 </r>
       <r>    -0.0858    84.6311   359.9970 </r>
       <r>    -0.0241    95.7595   365.9072 </r>
       <r>     0.0377    56.1392   369.3721 </r>
       <r>     0.0994    32.9332   371.4047 </r>
       <r>     0.1611    51.2612   374.5685 </r>
       <r>     0.2228    56.0420   378.0274 </r>
       <r>     0.2845    43.7179   380.7256 </r>
       <r>     0.3463    38.4642   383.0996 </r>
       <r>     0.4080    27.2238   384.7798 </r>
       <r>     0.4697    13.1312   385.5903 </r>
       <r>     0.5314     4.3120   385.8564 </r>
       <r>     0.5931     1.9699   385.9780 </r>
       <r>     0.6548     4.7362   386.2703 </r>
       <r>     0.7166    11.4153   386.9748 </r>
       <r>     0.7783    16.2886   387.9802 </r>
       <r>     0.8400    12.0815   388.7258 </r>
       <r>     0.9017     7.6698   389.1992 </r>
       <r>     0.9634    10.7282   389.8613 </r>
       <r>     1.0252     9.8887   390.4717 </r>
       <r>     1.0869     2.7361   390.6405 </r>
       <r>     1.1486     2.7040   390.8074 </r>
       <r>     1.2103    10.7630   391.4717 </r>
       <r>     1.2720    14.3661   392.3584 </r>
       <r>     1.3338    12.3286   393.1193 </r>
       <r>     1.3955    10.3466   393.7579 </r>
       <r>     1.4572    14.1211   394.6294 </r>
       <r>     1.5189    25.7320   396.2176 </r>
       <r>     1.5806    26.2669   397.8387 </r>
       <r>     1.6424    18.5247   398.9821 </r>
       <r>     1.7041    15.8284   399.9590 </r>
       <r>     1.7658    10.7268   400.6210 </r>
       <r>     1.8275     2.4537   400.7725 </r>
       <r>     1.8892     1.4500   400.8620 </r>
       <r>     1.9510     4.9856   401.1697 </r>
       <r>     2.0127     7.0593   401.6054 </r>
       <r>     2.0744     5.8848   401.9686 </r>
       <r>     2.1361     4.3529   402.2372 </r>
       <r>     2.1978     8.1585   402.7408 </r>
       <r>     2.2596    11.3363   403.4404 </r>
       <r>     2.3213    10.8518   404.1102 </r>
       <r>     2.3830    14.5378   405.0075 </r>
       <r>     2.4447    21.4514   406.3314 </r>
       <r>     2.5064    20.9073   407.6218 </r>
       <r>     2.5681    11.3277   408.3210 </r>
       <r>     2.6299     6.3679   408.7140 </r>
       <r>     2.6916     6.9007   409.1399 </r>
       <r>     2.7533    11.3448   409.8401 </r>
       <r>     2.8150    18.9648   411.0106 </r>
       <r>     2.8767    18.4442   412.1489 </r>
       <r>     2.9385    12.3913   412.9137 </r>
       <r>     3.0002     7.9672   413.4055 </r>
       <r>     3.0619    11.0480   414.0873 </r>
       <r>     3.1236    14.6800   414.9934 </r>
       <r>     3.1853    11.6373   415.7116 </r>
       <r>     3.2471     9.7371   416.3126 </r>
       <r>     3.3088     8.1655   416.8166 </r>
       <r>     3.3705     3.2946   417.0199 </r>
       <r>     3.4322     0.8399   417.0717 </r>
       <r>     3.4939     4.8170   417.3690 </r>
       <r>     3.5557    11.7386   418.0935 </r>
       <r>     3.6174    18.7320   419.2497 </r>
       <r>     3.6791    23.8473   420.7215 </r>
       <r>     3.7408    21.5732   422.0530 </r>
       <r>     3.8025    12.6264   422.8323 </r>
       <r>     3.8643     5.2824   423.1583 </r>
       <r>     3.9260     3.1415   423.3522 </r>
       <r>     3.9877     3.6815   423.5794 </r>
       <r>     4.0494     5.2652   423.9044 </r>
       <r>     4.1111     7.5349   424.3694 </r>
       <r>     4.1728     8.3459   424.8845 </r>
       <r>     4.2346     6.5822   425.2908 </r>
       <r>     4.2963     4.9507   425.5963 </r>
       <r>     4.3580    11.9995   426.3369 </r>
       <r>     4.4197    24.6874   427.8606 </r>
       <r>     4.4814    21.6197   429.1950 </r>
       <r>     4.5432     9.2137   429.7636 </r>
       <r>     4.6049     7.2889   430.2135 </r>
       <r>     4.6666    11.6600   430.9332 </r>
       <r>     4.7283    14.7128   431.8412 </r>
       <r>     4.7900    12.7353   432.6272 </r>
       <r>     4.8518     8.2109   433.1340 </r>
       <r>     4.9135     6.1857   433.5158 </r>
       <r>     4.9752     8.5969   434.0464 </r>
       <r>     5.0369     9.9416   434.6600 </r>
       <r>     5.0986     6.8941   435.0855 </r>
       <r>     5.1604     7.5193   435.5496 </r>
       <r>     5.2221    11.8598   436.2815 </r>
       <r>     5.2838    13.9746   437.1440 </r>
       <r>     5.3455    11.7958   437.8721 </r>
       <r>     5.4072     9.6391   438.4670 </r>
       <r>     5.4690    13.7142   439.3134 </r>
       <r>     5.5307    20.9931   440.6091 </r>
       <r>     5.5924    25.6424   442.1917 </r>
       <r>     5.6541    24.8371   443.7247 </r>
       <r>     5.7158    22.5785   445.1182 </r>
       <r>     5.7776    20.6063   446.3900 </r>
       <r>     5.8393    18.1939   447.5129 </r>
       <r>     5.9010    17.3974   448.5867 </r>
       <r>     5.9627    22.5963   449.9813 </r>
       <r>     6.0244    30.3627   451.8553 </r>
       <r>     6.0861    28.3932   453.6077 </r>
       <r>     6.1479    18.0868   454.7240 </r>
       <r>     6.2096    13.4386   455.5534 </r>
       <r>     6.2713    18.6265   456.7030 </r>
       <r>     6.3330    29.7297   458.5379 </r>
       <r>     6.3947    30.8847   460.4441 </r>
       <r>     6.4565    19.0723   461.6212 </r>
       <r>     6.5182    14.4803   462.5149 </r>
       <r>     6.5799    20.7764   463.7972 </r>
       <r>     6.6416    25.7719   465.3879 </r>
       <r>     6.7033    26.4034   467.0175 </r>
       <r>     6.7651    26.3019   468.6408 </r>
       <r>     6.8268    25.1841   470.1951 </r>
       <r>     6.8885    19.2701   471.3845 </r>
       <r>     6.9502     9.8045   471.9896 </r>
       <r>     7.0119     9.6433   472.5848 </r>
       <r>     7.0737    19.5379   473.7907 </r>
       <r>     7.1354    23.4767   475.2396 </r>
       <r>     7.1971    19.5827   476.4483 </r>
       <r>     7.2588    16.2076   477.4486 </r>
       <r>     7.3205    11.3650   478.1500 </r>
       <r>     7.3823     5.0581   478.4622 </r>
       <r>     7.4440     2.8386   478.6374 </r>
       <r>     7.5057     4.6991   478.9274 </r>
       <r>     7.5674     6.7234   479.3424 </r>
       <r>     7.6291     7.1171   479.7816 </r>
       <r>     7.6909     3.6613   480.0076 </r>
       <r>     7.7526     0.2501   480.0231 </r>
       <r>     7.8143    -0.2957   480.0048 </r>
       <r>     7.8760    -0.0719   480.0004 </r>
       <r>     7.9377    -0.0058   480.0000 </r>
       <r>     7.9994    -0.0002   480.0000 </r>
       <r>     8.0612    -0.0000   480.0000 </r>
       <r>     8.1229    -0.0000   480.0000 </r>
       <r>     8.1846    -0.0000   480.0000 </r>
       <r>     8.2463    -0.0000   480.0000 </r>
       <r>     8.3080     0.0000   480.0000 </r>
       <r>     8.3698     0.0000   480.0000 </r>
       <r>     8.4315     0.0000   480.0000 </r>
       <r>     8.4932     0.0000   480.0000 </r>
       <r>     8.5549     0.0000   480.0000 </r>
       <r>     8.6166     0.0000   480.0000 </r>
      </set>
     </set>
    </array>
   </total>
  </dos>
 </calculation>
 <structure name="finalpos" >
  <crystal>
   <varray name="basis" >
    <v>       8.46831000       0.00000000       0.00000000 </v>
    <v>       4.23415500       7.33377159       0.00000000 </v>
    <v>       0.00000000       0.00000000      24.96566199 </v>
   </varray>
   <i name="volume">   1550.48373159 </i>
   <varray name="rec_basis" >
    <v>       0.11808732      -0.06817774       0.00000000 </v>
    <v>       0.00000000       0.13635549       0.00000000 </v>
    <v>       0.00000000       0.00000000       0.04005502 </v>
   </varray>
  </crystal>
  <varray name="positions" >
   <v>       0.00000000       0.00000000       0.34046764 </v>
   <v>       0.33400137       0.00000000       0.34046764 </v>
   <v>       0.66800274       0.00000000       0.34046764 </v>
   <v>       0.00000000       0.33400137       0.34046764 </v>
   <v>       0.33400137       0.33400137       0.34046764 </v>
   <v>       0.66800274       0.33400137       0.34046764 </v>
   <v>       0.00000000       0.66800274       0.34046764 </v>
   <v>       0.33400137       0.66800274       0.34046764 </v>
   <v>       0.66800274       0.66800274       0.34046764 </v>
   <v>       0.11133379       0.11133379       0.43297074 </v>
   <v>       0.44533516       0.11133379       0.43297074 </v>
   <v>       0.77933653       0.11133379       0.43297074 </v>
   <v>       0.11133379       0.44533516       0.43297074 </v>
   <v>       0.44533516       0.44533516       0.43297074 </v>
   <v>       0.77933653       0.44533516       0.43297074 </v>
   <v>       0.11133379       0.77933653       0.43297074 </v>
   <v>       0.44533516       0.77933653       0.43297074 </v>
   <v>       0.77933653       0.77933653       0.43297074 </v>
   <v>       0.88890668       0.22530192       0.52525398 </v>
   <v>       0.22133142       0.22412292       0.52586495 </v>
   <v>       0.55320924       0.22498113       0.52508479 </v>
   <v>       0.88899878       0.55630839       0.52501733 </v>
   <v>       0.22141450       0.55623289       0.52478788 </v>
   <v>       0.55496258       0.55679778       0.52424543 </v>
   <v>       0.88761061       0.89178154       0.52411326 </v>
   <v>       0.22126818       0.89017718       0.52422412 </v>
   <v>       0.55530005       0.89000646       0.52417426 </v>
   <v>       0.99811830       0.00112905       0.61771109 </v>
   <v>       0.33399906       0.99621760       0.61744946 </v>
   <v>       0.66495265       0.00100387       0.61757488 </v>
   <v>       0.99707990       0.33312407       0.62139430 </v>
   <v>       0.33515412       0.33288015       0.62088454 </v>
   <v>       0.66527803       0.33476106       0.61791665 </v>
   <v>       0.99560177       0.67320317       0.61727234 </v>
   <v>       0.33177783       0.66795579       0.61739098 </v>
   <v>       0.66452832       0.66777047       0.61748235 </v>
   <v>       0.15616203       0.35185079       0.66135408 </v>
  </varray>
  <varray name="selective"  type="logical" >
   <v type="logical" >  F  F  F </v>
   <v type="logical" >  F  F  F </v>
   <v type="logical" >  F  F  F </v>
   <v type="logical" >  F  F  F </v>
   <v type="logical" >  F  F  F </v>
   <v type="logical" >  F  F  F </v>
   <v type="logical" >  F  F  F </v>
   <v type="logical" >  F  F  F </v>
   <v type="logical" >  F  F  F </v>
   <v type="logical" >  F  F  F </v>
   <v type="logical" >  F  F  F </v>
   <v type="logical" >  F  F  F </v>
   <v type="logical" >  F  F  F </v>
   <v type="logical" >  F  F  F </v>
   <v type="logical" >  F  F  F </v>
   <v type="logical" >  F  F  F </v>
   <v type="logical" >  F  F  F </v>
   <v type="logical" >  F  F  F </v>
   <v type="logical" >  T  T  T </v>
   <v type="logical" >  T  T  T </v>
   <v type="logical" >  T  T  T </v>
   <v type="logical" >  T  T  T </v>
   <v type="logical" >  T  T  T </v>
   <v type="logical" >  T  T  T </v>
   <v type="logical" >  T  T  T </v>
   <v type="logical" >  T  T  T </v>
   <v type="logical" >  T  T  T </v>
   <v type="logical" >  T  T  T </v>
   <v type="logical" >  T  T  T </v>
   <v type="logical" >  T  T  T </v>
   <v type="logical" >  T  T  T </v>
   <v type="logical" >  T  T  T </v>
   <v type="logical" >  T  T  T </v>
   <v type="logical" >  T  T  T </v>
   <v type="logical" >  T  T  T </v>
   <v type="logical" >  T  T  T </v>
   <v type="logical" >  T  T  T </v>
  </varray>
  <nose>
   <v>      -3.00000000       0.00000000       0.00010000       0.00010000 </v>
  </nose>
 </structure>
</modeling>
