unknown system                          
           1
     8.468310    0.000000    0.000000
     4.234155    7.333772    0.000000
     0.000000    0.000000   24.965662
   Pt   H 
    36     1
Direct configuration=     1
   0.00000000  0.00000000  0.34046764
   0.33400137  0.00000000  0.34046764
   0.66800274  0.00000000  0.34046764
   0.00000000  0.33400137  0.34046764
   0.33400137  0.33400137  0.34046764
   0.66800274  0.33400137  0.34046764
   0.00000000  0.66800274  0.34046764
   0.33400137  0.66800274  0.34046764
   0.66800274  0.66800274  0.34046764
   0.11133379  0.11133379  0.43297074
   0.44533516  0.11133379  0.43297074
   0.77933653  0.11133379  0.43297074
   0.11133379  0.44533516  0.43297074
   0.44533516  0.44533516  0.43297074
   0.77933653  0.44533516  0.43297074
   0.11133379  0.77933653  0.43297074
   0.44533516  0.77933653  0.43297074
   0.77933653  0.77933653  0.43297074
   0.88890668  0.22530192  0.52525398
   0.22133142  0.22412292  0.52586495
   0.55320924  0.22498113  0.52508479
   0.88899878  0.55630839  0.52501733
   0.22141450  0.55623289  0.52478788
   0.55496258  0.55679778  0.52424543
   0.88761061  0.89178154  0.52411326
   0.22126818  0.89017718  0.52422412
   0.55530005  0.89000646  0.52417426
   0.99811830  0.00112905  0.61771109
   0.33399906  0.99621760  0.61744946
   0.66495265  0.00100387  0.61757488
   0.99707990  0.33312407  0.62139430
   0.33515412  0.33288015  0.62088454
   0.66527803  0.33476106  0.61791665
   0.99560177  0.67320317  0.61727234
   0.33177783  0.66795579  0.61739098
   0.66452832  0.66777047  0.61748235
   0.15616203  0.35185079  0.66135408
