
     Program PWSCF v.7.1 starts on  7Dec2025 at 20: 2:52 
        Git branch: heads/qe-7.1
        Last git commit: 48ba0178f8fede6d020eb786884699a9f063f55d-dirty
        Last git commit date: Fri Jan 27 14:22:33 2023 +0000
        Last git commit subject: Merge branch 'fix_hubbard' into 'develop'

     This program is part of the open-source Quantum ESPRESSO suite
     for quantum simulation of materials; please cite
         "P. Giannozzi et al., J. Phys.:Condens. Matter 21 395502 (2009);
         "P. Giannozzi et al., J. Phys.:Condens. Matter 29 465901 (2017);
         "P. Giannozzi et al., J. Chem. Phys. 152 154105 (2020);
          URL http://www.quantum-espresso.org", 
     in publications or presentations arising from this work. More details at
     http://www.quantum-espresso.org/quote

     Parallel version (MPI), running on    96 processors

     MPI processes distributed on     2 nodes
     119606 MiB available memory on the printing compute node when the environment starts

     Reading input from espresso.pwi
Warning: card &CELL ignored
Warning: card / ignored
Warning: card &FCP ignored
Warning: card / ignored
Warning: card &RISM ignored
Warning: card / ignored

     Current dimensions of program PWSCF are:
     Max number of different atomic species (ntypx) = 10
     Max number of k-points (npk) =  40000
     Max angular momentum in pseudopotentials (lmaxx) =  4
     file Co.pbe-n-kjpaw_psl.1.0.0.UPF: wavefunction(s)  4S 3D renormalized
     file C.pbe-n-kjpaw_psl.1.0.0.UPF: wavefunction(s)  2S 2P renormalized
     file O.pbe-nl-kjpaw_psl.1.0.0.UPF: wavefunction(s)  2S 2P renormalized
     file H.pbe-kjpaw_psl.1.0.0.UPF: wavefunction(s)  1S renormalized

     **************************************************************************
     Initializing libbeef V0.1.2 with the BEEF-vdW functional.
     Citation: Wellendorff et al., PRB 85, 235149 (2012).
     **************************************************************************


     IMPORTANT: XC functional enforced from input :
     Exchange-correlation= BEEF-VDW
                           (   1   4  43  14   2   0   0)
     Any further DFT definition will be discarded
     Please, verify this is what you really want


     R & G space division:  proc/nbgrp/npool/nimage =      96
     Subspace diagonalization in iterative solution of the eigenvalue problem:
     one sub-group per band group will be used
     custom distributed-memory algorithm (size of sub-group:  2*  2 procs)


     Parallelization info
     --------------------
     sticks:   dense  smooth     PW     G-vecs:    dense   smooth      PW
     Min          43      28      7                 7829     4248     595
     Max          44      29      8                 7845     4281     630
     Sum        4153    2773    757               752179   409445   59217

     Using Slab Decomposition



     bravais-lattice index     =            0
     lattice parameter (alat)  =      14.1729  a.u.
     unit-cell volume          =    8574.3059 (a.u.)^3
     number of atoms/cell      =           39
     number of atomic types    =            4
     number of electrons       =       335.00
     number of Kohn-Sham states=          202
     kinetic-energy cutoff     =      50.0000  Ry
     charge density cutoff     =     300.0000  Ry
     scf convergence threshold =      1.0E-08
     mixing beta               =       0.7000
     number of iterations used =            8  local-TF  mixing
     Exchange-correlation= BEEF-VDW
                           (   1   4  43  14   2   0   0)

     celldm(1)=  14.172946  celldm(2)=   0.000000  celldm(3)=   0.000000
     celldm(4)=   0.000000  celldm(5)=   0.000000  celldm(6)=   0.000000

     crystal axes: (cart. coord. in units of alat)
               a(1) = (   1.000000   0.000000   0.000000 )  
               a(2) = (   0.500000   0.866025   0.000000 )  
               a(3) = (   0.000000   0.000000   3.477667 )  

     reciprocal axes: (cart. coord. in units 2 pi/alat)
               b(1) = (  1.000000 -0.577350  0.000000 )  
               b(2) = (  0.000000  1.154701  0.000000 )  
               b(3) = (  0.000000  0.000000  0.287549 )  


     PseudoPot. # 1 for Co read from file:
     /users/kbadger1/espresso/pseudo/pslibrary.1.0.0/pbe/PSEUDOPOTENTIALS/Co.pbe-n-kjpaw_psl.1.0.0.UPF
     MD5 check sum: 88af6ec42553d4236c267fdfcb472151
     Pseudo is Projector augmented-wave + core cor, Zval =  9.0
     Generated using 'atomic' code by A. Dal Corso  v.7.0
     Shape of augmentation charge: PSQ
     Using radial grid of 1193 points,  6 beta functions with: 
                l(1) =   0
                l(2) =   0
                l(3) =   1
                l(4) =   1
                l(5) =   2
                l(6) =   2
     Q(r) pseudized with 0 coefficients 


     PseudoPot. # 2 for C  read from file:
     /users/kbadger1/espresso/pseudo/pslibrary.1.0.0/pbe/PSEUDOPOTENTIALS/C.pbe-n-kjpaw_psl.1.0.0.UPF
     MD5 check sum: 6408e75cdba28732cea38a4db8498ce4
     Pseudo is Projector augmented-wave + core cor, Zval =  4.0
     Generated using 'atomic' code by A. Dal Corso  v.7.0
     Shape of augmentation charge: PSQ
     Using radial grid of 1073 points,  4 beta functions with: 
                l(1) =   0
                l(2) =   0
                l(3) =   1
                l(4) =   1
     Q(r) pseudized with 0 coefficients 


     PseudoPot. # 3 for O  read from file:
     /users/kbadger1/espresso/pseudo/pslibrary.1.0.0/pbe/PSEUDOPOTENTIALS/O.pbe-nl-kjpaw_psl.1.0.0.UPF
     MD5 check sum: f0439fab3598ca4e468f064226030408
     Pseudo is Projector augmented-wave + core cor, Zval =  6.0
     Generated using 'atomic' code by A. Dal Corso  v.7.0
     Shape of augmentation charge: PSQ
     Using radial grid of 1095 points,  4 beta functions with: 
                l(1) =   0
                l(2) =   0
                l(3) =   1
                l(4) =   1
     Q(r) pseudized with 0 coefficients 


     PseudoPot. # 4 for H  read from file:
     /users/kbadger1/espresso/pseudo/pslibrary.1.0.0/pbe/PSEUDOPOTENTIALS/H.pbe-kjpaw_psl.1.0.0.UPF
     MD5 check sum: fe4c6fa958fa6d3815bf5d2419cbf1df
     Pseudo is Projector augmented-wave, Zval =  1.0
     Generated using 'atomic' code by A. Dal Corso  v.7.0
     Shape of augmentation charge: PSQ
     Using radial grid of  929 points,  2 beta functions with: 
                l(1) =   0
                l(2) =   0
     Q(r) pseudized with 0 coefficients 


     atomic species   valence    mass     pseudopotential
        Co             9.00    58.93319     Co( 1.00)
        C              4.00    12.00000     C ( 1.00)
        O              6.00    15.99491     O ( 1.00)
        H              1.00     1.00783     H ( 1.00)

     Starting magnetic structure 
     atomic species   magnetization
        Co           1.000
        C            1.000
        O            0.000
        H            0.000

     No symmetry found



   Cartesian axes

     site n.     atom                  positions (alat units)
         1           Co  tau(   1) = (   0.0000000   0.1924501   1.3333333  )
         2           Co  tau(   2) = (   0.3333333   0.1924501   1.3333333  )
         3           Co  tau(   3) = (   0.6666667   0.1924501   1.3333333  )
         4           Co  tau(   4) = (   0.1666667   0.4811252   1.3333333  )
         5           Co  tau(   5) = (   0.5000000   0.4811252   1.3333333  )
         6           Co  tau(   6) = (   0.8333333   0.4811252   1.3333333  )
         7           Co  tau(   7) = (   0.3333333   0.7698004   1.3333333  )
         8           Co  tau(   8) = (   0.6666667   0.7698004   1.3333333  )
         9           Co  tau(   9) = (   1.0000000   0.7698004   1.3333333  )
        10           Co  tau(  10) = (   0.0000000   0.0000000   1.6036667  )
        11           Co  tau(  11) = (   0.3333333   0.0000000   1.6036667  )
        12           Co  tau(  12) = (   0.6666667   0.0000000   1.6036667  )
        13           Co  tau(  13) = (   0.1666667   0.2886751   1.6036667  )
        14           Co  tau(  14) = (   0.5000000   0.2886751   1.6036667  )
        15           Co  tau(  15) = (   0.8333333   0.2886751   1.6036667  )
        16           Co  tau(  16) = (   0.3333333   0.5773503   1.6036667  )
        17           Co  tau(  17) = (   0.6666667   0.5773503   1.6036667  )
        18           Co  tau(  18) = (   1.0000000   0.5773503   1.6036667  )
        19           Co  tau(  19) = (   0.0000000   0.1924501   1.8740000  )
        20           Co  tau(  20) = (   0.3333333   0.1924501   1.8740000  )
        21           Co  tau(  21) = (   0.6666667   0.1924501   1.8740000  )
        22           Co  tau(  22) = (   0.1666667   0.4811252   1.8740000  )
        23           Co  tau(  23) = (   0.5000000   0.4811252   1.8740000  )
        24           Co  tau(  24) = (   0.8333333   0.4811252   1.8740000  )
        25           Co  tau(  25) = (   0.3333333   0.7698004   1.8740000  )
        26           Co  tau(  26) = (   0.6666667   0.7698004   1.8740000  )
        27           Co  tau(  27) = (   1.0000000   0.7698004   1.8740000  )
        28           Co  tau(  28) = (   0.0000000   0.0000000   2.1443333  )
        29           Co  tau(  29) = (   0.3333333   0.0000000   2.1443333  )
        30           Co  tau(  30) = (   0.6666667   0.0000000   2.1443333  )
        31           Co  tau(  31) = (   0.1666667   0.2886751   2.1443333  )
        32           Co  tau(  32) = (   0.5000000   0.2886751   2.1443333  )
        33           Co  tau(  33) = (   0.8333333   0.2886751   2.1443333  )
        34           Co  tau(  34) = (   0.3333333   0.5773503   2.1443333  )
        35           Co  tau(  35) = (   0.6666667   0.5773503   2.1443333  )
        36           Co  tau(  36) = (   1.0000000   0.5773503   2.1443333  )
        37           C   tau(  37) = (   0.3334400   0.1962400   2.3244146  )
        38           O   tau(  38) = (   0.3140271   0.1834447   2.4821577  )
        39           H   tau(  39) = (   0.6368015   0.3475848   2.2966308  )

     number of k points=    13  Marzari-Vanderbilt smearing, width (Ry)=  0.0010
                       cart. coord. in units 2pi/alat
        k(    1) = (   0.0000000   0.0000000   0.0000000), wk =   0.0400000
        k(    2) = (   0.0000000   0.2309401   0.0000000), wk =   0.0800000
        k(    3) = (   0.0000000   0.4618802   0.0000000), wk =   0.0800000
        k(    4) = (   0.2000000  -0.1154701   0.0000000), wk =   0.0800000
        k(    5) = (   0.2000000   0.1154701   0.0000000), wk =   0.0800000
        k(    6) = (   0.2000000   0.3464102   0.0000000), wk =   0.0800000
        k(    7) = (   0.2000000  -0.5773503   0.0000000), wk =   0.0800000
        k(    8) = (   0.2000000  -0.3464102   0.0000000), wk =   0.0800000
        k(    9) = (   0.4000000  -0.2309401   0.0000000), wk =   0.0800000
        k(   10) = (   0.4000000   0.0000000   0.0000000), wk =   0.0800000
        k(   11) = (   0.4000000   0.2309401   0.0000000), wk =   0.0800000
        k(   12) = (   0.4000000  -0.6928203   0.0000000), wk =   0.0800000
        k(   13) = (   0.4000000  -0.4618802   0.0000000), wk =   0.0800000

     Dense  grid:   752179 G-vectors     FFT dimensions: (  80,  80, 288)

     Smooth grid:   409445 G-vectors     FFT dimensions: (  64,  64, 225)

     Estimated max dynamical RAM per process >      99.02 MB

     Estimated total dynamical RAM >       9.28 GB
     Generating pointlists ...
     new r_m :   0.0879 (alat units)  1.2454 (a.u.) for type    1
     new r_m :   0.0658 (alat units)  0.9322 (a.u.) for type    2
     new r_m :   0.0658 (alat units)  0.9322 (a.u.) for type    3
     new r_m :   0.0879 (alat units)  1.2454 (a.u.) for type    4

     Initial potential from superposition of free atoms

     starting charge     334.9897, renormalised to     335.0000

     negative rho (up, down):  3.062E-03 4.545E-04


     %%%%%%%%%%%%%%%%%%%%%%%%%%%%%%%%%%%%%%%%%%%%%%%%%%%%%%%%%%%%%%%%%%%%%%%%
     %                                                                      %
     % You are using vdW-DF, which was implemented by the Thonhauser group. %
     % Please cite the following two papers that made this development      %
     % possible and the two reviews that describe the various versions:     %
     %                                                                      %
     %   T. Thonhauser et al., PRL 115, 136402 (2015).                      %
     %   T. Thonhauser et al., PRB 76, 125112 (2007).                       %
     %   K. Berland et al., Rep. Prog. Phys. 78, 066501 (2015).             %
     %   D.C. Langreth et al., J. Phys.: Condens. Matter 21, 084203 (2009). %
     %                                                                      %
     % If you are calculating stress with vdW-DF, please also cite:         %
     %                                                                      %
     %   R. Sabatini et al., J. Phys.: Condens. Matter 24, 424209 (2012).   %
     %   C.M. Frostenson et al., Electr. Struct. 4, 014001 (2022).          %
     %                                                                      %
     %%%%%%%%%%%%%%%%%%%%%%%%%%%%%%%%%%%%%%%%%%%%%%%%%%%%%%%%%%%%%%%%%%%%%%%%

     %%%%%%%%%%%%%%%%%%%%%%%%%%%%%%%%%%%%%%%%%%%%%%%%%%%%%%%%%%%%%%%%%%%%%%%%
     %                                                                      %
     %  vdW-DF NEWS:                                                        %
     %                                                                      %
     %  * vdW-DF3 is now available. DOI: 10.1021/acs.jctc.0c00471           %
     %    use with input_dft = 'vdW-DF3-opt1' or 'vdW-DF3-opt2'             %
     %                                                                      %
     %  * Unscreened and range-separated hybrid vdW-DF-cx functionals       %
     %    DOI: 10.1063/1.4986522 and 10.1088/1361-648X/ac2ad2               %
     %    use with input_dft = 'vdW-DF-cx0'    and 'vdW-DF-ahcx'            %
     %  * Unscreened and range-separated hybrid vdW-DF2-b86r functionals    %
     %    DOI: 10.1063/1.4986522 and DOI: 10.1103/PhysRevX.12.041003        %
     %    use with input_dft = 'vdW-DF2-br0' and 'vdW-DF2-ahbr'             %
     %                                                                      %
     %%%%%%%%%%%%%%%%%%%%%%%%%%%%%%%%%%%%%%%%%%%%%%%%%%%%%%%%%%%%%%%%%%%%%%%%


     Starting wfcs are  333 randomized atomic wfcs
     Checking if some PAW data can be deallocated... 

     total cpu time spent up to now is       12.2 secs

     per-process dynamical memory:   231.9 Mb

     Self-consistent Calculation

     iteration #  1     ecut=    50.00 Ry     beta= 0.70
     Davidson diagonalization with overlap
     ethr =  1.00E-02,  avg # of iterations =  2.0

     negative rho (up, down):  3.456E-05 9.843E-08

     total cpu time spent up to now is       37.7 secs

     total energy              =   -6053.11457863 Ry
     estimated scf accuracy    <      39.03589180 Ry

     total magnetization       =    69.00 Bohr mag/cell
     absolute magnetization    =    81.27 Bohr mag/cell

     iteration #  2     ecut=    50.00 Ry     beta= 0.70
     Davidson diagonalization with overlap
     ethr =  1.00E-02,  avg # of iterations =  1.0

     negative rho (up, down):  5.284E-06 4.112E-08

     total cpu time spent up to now is       55.2 secs

     total energy              =   -6052.62796180 Ry
     estimated scf accuracy    <      24.57845243 Ry

     total magnetization       =    68.93 Bohr mag/cell
     absolute magnetization    =    76.82 Bohr mag/cell

     iteration #  3     ecut=    50.00 Ry     beta= 0.70
     Davidson diagonalization with overlap
     ethr =  7.34E-03,  avg # of iterations =  1.2

     negative rho (up, down):  6.623E-08 0.000E+00

     total cpu time spent up to now is       72.2 secs

     total energy              =   -6055.17768516 Ry
     estimated scf accuracy    <      84.22904903 Ry

     total magnetization       =    66.12 Bohr mag/cell
     absolute magnetization    =    73.49 Bohr mag/cell

     iteration #  4     ecut=    50.00 Ry     beta= 0.70
     Davidson diagonalization with overlap
     ethr =  7.34E-03,  avg # of iterations =  1.0

     negative rho (up, down):  1.392E-08 0.000E+00

     total cpu time spent up to now is       89.6 secs

     total energy              =   -6056.43095708 Ry
     estimated scf accuracy    <       5.30504418 Ry

     total magnetization       =    60.23 Bohr mag/cell
     absolute magnetization    =    70.07 Bohr mag/cell

     iteration #  5     ecut=    50.00 Ry     beta= 0.70
     Davidson diagonalization with overlap
     ethr =  1.58E-03,  avg # of iterations =  1.2

     total cpu time spent up to now is      110.1 secs

     total energy              =   -6056.43594133 Ry
     estimated scf accuracy    <       2.26782187 Ry

     total magnetization       =    60.16 Bohr mag/cell
     absolute magnetization    =    69.59 Bohr mag/cell

     iteration #  6     ecut=    50.00 Ry     beta= 0.70
     Davidson diagonalization with overlap
     ethr =  6.77E-04,  avg # of iterations =  1.7

     total cpu time spent up to now is      124.5 secs

     total energy              =   -6056.54697205 Ry
     estimated scf accuracy    <       0.59674609 Ry

     total magnetization       =    59.68 Bohr mag/cell
     absolute magnetization    =    68.87 Bohr mag/cell

     iteration #  7     ecut=    50.00 Ry     beta= 0.70
     Davidson diagonalization with overlap
     ethr =  1.78E-04,  avg # of iterations =  5.9

     total cpu time spent up to now is      147.2 secs

     total energy              =   -6056.57934909 Ry
     estimated scf accuracy    <       0.63252351 Ry

     total magnetization       =    60.00 Bohr mag/cell
     absolute magnetization    =    68.76 Bohr mag/cell

     iteration #  8     ecut=    50.00 Ry     beta= 0.70
     Davidson diagonalization with overlap
     ethr =  1.78E-04,  avg # of iterations =  1.5

     total cpu time spent up to now is      161.0 secs

     total energy              =   -6056.60062342 Ry
     estimated scf accuracy    <       0.12193827 Ry

     total magnetization       =    60.01 Bohr mag/cell
     absolute magnetization    =    68.61 Bohr mag/cell

     iteration #  9     ecut=    50.00 Ry     beta= 0.70
     Davidson diagonalization with overlap
     ethr =  3.64E-05,  avg # of iterations =  8.7

     total cpu time spent up to now is      192.3 secs

     total energy              =   -6056.60823384 Ry
     estimated scf accuracy    <       0.19506280 Ry

     total magnetization       =    60.28 Bohr mag/cell
     absolute magnetization    =    68.44 Bohr mag/cell

     iteration # 10     ecut=    50.00 Ry     beta= 0.70
     Davidson diagonalization with overlap
     ethr =  3.64E-05,  avg # of iterations =  1.8

     total cpu time spent up to now is      213.5 secs

     total energy              =   -6056.61478124 Ry
     estimated scf accuracy    <       0.14238805 Ry

     total magnetization       =    60.39 Bohr mag/cell
     absolute magnetization    =    68.40 Bohr mag/cell

     iteration # 11     ecut=    50.00 Ry     beta= 0.70
     Davidson diagonalization with overlap
     ethr =  3.64E-05,  avg # of iterations =  1.1

     total cpu time spent up to now is      229.9 secs

     total energy              =   -6056.60828046 Ry
     estimated scf accuracy    <       0.09333184 Ry

     total magnetization       =    60.30 Bohr mag/cell
     absolute magnetization    =    68.28 Bohr mag/cell

     iteration # 12     ecut=    50.00 Ry     beta= 0.70
     Davidson diagonalization with overlap
     ethr =  2.79E-05,  avg # of iterations =  1.9

     total cpu time spent up to now is      248.5 secs

     total energy              =   -6056.60957024 Ry
     estimated scf accuracy    <       0.07934584 Ry

     total magnetization       =    60.28 Bohr mag/cell
     absolute magnetization    =    68.12 Bohr mag/cell

     iteration # 13     ecut=    50.00 Ry     beta= 0.70
     Davidson diagonalization with overlap
     ethr =  2.37E-05,  avg # of iterations =  1.2

     total cpu time spent up to now is      265.6 secs

     total energy              =   -6056.61159679 Ry
     estimated scf accuracy    <       0.09533628 Ry

     total magnetization       =    60.29 Bohr mag/cell
     absolute magnetization    =    68.08 Bohr mag/cell

     iteration # 14     ecut=    50.00 Ry     beta= 0.70
     Davidson diagonalization with overlap
     ethr =  2.37E-05,  avg # of iterations =  1.1

     negative rho (up, down):  2.735E-05 1.283E-06

     total cpu time spent up to now is      281.7 secs

     total energy              =   -6056.60592479 Ry
     estimated scf accuracy    <       0.06805045 Ry

     total magnetization       =    60.29 Bohr mag/cell
     absolute magnetization    =    68.06 Bohr mag/cell

     iteration # 15     ecut=    50.00 Ry     beta= 0.70
     Davidson diagonalization with overlap
     ethr =  2.03E-05,  avg # of iterations =  1.4

     negative rho (up, down):  4.666E-03 3.630E-03

     total cpu time spent up to now is      300.7 secs

     total energy              =   -6056.60287652 Ry
     estimated scf accuracy    <       0.06051486 Ry

     total magnetization       =    60.28 Bohr mag/cell
     absolute magnetization    =    68.01 Bohr mag/cell

     iteration # 16     ecut=    50.00 Ry     beta= 0.70
     Davidson diagonalization with overlap
     ethr =  1.81E-05,  avg # of iterations =  1.3

     negative rho (up, down):  1.984E-02 1.797E-02

     total cpu time spent up to now is      320.6 secs

     total energy              =   -6056.59999589 Ry
     estimated scf accuracy    <       0.06963195 Ry

     total magnetization       =    60.28 Bohr mag/cell
     absolute magnetization    =    67.95 Bohr mag/cell

     iteration # 17     ecut=    50.00 Ry     beta= 0.70
     Davidson diagonalization with overlap
     ethr =  1.81E-05,  avg # of iterations =  1.3

     negative rho (up, down):  3.462E-02 3.245E-02

     total cpu time spent up to now is      334.4 secs

     total energy              =   -6056.59918371 Ry
     estimated scf accuracy    <       0.01889222 Ry

     total magnetization       =    60.28 Bohr mag/cell
     absolute magnetization    =    67.91 Bohr mag/cell

     iteration # 18     ecut=    50.00 Ry     beta= 0.70
     Davidson diagonalization with overlap
     c_bands:  1 eigenvalues not converged
     c_bands:  4 eigenvalues not converged
     c_bands:  3 eigenvalues not converged
     c_bands:  4 eigenvalues not converged
     c_bands:  1 eigenvalues not converged
     c_bands:  2 eigenvalues not converged
     c_bands:  3 eigenvalues not converged
     ethr =  5.64E-06,  avg # of iterations =  7.8

     negative rho (up, down):  1.030E-02 8.973E-03

     total cpu time spent up to now is      360.8 secs

     total energy              =   -6056.59894273 Ry
     estimated scf accuracy    <       0.06308814 Ry

     total magnetization       =    60.29 Bohr mag/cell
     absolute magnetization    =    67.86 Bohr mag/cell

     iteration # 19     ecut=    50.00 Ry     beta= 0.70
     Davidson diagonalization with overlap
     ethr =  5.64E-06,  avg # of iterations =  2.0

     negative rho (up, down):  1.673E-02 1.519E-02

     total cpu time spent up to now is      376.9 secs

     total energy              =   -6056.59962394 Ry
     estimated scf accuracy    <       0.02145871 Ry

     total magnetization       =    60.28 Bohr mag/cell
     absolute magnetization    =    67.91 Bohr mag/cell

     iteration # 20     ecut=    50.00 Ry     beta= 0.70
     Davidson diagonalization with overlap
     ethr =  5.64E-06,  avg # of iterations =  1.2

     negative rho (up, down):  2.713E-02 2.557E-02

     total cpu time spent up to now is      394.7 secs

     total energy              =   -6056.59831089 Ry
     estimated scf accuracy    <       0.00852112 Ry

     total magnetization       =    60.28 Bohr mag/cell
     absolute magnetization    =    67.90 Bohr mag/cell

     iteration # 21     ecut=    50.00 Ry     beta= 0.70
     Davidson diagonalization with overlap
     c_bands:  1 eigenvalues not converged
     c_bands:  1 eigenvalues not converged
     ethr =  2.54E-06,  avg # of iterations =  4.4

     negative rho (up, down):  1.721E-02 1.617E-02

     total cpu time spent up to now is      415.5 secs

     total energy              =   -6056.59720704 Ry
     estimated scf accuracy    <       0.01783642 Ry

     total magnetization       =    60.28 Bohr mag/cell
     absolute magnetization    =    67.90 Bohr mag/cell

     iteration # 22     ecut=    50.00 Ry     beta= 0.70
     Davidson diagonalization with overlap
     ethr =  2.54E-06,  avg # of iterations =  1.7

     negative rho (up, down):  1.075E-02 9.875E-03

     total cpu time spent up to now is      432.7 secs

     total energy              =   -6056.59707850 Ry
     estimated scf accuracy    <       0.00981793 Ry

     total magnetization       =    60.29 Bohr mag/cell
     absolute magnetization    =    67.93 Bohr mag/cell

     iteration # 23     ecut=    50.00 Ry     beta= 0.70
     Davidson diagonalization with overlap
     ethr =  2.54E-06,  avg # of iterations =  1.7

     negative rho (up, down):  1.152E-02 1.101E-02

     total cpu time spent up to now is      450.8 secs

     total energy              =   -6056.59694194 Ry
     estimated scf accuracy    <       0.01623879 Ry

     total magnetization       =    60.29 Bohr mag/cell
     absolute magnetization    =    67.94 Bohr mag/cell

     iteration # 24     ecut=    50.00 Ry     beta= 0.70
     Davidson diagonalization with overlap
     ethr =  2.54E-06,  avg # of iterations =  1.5

     negative rho (up, down):  1.050E-02 9.943E-03

     total cpu time spent up to now is      470.7 secs

     total energy              =   -6056.59747347 Ry
     estimated scf accuracy    <       0.00160208 Ry

     total magnetization       =    60.29 Bohr mag/cell
     absolute magnetization    =    67.95 Bohr mag/cell

     iteration # 25     ecut=    50.00 Ry     beta= 0.70
     Davidson diagonalization with overlap
     c_bands:  1 eigenvalues not converged
     c_bands:  1 eigenvalues not converged
     c_bands:  1 eigenvalues not converged
     ethr =  4.78E-07,  avg # of iterations =  4.8

     negative rho (up, down):  7.571E-03 6.985E-03

     total cpu time spent up to now is      492.2 secs

     total energy              =   -6056.59748277 Ry
     estimated scf accuracy    <       0.00172277 Ry

     total magnetization       =    60.29 Bohr mag/cell
     absolute magnetization    =    67.95 Bohr mag/cell

     iteration # 26     ecut=    50.00 Ry     beta= 0.70
     Davidson diagonalization with overlap
     ethr =  4.78E-07,  avg # of iterations =  2.0

     negative rho (up, down):  7.967E-03 7.397E-03

     total cpu time spent up to now is      510.1 secs

     total energy              =   -6056.59757348 Ry
     estimated scf accuracy    <       0.00309621 Ry

     total magnetization       =    60.29 Bohr mag/cell
     absolute magnetization    =    67.95 Bohr mag/cell

     iteration # 27     ecut=    50.00 Ry     beta= 0.70
     Davidson diagonalization with overlap
     ethr =  4.78E-07,  avg # of iterations =  1.2

     negative rho (up, down):  4.770E-03 3.969E-03

     total cpu time spent up to now is      529.0 secs

     total energy              =   -6056.59764996 Ry
     estimated scf accuracy    <       0.00047557 Ry

     total magnetization       =    60.29 Bohr mag/cell
     absolute magnetization    =    67.95 Bohr mag/cell

     iteration # 28     ecut=    50.00 Ry     beta= 0.70
     Davidson diagonalization with overlap
     ethr =  1.42E-07,  avg # of iterations =  2.6

     negative rho (up, down):  3.795E-03 2.981E-03

     total cpu time spent up to now is      545.6 secs

     total energy              =   -6056.59760757 Ry
     estimated scf accuracy    <       0.00063257 Ry

     total magnetization       =    60.29 Bohr mag/cell
     absolute magnetization    =    67.95 Bohr mag/cell

     iteration # 29     ecut=    50.00 Ry     beta= 0.70
     Davidson diagonalization with overlap
     ethr =  1.42E-07,  avg # of iterations =  1.3

     negative rho (up, down):  3.697E-03 2.775E-03

     total cpu time spent up to now is      565.9 secs

     total energy              =   -6056.59769745 Ry
     estimated scf accuracy    <       0.00044105 Ry

     total magnetization       =    60.29 Bohr mag/cell
     absolute magnetization    =    67.95 Bohr mag/cell

     iteration # 30     ecut=    50.00 Ry     beta= 0.70
     Davidson diagonalization with overlap
     ethr =  1.32E-07,  avg # of iterations =  1.2

     negative rho (up, down):  3.340E-03 2.381E-03

     total cpu time spent up to now is      579.4 secs

     total energy              =   -6056.59771959 Ry
     estimated scf accuracy    <       0.00006939 Ry

     total magnetization       =    60.29 Bohr mag/cell
     absolute magnetization    =    67.95 Bohr mag/cell

     iteration # 31     ecut=    50.00 Ry     beta= 0.70
     Davidson diagonalization with overlap
     ethr =  2.07E-08,  avg # of iterations =  5.5

     negative rho (up, down):  2.870E-03 1.877E-03

     total cpu time spent up to now is      605.0 secs

     total energy              =   -6056.59772039 Ry
     estimated scf accuracy    <       0.00002360 Ry

     total magnetization       =    60.29 Bohr mag/cell
     absolute magnetization    =    67.95 Bohr mag/cell

     iteration # 32     ecut=    50.00 Ry     beta= 0.70
     Davidson diagonalization with overlap
     ethr =  7.04E-09,  avg # of iterations =  4.1

     negative rho (up, down):  2.546E-03 1.510E-03

     total cpu time spent up to now is      625.8 secs

     total energy              =   -6056.59772845 Ry
     estimated scf accuracy    <       0.00004110 Ry

     total magnetization       =    60.29 Bohr mag/cell
     absolute magnetization    =    67.94 Bohr mag/cell

     iteration # 33     ecut=    50.00 Ry     beta= 0.70
     Davidson diagonalization with overlap
     ethr =  7.04E-09,  avg # of iterations =  1.6

     negative rho (up, down):  2.527E-03 1.416E-03

     total cpu time spent up to now is      642.8 secs

     total energy              =   -6056.59774532 Ry
     estimated scf accuracy    <       0.00002047 Ry

     total magnetization       =    60.29 Bohr mag/cell
     absolute magnetization    =    67.94 Bohr mag/cell

     iteration # 34     ecut=    50.00 Ry     beta= 0.70
     Davidson diagonalization with overlap
     ethr =  6.11E-09,  avg # of iterations =  1.8

     negative rho (up, down):  2.329E-03 1.216E-03

     total cpu time spent up to now is      661.6 secs

     total energy              =   -6056.59774936 Ry
     estimated scf accuracy    <       0.00006953 Ry

     total magnetization       =    60.29 Bohr mag/cell
     absolute magnetization    =    67.94 Bohr mag/cell

     iteration # 35     ecut=    50.00 Ry     beta= 0.70
     Davidson diagonalization with overlap
     ethr =  6.11E-09,  avg # of iterations =  1.9

     negative rho (up, down):  2.300E-03 1.188E-03

     total cpu time spent up to now is      683.6 secs

     total energy              =   -6056.59775111 Ry
     estimated scf accuracy    <       0.00002605 Ry

     total magnetization       =    60.29 Bohr mag/cell
     absolute magnetization    =    67.94 Bohr mag/cell

     iteration # 36     ecut=    50.00 Ry     beta= 0.70
     Davidson diagonalization with overlap
     ethr =  6.11E-09,  avg # of iterations =  1.1

     negative rho (up, down):  2.229E-03 1.132E-03

     total cpu time spent up to now is      697.2 secs

     total energy              =   -6056.59775437 Ry
     estimated scf accuracy    <       0.00002988 Ry

     total magnetization       =    60.29 Bohr mag/cell
     absolute magnetization    =    67.94 Bohr mag/cell

     iteration # 37     ecut=    50.00 Ry     beta= 0.70
     Davidson diagonalization with overlap
     ethr =  6.11E-09,  avg # of iterations =  1.7

     negative rho (up, down):  2.285E-03 1.184E-03

     total cpu time spent up to now is      718.0 secs

     total energy              =   -6056.59775556 Ry
     estimated scf accuracy    <       0.00000219 Ry

     total magnetization       =    60.29 Bohr mag/cell
     absolute magnetization    =    67.94 Bohr mag/cell

     iteration # 38     ecut=    50.00 Ry     beta= 0.70
     Davidson diagonalization with overlap
     ethr =  6.53E-10,  avg # of iterations =  5.3

     negative rho (up, down):  2.292E-03 1.193E-03

     total cpu time spent up to now is      741.2 secs

     total energy              =   -6056.59775573 Ry
     estimated scf accuracy    <       0.00000338 Ry

     total magnetization       =    60.29 Bohr mag/cell
     absolute magnetization    =    67.94 Bohr mag/cell

     iteration # 39     ecut=    50.00 Ry     beta= 0.70
     Davidson diagonalization with overlap
     ethr =  6.53E-10,  avg # of iterations =  1.8

     negative rho (up, down):  2.280E-03 1.183E-03

     total cpu time spent up to now is      756.2 secs

     total energy              =   -6056.59775585 Ry
     estimated scf accuracy    <       0.00000217 Ry

     total magnetization       =    60.29 Bohr mag/cell
     absolute magnetization    =    67.94 Bohr mag/cell

     iteration # 40     ecut=    50.00 Ry     beta= 0.70
     Davidson diagonalization with overlap
     ethr =  6.48E-10,  avg # of iterations =  1.1

     negative rho (up, down):  2.281E-03 1.186E-03

     total cpu time spent up to now is      776.2 secs

     total energy              =   -6056.59775596 Ry
     estimated scf accuracy    <       0.00000074 Ry

     total magnetization       =    60.29 Bohr mag/cell
     absolute magnetization    =    67.94 Bohr mag/cell

     iteration # 41     ecut=    50.00 Ry     beta= 0.70
     Davidson diagonalization with overlap
     ethr =  2.20E-10,  avg # of iterations =  2.3

     negative rho (up, down):  2.291E-03 1.198E-03

     total cpu time spent up to now is      792.3 secs

     total energy              =   -6056.59775606 Ry
     estimated scf accuracy    <       0.00000010 Ry

     total magnetization       =    60.29 Bohr mag/cell
     absolute magnetization    =    67.94 Bohr mag/cell

     iteration # 42     ecut=    50.00 Ry     beta= 0.70
     Davidson diagonalization with overlap
     ethr =  2.92E-11,  avg # of iterations =  7.6

     negative rho (up, down):  2.286E-03 1.194E-03

     total cpu time spent up to now is      830.5 secs

     total energy              =   -6056.59775609 Ry
     estimated scf accuracy    <       0.00000021 Ry

     total magnetization       =    60.29 Bohr mag/cell
     absolute magnetization    =    67.94 Bohr mag/cell

     iteration # 43     ecut=    50.00 Ry     beta= 0.70
     Davidson diagonalization with overlap
     ethr =  2.92E-11,  avg # of iterations =  1.8

     negative rho (up, down):  2.280E-03 1.187E-03

     total cpu time spent up to now is      849.2 secs

     total energy              =   -6056.59775608 Ry
     estimated scf accuracy    <       0.00000012 Ry

     total magnetization       =    60.29 Bohr mag/cell
     absolute magnetization    =    67.94 Bohr mag/cell

     iteration # 44     ecut=    50.00 Ry     beta= 0.70
     Davidson diagonalization with overlap
     ethr =  2.92E-11,  avg # of iterations =  1.2

     negative rho (up, down):  2.277E-03 1.186E-03

     total cpu time spent up to now is      867.0 secs

     total energy              =   -6056.59775609 Ry
     estimated scf accuracy    <       0.00000005 Ry

     total magnetization       =    60.29 Bohr mag/cell
     absolute magnetization    =    67.94 Bohr mag/cell

     iteration # 45     ecut=    50.00 Ry     beta= 0.70
     Davidson diagonalization with overlap
     ethr =  1.44E-11,  avg # of iterations =  1.7

     negative rho (up, down):  2.273E-03 1.183E-03

     total cpu time spent up to now is      884.2 secs

     total energy              =   -6056.59775610 Ry
     estimated scf accuracy    <       0.00000003 Ry

     total magnetization       =    60.29 Bohr mag/cell
     absolute magnetization    =    67.94 Bohr mag/cell

     iteration # 46     ecut=    50.00 Ry     beta= 0.70
     Davidson diagonalization with overlap
     ethr =  9.90E-12,  avg # of iterations =  2.2

     negative rho (up, down):  2.271E-03 1.181E-03

     total cpu time spent up to now is      903.1 secs

     total energy              =   -6056.59775609 Ry
     estimated scf accuracy    <       0.00000002 Ry

     total magnetization       =    60.29 Bohr mag/cell
     absolute magnetization    =    67.94 Bohr mag/cell

     iteration # 47     ecut=    50.00 Ry     beta= 0.70
     Davidson diagonalization with overlap
     ethr =  5.35E-12,  avg # of iterations =  2.1

     negative rho (up, down):  2.268E-03 1.178E-03

     total cpu time spent up to now is      925.5 secs

     total energy              =   -6056.59775609 Ry
     estimated scf accuracy    <       0.00000001 Ry

     total magnetization       =    60.29 Bohr mag/cell
     absolute magnetization    =    67.94 Bohr mag/cell

     iteration # 48     ecut=    50.00 Ry     beta= 0.70
     Davidson diagonalization with overlap
     ethr =  3.65E-12,  avg # of iterations =  1.7

     negative rho (up, down):  2.266E-03 1.175E-03

     total cpu time spent up to now is      939.8 secs

     total energy              =   -6056.59775609 Ry
     estimated scf accuracy    <       0.00000001 Ry

     total magnetization       =    60.29 Bohr mag/cell
     absolute magnetization    =    67.94 Bohr mag/cell

     iteration # 49     ecut=    50.00 Ry     beta= 0.70
     Davidson diagonalization with overlap
     ethr =  3.53E-12,  avg # of iterations =  1.5

     negative rho (up, down):  2.257E-03 1.167E-03

     Magnetic moment per site  (integrated on atomic sphere of radius R)
     atom   1 (R=0.088)  charge=  5.5455  magn=  1.6265
     atom   2 (R=0.088)  charge=  5.5466  magn=  1.6057
     atom   3 (R=0.088)  charge=  5.5446  magn=  1.6223
     atom   4 (R=0.088)  charge=  5.5439  magn=  1.6249
     atom   5 (R=0.088)  charge=  5.5446  magn=  1.6215
     atom   6 (R=0.088)  charge=  5.5439  magn=  1.6255
     atom   7 (R=0.088)  charge=  5.5456  magn=  1.6311
     atom   8 (R=0.088)  charge=  5.5455  magn=  1.6272
     atom   9 (R=0.088)  charge=  5.5439  magn=  1.6250
     atom  10 (R=0.088)  charge=  5.5416  magn=  1.5638
     atom  11 (R=0.088)  charge=  5.5408  magn=  1.5609
     atom  12 (R=0.088)  charge=  5.5403  magn=  1.5682
     atom  13 (R=0.088)  charge=  5.5409  magn=  1.5610
     atom  14 (R=0.088)  charge=  5.5405  magn=  1.5568
     atom  15 (R=0.088)  charge=  5.5405  magn=  1.5704
     atom  16 (R=0.088)  charge=  5.5403  magn=  1.5686
     atom  17 (R=0.088)  charge=  5.5405  magn=  1.5706
     atom  18 (R=0.088)  charge=  5.5403  magn=  1.5682
     atom  19 (R=0.088)  charge=  5.5411  magn=  1.5314
     atom  20 (R=0.088)  charge=  5.5389  magn=  1.5674
     atom  21 (R=0.088)  charge=  5.5406  magn=  1.5596
     atom  22 (R=0.088)  charge=  5.5401  magn=  1.5531
     atom  23 (R=0.088)  charge=  5.5405  magn=  1.5569
     atom  24 (R=0.088)  charge=  5.5387  magn=  1.5877
     atom  25 (R=0.088)  charge=  5.5405  magn=  1.5632
     atom  26 (R=0.088)  charge=  5.5411  magn=  1.5372
     atom  27 (R=0.088)  charge=  5.5399  magn=  1.5547
     atom  28 (R=0.088)  charge=  5.5466  magn=  1.6604
     atom  29 (R=0.088)  charge=  5.5530  magn=  1.3557
     atom  30 (R=0.088)  charge=  5.5445  magn=  1.6665
     atom  31 (R=0.088)  charge=  5.5531  magn=  1.3203
     atom  32 (R=0.088)  charge=  5.5505  magn=  0.9966
     atom  33 (R=0.088)  charge=  5.5422  magn=  1.5713
     atom  34 (R=0.088)  charge=  5.5440  magn=  1.6650
     atom  35 (R=0.088)  charge=  5.5435  magn=  1.6041
     atom  36 (R=0.088)  charge=  5.5419  magn=  1.6396
     atom  37 (R=0.066)  charge=  1.0577  magn= -0.0229
     atom  38 (R=0.066)  charge=  2.9416  magn= -0.0419
     atom  39 (R=0.088)  charge=  0.7793  magn= -0.0162

     total cpu time spent up to now is      958.4 secs

     End of self-consistent calculation

 ------ SPIN UP ------------


          k = 0.0000 0.0000 0.0000 ( 51087 PWs)   bands (ev):

   -21.8039  -9.2740  -7.6633  -6.4666  -5.7927  -5.5677  -5.3977  -4.9978
    -4.8402  -4.8334  -4.8284  -4.8111  -4.7843  -4.7814  -4.5896  -4.3623
    -4.2988  -4.2967  -4.2792  -4.2464  -4.2387  -4.0589  -3.7804  -3.7792
    -3.7715  -3.7544  -3.7277  -3.6986  -3.6484  -3.6479  -3.6433  -3.6359
    -3.6072  -3.5671  -3.5653  -3.4525  -3.2665  -3.2594  -3.2560  -3.2506
    -3.1960  -3.1950  -3.1847  -3.1836  -3.1805  -3.1690  -3.1653  -3.1100
    -3.0298  -3.0260  -2.9614  -2.9532  -2.9500  -2.9416  -2.9395  -2.9306
    -2.9208  -2.9099  -2.8958  -2.8810  -2.8234  -2.8100  -2.8089  -2.8061
    -2.7359  -2.6020  -2.3204  -2.2791  -2.2778  -2.2757  -2.2730  -2.1762
    -2.1493  -2.1421  -2.1285  -2.1167  -2.1073  -2.1019  -2.0961  -2.0929
    -2.0507  -2.0495  -2.0029  -1.9962  -1.9955  -1.9898  -1.9761  -1.9682
    -1.9640  -1.9553  -1.9527  -1.9483  -1.9391  -1.9242  -1.9196  -1.9102
    -1.9068  -1.9050  -1.9036  -1.9019  -1.8991  -1.8957  -1.8949  -1.8744
    -1.8666  -1.8477  -1.8375  -1.8273  -1.8248  -1.7517  -1.7474  -1.6489
    -1.5469  -1.4636  -1.4539  -1.4527  -1.4495  -1.4382  -1.4134  -1.4117
    -1.4083  -1.4049  -1.3985  -1.3612  -1.3558  -1.2295  -1.2240  -1.2118
    -1.1996  -1.1600  -1.0958  -1.0601  -1.0485  -1.0177  -0.9759  -0.9751
    -0.9661  -0.9594  -0.9554  -0.9485  -0.9143  -0.9006  -0.8326  -0.8214
    -0.7229  -0.7210  -0.7082  -0.7058  -0.6870  -0.6706  -0.6656  -0.6486
    -0.6475  -0.6432  -0.6416  -0.6387  -0.6373  -0.6211  -0.6196  -0.6134
    -0.6078  -0.6038  -0.5894  -0.5803  -0.5754  -0.5622  -0.5579  -0.5560
    -0.5386  -0.5353  -0.5273  -0.5119  -0.5107  -0.5076  -0.5019  -0.4969
    -0.4883  -0.4802  -0.4654  -0.4515  -0.4337  -0.4143  -0.4102  -0.4024
    -0.3950  -0.3921  -0.3884  -0.3838  -0.3679  -0.3318  -0.3287  -0.3208
    -0.3140  -0.3041  -0.2501  -0.2468  -0.2439  -0.2277  -0.2173  -0.1873
     0.4954   0.7445

          k = 0.0000 0.2309 0.0000 ( 51134 PWs)   bands (ev):

   -21.8039  -9.2638  -7.5217  -6.3650  -5.8196  -5.6359  -5.5109  -5.3450
    -5.0725  -5.0372  -4.9143  -4.6259  -4.4943  -4.4839  -4.4605  -4.4171
    -4.3275  -4.2942  -4.2322  -4.1732  -4.1539  -4.0568  -3.8835  -3.7836
    -3.7730  -3.7043  -3.6626  -3.6515  -3.6477  -3.6408  -3.6320  -3.6067
    -3.5972  -3.5420  -3.5220  -3.5003  -3.4958  -3.4189  -3.2837  -3.2731
    -3.2650  -3.2190  -3.2144  -3.2028  -3.1798  -3.1158  -3.0824  -3.0693
    -3.0485  -3.0435  -3.0324  -3.0067  -2.9709  -2.9120  -2.9054  -2.8753
    -2.8405  -2.8325  -2.8088  -2.8046  -2.7757  -2.7398  -2.7385  -2.7225
    -2.6998  -2.5962  -2.3973  -2.3902  -2.3653  -2.3535  -2.3355  -2.2527
    -2.2427  -2.2254  -2.2208  -2.2106  -2.2050  -2.1930  -2.1717  -2.1166
    -2.1114  -2.0934  -2.0755  -2.0378  -2.0369  -2.0269  -2.0182  -2.0071
    -2.0011  -1.9999  -1.9904  -1.9808  -1.9706  -1.9591  -1.9301  -1.8930
    -1.8816  -1.8720  -1.8187  -1.8073  -1.8007  -1.7943  -1.7874  -1.7781
    -1.7734  -1.7671  -1.7565  -1.7521  -1.7432  -1.7183  -1.7101  -1.6974
    -1.6851  -1.6709  -1.6334  -1.5881  -1.5748  -1.4896  -1.4802  -1.4761
    -1.4638  -1.4506  -1.4427  -1.4389  -1.4116  -1.3982  -1.3538  -1.2814
    -1.2538  -1.2045  -1.1850  -1.1741  -1.1603  -1.1104  -1.0949  -1.0795
    -1.0535  -0.9944  -0.9814  -0.9730  -0.9479  -0.9415  -0.9055  -0.8958
    -0.8686  -0.8620  -0.8492  -0.8273  -0.8186  -0.8000  -0.7913  -0.7845
    -0.7255  -0.7163  -0.7115  -0.7049  -0.6836  -0.6715  -0.6462  -0.6376
    -0.6334  -0.6265  -0.6224  -0.6112  -0.5879  -0.5833  -0.5704  -0.5551
    -0.5245  -0.5018  -0.4918  -0.4664  -0.4522  -0.4367  -0.4160  -0.3928
    -0.3837  -0.3746  -0.3700  -0.3590  -0.3435  -0.3329  -0.3237  -0.2874
    -0.2592  -0.2493  -0.2423  -0.2219  -0.2113  -0.1905  -0.1847  -0.1629
    -0.1064  -0.0304   0.1061   0.1343   0.1923   0.2708   0.3943   0.4171
     0.4499   0.7869

          k = 0.0000 0.4619 0.0000 ( 51204 PWs)   bands (ev):

   -21.8039  -9.2475  -7.1046  -6.4547  -6.1024  -5.7683  -5.5487  -5.3698
    -5.2027  -5.1409  -5.0629  -4.7388  -4.3337  -4.3173  -4.2845  -4.2508
    -4.1978  -4.1286  -4.1224  -4.0393  -3.9948  -3.9894  -3.9733  -3.8251
    -3.8123  -3.8081  -3.7954  -3.7934  -3.7269  -3.6922  -3.6828  -3.5665
    -3.5254  -3.5139  -3.4968  -3.4811  -3.4693  -3.4306  -3.3698  -3.3617
    -3.3502  -3.3383  -3.2828  -3.2238  -3.1387  -3.1107  -3.0463  -3.0359
    -3.0113  -2.9885  -2.9663  -2.9498  -2.9409  -2.9365  -2.9107  -2.8606
    -2.8518  -2.8288  -2.7924  -2.7733  -2.6594  -2.6450  -2.6251  -2.5997
    -2.5559  -2.5364  -2.5087  -2.5002  -2.4792  -2.4208  -2.3715  -2.3679
    -2.3624  -2.3507  -2.3426  -2.3228  -2.3068  -2.2985  -2.2757  -2.2570
    -2.2381  -2.2021  -2.1845  -2.1675  -2.1374  -2.1185  -2.0735  -2.0449
    -2.0321  -2.0185  -1.9973  -1.9854  -1.9750  -1.9352  -1.9204  -1.9148
    -1.9050  -1.8925  -1.8812  -1.8612  -1.8482  -1.8422  -1.8392  -1.8125
    -1.7957  -1.7665  -1.7349  -1.7279  -1.6640  -1.6457  -1.6303  -1.6140
    -1.6054  -1.5813  -1.5529  -1.5312  -1.5211  -1.4991  -1.4953  -1.4863
    -1.4839  -1.4739  -1.4624  -1.4530  -1.4490  -1.4401  -1.4233  -1.4176
    -1.4082  -1.3622  -1.2984  -1.2849  -1.2732  -1.2596  -1.2312  -1.2200
    -1.1935  -1.1367  -1.1172  -1.1064  -1.0667  -1.0510  -1.0279  -0.9810
    -0.9762  -0.9574  -0.9343  -0.9188  -0.9031  -0.8729  -0.8510  -0.7879
    -0.7570  -0.7379  -0.7264  -0.7132  -0.7107  -0.7017  -0.6909  -0.6877
    -0.6651  -0.6373  -0.5607  -0.5577  -0.5482  -0.5421  -0.5343  -0.5120
    -0.5016  -0.4939  -0.4765  -0.4726  -0.4572  -0.4327  -0.3806  -0.3644
    -0.3525  -0.3403  -0.3146  -0.2637  -0.2585  -0.2325  -0.2242  -0.1882
    -0.1526  -0.1462  -0.1408  -0.1259  -0.1168  -0.1133  -0.1048  -0.0510
    -0.0119   0.0217   0.4654   0.5766   0.9077   1.0870   1.1203   1.2971
     1.4643   1.5088

          k = 0.2000-0.1155 0.0000 ( 51134 PWs)   bands (ev):

   -21.8039  -9.2635  -7.5219  -6.3654  -5.8236  -5.6339  -5.5098  -5.3468
    -5.0702  -5.0376  -4.9145  -4.6149  -4.4997  -4.4836  -4.4640  -4.4170
    -4.3342  -4.2937  -4.2248  -4.1848  -4.1540  -4.0379  -3.8920  -3.7793
    -3.7709  -3.7046  -3.6649  -3.6522  -3.6480  -3.6419  -3.6352  -3.6082
    -3.5906  -3.5470  -3.5216  -3.5005  -3.4950  -3.4229  -3.2870  -3.2740
    -3.2669  -3.2192  -3.2146  -3.2021  -3.1777  -3.1187  -3.0837  -3.0669
    -3.0479  -3.0423  -3.0337  -3.0061  -2.9677  -2.9122  -2.9056  -2.8775
    -2.8376  -2.8321  -2.8088  -2.8044  -2.7751  -2.7410  -2.7381  -2.7217
    -2.6958  -2.5993  -2.3981  -2.3909  -2.3649  -2.3512  -2.3338  -2.2526
    -2.2429  -2.2261  -2.2215  -2.2118  -2.2034  -2.1914  -2.1680  -2.1157
    -2.1121  -2.0937  -2.0761  -2.0396  -2.0377  -2.0316  -2.0151  -2.0078
    -2.0012  -1.9997  -1.9898  -1.9800  -1.9688  -1.9588  -1.9262  -1.8929
    -1.8813  -1.8702  -1.8198  -1.8072  -1.8013  -1.7937  -1.7882  -1.7807
    -1.7731  -1.7670  -1.7565  -1.7520  -1.7440  -1.7196  -1.7092  -1.6978
    -1.6860  -1.6718  -1.6340  -1.5899  -1.5780  -1.4950  -1.4804  -1.4750
    -1.4615  -1.4530  -1.4425  -1.4387  -1.4141  -1.3898  -1.3436  -1.2832
    -1.2512  -1.2053  -1.1849  -1.1738  -1.1592  -1.1151  -1.0972  -1.0816
    -1.0442  -0.9994  -0.9856  -0.9746  -0.9489  -0.9431  -0.9064  -0.8973
    -0.8674  -0.8620  -0.8459  -0.8256  -0.8187  -0.8015  -0.7928  -0.7826
    -0.7254  -0.7179  -0.7108  -0.7037  -0.6818  -0.6654  -0.6470  -0.6382
    -0.6318  -0.6277  -0.6213  -0.6111  -0.5886  -0.5837  -0.5719  -0.5544
    -0.5224  -0.5002  -0.4902  -0.4658  -0.4532  -0.4402  -0.4137  -0.3938
    -0.3828  -0.3728  -0.3679  -0.3594  -0.3437  -0.3336  -0.3238  -0.2850
    -0.2594  -0.2483  -0.2424  -0.2216  -0.2107  -0.1940  -0.1837  -0.1620
    -0.1088  -0.0298   0.1023   0.1345   0.1797   0.2702   0.3917   0.4149
     0.4520   0.7977

          k = 0.2000 0.1155 0.0000 ( 51134 PWs)   bands (ev):

   -21.8039  -9.2627  -7.5227  -6.3679  -5.8482  -5.6302  -5.4303  -5.4102
    -5.0641  -5.0364  -4.9265  -4.5754  -4.5089  -4.4810  -4.4673  -4.4128
    -4.3398  -4.3121  -4.2232  -4.1911  -4.1561  -4.0167  -3.8958  -3.7846
    -3.7625  -3.6984  -3.6586  -3.6523  -3.6493  -3.6470  -3.6305  -3.6237
    -3.5646  -3.5519  -3.5363  -3.5012  -3.4961  -3.4261  -3.2938  -3.2731
    -3.2687  -3.2195  -3.2187  -3.2033  -3.1748  -3.1168  -3.0872  -3.0620
    -3.0456  -3.0424  -3.0342  -3.0154  -2.9642  -2.9134  -2.9049  -2.8775
    -2.8445  -2.8191  -2.8085  -2.8028  -2.7864  -2.7395  -2.7386  -2.7265
    -2.6720  -2.6016  -2.3996  -2.3856  -2.3637  -2.3515  -2.3379  -2.2520
    -2.2446  -2.2368  -2.2159  -2.2130  -2.2077  -2.1929  -2.1470  -2.1172
    -2.1116  -2.0969  -2.0662  -2.0387  -2.0358  -2.0327  -2.0228  -2.0081
    -2.0007  -1.9991  -1.9927  -1.9807  -1.9658  -1.9541  -1.9387  -1.8888
    -1.8836  -1.8628  -1.8174  -1.8146  -1.8049  -1.7959  -1.7876  -1.7865
    -1.7704  -1.7673  -1.7596  -1.7518  -1.7443  -1.7329  -1.7029  -1.7003
    -1.6829  -1.6807  -1.6296  -1.5953  -1.5833  -1.5109  -1.4833  -1.4692
    -1.4622  -1.4546  -1.4408  -1.4398  -1.4174  -1.3722  -1.2982  -1.2940
    -1.2474  -1.2102  -1.1855  -1.1779  -1.1557  -1.1356  -1.1002  -1.0939
    -1.0299  -0.9979  -0.9896  -0.9658  -0.9502  -0.9465  -0.9067  -0.9010
    -0.8801  -0.8611  -0.8429  -0.8242  -0.8222  -0.8046  -0.7982  -0.7818
    -0.7212  -0.7135  -0.7075  -0.6967  -0.6881  -0.6624  -0.6475  -0.6376
    -0.6359  -0.6247  -0.6223  -0.6011  -0.5933  -0.5838  -0.5777  -0.5581
    -0.5162  -0.4923  -0.4778  -0.4750  -0.4593  -0.4445  -0.4118  -0.3959
    -0.3860  -0.3733  -0.3661  -0.3534  -0.3430  -0.3311  -0.3253  -0.2809
    -0.2492  -0.2466  -0.2410  -0.2210  -0.2120  -0.1773  -0.1673  -0.1579
    -0.1064  -0.0596   0.0992   0.1338   0.1761   0.2613   0.3957   0.4125
     0.4394   0.7418

          k = 0.2000 0.3464 0.0000 ( 51202 PWs)   bands (ev):

   -21.8039  -9.2494  -7.2435  -6.2064  -6.0259  -5.9327  -5.6626  -5.4406
    -5.3540  -4.9268  -4.7428  -4.5937  -4.4949  -4.4792  -4.3181  -4.2720
    -4.2572  -4.1728  -4.1669  -4.0698  -4.0404  -3.9724  -3.8981  -3.8713
    -3.8260  -3.7789  -3.6902  -3.6723  -3.6489  -3.6384  -3.6249  -3.6131
    -3.5883  -3.5835  -3.5390  -3.5195  -3.4776  -3.4465  -3.4423  -3.3786
    -3.2994  -3.2474  -3.2175  -3.1877  -3.1692  -3.1586  -3.0956  -3.0550
    -3.0211  -2.9882  -2.9811  -2.9695  -2.9432  -2.9183  -2.9084  -2.8873
    -2.8711  -2.8420  -2.7638  -2.7138  -2.6904  -2.6720  -2.6554  -2.6337
    -2.6091  -2.5504  -2.5057  -2.4385  -2.4175  -2.3921  -2.3746  -2.3460
    -2.3320  -2.3232  -2.3194  -2.2983  -2.2727  -2.2647  -2.2567  -2.2460
    -2.2343  -2.1885  -2.1672  -2.1182  -2.0731  -2.0625  -2.0428  -2.0259
    -2.0094  -1.9957  -1.9685  -1.9590  -1.9469  -1.9226  -1.9124  -1.9045
    -1.8989  -1.8912  -1.8844  -1.8606  -1.8552  -1.8469  -1.8261  -1.8212
    -1.8032  -1.7780  -1.7558  -1.7249  -1.7191  -1.6819  -1.6746  -1.6705
    -1.6594  -1.6473  -1.6118  -1.5786  -1.5705  -1.5566  -1.5371  -1.5124
    -1.5049  -1.4928  -1.4784  -1.4581  -1.4429  -1.4379  -1.4211  -1.3722
    -1.3557  -1.3382  -1.3165  -1.2388  -1.2131  -1.1891  -1.1752  -1.1022
    -1.0740  -1.0596  -1.0468  -1.0423  -1.0351  -1.0275  -1.0003  -0.9975
    -0.9742  -0.9592  -0.9402  -0.8994  -0.8844  -0.8696  -0.8628  -0.8482
    -0.8222  -0.7989  -0.7866  -0.7773  -0.7657  -0.7486  -0.6271  -0.6131
    -0.5929  -0.5802  -0.5704  -0.5618  -0.5429  -0.5316  -0.5224  -0.5128
    -0.4935  -0.4680  -0.4420  -0.4322  -0.4102  -0.4017  -0.3580  -0.3458
    -0.3380  -0.3323  -0.3291  -0.3051  -0.2920  -0.2858  -0.2798  -0.2643
    -0.2514  -0.1811  -0.1667  -0.1648  -0.1180  -0.1146  -0.0877   0.0415
     0.1722   0.2259   0.2599   0.4062   0.5207   0.6331   0.9699   1.1212
     1.2285   1.4446

          k = 0.2000-0.5774 0.0000 ( 51262 PWs)   bands (ev):

   -21.8039  -9.2420  -6.7282  -6.6781  -6.1140  -5.9677  -5.7070  -5.4914
    -5.2294  -5.1592  -4.8367  -4.5951  -4.4733  -4.2348  -4.1908  -4.0731
    -4.0560  -4.0472  -4.0285  -4.0193  -3.9666  -3.9503  -3.9454  -3.9405
    -3.9186  -3.8579  -3.7969  -3.7863  -3.7681  -3.7633  -3.7022  -3.6165
    -3.6116  -3.5986  -3.5780  -3.5277  -3.4818  -3.4419  -3.3602  -3.3180
    -3.3117  -3.2748  -3.2283  -3.2129  -3.1862  -3.1360  -3.0989  -3.0965
    -3.0520  -3.0324  -2.9958  -2.9354  -2.9050  -2.8750  -2.8637  -2.8199
    -2.8024  -2.7371  -2.7306  -2.7214  -2.7069  -2.6919  -2.6731  -2.6325
    -2.5607  -2.5199  -2.5085  -2.4970  -2.4630  -2.4350  -2.4175  -2.3717
    -2.3677  -2.3285  -2.3156  -2.3109  -2.3002  -2.2799  -2.2610  -2.2552
    -2.2363  -2.2239  -2.2109  -2.1852  -2.1802  -2.1470  -2.1071  -2.0968
    -2.0814  -2.0486  -2.0096  -1.9836  -1.9659  -1.9470  -1.9333  -1.9251
    -1.9065  -1.8948  -1.8859  -1.8781  -1.8614  -1.8397  -1.8345  -1.7898
    -1.7745  -1.7517  -1.7434  -1.7341  -1.7185  -1.7118  -1.7008  -1.6889
    -1.6814  -1.6766  -1.6520  -1.6279  -1.5918  -1.5841  -1.5614  -1.5298
    -1.4930  -1.4850  -1.4594  -1.4375  -1.4232  -1.4128  -1.4081  -1.3766
    -1.3439  -1.3366  -1.3050  -1.2659  -1.2100  -1.1942  -1.1803  -1.1617
    -1.1412  -1.1382  -1.1282  -1.1015  -1.0774  -1.0655  -1.0521  -1.0294
    -0.9871  -0.9759  -0.9611  -0.9435  -0.9268  -0.8852  -0.8773  -0.8612
    -0.8559  -0.8306  -0.8268  -0.8080  -0.7794  -0.7675  -0.7376  -0.5896
    -0.5735  -0.5645  -0.5565  -0.5459  -0.5375  -0.5310  -0.5176  -0.4892
    -0.4788  -0.4682  -0.4553  -0.4439  -0.4050  -0.3576  -0.3366  -0.3266
    -0.3098  -0.3052  -0.2859  -0.2763  -0.2453  -0.2326  -0.2271  -0.2142
    -0.2067  -0.1465  -0.1388  -0.1306  -0.1180  -0.1051  -0.0854  -0.0481
     0.1336   0.2502   0.4929   0.8903   1.0313   1.1631   1.2529   1.5178
     1.6594   1.7204

          k = 0.2000-0.3464 0.0000 ( 51202 PWs)   bands (ev):

   -21.8039  -9.2506  -7.2412  -6.2094  -5.9870  -5.9437  -5.6619  -5.4949
    -5.3302  -4.9108  -4.7037  -4.6644  -4.4921  -4.4758  -4.3086  -4.2733
    -4.2617  -4.1720  -4.1684  -4.0422  -4.0325  -4.0154  -3.9014  -3.8757
    -3.8278  -3.7793  -3.6895  -3.6674  -3.6584  -3.6391  -3.6276  -3.6040
    -3.5901  -3.5837  -3.5349  -3.5197  -3.4804  -3.4421  -3.4288  -3.3848
    -3.3012  -3.2414  -3.2165  -3.1905  -3.1705  -3.1504  -3.0850  -3.0576
    -3.0113  -3.0003  -2.9775  -2.9605  -2.9521  -2.9234  -2.8970  -2.8857
    -2.8737  -2.8379  -2.7550  -2.7328  -2.6940  -2.6796  -2.6500  -2.6359
    -2.6135  -2.5500  -2.5041  -2.4398  -2.4106  -2.3922  -2.3751  -2.3445
    -2.3339  -2.3223  -2.3192  -2.2945  -2.2716  -2.2660  -2.2567  -2.2411
    -2.2337  -2.1927  -2.1637  -2.1491  -2.0757  -2.0615  -2.0413  -2.0220
    -2.0142  -1.9929  -1.9815  -1.9602  -1.9380  -1.9253  -1.9116  -1.9072
    -1.8965  -1.8923  -1.8823  -1.8627  -1.8501  -1.8482  -1.8277  -1.8118
    -1.7999  -1.7936  -1.7647  -1.7225  -1.7216  -1.6879  -1.6754  -1.6645
    -1.6575  -1.6408  -1.5935  -1.5789  -1.5726  -1.5446  -1.5209  -1.5161
    -1.4970  -1.4916  -1.4857  -1.4600  -1.4467  -1.4316  -1.4255  -1.3728
    -1.3570  -1.3230  -1.3071  -1.2462  -1.2037  -1.1882  -1.1669  -1.0954
    -1.0806  -1.0642  -1.0519  -1.0455  -1.0367  -1.0279  -1.0059  -0.9834
    -0.9822  -0.9638  -0.9448  -0.8997  -0.8878  -0.8736  -0.8552  -0.8480
    -0.8217  -0.7998  -0.7819  -0.7774  -0.7623  -0.7537  -0.6280  -0.6214
    -0.5991  -0.5790  -0.5725  -0.5565  -0.5386  -0.5335  -0.5307  -0.5070
    -0.4950  -0.4692  -0.4436  -0.4235  -0.4107  -0.4035  -0.3625  -0.3439
    -0.3369  -0.3340  -0.3288  -0.3051  -0.2932  -0.2872  -0.2758  -0.2662
    -0.2554  -0.1821  -0.1706  -0.1640  -0.1214  -0.1168  -0.0992   0.0588
     0.1371   0.2248   0.2444   0.4601   0.5028   0.6334   0.9972   1.1253
     1.2271   1.4022

          k = 0.4000-0.2309 0.0000 ( 51204 PWs)   bands (ev):

   -21.8039  -9.2467  -7.1054  -6.4548  -6.1034  -5.7840  -5.5364  -5.3700
    -5.2006  -5.1387  -5.0581  -4.7443  -4.3413  -4.3175  -4.2835  -4.2460
    -4.1960  -4.1282  -4.1232  -4.0290  -3.9944  -3.9885  -3.9644  -3.8277
    -3.8124  -3.8056  -3.7954  -3.7925  -3.7234  -3.6925  -3.6824  -3.5905
    -3.5261  -3.5162  -3.4974  -3.4819  -3.4664  -3.4355  -3.3704  -3.3615
    -3.3510  -3.3387  -3.2963  -3.2253  -3.1379  -3.1097  -3.0448  -3.0332
    -3.0106  -2.9852  -2.9670  -2.9494  -2.9435  -2.9316  -2.9146  -2.8614
    -2.8533  -2.8298  -2.7881  -2.7667  -2.6601  -2.6428  -2.6218  -2.5976
    -2.5557  -2.5362  -2.5086  -2.5006  -2.4794  -2.4219  -2.3719  -2.3678
    -2.3637  -2.3499  -2.3420  -2.3221  -2.3066  -2.2988  -2.2762  -2.2531
    -2.2366  -2.2030  -2.1858  -2.1665  -2.1359  -2.1214  -2.0745  -2.0483
    -2.0323  -2.0194  -2.0035  -1.9762  -1.9747  -1.9348  -1.9211  -1.9142
    -1.9027  -1.8895  -1.8808  -1.8610  -1.8490  -1.8444  -1.8408  -1.8074
    -1.7934  -1.7636  -1.7343  -1.7292  -1.6667  -1.6461  -1.6301  -1.6127
    -1.6000  -1.5809  -1.5559  -1.5301  -1.5203  -1.4999  -1.4970  -1.4863
    -1.4816  -1.4726  -1.4623  -1.4551  -1.4456  -1.4414  -1.4214  -1.4149
    -1.4053  -1.3666  -1.3043  -1.2831  -1.2715  -1.2611  -1.2327  -1.2177
    -1.1927  -1.1393  -1.1175  -1.1072  -1.0701  -1.0498  -1.0284  -0.9900
    -0.9792  -0.9564  -0.9374  -0.9196  -0.9031  -0.8694  -0.8475  -0.7950
    -0.7592  -0.7371  -0.7231  -0.7118  -0.7102  -0.6999  -0.6911  -0.6833
    -0.6640  -0.6384  -0.5620  -0.5551  -0.5486  -0.5413  -0.5338  -0.5097
    -0.4997  -0.4873  -0.4773  -0.4717  -0.4581  -0.4332  -0.3789  -0.3643
    -0.3517  -0.3388  -0.3117  -0.2644  -0.2585  -0.2321  -0.2232  -0.1883
    -0.1512  -0.1467  -0.1403  -0.1238  -0.1172  -0.1131  -0.1037  -0.0505
    -0.0118   0.0191   0.4466   0.5796   0.9139   1.0810   1.1187   1.2720
     1.4684   1.5057

          k = 0.4000 0.0000 0.0000 ( 51202 PWs)   bands (ev):

   -21.8039  -9.2489  -7.2439  -6.2052  -6.0333  -5.9312  -5.6628  -5.4324
    -5.3597  -4.9183  -4.7540  -4.5869  -4.4954  -4.4812  -4.3187  -4.2726
    -4.2543  -4.1726  -4.1671  -4.0807  -4.0400  -3.9476  -3.8996  -3.8721
    -3.8253  -3.7799  -3.6906  -3.6770  -3.6447  -3.6400  -3.6272  -3.6113
    -3.5888  -3.5830  -3.5451  -3.5233  -3.4768  -3.4499  -3.4441  -3.3819
    -3.3000  -3.2565  -3.2171  -3.1844  -3.1691  -3.1585  -3.0989  -3.0559
    -3.0217  -2.9868  -2.9769  -2.9717  -2.9412  -2.9195  -2.9023  -2.8891
    -2.8726  -2.8420  -2.7646  -2.7062  -2.6906  -2.6702  -2.6529  -2.6331
    -2.6108  -2.5492  -2.5060  -2.4389  -2.4145  -2.3920  -2.3755  -2.3477
    -2.3316  -2.3228  -2.3199  -2.2996  -2.2725  -2.2643  -2.2572  -2.2473
    -2.2294  -2.1890  -2.1688  -2.1172  -2.0735  -2.0611  -2.0460  -2.0260
    -2.0106  -1.9971  -1.9632  -1.9578  -1.9479  -1.9222  -1.9123  -1.9030
    -1.8951  -1.8912  -1.8838  -1.8606  -1.8566  -1.8464  -1.8267  -1.8229
    -1.8005  -1.7765  -1.7502  -1.7257  -1.7188  -1.6847  -1.6747  -1.6691
    -1.6569  -1.6435  -1.6141  -1.5805  -1.5693  -1.5578  -1.5354  -1.5128
    -1.5055  -1.4937  -1.4784  -1.4605  -1.4436  -1.4396  -1.4263  -1.3723
    -1.3553  -1.3404  -1.3222  -1.2330  -1.2127  -1.1887  -1.1774  -1.1037
    -1.0718  -1.0603  -1.0478  -1.0451  -1.0357  -1.0266  -1.0016  -0.9995
    -0.9741  -0.9568  -0.9398  -0.8997  -0.8820  -0.8668  -0.8620  -0.8473
    -0.8191  -0.7996  -0.7885  -0.7811  -0.7674  -0.7484  -0.6274  -0.6142
    -0.5877  -0.5795  -0.5704  -0.5617  -0.5433  -0.5301  -0.5226  -0.5146
    -0.4955  -0.4658  -0.4447  -0.4315  -0.4100  -0.3998  -0.3559  -0.3441
    -0.3385  -0.3314  -0.3288  -0.3054  -0.2929  -0.2866  -0.2793  -0.2627
    -0.2515  -0.1799  -0.1669  -0.1651  -0.1186  -0.1155  -0.0876   0.0411
     0.1881   0.2259   0.2650   0.3884   0.5270   0.6308   0.9457   1.1226
     1.2263   1.4406

          k = 0.4000 0.2309 0.0000 ( 51204 PWs)   bands (ev):

   -21.8039  -9.2448  -7.1092  -6.4594  -6.1111  -5.8278  -5.4445  -5.4070
    -5.1990  -5.1385  -5.0446  -4.7566  -4.3476  -4.3070  -4.3025  -4.2452
    -4.1884  -4.1295  -4.1240  -4.0131  -3.9941  -3.9902  -3.9065  -3.8381
    -3.8118  -3.8002  -3.7959  -3.7922  -3.7009  -3.6899  -3.6766  -3.6438
    -3.5296  -3.5240  -3.5094  -3.4805  -3.4775  -3.4309  -3.3722  -3.3631
    -3.3515  -3.3421  -3.2984  -3.2227  -3.1401  -3.0997  -3.0464  -3.0203
    -3.0170  -2.9792  -2.9702  -2.9652  -2.9533  -2.9238  -2.8993  -2.8649
    -2.8554  -2.8326  -2.7973  -2.7479  -2.6535  -2.6365  -2.6314  -2.5925
    -2.5605  -2.5311  -2.5109  -2.5073  -2.4922  -2.4235  -2.3752  -2.3682
    -2.3626  -2.3531  -2.3373  -2.3208  -2.3050  -2.3013  -2.2776  -2.2410
    -2.2232  -2.2059  -2.1932  -2.1773  -2.1287  -2.1170  -2.0643  -2.0517
    -2.0314  -2.0244  -2.0070  -1.9931  -1.9662  -1.9296  -1.9238  -1.9182
    -1.9027  -1.8897  -1.8709  -1.8610  -1.8583  -1.8443  -1.8412  -1.8106
    -1.7933  -1.7707  -1.7343  -1.7331  -1.6702  -1.6497  -1.6298  -1.6130
    -1.5829  -1.5785  -1.5466  -1.5248  -1.5214  -1.5040  -1.4935  -1.4887
    -1.4819  -1.4811  -1.4617  -1.4562  -1.4448  -1.4418  -1.4155  -1.4092
    -1.3854  -1.3755  -1.3340  -1.2852  -1.2681  -1.2569  -1.2320  -1.2199
    -1.1891  -1.1397  -1.1195  -1.1056  -1.1009  -1.0493  -1.0441  -1.0069
    -0.9806  -0.9500  -0.9338  -0.9266  -0.8976  -0.8658  -0.8405  -0.8066
    -0.7338  -0.7321  -0.7221  -0.7156  -0.7078  -0.6962  -0.6852  -0.6743
    -0.6666  -0.6566  -0.5616  -0.5580  -0.5409  -0.5400  -0.5308  -0.5050
    -0.5000  -0.4879  -0.4808  -0.4674  -0.4530  -0.4330  -0.3767  -0.3589
    -0.3540  -0.3399  -0.3011  -0.2618  -0.2586  -0.2240  -0.2232  -0.1879
    -0.1591  -0.1414  -0.1401  -0.1185  -0.1149  -0.1121  -0.0856  -0.0664
    -0.0115   0.0216   0.4099   0.6865   0.8459   1.0259   1.1229   1.1938
     1.4704   1.5546

          k = 0.4000-0.6928 0.0000 ( 51262 PWs)   bands (ev):

   -21.8039  -9.2403  -6.7462  -6.6675  -6.1205  -5.9147  -5.8267  -5.4071
    -5.2008  -5.1547  -4.8907  -4.5985  -4.4702  -4.2308  -4.1896  -4.0599
    -4.0560  -4.0332  -4.0253  -3.9979  -3.9707  -3.9492  -3.9411  -3.9353
    -3.9236  -3.8107  -3.8000  -3.7881  -3.7753  -3.7591  -3.7240  -3.6267
    -3.6118  -3.6000  -3.5855  -3.5672  -3.4983  -3.4398  -3.3517  -3.3189
    -3.3149  -3.2743  -3.2203  -3.2125  -3.1847  -3.1337  -3.1015  -3.0979
    -3.0766  -3.0185  -3.0032  -2.9340  -2.9002  -2.8737  -2.8635  -2.8128
    -2.7963  -2.7371  -2.7317  -2.7233  -2.7063  -2.7008  -2.6537  -2.6388
    -2.5538  -2.5185  -2.5102  -2.4920  -2.4787  -2.4444  -2.4253  -2.3701
    -2.3638  -2.3318  -2.3228  -2.3027  -2.2976  -2.2750  -2.2615  -2.2414
    -2.2326  -2.2204  -2.1923  -2.1884  -2.1748  -2.1703  -2.1088  -2.0983
    -2.0854  -2.0540  -2.0152  -1.9801  -1.9652  -1.9472  -1.9320  -1.9231
    -1.9035  -1.8969  -1.8944  -1.8680  -1.8535  -1.8499  -1.8308  -1.7741
    -1.7566  -1.7521  -1.7387  -1.7211  -1.7166  -1.7137  -1.6991  -1.6915
    -1.6873  -1.6833  -1.6603  -1.6433  -1.5862  -1.5828  -1.5707  -1.5283
    -1.5015  -1.4855  -1.4643  -1.4330  -1.4250  -1.4155  -1.4030  -1.3930
    -1.3410  -1.3380  -1.3028  -1.2627  -1.2064  -1.2020  -1.1872  -1.1631
    -1.1398  -1.1348  -1.1201  -1.1096  -1.0925  -1.0709  -1.0429  -1.0157
    -0.9882  -0.9801  -0.9577  -0.9413  -0.9294  -0.8945  -0.8788  -0.8740
    -0.8492  -0.8326  -0.8228  -0.8013  -0.7753  -0.7663  -0.7414  -0.5819
    -0.5720  -0.5687  -0.5572  -0.5449  -0.5432  -0.5252  -0.5178  -0.4836
    -0.4789  -0.4692  -0.4589  -0.4411  -0.3976  -0.3436  -0.3365  -0.3183
    -0.3126  -0.3042  -0.2898  -0.2520  -0.2458  -0.2346  -0.2262  -0.2144
    -0.2097  -0.1858  -0.1378  -0.1302  -0.1165  -0.1076  -0.0856  -0.0456
     0.1551   0.2615   0.5603   0.7981   0.9956   1.1645   1.2248   1.5698
     1.6739   1.7114

          k = 0.4000-0.4619 0.0000 ( 51262 PWs)   bands (ev):

   -21.8039  -9.2415  -6.7329  -6.6740  -6.1172  -5.9605  -5.7299  -5.4713
    -5.2260  -5.1588  -4.8448  -4.5970  -4.4712  -4.2330  -4.1918  -4.0667
    -4.0558  -4.0457  -4.0292  -4.0170  -3.9639  -3.9502  -3.9437  -3.9399
    -3.9208  -3.8523  -3.7974  -3.7864  -3.7697  -3.7617  -3.7034  -3.6180
    -3.6117  -3.5986  -3.5778  -3.5406  -3.4916  -3.4432  -3.3566  -3.3181
    -3.3114  -3.2803  -3.2281  -3.2125  -3.1857  -3.1352  -3.1000  -3.0957
    -3.0573  -3.0321  -2.9927  -2.9348  -2.9043  -2.8778  -2.8606  -2.8192
    -2.7988  -2.7369  -2.7317  -2.7227  -2.7071  -2.6920  -2.6725  -2.6233
    -2.5600  -2.5187  -2.5079  -2.4986  -2.4635  -2.4359  -2.4197  -2.3718
    -2.3686  -2.3291  -2.3158  -2.3107  -2.2975  -2.2776  -2.2632  -2.2523
    -2.2348  -2.2240  -2.2113  -2.1854  -2.1799  -2.1443  -2.1079  -2.0968
    -2.0825  -2.0568  -2.0106  -1.9835  -1.9633  -1.9443  -1.9335  -1.9253
    -1.9060  -1.8938  -1.8839  -1.8788  -1.8603  -1.8394  -1.8338  -1.7814
    -1.7741  -1.7505  -1.7420  -1.7348  -1.7182  -1.7123  -1.7018  -1.6886
    -1.6843  -1.6756  -1.6519  -1.6325  -1.5940  -1.5820  -1.5636  -1.5251
    -1.4936  -1.4867  -1.4673  -1.4352  -1.4231  -1.4120  -1.4087  -1.3765
    -1.3421  -1.3376  -1.3082  -1.2592  -1.2085  -1.1948  -1.1814  -1.1637
    -1.1389  -1.1359  -1.1301  -1.1013  -1.0783  -1.0673  -1.0527  -1.0278
    -0.9861  -0.9802  -0.9616  -0.9437  -0.9263  -0.8842  -0.8754  -0.8613
    -0.8588  -0.8307  -0.8247  -0.8078  -0.7824  -0.7654  -0.7402  -0.5894
    -0.5714  -0.5640  -0.5549  -0.5466  -0.5370  -0.5317  -0.5180  -0.4873
    -0.4804  -0.4688  -0.4574  -0.4421  -0.4019  -0.3539  -0.3382  -0.3252
    -0.3119  -0.3045  -0.2850  -0.2735  -0.2455  -0.2325  -0.2270  -0.2134
    -0.2054  -0.1541  -0.1382  -0.1308  -0.1178  -0.1049  -0.0854  -0.0495
     0.1362   0.2538   0.5006   0.9032   0.9915   1.1668   1.2428   1.5336
     1.6565   1.7190

 ------ SPIN DOWN ----------


          k = 0.0000 0.0000 0.0000 ( 51087 PWs)   bands (ev):

   -21.8957  -9.3634  -7.7993  -6.5483  -5.7830  -5.5839  -5.4372  -4.8772
    -4.6483  -4.6393  -4.6376  -4.6008  -4.5939  -4.5748  -4.1548  -3.7692
    -3.7660  -3.7501  -3.7235  -3.7189  -3.6577  -3.3138  -2.8269  -2.8238
    -2.8099  -2.8026  -2.7251  -2.6008  -2.3592  -2.3527  -2.3449  -2.3436
    -2.3164  -2.2298  -2.1544  -2.1537  -2.0839  -2.0569  -2.0562  -2.0551
    -1.9696  -1.9678  -1.9204  -1.9190  -1.8361  -1.8266  -1.8125  -1.8068
    -1.7606  -1.7468  -1.5582  -1.5507  -1.5481  -1.5440  -1.5310  -1.5293
    -1.5157  -1.5146  -1.4859  -1.4770  -1.4445  -1.4395  -1.4361  -1.4322
    -1.3636  -1.2761  -0.8972  -0.8778  -0.8652  -0.8612  -0.8237  -0.7664
    -0.6646  -0.6461  -0.5565  -0.5510  -0.5389  -0.5334  -0.5226  -0.5030
    -0.4777  -0.4757  -0.4578  -0.4537  -0.4416  -0.4411  -0.3907  -0.3754
    -0.3561  -0.3377  -0.3328  -0.3112  -0.3015  -0.2969  -0.2936  -0.2791
    -0.2746  -0.2707  -0.2610  -0.2530  -0.2521  -0.2443  -0.2147  -0.1738
    -0.1658  -0.1304  -0.1048  -0.0557  -0.0465  -0.0365  -0.0308  -0.0232
    -0.0188  -0.0171  -0.0147   0.0481   0.0588   0.0595   0.1068   0.1373
     0.1431   0.1472   0.1625   0.1990   0.3061   0.3395   0.3847   0.3905
     0.4466   0.4555   0.4602   0.4652   0.6159   0.6843   0.6961   0.7881
     0.7952   0.8838   0.9080   0.9990   1.0153   1.0218   1.0294   1.0317
     1.1102   1.1176   1.1778   1.1992   1.2008   1.2074   1.2117   1.2386
     1.2532   1.2563   1.2699   1.2860   1.3005   1.3136   1.3250   1.3392
     1.3495   1.3569   1.3610   1.3670   1.3780   1.4191   1.4229   1.4268
     1.4387   1.4495   1.4585   1.4720   1.4843   1.4905   1.4946   1.5285
     1.5344   1.5494   1.5538   1.5543   1.5663   1.5725   1.5768   1.6144
     1.6197   1.6232   1.6256   1.6297   1.6359   1.6434   1.6554   1.6575
     1.6649   1.7052   1.7059   1.8503   1.8528   1.8554   1.8610   1.8615
     1.8660   2.0449

          k = 0.0000 0.2309 0.0000 ( 51134 PWs)   bands (ev):

   -21.8957  -9.3533  -7.6571  -6.4411  -5.8428  -5.6473  -5.5375  -5.3795
    -5.0193  -4.9826  -4.7684  -4.4476  -4.1165  -4.0851  -4.0563  -3.9406
    -3.8444  -3.7736  -3.4632  -3.4034  -3.3702  -3.2623  -2.9508  -2.8094
    -2.7825  -2.7390  -2.6853  -2.6172  -2.4504  -2.3868  -2.3794  -2.3637
    -2.3372  -2.3012  -2.2977  -2.2883  -2.2382  -2.2055  -2.1164  -2.1141
    -2.0261  -2.0230  -1.9659  -1.8643  -1.8435  -1.8320  -1.8179  -1.7174
    -1.6842  -1.6640  -1.6147  -1.5869  -1.5673  -1.5492  -1.5351  -1.5307
    -1.5175  -1.5020  -1.4256  -1.4058  -1.3984  -1.3793  -1.3438  -1.2966
    -1.2575  -1.1634  -0.9770  -0.9376  -0.9145  -0.9117  -0.8447  -0.8047
    -0.7584  -0.7310  -0.6937  -0.6643  -0.6394  -0.5905  -0.5644  -0.5558
    -0.5219  -0.5122  -0.4964  -0.4916  -0.4810  -0.4584  -0.4345  -0.3931
    -0.3593  -0.3325  -0.3287  -0.3165  -0.3133  -0.2896  -0.2668  -0.2592
    -0.2499  -0.2423  -0.2372  -0.2310  -0.2281  -0.2271  -0.2015  -0.1755
    -0.1535  -0.1444  -0.1284  -0.1191  -0.1073  -0.0937  -0.0675  -0.0459
    -0.0375  -0.0142   0.0147   0.0508   0.0806   0.0954   0.1085   0.1262
     0.2375   0.2635   0.2764   0.3172   0.3533   0.3572   0.3887   0.4123
     0.4220   0.4302   0.4389   0.4432   0.6125   0.6616   0.7238   0.7668
     0.7772   0.7871   0.7985   0.8118   0.8626   0.8819   0.9122   0.9502
     1.0088   1.0132   1.0303   1.0684   1.0833   1.1041   1.1289   1.1657
     1.1915   1.2169   1.2393   1.2460   1.2611   1.2726   1.3122   1.3193
     1.3315   1.3608   1.3940   1.4077   1.4254   1.4352   1.4599   1.4702
     1.5015   1.5153   1.5170   1.5223   1.5460   1.5967   1.6024   1.6087
     1.6193   1.6414   1.6449   1.6770   1.6825   1.6940   1.6990   1.7016
     1.7210   1.7661   1.7727   1.7851   1.7873   1.7978   1.8074   1.8230
     1.8440   1.8482   1.8547   1.8888   1.9417   1.9579   1.9603   2.0176
     2.0410   2.1008

          k = 0.0000 0.4619 0.0000 ( 51204 PWs)   bands (ev):

   -21.8957  -9.3372  -7.2348  -6.5607  -6.1583  -5.7952  -5.5953  -5.4019
    -5.2203  -5.1499  -5.0592  -4.5754  -4.1159  -4.0331  -3.8133  -3.4745
    -3.4650  -3.3973  -3.3441  -3.1695  -3.0761  -3.0230  -2.9971  -2.8728
    -2.8651  -2.8001  -2.7569  -2.7164  -2.6495  -2.6284  -2.6162  -2.5644
    -2.5472  -2.4093  -2.3455  -2.3267  -2.2528  -2.2292  -2.1342  -2.1307
    -2.1167  -2.0914  -2.0628  -1.8413  -1.8220  -1.8087  -1.7799  -1.7498
    -1.6133  -1.6052  -1.5931  -1.5748  -1.5665  -1.5410  -1.5378  -1.5097
    -1.5040  -1.4299  -1.4251  -1.4042  -1.3840  -1.3644  -1.2175  -1.1905
    -1.0855  -1.0505  -0.9681  -0.9403  -0.9340  -0.8987  -0.8820  -0.8692
    -0.8545  -0.8283  -0.8028  -0.7814  -0.7341  -0.7068  -0.6849  -0.6478
    -0.6311  -0.6198  -0.5925  -0.5824  -0.5469  -0.5196  -0.4819  -0.4115
    -0.4064  -0.3895  -0.3689  -0.3375  -0.3127  -0.2992  -0.2717  -0.2512
    -0.2207  -0.2176  -0.2032  -0.1879  -0.1761  -0.1717  -0.1420  -0.1323
    -0.1118  -0.0994  -0.0883  -0.0717  -0.0646  -0.0575  -0.0459  -0.0213
    -0.0107   0.0150   0.0682   0.1063   0.1293   0.1369   0.1523   0.1936
     0.2008   0.2101   0.2346   0.2724   0.2875   0.3065   0.3259   0.3322
     0.3809   0.3930   0.3978   0.4144   0.4514   0.5366   0.5794   0.5889
     0.6544   0.6713   0.6926   0.7542   0.8039   0.8393   0.8614   0.8783
     0.9022   0.9179   0.9318   0.9596   0.9802   1.0636   1.1483   1.1612
     1.1718   1.1890   1.2272   1.2386   1.2708   1.2949   1.3121   1.3343
     1.3592   1.3739   1.3832   1.4457   1.4674   1.4760   1.5174   1.5285
     1.5379   1.5450   1.5642   1.5746   1.5987   1.6136   1.6216   1.6505
     1.6576   1.7059   1.7461   1.7583   1.7740   1.7856   1.7950   1.8188
     1.8227   1.8492   1.8532   1.8652   1.8838   1.8896   1.8968   1.9030
     1.9450   2.0040   2.0412   2.1102   2.1190   2.1982   2.5372   2.5999
     2.6419   2.6850

          k = 0.2000-0.1155 0.0000 ( 51134 PWs)   bands (ev):

   -21.8957  -9.3530  -7.6573  -6.4416  -5.8478  -5.6448  -5.5331  -5.3835
    -5.0153  -4.9848  -4.7698  -4.4319  -4.1394  -4.0851  -4.0611  -3.9393
    -3.8272  -3.7798  -3.4694  -3.4038  -3.3475  -3.2644  -2.9662  -2.8066
    -2.7769  -2.7484  -2.6855  -2.6073  -2.4574  -2.3862  -2.3792  -2.3685
    -2.3358  -2.3034  -2.2980  -2.2903  -2.2389  -2.2007  -2.1159  -2.1141
    -2.0262  -2.0234  -1.9700  -1.8634  -1.8439  -1.8310  -1.8108  -1.7162
    -1.6852  -1.6638  -1.6157  -1.5865  -1.5659  -1.5505  -1.5353  -1.5310
    -1.5135  -1.5020  -1.4265  -1.4060  -1.3977  -1.3772  -1.3450  -1.2980
    -1.2569  -1.1660  -0.9763  -0.9338  -0.9148  -0.9123  -0.8440  -0.8028
    -0.7663  -0.7291  -0.6932  -0.6634  -0.6391  -0.5914  -0.5638  -0.5559
    -0.5200  -0.5129  -0.4961  -0.4884  -0.4812  -0.4592  -0.4409  -0.3953
    -0.3507  -0.3327  -0.3265  -0.3230  -0.3134  -0.2872  -0.2683  -0.2610
    -0.2504  -0.2412  -0.2369  -0.2305  -0.2282  -0.2267  -0.2016  -0.1758
    -0.1524  -0.1441  -0.1275  -0.1183  -0.1097  -0.0972  -0.0670  -0.0472
    -0.0349  -0.0139   0.0172   0.0521   0.0790   0.0957   0.1079   0.1266
     0.2392   0.2627   0.2765   0.3178   0.3499   0.3592   0.3844   0.4118
     0.4203   0.4312   0.4393   0.4439   0.6089   0.6683   0.7190   0.7664
     0.7771   0.7886   0.7994   0.8126   0.8565   0.8841   0.9117   0.9509
     1.0085   1.0146   1.0279   1.0730   1.0845   1.1086   1.1294   1.1574
     1.1922   1.2143   1.2411   1.2470   1.2598   1.2751   1.3122   1.3198
     1.3333   1.3572   1.3927   1.4089   1.4272   1.4345   1.4617   1.4723
     1.5031   1.5145   1.5185   1.5232   1.5446   1.5940   1.6020   1.6085
     1.6176   1.6406   1.6456   1.6774   1.6832   1.6931   1.6992   1.7030
     1.7206   1.7661   1.7731   1.7858   1.7879   1.7978   1.8084   1.8229
     1.8431   1.8480   1.8546   1.8859   1.9415   1.9574   1.9610   2.0196
     2.0401   2.0955

          k = 0.2000 0.1155 0.0000 ( 51134 PWs)   bands (ev):

   -21.8957  -9.3523  -7.6581  -6.4446  -5.8740  -5.6347  -5.4584  -5.4420
    -5.0093  -4.9854  -4.7906  -4.3594  -4.1741  -4.0862  -4.0651  -3.9743
    -3.8096  -3.7805  -3.4771  -3.4116  -3.3150  -3.2439  -2.9849  -2.8317
    -2.7796  -2.7257  -2.7149  -2.5741  -2.4669  -2.3872  -2.3786  -2.3587
    -2.3460  -2.3101  -2.2973  -2.2961  -2.2558  -2.1797  -2.1158  -2.1116
    -2.0254  -2.0246  -1.9672  -1.8700  -1.8361  -1.8265  -1.8142  -1.7087
    -1.6893  -1.6645  -1.6087  -1.5965  -1.5733  -1.5492  -1.5298  -1.5293
    -1.5272  -1.4701  -1.4463  -1.4055  -1.3920  -1.3794  -1.3411  -1.3047
    -1.2415  -1.1760  -0.9792  -0.9396  -0.9172  -0.9066  -0.8357  -0.8117
    -0.7967  -0.6944  -0.6853  -0.6801  -0.6478  -0.5902  -0.5732  -0.5486
    -0.5263  -0.5074  -0.5005  -0.4841  -0.4804  -0.4556  -0.4523  -0.3864
    -0.3477  -0.3370  -0.3300  -0.3211  -0.3081  -0.2750  -0.2713  -0.2571
    -0.2543  -0.2407  -0.2394  -0.2342  -0.2302  -0.2266  -0.1903  -0.1808
    -0.1567  -0.1455  -0.1256  -0.1240  -0.1102  -0.0874  -0.0663  -0.0568
    -0.0327  -0.0160   0.0323   0.0666   0.0700   0.0885   0.0953   0.1259
     0.2120   0.2771   0.3018   0.3105   0.3511   0.3650   0.3761   0.4088
     0.4211   0.4291   0.4420   0.4440   0.6509   0.6593   0.6938   0.7634
     0.7823   0.7834   0.8085   0.8152   0.8549   0.8920   0.8965   0.9570
     0.9607   1.0235   1.0475   1.0718   1.0793   1.1177   1.1338   1.1403
     1.1835   1.2311   1.2387   1.2544   1.2679   1.2733   1.3129   1.3173
     1.3316   1.3648   1.3967   1.4184   1.4245   1.4349   1.4578   1.4709
     1.4930   1.5158   1.5205   1.5320   1.5387   1.5914   1.5928   1.6067
     1.6212   1.6403   1.6468   1.6787   1.6888   1.6931   1.6993   1.7011
     1.7223   1.7661   1.7740   1.7849   1.7863   1.7985   1.8074   1.8223
     1.8456   1.8499   1.8533   1.8670   1.9406   1.9556   1.9619   2.0130
     2.0458   2.0892

          k = 0.2000 0.3464 0.0000 ( 51202 PWs)   bands (ev):

   -21.8957  -9.3391  -7.3761  -6.2680  -6.0984  -6.0156  -5.6747  -5.4752
    -5.3951  -4.8710  -4.6700  -4.4178  -4.2714  -4.2634  -3.8669  -3.4498
    -3.4369  -3.4341  -3.4177  -3.2824  -3.1634  -3.1397  -3.1146  -2.9124
    -2.7699  -2.6924  -2.6860  -2.6673  -2.5983  -2.5735  -2.5605  -2.4864
    -2.4777  -2.4668  -2.4331  -2.3298  -2.3134  -2.2531  -2.0976  -2.0838
    -2.0600  -2.0012  -1.9804  -1.9581  -1.9374  -1.8050  -1.7502  -1.7391
    -1.6314  -1.6229  -1.5748  -1.5719  -1.5611  -1.5462  -1.5331  -1.5129
    -1.4920  -1.4858  -1.4309  -1.3901  -1.3534  -1.3096  -1.2073  -1.1739
    -1.1152  -1.0769  -0.9999  -0.9602  -0.9041  -0.8791  -0.8690  -0.8457
    -0.8195  -0.7852  -0.7713  -0.7361  -0.7073  -0.6953  -0.6831  -0.6581
    -0.6421  -0.6227  -0.6094  -0.5781  -0.5523  -0.4787  -0.4436  -0.4298
    -0.4182  -0.3890  -0.3666  -0.3529  -0.3299  -0.3078  -0.2951  -0.2866
    -0.2666  -0.2532  -0.2427  -0.2204  -0.2105  -0.1943  -0.1702  -0.1441
    -0.1294  -0.1208  -0.1123  -0.0977  -0.0890  -0.0836  -0.0667  -0.0527
     0.0167   0.0328   0.0377   0.0566   0.1484   0.1655   0.1884   0.2191
     0.2354   0.2691   0.2866   0.2970   0.3280   0.3552   0.3668   0.3746
     0.3809   0.4123   0.4438   0.4678   0.5175   0.5923   0.6324   0.6723
     0.7256   0.7561   0.7950   0.8174   0.8243   0.8382   0.8525   0.8713
     0.8838   0.8999   0.9110   0.9298   0.9682   1.0275   1.0577   1.0897
     1.1125   1.1334   1.1485   1.1695   1.1818   1.2354   1.2473   1.2909
     1.3290   1.3975   1.4263   1.4782   1.4949   1.5081   1.5216   1.5356
     1.5522   1.5561   1.5809   1.5879   1.6450   1.6618   1.6623   1.6685
     1.6850   1.7150   1.7257   1.7396   1.7441   1.7633   1.7708   1.7956
     1.8018   1.8091   1.8184   1.8292   1.8437   1.8580   1.8976   1.9277
     1.9385   1.9714   2.0297   2.0666   2.1698   2.2077   2.3133   2.4875
     2.5249   2.5367

          k = 0.2000-0.5774 0.0000 ( 51262 PWs)   bands (ev):

   -21.8957  -9.3318  -6.8462  -6.7999  -6.1967  -6.0090  -5.7483  -5.5390
    -5.2529  -5.2004  -4.7918  -4.4124  -4.3053  -3.7731  -3.4944  -3.4695
    -3.4641  -3.3688  -3.2237  -3.1362  -3.0593  -3.0494  -3.0411  -2.9169
    -2.9094  -2.8970  -2.8764  -2.8674  -2.7528  -2.6302  -2.5363  -2.5159
    -2.5034  -2.4634  -2.4473  -2.4300  -2.3807  -2.3224  -2.2109  -2.0742
    -1.9844  -1.9756  -1.9611  -1.9322  -1.8881  -1.8085  -1.7419  -1.7283
    -1.6914  -1.6777  -1.6725  -1.5726  -1.5245  -1.5091  -1.5026  -1.4835
    -1.4480  -1.3873  -1.3542  -1.3426  -1.2924  -1.2717  -1.2547  -1.1531
    -1.1071  -1.0133  -0.9753  -0.9591  -0.9482  -0.8914  -0.8792  -0.8372
    -0.8232  -0.8054  -0.7792  -0.7617  -0.7523  -0.6982  -0.6871  -0.6667
    -0.6479  -0.6304  -0.6195  -0.6079  -0.5935  -0.5872  -0.5498  -0.5272
    -0.5185  -0.4839  -0.4493  -0.4364  -0.4043  -0.3784  -0.3498  -0.3032
    -0.2753  -0.2435  -0.2311  -0.2118  -0.1886  -0.1772  -0.1661  -0.1423
    -0.1005  -0.0828  -0.0681  -0.0540  -0.0366  -0.0273   0.0192   0.0640
     0.0921   0.1092   0.1190   0.1240   0.1417   0.1634   0.1934   0.2189
     0.2307   0.2418   0.2946   0.3036   0.3305   0.3467   0.3680   0.3938
     0.4017   0.4198   0.4392   0.4598   0.4726   0.4903   0.5061   0.5621
     0.5957   0.6431   0.7070   0.7315   0.7620   0.7862   0.8146   0.8262
     0.8487   0.8628   0.8765   0.9391   0.9831   1.0205   1.0352   1.0537
     1.0833   1.0924   1.1412   1.1652   1.1849   1.2057   1.2288   1.2811
     1.3621   1.4021   1.4400   1.4466   1.4966   1.5342   1.5656   1.5734
     1.5874   1.5965   1.6069   1.6214   1.6463   1.6665   1.6743   1.6865
     1.7284   1.7516   1.7547   1.7704   1.7746   1.7762   1.7868   1.7903
     1.8057   1.8433   1.8514   1.8777   1.8853   1.9031   1.9087   1.9295
     1.9899   2.0625   2.2033   2.3215   2.4346   2.6344   2.7115   2.7881
     2.8306   2.9008

          k = 0.2000-0.3464 0.0000 ( 51202 PWs)   bands (ev):

   -21.8957  -9.3402  -7.3738  -6.2689  -6.0628  -6.0299  -5.6666  -5.5304
    -5.3744  -4.8656  -4.6216  -4.5060  -4.2690  -4.2430  -3.8557  -3.4488
    -3.4407  -3.4337  -3.4154  -3.3069  -3.1524  -3.1466  -3.1116  -2.9002
    -2.7682  -2.7020  -2.6884  -2.6317  -2.6055  -2.5755  -2.5708  -2.4874
[...]
     atom    8 type  1   force =     0.00019579   -0.00143780   -0.10383237
     atom    9 type  1   force =    -0.00086390    0.00081564   -0.10581892
     atom   10 type  1   force =    -0.00080452    0.00008652   -0.01555626
     atom   11 type  1   force =     0.00153751   -0.00186373   -0.00961211
     atom   12 type  1   force =    -0.00100564    0.00086868   -0.01090584
     atom   13 type  1   force =    -0.00116364    0.00193479   -0.00911284
     atom   14 type  1   force =     0.00129100    0.00078817   -0.00526626
     atom   15 type  1   force =    -0.00017415    0.00045456   -0.00994675
     atom   16 type  1   force =     0.00034479   -0.00130647   -0.01110061
     atom   17 type  1   force =     0.00016155   -0.00092169   -0.01051603
     atom   18 type  1   force =    -0.00095342   -0.00044983   -0.01255631
     atom   19 type  1   force =    -0.00249043   -0.00534040    0.00039874
     atom   20 type  1   force =    -0.00546137   -0.00372352   -0.00171172
     atom   21 type  1   force =     0.00941770   -0.00743366   -0.00245906
     atom   22 type  1   force =     0.00178364    0.00449576    0.00773704
     atom   23 type  1   force =    -0.00127749    0.01243375   -0.00271881
     atom   24 type  1   force =    -0.00079623    0.00052820    0.01217355
     atom   25 type  1   force =     0.00008316   -0.00006482    0.01809034
     atom   26 type  1   force =    -0.00526386   -0.00036767    0.00379625
     atom   27 type  1   force =     0.00423274   -0.00099891    0.00742954
     atom   28 type  1   force =     0.00431331    0.00213884    0.12433426
     atom   29 type  1   force =     0.00008360    0.04825666    0.11474637
     atom   30 type  1   force =    -0.00321488    0.01175056    0.13395198
     atom   31 type  1   force =     0.04288458   -0.02433139    0.11015924
     atom   32 type  1   force =    -0.06183097   -0.03354083    0.03788473
     atom   33 type  1   force =    -0.00662923    0.00487707    0.09990444
     atom   34 type  1   force =     0.00439206   -0.00666734    0.12998480
     atom   35 type  1   force =     0.00071724   -0.02048862    0.11799585
     atom   36 type  1   force =    -0.00130386   -0.00021623    0.10985501
     atom   37 type  2   force =    -0.05463817   -0.04604845    0.39205458
     atom   38 type  3   force =     0.32973839    0.21344731   -2.65317435
     atom   39 type  4   force =    -0.00543606   -0.00319007   -0.02260579
     The ionic contribution  to forces
     atom    1 type  1   force =    -0.00753419   -0.00063922 -111.16433001
     atom    2 type  1   force =    -0.00126299   -0.00084674 -111.18204277
     atom    3 type  1   force =     0.00879722   -0.00171956 -111.16687743
     atom    4 type  1   force =    -0.00457116    0.00810473 -111.16350039
     atom    5 type  1   force =     0.00301160    0.00869479 -111.16659874
     atom    6 type  1   force =     0.00155952    0.00117369 -111.15754694
     atom    7 type  1   force =    -0.00027630   -0.00031695 -111.15494804
     atom    8 type  1   force =    -0.00422069   -0.00642074 -111.16386090
     atom    9 type  1   force =     0.00449699   -0.00803000 -111.16329501
     atom   10 type  1   force =    -0.04419589   -0.02735105  -40.10030771
     atom   11 type  1   force =    -0.00180783   -0.07043470  -40.19415585
     atom   12 type  1   force =     0.04600557   -0.03855900  -40.10412330
     atom   13 type  1   force =    -0.06036949    0.03316029  -40.19659604
     atom   14 type  1   force =     0.04891999    0.02878689  -40.21885615
     atom   15 type  1   force =     0.01144130    0.00739465  -40.10040179
     atom   16 type  1   force =    -0.00867568    0.05957100  -40.10327866
     atom   17 type  1   force =     0.01160126    0.00773914  -40.09708040
     atom   18 type  1   force =    -0.00292174   -0.00030831  -40.07941530
     atom   19 type  1   force =    -0.37644507   -0.02700146   31.38773516
     atom   20 type  1   force =    -0.05604524   -0.04052614   30.37343468
     atom   21 type  1   force =     0.43358915   -0.10225359   31.25309039
     atom   22 type  1   force =    -0.22224839    0.39292063   31.42291015
     atom   23 type  1   force =     0.13595248    0.43726882   31.27415146
     atom   24 type  1   force =     0.08517048    0.06271365   31.66035422
     atom   25 type  1   force =    -0.01122799   -0.01364829   31.78128254
     atom   26 type  1   force =    -0.20653908   -0.32269858   31.40718333
     atom   27 type  1   force =     0.21773455   -0.38777610   31.43462006
     atom   28 type  1   force =    -1.56305892   -0.95067854  103.96467571
     atom   29 type  1   force =     0.04799016   -4.74916094   99.98277580
     atom   30 type  1   force =     1.53237588   -1.25129616  104.00267958
     atom   31 type  1   force =    -4.15398908    2.40819055   99.78681400
     atom   32 type  1   force =     2.95907744    1.80462069   98.89681240
     atom   33 type  1   force =     0.86364556   -0.00162232  103.86354332
     atom   34 type  1   force =    -0.23007598    1.97107570  104.00815010
     atom   35 type  1   force =     0.33479503    0.65280342  104.04469820
     atom   36 type  1   force =    -0.07142041    0.00221851  104.49370753
     atom   37 type  2   force =     0.88229230    0.57267820   51.32385981
     atom   38 type  3   force =    -1.29538368   -0.83052611   90.14148375
     atom   39 type  4   force =     0.69381332    0.37269917   15.17325321
     The local contribution  to forces
     atom    1 type  1   force =     0.00853803    0.00099950  111.27207966
     atom    2 type  1   force =     0.00314871    0.00188116  111.29502884
     atom    3 type  1   force =    -0.01155812    0.00231963  111.27702109
     atom    4 type  1   force =     0.00360359   -0.00713177  111.27056299
     atom    5 type  1   force =    -0.00370139   -0.01089329  111.27627221
     atom    6 type  1   force =     0.00062445    0.00022072  111.26261904
     atom    7 type  1   force =    -0.00028529   -0.00039191  111.25883837
     atom    8 type  1   force =     0.00490520    0.00681079  111.27054848
     atom    9 type  1   force =    -0.00450214    0.00694747  111.27094806
     atom   10 type  1   force =     0.04501367    0.02754196   40.09873016
     atom   11 type  1   force =    -0.00035009    0.07023841   40.18476821
     atom   12 type  1   force =    -0.04447117    0.03738471   40.09818416
     atom   13 type  1   force =     0.05942606   -0.03475310   40.18674865
     atom   14 type  1   force =    -0.04900286   -0.02894147   40.20520999
     atom   15 type  1   force =    -0.01052192   -0.00841751   40.08927181
     atom   16 type  1   force =     0.00803008   -0.05758257   40.09762317
     atom   17 type  1   force =    -0.01194758   -0.00590005   40.08667707
     atom   18 type  1   force =     0.00435877    0.00109339   40.07042591
     atom   19 type  1   force =     0.37624670    0.02971107  -31.37210142
     atom   20 type  1   force =     0.06231203    0.04499900  -30.35814239
     atom   21 type  1   force =    -0.44189985    0.10653693  -31.23776391
     atom   22 type  1   force =     0.22220248   -0.39390788  -31.41432213
     atom   23 type  1   force =    -0.13699450   -0.44689714  -31.25810220
     atom   24 type  1   force =    -0.08333549   -0.06270977  -31.64897623
     atom   25 type  1   force =     0.01060953    0.01340057  -31.77327958
     atom   26 type  1   force =     0.20814699    0.32158691  -31.39353379
     atom   27 type  1   force =    -0.21832526    0.38837346  -31.42527634
     atom   28 type  1   force =     1.55442050    0.94561312 -104.09802705
     atom   29 type  1   force =    -0.04879277    4.68235353 -100.09920133
     atom   30 type  1   force =    -1.52342951    1.22954249 -104.14568738
     atom   31 type  1   force =     4.09317075   -2.37431933  -99.89958391
     atom   32 type  1   force =    -2.90275577   -1.77335650  -98.91817438
     atom   33 type  1   force =    -0.85566899   -0.00403406 -103.96319228
     atom   34 type  1   force =     0.22085402   -1.95456980 -104.14730463
     atom   35 type  1   force =    -0.33562689   -0.63116336 -104.16433935
     atom   36 type  1   force =     0.07516918   -0.00081813 -104.61385354
     atom   37 type  2   force =    -0.82613919   -0.52647510  -51.71204794
     atom   38 type  3   force =     0.97376620    0.62129320  -87.50982255
     atom   39 type  4   force =    -0.66913648   -0.35862592  -15.16229228
     The core correction contribution to forces
     atom    1 type  1   force =    -0.00019289   -0.00005768    0.01007630
     atom    2 type  1   force =     0.00033989    0.00023342    0.00890004
     atom    3 type  1   force =    -0.00017555   -0.00010370    0.01029704
     atom    4 type  1   force =    -0.00004067    0.00002509    0.01000622
     atom    5 type  1   force =    -0.00010677   -0.00009081    0.01031629
     atom    6 type  1   force =     0.00021550    0.00010750    0.00997077
     atom    7 type  1   force =     0.00016401    0.00007504    0.01039665
     atom    8 type  1   force =    -0.00006730   -0.00013176    0.01005237
     atom    9 type  1   force =    -0.00004090   -0.00004821    0.01001289
     atom   10 type  1   force =    -0.00017041   -0.00011745   -0.00189040
     atom   11 type  1   force =    -0.00010305   -0.00024457   -0.00196963
     atom   12 type  1   force =     0.00020919   -0.00027685   -0.00171313
     atom   13 type  1   force =    -0.00025754    0.00008395   -0.00196706
     atom   14 type  1   force =     0.00030334    0.00017381   -0.00179911
     atom   15 type  1   force =     0.00000703    0.00014576   -0.00190321
     atom   16 type  1   force =    -0.00020095    0.00034479   -0.00175490
     atom   17 type  1   force =     0.00013894    0.00001360   -0.00187392
     atom   18 type  1   force =     0.00012726    0.00002608   -0.00165138
     atom   19 type  1   force =     0.00022764   -0.00068397    0.00134184
     atom   20 type  1   force =    -0.00110653   -0.00056109    0.00110273
     atom   21 type  1   force =     0.00090418   -0.00064575    0.00081934
     atom   22 type  1   force =     0.00002838    0.00084344    0.00139930
     atom   23 type  1   force =    -0.00020884    0.00121887    0.00068950
     atom   24 type  1   force =     0.00045598    0.00020624    0.00220532
     atom   25 type  1   force =     0.00008419    0.00001676    0.00191976
     atom   26 type  1   force =    -0.00052555    0.00040316    0.00147477
     atom   27 type  1   force =     0.00070659   -0.00043112    0.00135667
     atom   28 type  1   force =     0.00194364    0.00127173   -0.00926357
     atom   29 type  1   force =     0.00019550    0.00913214   -0.00479323
     atom   30 type  1   force =    -0.00245047    0.00412971   -0.00764870
     atom   31 type  1   force =     0.00838160   -0.00440085   -0.00483008
     atom   32 type  1   force =    -0.00169355   -0.00202180   -0.00003400
     atom   33 type  1   force =    -0.00846086    0.00265324   -0.00574801
     atom   34 type  1   force =     0.00136967   -0.00412046   -0.00814204
     atom   35 type  1   force =    -0.00091472   -0.00752971   -0.00648032
     atom   36 type  1   force =    -0.00071826   -0.00062224   -0.01048675
     atom   37 type  2   force =    -0.00010956    0.00064034   -0.00162867
     atom   38 type  3   force =    -0.00248278   -0.00159141    0.01952151
     atom   39 type  4   force =     0.00000000    0.00000000    0.00000000
     The Hubbard contrib.    to forces
     atom    1 type  1   force =     0.00000000    0.00000000    0.00000000
     atom    2 type  1   force =     0.00000000    0.00000000    0.00000000
     atom    3 type  1   force =     0.00000000    0.00000000    0.00000000
     atom    4 type  1   force =     0.00000000    0.00000000    0.00000000
     atom    5 type  1   force =     0.00000000    0.00000000    0.00000000
     atom    6 type  1   force =     0.00000000    0.00000000    0.00000000
     atom    7 type  1   force =     0.00000000    0.00000000    0.00000000
     atom    8 type  1   force =     0.00000000    0.00000000    0.00000000
     atom    9 type  1   force =     0.00000000    0.00000000    0.00000000
     atom   10 type  1   force =     0.00000000    0.00000000    0.00000000
     atom   11 type  1   force =     0.00000000    0.00000000    0.00000000
     atom   12 type  1   force =     0.00000000    0.00000000    0.00000000
     atom   13 type  1   force =     0.00000000    0.00000000    0.00000000
     atom   14 type  1   force =     0.00000000    0.00000000    0.00000000
     atom   15 type  1   force =     0.00000000    0.00000000    0.00000000
     atom   16 type  1   force =     0.00000000    0.00000000    0.00000000
     atom   17 type  1   force =     0.00000000    0.00000000    0.00000000
     atom   18 type  1   force =     0.00000000    0.00000000    0.00000000
     atom   19 type  1   force =     0.00000000    0.00000000    0.00000000
     atom   20 type  1   force =     0.00000000    0.00000000    0.00000000
     atom   21 type  1   force =     0.00000000    0.00000000    0.00000000
     atom   22 type  1   force =     0.00000000    0.00000000    0.00000000
     atom   23 type  1   force =     0.00000000    0.00000000    0.00000000
     atom   24 type  1   force =     0.00000000    0.00000000    0.00000000
     atom   25 type  1   force =     0.00000000    0.00000000    0.00000000
     atom   26 type  1   force =     0.00000000    0.00000000    0.00000000
     atom   27 type  1   force =     0.00000000    0.00000000    0.00000000
     atom   28 type  1   force =     0.00000000    0.00000000    0.00000000
     atom   29 type  1   force =     0.00000000    0.00000000    0.00000000
     atom   30 type  1   force =     0.00000000    0.00000000    0.00000000
     atom   31 type  1   force =     0.00000000    0.00000000    0.00000000
     atom   32 type  1   force =     0.00000000    0.00000000    0.00000000
     atom   33 type  1   force =     0.00000000    0.00000000    0.00000000
     atom   34 type  1   force =     0.00000000    0.00000000    0.00000000
     atom   35 type  1   force =     0.00000000    0.00000000    0.00000000
     atom   36 type  1   force =     0.00000000    0.00000000    0.00000000
     atom   37 type  2   force =     0.00000000    0.00000000    0.00000000
     atom   38 type  3   force =     0.00000000    0.00000000    0.00000000
     atom   39 type  4   force =     0.00000000    0.00000000    0.00000000
     The SCF correction term to forces
     atom    1 type  1   force =     0.00000000   -0.00000000    0.00000000
     atom    2 type  1   force =    -0.00000000   -0.00000000    0.00000000
     atom    3 type  1   force =     0.00000000   -0.00000000    0.00000000
     atom    4 type  1   force =    -0.00000000   -0.00000000    0.00000000
     atom    5 type  1   force =    -0.00000000    0.00000000    0.00000000
     atom    6 type  1   force =     0.00000000    0.00000000    0.00000000
     atom    7 type  1   force =     0.00000000    0.00000000    0.00000000
     atom    8 type  1   force =     0.00000000    0.00000000    0.00000000
     atom    9 type  1   force =    -0.00000000    0.00000000    0.00000000
     atom   10 type  1   force =     0.00000000    0.00000000   -0.00000000
     atom   11 type  1   force =    -0.00000000   -0.00000000   -0.00000000
     atom   12 type  1   force =     0.00000000   -0.00000000    0.00000000
     atom   13 type  1   force =    -0.00000000   -0.00000000   -0.00000000
     atom   14 type  1   force =    -0.00000000    0.00000000   -0.00000000
     atom   15 type  1   force =     0.00000000    0.00000000    0.00000000
     atom   16 type  1   force =    -0.00000000    0.00000000    0.00000000
     atom   17 type  1   force =     0.00000000    0.00000000    0.00000000
     atom   18 type  1   force =    -0.00000000   -0.00000000    0.00000000
     atom   19 type  1   force =    -0.00000000    0.00000000   -0.00000000
     atom   20 type  1   force =    -0.00000000   -0.00000000   -0.00000000
     atom   21 type  1   force =     0.00000000   -0.00000000   -0.00000000
     atom   22 type  1   force =    -0.00000000    0.00000000   -0.00000000
     atom   23 type  1   force =     0.00000000    0.00000000   -0.00000000
     atom   24 type  1   force =     0.00000000    0.00000000   -0.00000000
     atom   25 type  1   force =    -0.00000000   -0.00000000   -0.00000000
     atom   26 type  1   force =     0.00000000   -0.00000000   -0.00000000
     atom   27 type  1   force =    -0.00000000   -0.00000000   -0.00000000
     atom   28 type  1   force =     0.00000000    0.00000000   -0.00000000
     atom   29 type  1   force =    -0.00000000   -0.00000000   -0.00000000
     atom   30 type  1   force =    -0.00000000    0.00000000   -0.00000000
     atom   31 type  1   force =    -0.00000000   -0.00000000   -0.00000000
     atom   32 type  1   force =     0.00000000   -0.00000000   -0.00000000
     atom   33 type  1   force =     0.00000000    0.00000000   -0.00000000
     atom   34 type  1   force =     0.00000000    0.00000000   -0.00000000
     atom   35 type  1   force =     0.00000000    0.00000000   -0.00000000
     atom   36 type  1   force =    -0.00000000   -0.00000000   -0.00000000
     atom   37 type  2   force =    -0.00000152   -0.00000280   -0.00001045
     atom   38 type  3   force =    -0.00000186   -0.00000196   -0.00000535
     atom   39 type  4   force =     0.00000123    0.00000037   -0.00000273

     Total force =     0.025975     Total SCF correction =     0.000013

     Writing all to output data dir ./pwscf.save/

     init_run     :     11.38s CPU     11.83s WALL (       1 calls)
     electrons    :    930.47s CPU    946.47s WALL (       1 calls)
     forces       :      3.41s CPU      3.52s WALL (       1 calls)

     Called by init_run:
     wfcinit      :      8.20s CPU      8.53s WALL (       1 calls)
     potinit      :      2.06s CPU      2.15s WALL (       1 calls)
     hinit0       :      0.87s CPU      0.88s WALL (       1 calls)

     Called by electrons:
     c_bands      :    793.15s CPU    806.66s WALL (      49 calls)
     sum_band     :     91.46s CPU     92.78s WALL (      49 calls)
     v_of_rho     :      8.56s CPU      8.98s WALL (      50 calls)
     newd         :      4.73s CPU      4.79s WALL (      50 calls)
     PAW_pot      :     12.65s CPU     12.88s WALL (      50 calls)
     mix_rho      :     21.26s CPU     21.54s WALL (      49 calls)
     vdW_kernel   :      1.11s CPU      1.12s WALL (       1 calls)

     Called by c_bands:
     init_us_2    :      9.00s CPU      9.34s WALL (    2600 calls)
     init_us_2:cp :      8.98s CPU      9.33s WALL (    2600 calls)
     cegterg      :    766.56s CPU    778.76s WALL (    1274 calls)

     Called by *egterg:
     cdiaghg      :    202.47s CPU    204.09s WALL (    4303 calls)
     h_psi        :    364.30s CPU    372.56s WALL (    4329 calls)
     s_psi        :     36.15s CPU     36.62s WALL (    4329 calls)
     g_psi        :      0.98s CPU      1.00s WALL (    3029 calls)

     Called by h_psi:
     h_psi:calbec :     57.75s CPU     58.59s WALL (    4329 calls)
     vloc_psi     :    267.32s CPU    274.24s WALL (    4329 calls)
     add_vuspsi   :     36.90s CPU     37.37s WALL (    4329 calls)

     General routines
     calbec       :     82.62s CPU     83.74s WALL (    5707 calls)
     fft          :      5.64s CPU      6.09s WALL (    4527 calls)
     ffts         :     11.74s CPU     11.92s WALL (   21450 calls)
     fftw         :    304.55s CPU    311.46s WALL ( 1328882 calls)
     interpolate  :      0.39s CPU      0.40s WALL (     100 calls)

     Parallel routines

     PWSCF        :  15m52.35s CPU  16m14.13s WALL


   This run was terminated on:  20:19: 6   7Dec2025            

=------------------------------------------------------------------------------=
   JOB DONE.
=------------------------------------------------------------------------------=
