
     Program PWSCF v.7.1 starts on 21Nov2025 at 12:55:20 
        Git branch: heads/qe-7.1
        Last git commit: 48ba0178f8fede6d020eb786884699a9f063f55d-dirty
        Last git commit date: Fri Jan 27 14:22:33 2023 +0000
        Last git commit subject: Merge branch 'fix_hubbard' into 'develop'

     This program is part of the open-source Quantum ESPRESSO suite
     for quantum simulation of materials; please cite
         "P. Giannozzi et al., J. Phys.:Condens. Matter 21 395502 (2009);
         "P. Giannozzi et al., J. Phys.:Condens. Matter 29 465901 (2017);
         "P. Giannozzi et al., J. Chem. Phys. 152 154105 (2020);
          URL http://www.quantum-espresso.org", 
     in publications or presentations arising from this work. More details at
     http://www.quantum-espresso.org/quote

     Parallel version (MPI), running on    96 processors

     MPI processes distributed on     2 nodes
     55685 MiB available memory on the printing compute node when the environment starts

     Reading input from espresso.pwi
Warning: card &CELL ignored
Warning: card / ignored
Warning: card &FCP ignored
Warning: card / ignored
Warning: card &RISM ignored
Warning: card / ignored

     Current dimensions of program PWSCF are:
     Max number of different atomic species (ntypx) = 10
     Max number of k-points (npk) =  40000
     Max angular momentum in pseudopotentials (lmaxx) =  4
     file Co.pbe-n-kjpaw_psl.1.0.0.UPF: wavefunction(s)  4S 3D renormalized
     file C.pbe-n-kjpaw_psl.1.0.0.UPF: wavefunction(s)  2S 2P renormalized
     file O.pbe-nl-kjpaw_psl.1.0.0.UPF: wavefunction(s)  2S 2P renormalized
     file H.pbe-kjpaw_psl.1.0.0.UPF: wavefunction(s)  1S renormalized

     **************************************************************************
     Initializing libbeef V0.1.2 with the BEEF-vdW functional.
     Citation: Wellendorff et al., PRB 85, 235149 (2012).
     **************************************************************************


     IMPORTANT: XC functional enforced from input :
     Exchange-correlation= BEEF-VDW
                           (   1   4  43  14   2   0   0)
     Any further DFT definition will be discarded
     Please, verify this is what you really want


     R & G space division:  proc/nbgrp/npool/nimage =      96
     Subspace diagonalization in iterative solution of the eigenvalue problem:
     one sub-group per band group will be used
     custom distributed-memory algorithm (size of sub-group:  2*  2 procs)


     Parallelization info
     --------------------
     sticks:   dense  smooth     PW     G-vecs:    dense   smooth      PW
     Min          43      23      6                 7829     3049     440
     Max          44      24      7                 7845     3068     465
     Sum        4153    2221    613               752179   293251   42993

     Using Slab Decomposition



     bravais-lattice index     =            0
     lattice parameter (alat)  =      14.1729  a.u.
     unit-cell volume          =    8574.3059 (a.u.)^3
     number of atoms/cell      =           39
     number of atomic types    =            4
     number of electrons       =       335.00
     number of Kohn-Sham states=          202
     kinetic-energy cutoff     =      40.0000  Ry
     charge density cutoff     =     300.0000  Ry
     scf convergence threshold =      1.0E-06
     mixing beta               =       0.7000
     number of iterations used =            8  local-TF  mixing
     Exchange-correlation= BEEF-VDW
                           (   1   4  43  14   2   0   0)

     celldm(1)=  14.172946  celldm(2)=   0.000000  celldm(3)=   0.000000
     celldm(4)=   0.000000  celldm(5)=   0.000000  celldm(6)=   0.000000

     crystal axes: (cart. coord. in units of alat)
               a(1) = (   1.000000   0.000000   0.000000 )  
               a(2) = (   0.500000   0.866025   0.000000 )  
               a(3) = (   0.000000   0.000000   3.477667 )  

     reciprocal axes: (cart. coord. in units 2 pi/alat)
               b(1) = (  1.000000 -0.577350  0.000000 )  
               b(2) = (  0.000000  1.154701  0.000000 )  
               b(3) = (  0.000000  0.000000  0.287549 )  


     PseudoPot. # 1 for Co read from file:
     /users/kbadger1/espresso/pseudo/pslibrary.1.0.0/pbe/PSEUDOPOTENTIALS/Co.pbe-n-kjpaw_psl.1.0.0.UPF
     MD5 check sum: 88af6ec42553d4236c267fdfcb472151
     Pseudo is Projector augmented-wave + core cor, Zval =  9.0
     Generated using 'atomic' code by A. Dal Corso  v.7.0
     Shape of augmentation charge: PSQ
     Using radial grid of 1193 points,  6 beta functions with: 
                l(1) =   0
                l(2) =   0
                l(3) =   1
                l(4) =   1
                l(5) =   2
                l(6) =   2
     Q(r) pseudized with 0 coefficients 


     PseudoPot. # 2 for C  read from file:
     /users/kbadger1/espresso/pseudo/pslibrary.1.0.0/pbe/PSEUDOPOTENTIALS/C.pbe-n-kjpaw_psl.1.0.0.UPF
     MD5 check sum: 6408e75cdba28732cea38a4db8498ce4
     Pseudo is Projector augmented-wave + core cor, Zval =  4.0
     Generated using 'atomic' code by A. Dal Corso  v.7.0
     Shape of augmentation charge: PSQ
     Using radial grid of 1073 points,  4 beta functions with: 
                l(1) =   0
                l(2) =   0
                l(3) =   1
                l(4) =   1
     Q(r) pseudized with 0 coefficients 


     PseudoPot. # 3 for O  read from file:
     /users/kbadger1/espresso/pseudo/pslibrary.1.0.0/pbe/PSEUDOPOTENTIALS/O.pbe-nl-kjpaw_psl.1.0.0.UPF
     MD5 check sum: f0439fab3598ca4e468f064226030408
     Pseudo is Projector augmented-wave + core cor, Zval =  6.0
     Generated using 'atomic' code by A. Dal Corso  v.7.0
     Shape of augmentation charge: PSQ
     Using radial grid of 1095 points,  4 beta functions with: 
                l(1) =   0
                l(2) =   0
                l(3) =   1
                l(4) =   1
     Q(r) pseudized with 0 coefficients 


     PseudoPot. # 4 for H  read from file:
     /users/kbadger1/espresso/pseudo/pslibrary.1.0.0/pbe/PSEUDOPOTENTIALS/H.pbe-kjpaw_psl.1.0.0.UPF
     MD5 check sum: fe4c6fa958fa6d3815bf5d2419cbf1df
     Pseudo is Projector augmented-wave, Zval =  1.0
     Generated using 'atomic' code by A. Dal Corso  v.7.0
     Shape of augmentation charge: PSQ
     Using radial grid of  929 points,  2 beta functions with: 
                l(1) =   0
                l(2) =   0
     Q(r) pseudized with 0 coefficients 


     atomic species   valence    mass     pseudopotential
        Co             9.00    58.93319     Co( 1.00)
        C              4.00    12.00000     C ( 1.00)
        O              6.00    15.99491     O ( 1.00)
        H              1.00     1.00783     H ( 1.00)

     Starting magnetic structure 
     atomic species   magnetization
        Co           1.000
        C            1.000
        O            0.000
        H            0.000

     No symmetry found



   Cartesian axes

     site n.     atom                  positions (alat units)
         1           Co  tau(   1) = (   0.0000000   0.1924501   1.3333333  )
         2           Co  tau(   2) = (   0.3333333   0.1924501   1.3333333  )
         3           Co  tau(   3) = (   0.6666667   0.1924501   1.3333333  )
         4           Co  tau(   4) = (   0.1666667   0.4811252   1.3333333  )
         5           Co  tau(   5) = (   0.5000000   0.4811252   1.3333333  )
         6           Co  tau(   6) = (   0.8333333   0.4811252   1.3333333  )
         7           Co  tau(   7) = (   0.3333333   0.7698004   1.3333333  )
         8           Co  tau(   8) = (   0.6666667   0.7698004   1.3333333  )
         9           Co  tau(   9) = (   1.0000000   0.7698004   1.3333333  )
        10           Co  tau(  10) = (   0.0000000   0.0000000   1.6036667  )
        11           Co  tau(  11) = (   0.3333333   0.0000000   1.6036667  )
        12           Co  tau(  12) = (   0.6666667   0.0000000   1.6036667  )
        13           Co  tau(  13) = (   0.1666667   0.2886751   1.6036667  )
        14           Co  tau(  14) = (   0.5000000   0.2886751   1.6036667  )
        15           Co  tau(  15) = (   0.8333333   0.2886751   1.6036667  )
        16           Co  tau(  16) = (   0.3333333   0.5773503   1.6036667  )
        17           Co  tau(  17) = (   0.6666667   0.5773503   1.6036667  )
        18           Co  tau(  18) = (   1.0000000   0.5773503   1.6036667  )
        19           Co  tau(  19) = (   0.0000000   0.1924501   1.8740000  )
        20           Co  tau(  20) = (   0.3333333   0.1924501   1.8740000  )
        21           Co  tau(  21) = (   0.6666667   0.1924501   1.8740000  )
        22           Co  tau(  22) = (   0.1666667   0.4811252   1.8740000  )
        23           Co  tau(  23) = (   0.5000000   0.4811252   1.8740000  )
        24           Co  tau(  24) = (   0.8333333   0.4811252   1.8740000  )
        25           Co  tau(  25) = (   0.3333333   0.7698004   1.8740000  )
        26           Co  tau(  26) = (   0.6666667   0.7698004   1.8740000  )
        27           Co  tau(  27) = (   1.0000000   0.7698004   1.8740000  )
        28           Co  tau(  28) = (   0.0000000   0.0000000   2.1443333  )
        29           Co  tau(  29) = (   0.3333333   0.0000000   2.1443333  )
        30           Co  tau(  30) = (   0.6666667   0.0000000   2.1443333  )
        31           Co  tau(  31) = (   0.1666667   0.2886751   2.1443333  )
        32           Co  tau(  32) = (   0.5000000   0.2886751   2.1443333  )
        33           Co  tau(  33) = (   0.8333333   0.2886751   2.1443333  )
        34           Co  tau(  34) = (   0.3333333   0.5773503   2.1443333  )
        35           Co  tau(  35) = (   0.6666667   0.5773503   2.1443333  )
        36           Co  tau(  36) = (   1.0000000   0.5773503   2.1443333  )
        37           C   tau(  37) = (   0.3944655   0.2313218   2.3597696  )
        38           O   tau(  38) = (   0.2492235   0.1438514   2.3884671  )
        39           H   tau(  39) = (   0.4678385   0.2777192   2.4783474  )

     number of k points=    13  Marzari-Vanderbilt smearing, width (Ry)=  0.0010
                       cart. coord. in units 2pi/alat
        k(    1) = (   0.0000000   0.0000000   0.0000000), wk =   0.0400000
        k(    2) = (   0.0000000   0.2309401   0.0000000), wk =   0.0800000
        k(    3) = (   0.0000000   0.4618802   0.0000000), wk =   0.0800000
        k(    4) = (   0.2000000  -0.1154701   0.0000000), wk =   0.0800000
        k(    5) = (   0.2000000   0.1154701   0.0000000), wk =   0.0800000
        k(    6) = (   0.2000000   0.3464102   0.0000000), wk =   0.0800000
        k(    7) = (   0.2000000  -0.5773503   0.0000000), wk =   0.0800000
        k(    8) = (   0.2000000  -0.3464102   0.0000000), wk =   0.0800000
        k(    9) = (   0.4000000  -0.2309401   0.0000000), wk =   0.0800000
        k(   10) = (   0.4000000   0.0000000   0.0000000), wk =   0.0800000
        k(   11) = (   0.4000000   0.2309401   0.0000000), wk =   0.0800000
        k(   12) = (   0.4000000  -0.6928203   0.0000000), wk =   0.0800000
        k(   13) = (   0.4000000  -0.4618802   0.0000000), wk =   0.0800000

     Dense  grid:   752179 G-vectors     FFT dimensions: (  80,  80, 288)

     Smooth grid:   293251 G-vectors     FFT dimensions: (  60,  60, 200)

     Estimated max dynamical RAM per process >      84.82 MB

     Estimated total dynamical RAM >       7.95 GB
     Generating pointlists ...
     new r_m :   0.1017 (alat units)  1.4420 (a.u.) for type    1
     new r_m :   0.0606 (alat units)  0.8592 (a.u.) for type    2
     new r_m :   0.0709 (alat units)  1.0053 (a.u.) for type    3
     new r_m :   0.0606 (alat units)  0.8592 (a.u.) for type    4

     Initial potential from superposition of free atoms

     starting charge     334.9897, renormalised to     335.0000

     negative rho (up, down):  3.003E-03 4.691E-04


     %%%%%%%%%%%%%%%%%%%%%%%%%%%%%%%%%%%%%%%%%%%%%%%%%%%%%%%%%%%%%%%%%%%%%%%%
     %                                                                      %
     % You are using vdW-DF, which was implemented by the Thonhauser group. %
     % Please cite the following two papers that made this development      %
     % possible and the two reviews that describe the various versions:     %
     %                                                                      %
     %   T. Thonhauser et al., PRL 115, 136402 (2015).                      %
     %   T. Thonhauser et al., PRB 76, 125112 (2007).                       %
     %   K. Berland et al., Rep. Prog. Phys. 78, 066501 (2015).             %
     %   D.C. Langreth et al., J. Phys.: Condens. Matter 21, 084203 (2009). %
     %                                                                      %
     % If you are calculating stress with vdW-DF, please also cite:         %
     %                                                                      %
     %   R. Sabatini et al., J. Phys.: Condens. Matter 24, 424209 (2012).   %
     %   C.M. Frostenson et al., Electr. Struct. 4, 014001 (2022).          %
     %                                                                      %
     %%%%%%%%%%%%%%%%%%%%%%%%%%%%%%%%%%%%%%%%%%%%%%%%%%%%%%%%%%%%%%%%%%%%%%%%

     %%%%%%%%%%%%%%%%%%%%%%%%%%%%%%%%%%%%%%%%%%%%%%%%%%%%%%%%%%%%%%%%%%%%%%%%
     %                                                                      %
     %  vdW-DF NEWS:                                                        %
     %                                                                      %
     %  * vdW-DF3 is now available. DOI: 10.1021/acs.jctc.0c00471           %
     %    use with input_dft = 'vdW-DF3-opt1' or 'vdW-DF3-opt2'             %
     %                                                                      %
     %  * Unscreened and range-separated hybrid vdW-DF-cx functionals       %
     %    DOI: 10.1063/1.4986522 and 10.1088/1361-648X/ac2ad2               %
     %    use with input_dft = 'vdW-DF-cx0'    and 'vdW-DF-ahcx'            %
     %  * Unscreened and range-separated hybrid vdW-DF2-b86r functionals    %
     %    DOI: 10.1063/1.4986522 and DOI: 10.1103/PhysRevX.12.041003        %
     %    use with input_dft = 'vdW-DF2-br0' and 'vdW-DF2-ahbr'             %
     %                                                                      %
     %%%%%%%%%%%%%%%%%%%%%%%%%%%%%%%%%%%%%%%%%%%%%%%%%%%%%%%%%%%%%%%%%%%%%%%%


     Starting wfcs are  333 randomized atomic wfcs
     Checking if some PAW data can be deallocated... 

     total cpu time spent up to now is       11.6 secs

     per-process dynamical memory:   212.4 Mb

     Self-consistent Calculation

     iteration #  1     ecut=    40.00 Ry     beta= 0.70
     Davidson diagonalization with overlap
     ethr =  1.00E-02,  avg # of iterations =  2.0

     negative rho (up, down):  4.748E-05 9.072E-07

     total cpu time spent up to now is       26.5 secs

     total energy              =   -6052.95955011 Ry
     estimated scf accuracy    <      39.81857435 Ry

     total magnetization       =    69.00 Bohr mag/cell
     absolute magnetization    =    81.15 Bohr mag/cell

     iteration #  2     ecut=    40.00 Ry     beta= 0.70
     Davidson diagonalization with overlap
     ethr =  1.00E-02,  avg # of iterations =  1.0

     negative rho (up, down):  1.945E-05 5.175E-07

     total cpu time spent up to now is       38.8 secs

     total energy              =   -6052.34239382 Ry
     estimated scf accuracy    <      25.55503143 Ry

     total magnetization       =    69.00 Bohr mag/cell
     absolute magnetization    =    76.78 Bohr mag/cell

     iteration #  3     ecut=    40.00 Ry     beta= 0.70
     Davidson diagonalization with overlap
     ethr =  7.63E-03,  avg # of iterations =  1.0

     negative rho (up, down):  9.066E-07 1.515E-06

     total cpu time spent up to now is       50.7 secs

     total energy              =   -6055.05067152 Ry
     estimated scf accuracy    <      84.33363987 Ry

     total magnetization       =    66.28 Bohr mag/cell
     absolute magnetization    =    73.30 Bohr mag/cell

     iteration #  4     ecut=    40.00 Ry     beta= 0.70
     Davidson diagonalization with overlap
     ethr =  7.63E-03,  avg # of iterations =  1.0

     negative rho (up, down):  8.891E-07 4.792E-07

     total cpu time spent up to now is       63.0 secs

     total energy              =   -6056.23266934 Ry
     estimated scf accuracy    <       5.68641129 Ry

     total magnetization       =    60.76 Bohr mag/cell
     absolute magnetization    =    70.43 Bohr mag/cell

     iteration #  5     ecut=    40.00 Ry     beta= 0.70
     Davidson diagonalization with overlap
     ethr =  1.70E-03,  avg # of iterations =  1.2

     negative rho (up, down):  8.726E-07 4.505E-07

     total cpu time spent up to now is       74.7 secs

     total energy              =   -6056.27794254 Ry
     estimated scf accuracy    <       2.99497984 Ry

     total magnetization       =    60.51 Bohr mag/cell
     absolute magnetization    =    69.73 Bohr mag/cell

     iteration #  6     ecut=    40.00 Ry     beta= 0.70
     Davidson diagonalization with overlap
     ethr =  8.94E-04,  avg # of iterations =  1.5

     negative rho (up, down):  6.256E-07 3.301E-07

     total cpu time spent up to now is       87.6 secs

     total energy              =   -6056.37216302 Ry
     estimated scf accuracy    <       0.51747311 Ry

     total magnetization       =    60.44 Bohr mag/cell
     absolute magnetization    =    69.48 Bohr mag/cell

     iteration #  7     ecut=    40.00 Ry     beta= 0.70
     Davidson diagonalization with overlap
     ethr =  1.54E-04,  avg # of iterations =  6.5

     negative rho (up, down):  6.236E-07 3.763E-07

     total cpu time spent up to now is      105.5 secs

     total energy              =   -6056.40958259 Ry
     estimated scf accuracy    <       0.74260095 Ry

     total magnetization       =    61.07 Bohr mag/cell
     absolute magnetization    =    69.46 Bohr mag/cell

     iteration #  8     ecut=    40.00 Ry     beta= 0.70
     Davidson diagonalization with overlap
     ethr =  1.54E-04,  avg # of iterations =  1.7

     negative rho (up, down):  2.802E-07 1.478E-07

     total cpu time spent up to now is      118.0 secs

     total energy              =   -6056.41901015 Ry
     estimated scf accuracy    <       0.16645514 Ry

     total magnetization       =    61.16 Bohr mag/cell
     absolute magnetization    =    69.39 Bohr mag/cell

     iteration #  9     ecut=    40.00 Ry     beta= 0.70
     Davidson diagonalization with overlap
     c_bands:  2 eigenvalues not converged
     ethr =  4.97E-05,  avg # of iterations =  7.9

     negative rho (up, down):  1.920E-07 1.239E-07

     total cpu time spent up to now is      136.5 secs

     total energy              =   -6056.42427490 Ry
     estimated scf accuracy    <       0.20070973 Ry

     total magnetization       =    61.28 Bohr mag/cell
     absolute magnetization    =    69.32 Bohr mag/cell

     iteration # 10     ecut=    40.00 Ry     beta= 0.70
     Davidson diagonalization with overlap
     ethr =  4.97E-05,  avg # of iterations =  2.5

     negative rho (up, down):  1.554E-07 1.056E-07

     total cpu time spent up to now is      150.3 secs

     total energy              =   -6056.42508987 Ry
     estimated scf accuracy    <       0.17753448 Ry

     total magnetization       =    61.32 Bohr mag/cell
     absolute magnetization    =    69.21 Bohr mag/cell

     iteration # 11     ecut=    40.00 Ry     beta= 0.70
     Davidson diagonalization with overlap
     ethr =  4.97E-05,  avg # of iterations =  1.6

     negative rho (up, down):  5.883E-08 4.342E-08

     total cpu time spent up to now is      162.5 secs

     total energy              =   -6056.42514489 Ry
     estimated scf accuracy    <       0.10745234 Ry

     total magnetization       =    61.32 Bohr mag/cell
     absolute magnetization    =    69.08 Bohr mag/cell

     iteration # 12     ecut=    40.00 Ry     beta= 0.70
     Davidson diagonalization with overlap
     ethr =  3.21E-05,  avg # of iterations =  3.9

     negative rho (up, down):  7.339E-06 1.404E-07

     total cpu time spent up to now is      176.4 secs

     total energy              =   -6056.42669308 Ry
     estimated scf accuracy    <       0.08875005 Ry

     total magnetization       =    61.32 Bohr mag/cell
     absolute magnetization    =    68.98 Bohr mag/cell

     iteration # 13     ecut=    40.00 Ry     beta= 0.70
     Davidson diagonalization with overlap
     ethr =  2.65E-05,  avg # of iterations =  2.1

     negative rho (up, down):  1.101E-07 1.896E-09

     total cpu time spent up to now is      189.9 secs

     total energy              =   -6056.42491820 Ry
     estimated scf accuracy    <       0.10124074 Ry

     total magnetization       =    61.32 Bohr mag/cell
     absolute magnetization    =    68.92 Bohr mag/cell

     iteration # 14     ecut=    40.00 Ry     beta= 0.70
     Davidson diagonalization with overlap
     c_bands:  2 eigenvalues not converged
     ethr =  2.65E-05,  avg # of iterations =  3.4

     negative rho (up, down):  4.920E-03 3.464E-03

     total cpu time spent up to now is      203.4 secs

     total energy              =   -6056.42071526 Ry
     estimated scf accuracy    <       0.05573235 Ry

     total magnetization       =    61.32 Bohr mag/cell
     absolute magnetization    =    68.91 Bohr mag/cell

     iteration # 15     ecut=    40.00 Ry     beta= 0.70
     Davidson diagonalization with overlap
     c_bands:  2 eigenvalues not converged
     c_bands:  1 eigenvalues not converged
     c_bands:  1 eigenvalues not converged
     c_bands:  2 eigenvalues not converged
     ethr =  1.66E-05,  avg # of iterations =  4.7

     negative rho (up, down):  9.030E-03 7.343E-03

     total cpu time spent up to now is      218.2 secs

     total energy              =   -6056.41948103 Ry
     estimated scf accuracy    <       0.05910158 Ry

     total magnetization       =    61.32 Bohr mag/cell
     absolute magnetization    =    68.86 Bohr mag/cell

     iteration # 16     ecut=    40.00 Ry     beta= 0.70
     Davidson diagonalization with overlap
     ethr =  1.66E-05,  avg # of iterations =  1.7

     negative rho (up, down):  2.882E-02 2.714E-02

     total cpu time spent up to now is      230.0 secs

     total energy              =   -6056.41797463 Ry
     estimated scf accuracy    <       0.02275674 Ry

     total magnetization       =    61.32 Bohr mag/cell
     absolute magnetization    =    68.84 Bohr mag/cell

     iteration # 17     ecut=    40.00 Ry     beta= 0.70
     Davidson diagonalization with overlap
     c_bands:  1 eigenvalues not converged
     c_bands:  2 eigenvalues not converged
     ethr =  6.79E-06,  avg # of iterations =  6.8

     negative rho (up, down):  1.619E-02 1.483E-02

     total cpu time spent up to now is      248.2 secs

     total energy              =   -6056.41845031 Ry
     estimated scf accuracy    <       0.03167546 Ry

     total magnetization       =    61.32 Bohr mag/cell
     absolute magnetization    =    68.82 Bohr mag/cell

     iteration # 18     ecut=    40.00 Ry     beta= 0.70
     Davidson diagonalization with overlap
     ethr =  6.79E-06,  avg # of iterations =  1.5

     negative rho (up, down):  1.431E-02 1.322E-02

     total cpu time spent up to now is      259.9 secs

     total energy              =   -6056.41825622 Ry
     estimated scf accuracy    <       0.00821359 Ry

     total magnetization       =    61.32 Bohr mag/cell
     absolute magnetization    =    68.84 Bohr mag/cell

     iteration # 19     ecut=    40.00 Ry     beta= 0.70
     Davidson diagonalization with overlap
     c_bands:  2 eigenvalues not converged
     c_bands:  1 eigenvalues not converged
     c_bands:  1 eigenvalues not converged
     c_bands:  2 eigenvalues not converged
     c_bands:  2 eigenvalues not converged
     ethr =  2.45E-06,  avg # of iterations =  7.7

     negative rho (up, down):  1.630E-02 1.525E-02

     total cpu time spent up to now is      278.3 secs

     total energy              =   -6056.41732636 Ry
     estimated scf accuracy    <       0.01285054 Ry

     total magnetization       =    61.32 Bohr mag/cell
     absolute magnetization    =    68.83 Bohr mag/cell

     iteration # 20     ecut=    40.00 Ry     beta= 0.70
     Davidson diagonalization with overlap
     ethr =  2.45E-06,  avg # of iterations =  2.7

     negative rho (up, down):  1.338E-02 1.285E-02

     total cpu time spent up to now is      291.1 secs

     total energy              =   -6056.41750102 Ry
     estimated scf accuracy    <       0.01195029 Ry

     total magnetization       =    61.32 Bohr mag/cell
     absolute magnetization    =    68.82 Bohr mag/cell

     iteration # 21     ecut=    40.00 Ry     beta= 0.70
     Davidson diagonalization with overlap
     ethr =  2.45E-06,  avg # of iterations =  1.8

     negative rho (up, down):  1.691E-02 1.626E-02

     total cpu time spent up to now is      304.4 secs

     total energy              =   -6056.41764142 Ry
     estimated scf accuracy    <       0.00819086 Ry

     total magnetization       =    61.32 Bohr mag/cell
     absolute magnetization    =    68.83 Bohr mag/cell

     iteration # 22     ecut=    40.00 Ry     beta= 0.70
     Davidson diagonalization with overlap
     ethr =  2.45E-06,  avg # of iterations =  1.1

     negative rho (up, down):  1.596E-02 1.530E-02

     total cpu time spent up to now is      315.8 secs

     total energy              =   -6056.41792899 Ry
     estimated scf accuracy    <       0.00200084 Ry

     total magnetization       =    61.32 Bohr mag/cell
     absolute magnetization    =    68.83 Bohr mag/cell

     iteration # 23     ecut=    40.00 Ry     beta= 0.70
     Davidson diagonalization with overlap
     ethr =  5.97E-07,  avg # of iterations =  2.5

     negative rho (up, down):  1.170E-02 1.107E-02

     total cpu time spent up to now is      328.8 secs

     total energy              =   -6056.41785352 Ry
     estimated scf accuracy    <       0.00078944 Ry

     total magnetization       =    61.32 Bohr mag/cell
     absolute magnetization    =    68.82 Bohr mag/cell

     iteration # 24     ecut=    40.00 Ry     beta= 0.70
     Davidson diagonalization with overlap
     ethr =  2.36E-07,  avg # of iterations =  3.9

     negative rho (up, down):  8.023E-03 7.344E-03

     total cpu time spent up to now is      342.7 secs

     total energy              =   -6056.41801072 Ry
     estimated scf accuracy    <       0.00119647 Ry

     total magnetization       =    61.32 Bohr mag/cell
     absolute magnetization    =    68.82 Bohr mag/cell

     iteration # 25     ecut=    40.00 Ry     beta= 0.70
     Davidson diagonalization with overlap
     ethr =  2.36E-07,  avg # of iterations =  2.0

     negative rho (up, down):  6.484E-03 5.729E-03

     total cpu time spent up to now is      355.8 secs

     total energy              =   -6056.41808212 Ry
     estimated scf accuracy    <       0.00068106 Ry

     total magnetization       =    61.32 Bohr mag/cell
     absolute magnetization    =    68.83 Bohr mag/cell

     iteration # 26     ecut=    40.00 Ry     beta= 0.70
     Davidson diagonalization with overlap
     ethr =  2.03E-07,  avg # of iterations =  1.6

     negative rho (up, down):  4.810E-03 3.972E-03

     total cpu time spent up to now is      368.5 secs

     total energy              =   -6056.41808701 Ry
     estimated scf accuracy    <       0.00025875 Ry

     total magnetization       =    61.32 Bohr mag/cell
     absolute magnetization    =    68.83 Bohr mag/cell

     iteration # 27     ecut=    40.00 Ry     beta= 0.70
     Davidson diagonalization with overlap
     ethr =  7.72E-08,  avg # of iterations =  3.4

     negative rho (up, down):  4.162E-03 3.310E-03

     total cpu time spent up to now is      381.8 secs

     total energy              =   -6056.41809540 Ry
     estimated scf accuracy    <       0.00024834 Ry

     total magnetization       =    61.32 Bohr mag/cell
     absolute magnetization    =    68.83 Bohr mag/cell

     iteration # 28     ecut=    40.00 Ry     beta= 0.70
     Davidson diagonalization with overlap
     ethr =  7.41E-08,  avg # of iterations =  1.7

     negative rho (up, down):  3.839E-03 2.891E-03

     total cpu time spent up to now is      394.3 secs

     total energy              =   -6056.41812212 Ry
     estimated scf accuracy    <       0.00013140 Ry

     total magnetization       =    61.32 Bohr mag/cell
     absolute magnetization    =    68.83 Bohr mag/cell

     iteration # 29     ecut=    40.00 Ry     beta= 0.70
     Davidson diagonalization with overlap
     ethr =  3.92E-08,  avg # of iterations =  2.3

     negative rho (up, down):  2.231E-03 1.189E-03

     total cpu time spent up to now is      407.0 secs

     total energy              =   -6056.41811341 Ry
     estimated scf accuracy    <       0.00008479 Ry

     total magnetization       =    61.32 Bohr mag/cell
     absolute magnetization    =    68.83 Bohr mag/cell

     iteration # 30     ecut=    40.00 Ry     beta= 0.70
     Davidson diagonalization with overlap
     ethr =  2.53E-08,  avg # of iterations =  3.3

     negative rho (up, down):  2.489E-03 1.404E-03

     total cpu time spent up to now is      421.8 secs

     total energy              =   -6056.41811851 Ry
     estimated scf accuracy    <       0.00002495 Ry

     total magnetization       =    61.32 Bohr mag/cell
     absolute magnetization    =    68.83 Bohr mag/cell

     iteration # 31     ecut=    40.00 Ry     beta= 0.70
     Davidson diagonalization with overlap
     ethr =  7.45E-09,  avg # of iterations =  6.0

     negative rho (up, down):  2.357E-03 1.282E-03

     total cpu time spent up to now is      438.6 secs

     total energy              =   -6056.41812145 Ry
     estimated scf accuracy    <       0.00010345 Ry

     total magnetization       =    61.32 Bohr mag/cell
     absolute magnetization    =    68.83 Bohr mag/cell

     iteration # 32     ecut=    40.00 Ry     beta= 0.70
     Davidson diagonalization with overlap
     ethr =  7.45E-09,  avg # of iterations =  1.9

     negative rho (up, down):  2.374E-03 1.339E-03

     total cpu time spent up to now is      451.1 secs

     total energy              =   -6056.41812410 Ry
     estimated scf accuracy    <       0.00001683 Ry

     total magnetization       =    61.32 Bohr mag/cell
     absolute magnetization    =    68.83 Bohr mag/cell

     iteration # 33     ecut=    40.00 Ry     beta= 0.70
     Davidson diagonalization with overlap
     ethr =  5.02E-09,  avg # of iterations =  2.0

     negative rho (up, down):  2.364E-03 1.309E-03

     total cpu time spent up to now is      463.6 secs

     total energy              =   -6056.41812532 Ry
     estimated scf accuracy    <       0.00000411 Ry

     total magnetization       =    61.32 Bohr mag/cell
     absolute magnetization    =    68.83 Bohr mag/cell

     iteration # 34     ecut=    40.00 Ry     beta= 0.70
     Davidson diagonalization with overlap
     ethr =  1.23E-09,  avg # of iterations =  7.0

     negative rho (up, down):  2.386E-03 1.321E-03

     total cpu time spent up to now is      481.7 secs

     total energy              =   -6056.41812577 Ry
     estimated scf accuracy    <       0.00000654 Ry

     total magnetization       =    61.32 Bohr mag/cell
     absolute magnetization    =    68.83 Bohr mag/cell

     iteration # 35     ecut=    40.00 Ry     beta= 0.70
     Davidson diagonalization with overlap
     ethr =  1.23E-09,  avg # of iterations =  1.8

     negative rho (up, down):  2.390E-03 1.325E-03

     total cpu time spent up to now is      494.1 secs

     total energy              =   -6056.41812609 Ry
     estimated scf accuracy    <       0.00000405 Ry

     total magnetization       =    61.32 Bohr mag/cell
     absolute magnetization    =    68.83 Bohr mag/cell

     iteration # 36     ecut=    40.00 Ry     beta= 0.70
     Davidson diagonalization with overlap
     ethr =  1.21E-09,  avg # of iterations =  1.2

     negative rho (up, down):  2.371E-03 1.295E-03

     total cpu time spent up to now is      505.7 secs

     total energy              =   -6056.41812644 Ry
     estimated scf accuracy    <       0.00000147 Ry

     total magnetization       =    61.32 Bohr mag/cell
     absolute magnetization    =    68.82 Bohr mag/cell

     iteration # 37     ecut=    40.00 Ry     beta= 0.70
     Davidson diagonalization with overlap
     ethr =  4.38E-10,  avg # of iterations =  3.1

     negative rho (up, down):  2.355E-03 1.273E-03

     total cpu time spent up to now is      519.6 secs

     total energy              =   -6056.41812664 Ry
     estimated scf accuracy    <       0.00000387 Ry

     total magnetization       =    61.32 Bohr mag/cell
     absolute magnetization    =    68.82 Bohr mag/cell

     iteration # 38     ecut=    40.00 Ry     beta= 0.70
     Davidson diagonalization with overlap
     ethr =  4.38E-10,  avg # of iterations =  1.2

     negative rho (up, down):  2.330E-03 1.241E-03

     total cpu time spent up to now is      531.0 secs

     total energy              =   -6056.41812679 Ry
     estimated scf accuracy    <       0.00000107 Ry

     total magnetization       =    61.32 Bohr mag/cell
     absolute magnetization    =    68.82 Bohr mag/cell

     iteration # 39     ecut=    40.00 Ry     beta= 0.70
     Davidson diagonalization with overlap
     ethr =  3.21E-10,  avg # of iterations =  1.9

     negative rho (up, down):  2.318E-03 1.224E-03

     total cpu time spent up to now is      544.6 secs

     total energy              =   -6056.41812687 Ry
     estimated scf accuracy    <       0.00000118 Ry

     total magnetization       =    61.32 Bohr mag/cell
     absolute magnetization    =    68.82 Bohr mag/cell

     iteration # 40     ecut=    40.00 Ry     beta= 0.70
     Davidson diagonalization with overlap
     ethr =  3.21E-10,  avg # of iterations =  1.8

     negative rho (up, down):  2.326E-03 1.231E-03

     total cpu time spent up to now is      557.0 secs

     total energy              =   -6056.41812689 Ry
     estimated scf accuracy    <       0.00000143 Ry

     total magnetization       =    61.32 Bohr mag/cell
     absolute magnetization    =    68.82 Bohr mag/cell

     iteration # 41     ecut=    40.00 Ry     beta= 0.70
     Davidson diagonalization with overlap
     ethr =  3.21E-10,  avg # of iterations =  1.2

     negative rho (up, down):  2.220E-03 1.116E-03

     Magnetic moment per site  (integrated on atomic sphere of radius R)
     atom   1 (R=0.102)  charge=  6.1880  magn=  1.7638
     atom   2 (R=0.102)  charge=  6.1882  magn=  1.7548
     atom   3 (R=0.102)  charge=  6.1887  magn=  1.7583
     atom   4 (R=0.102)  charge=  6.1884  magn=  1.7598
     atom   5 (R=0.102)  charge=  6.1887  magn=  1.7583
     atom   6 (R=0.102)  charge=  6.1881  magn=  1.7639
     atom   7 (R=0.102)  charge=  6.1889  magn=  1.7658
     atom   8 (R=0.102)  charge=  6.1880  magn=  1.7640
     atom   9 (R=0.102)  charge=  6.1884  magn=  1.7597
     atom  10 (R=0.102)  charge=  6.1934  magn=  1.6874
     atom  11 (R=0.102)  charge=  6.1939  magn=  1.6992
     atom  12 (R=0.102)  charge=  6.1935  magn=  1.6918
     atom  13 (R=0.102)  charge=  6.1939  magn=  1.6992
     atom  14 (R=0.102)  charge=  6.1945  magn=  1.6791
     atom  15 (R=0.102)  charge=  6.1943  magn=  1.6923
     atom  16 (R=0.102)  charge=  6.1935  magn=  1.6919
     atom  17 (R=0.102)  charge=  6.1943  magn=  1.6926
     atom  18 (R=0.102)  charge=  6.1942  magn=  1.6842
     atom  19 (R=0.102)  charge=  6.1923  magn=  1.6847
     atom  20 (R=0.102)  charge=  6.1894  magn=  1.7328
     atom  21 (R=0.102)  charge=  6.1954  magn=  1.6554
     atom  22 (R=0.102)  charge=  6.1945  magn=  1.6729
     atom  23 (R=0.102)  charge=  6.1954  magn=  1.6564
     atom  24 (R=0.102)  charge=  6.1927  magn=  1.7018
     atom  25 (R=0.102)  charge=  6.1936  magn=  1.6866
     atom  26 (R=0.102)  charge=  6.1923  magn=  1.6850
     atom  27 (R=0.102)  charge=  6.1945  magn=  1.6721
     atom  28 (R=0.102)  charge=  6.1950  magn=  1.7875
     atom  29 (R=0.102)  charge=  6.1991  magn=  1.7063
     atom  30 (R=0.102)  charge=  6.1884  magn=  1.7668
     atom  31 (R=0.102)  charge=  6.1996  magn=  1.6998
     atom  32 (R=0.102)  charge=  6.2168  magn=  1.0971
     atom  33 (R=0.102)  charge=  6.1879  magn=  1.7721
     atom  34 (R=0.102)  charge=  6.1888  magn=  1.7652
     atom  35 (R=0.102)  charge=  6.1882  magn=  1.7722
     atom  36 (R=0.102)  charge=  6.1861  magn=  1.7936
     atom  37 (R=0.061)  charge=  0.8347  magn= -0.0234
     atom  38 (R=0.071)  charge=  3.3069  magn=  0.0183
     atom  39 (R=0.061)  charge=  0.5051  magn= -0.0001

     total cpu time spent up to now is      568.5 secs

     End of self-consistent calculation

 ------ SPIN UP ------------


          k = 0.0000 0.0000 0.0000 ( 36693 PWs)   bands (ev):

   -21.4358 -10.1540  -7.4740  -6.8128  -6.2467  -5.6290  -5.4215  -4.5594
    -4.5420  -4.5395  -4.5366  -4.5350  -4.5034  -4.4838  -4.1676  -4.0252
    -4.0048  -4.0041  -3.9963  -3.9532  -3.9483  -3.5129  -3.4878  -3.4873
    -3.4771  -3.4547  -3.4292  -3.3555  -3.3524  -3.3491  -3.3474  -3.3394
    -3.3082  -3.2765  -3.2750  -2.9737  -2.9688  -2.9596  -2.9583  -2.9267
    -2.9211  -2.9083  -2.8961  -2.8910  -2.8878  -2.8858  -2.8828  -2.7387
    -2.7324  -2.7042  -2.6929  -2.6675  -2.6562  -2.6508  -2.6409  -2.6256
    -2.6232  -2.6105  -2.6005  -2.5279  -2.5254  -2.5221  -2.5157  -2.5146
    -2.4443  -2.2229  -2.0204  -1.9958  -1.9925  -1.9811  -1.9778  -1.8741
    -1.8676  -1.8513  -1.8496  -1.8399  -1.8227  -1.8047  -1.7974  -1.7939
    -1.7881  -1.7507  -1.7454  -1.7135  -1.7012  -1.6966  -1.6839  -1.6738
    -1.6670  -1.6595  -1.6571  -1.6547  -1.6347  -1.6264  -1.6250  -1.6198
    -1.6189  -1.6136  -1.6080  -1.6072  -1.6027  -1.5989  -1.5980  -1.5973
    -1.5836  -1.5439  -1.5364  -1.5244  -1.5229  -1.4510  -1.4453  -1.4043
    -1.2487  -1.2077  -1.1677  -1.1588  -1.1545  -1.1523  -1.1320  -1.1175
    -1.1117  -1.1108  -1.0814  -1.0656  -1.0650  -0.9463  -0.9403  -0.9348
    -0.9116  -0.8947  -0.7926  -0.7692  -0.7483  -0.7372  -0.7347  -0.7022
    -0.6789  -0.6709  -0.6663  -0.6627  -0.6554  -0.6292  -0.5711  -0.5529
    -0.4685  -0.4325  -0.4154  -0.4147  -0.3952  -0.3737  -0.3561  -0.3543
    -0.3495  -0.3482  -0.3427  -0.3398  -0.3351  -0.3280  -0.3269  -0.3228
    -0.3066  -0.3056  -0.2856  -0.2826  -0.2783  -0.2708  -0.2704  -0.2670
    -0.2464  -0.2451  -0.2284  -0.2181  -0.2155  -0.2052  -0.1988  -0.1956
    -0.1947  -0.1900  -0.1509  -0.1412  -0.1228  -0.1184  -0.1135  -0.1071
    -0.1044  -0.0978  -0.0792  -0.0754  -0.0718  -0.0580  -0.0198  -0.0178
    -0.0151  -0.0123   0.0434   0.0471   0.0500   0.0605   0.0720   0.1007
     0.4923   0.9837

          k = 0.0000 0.2309 0.0000 ( 36641 PWs)   bands (ev):

   -21.4358 -10.1544  -7.3338  -6.7875  -6.1790  -5.6225  -5.4192  -5.2300
    -4.7917  -4.7769  -4.4119  -4.2787  -4.1999  -4.1938  -4.1289  -4.0742
    -4.0533  -4.0054  -3.9237  -3.8836  -3.8576  -3.6099  -3.5055  -3.4847
    -3.4188  -3.3973  -3.3692  -3.3567  -3.3539  -3.3485  -3.3341  -3.3148
    -3.2848  -3.2391  -3.2314  -3.2130  -3.2062  -3.0308  -2.9899  -2.9801
    -2.9394  -2.9312  -2.9202  -2.9139  -2.8465  -2.8046  -2.7931  -2.7647
    -2.7531  -2.7493  -2.7320  -2.7119  -2.6196  -2.6152  -2.5930  -2.5577
    -2.5490  -2.5373  -2.5129  -2.5037  -2.4779  -2.4614  -2.4396  -2.4314
    -2.3809  -2.2666  -2.1252  -2.0914  -2.0788  -2.0462  -2.0194  -1.9641
    -1.9510  -1.9403  -1.9336  -1.9295  -1.9106  -1.8961  -1.8707  -1.8386
    -1.8062  -1.8028  -1.7861  -1.7537  -1.7422  -1.7340  -1.7277  -1.7172
    -1.7072  -1.6988  -1.6937  -1.6914  -1.6784  -1.6654  -1.6461  -1.6218
    -1.5996  -1.5711  -1.5483  -1.5187  -1.5079  -1.5045  -1.5010  -1.4900
    -1.4739  -1.4713  -1.4584  -1.4532  -1.4514  -1.4308  -1.4162  -1.3997
    -1.3825  -1.3774  -1.3424  -1.3056  -1.2845  -1.2187  -1.2094  -1.1813
    -1.1691  -1.1608  -1.1518  -1.1441  -1.1376  -1.1068  -1.0326  -0.9979
    -0.9650  -0.9579  -0.9172  -0.8937  -0.8731  -0.8270  -0.8064  -0.7888
    -0.7731  -0.7161  -0.6913  -0.6842  -0.6527  -0.6452  -0.6225  -0.6135
    -0.6065  -0.5798  -0.5704  -0.5328  -0.5175  -0.5112  -0.4980  -0.4931
    -0.4413  -0.4295  -0.4156  -0.4106  -0.3924  -0.3713  -0.3503  -0.3465
    -0.3372  -0.3294  -0.3238  -0.3171  -0.2976  -0.2886  -0.2695  -0.2366
    -0.2292  -0.2138  -0.2008  -0.1743  -0.1636  -0.1431  -0.1205  -0.0984
    -0.0882  -0.0799  -0.0684  -0.0638  -0.0400  -0.0326  -0.0292  -0.0252
     0.0044   0.0380   0.0508   0.0637   0.0822   0.0897   0.1240   0.1336
     0.1473   0.1868   0.4243   0.4343   0.5243   0.5959   0.6586   0.6977
     0.7795   0.9104

          k = 0.0000 0.4619 0.0000 ( 36606 PWs)   bands (ev):

   -21.4358 -10.1549  -6.9920  -6.6869  -6.1849  -5.9768  -5.5097  -5.2557
    -4.9325  -4.9143  -4.7917  -4.0896  -4.0539  -4.0298  -3.9921  -3.9435
    -3.8413  -3.8359  -3.7921  -3.7112  -3.6988  -3.6861  -3.5983  -3.5221
    -3.5142  -3.5099  -3.5042  -3.4519  -3.4224  -3.3960  -3.3880  -3.2497
    -3.2354  -3.2285  -3.2120  -3.1913  -3.1787  -3.0981  -3.0858  -3.0727
    -3.0567  -3.0486  -2.9438  -2.8755  -2.8554  -2.7763  -2.7535  -2.7273
    -2.7105  -2.6738  -2.6677  -2.6631  -2.6474  -2.6329  -2.5817  -2.5641
    -2.5354  -2.5152  -2.4974  -2.4159  -2.3634  -2.3578  -2.3224  -2.2909
    -2.2621  -2.2425  -2.2221  -2.1987  -2.1893  -2.1366  -2.0890  -2.0714
    -2.0662  -2.0636  -2.0552  -2.0408  -2.0265  -2.0167  -1.9768  -1.9553
    -1.9460  -1.9239  -1.8944  -1.8813  -1.8529  -1.8279  -1.7703  -1.7547
    -1.7457  -1.7225  -1.7136  -1.6917  -1.6670  -1.6493  -1.6337  -1.6244
    -1.6113  -1.6061  -1.5829  -1.5722  -1.5589  -1.5504  -1.5381  -1.5128
    -1.5052  -1.4806  -1.4538  -1.4398  -1.3951  -1.3597  -1.3418  -1.3284
    -1.3259  -1.3036  -1.2634  -1.2392  -1.2225  -1.2107  -1.2022  -1.1981
    -1.1846  -1.1798  -1.1697  -1.1655  -1.1522  -1.1460  -1.1304  -1.1198
    -1.0978  -1.0802  -1.0213  -0.9988  -0.9701  -0.9606  -0.9492  -0.9235
    -0.9016  -0.8570  -0.8459  -0.8294  -0.8111  -0.7763  -0.7573  -0.7114
    -0.6885  -0.6529  -0.6404  -0.6261  -0.6079  -0.5953  -0.5788  -0.5063
    -0.4633  -0.4476  -0.4279  -0.4160  -0.4104  -0.4030  -0.3943  -0.3825
    -0.3647  -0.3387  -0.2812  -0.2690  -0.2564  -0.2461  -0.2366  -0.2300
    -0.2182  -0.2104  -0.1997  -0.1825  -0.1604  -0.1362  -0.0884  -0.0634
    -0.0588  -0.0437  -0.0257   0.0234   0.0416   0.0475   0.0674   0.1032
     0.1174   0.1551   0.1602   0.1808   0.1837   0.1902   0.2065   0.2141
     0.2873   0.3062   0.4104   0.9684   1.1885   1.3760   1.4129   1.4484
     1.6558   1.7880

          k = 0.2000-0.1155 0.0000 ( 36641 PWs)   bands (ev):

   -21.4358 -10.1543  -7.3339  -6.7875  -6.1795  -5.6243  -5.4196  -5.2267
    -4.7920  -4.7779  -4.4109  -4.2775  -4.2002  -4.1939  -4.1286  -4.0741
    -4.0550  -4.0051  -3.9229  -3.8843  -3.8578  -3.6094  -3.5059  -3.4845
    -3.4175  -3.3967  -3.3699  -3.3566  -3.3540  -3.3485  -3.3350  -3.3147
    -3.2847  -3.2395  -3.2314  -3.2130  -3.2061  -3.0279  -2.9905  -2.9807
    -2.9416  -2.9313  -2.9201  -2.9139  -2.8447  -2.8060  -2.7929  -2.7646
    -2.7530  -2.7489  -2.7332  -2.7119  -2.6188  -2.6159  -2.5927  -2.5584
    -2.5487  -2.5387  -2.5130  -2.5039  -2.4780  -2.4610  -2.4394  -2.4317
    -2.3799  -2.2676  -2.1246  -2.0914  -2.0784  -2.0459  -2.0187  -1.9640
    -1.9510  -1.9401  -1.9343  -1.9297  -1.9104  -1.8958  -1.8703  -1.8382
    -1.8065  -1.8028  -1.7868  -1.7536  -1.7429  -1.7344  -1.7278  -1.7172
    -1.7070  -1.6986  -1.6938  -1.6914  -1.6779  -1.6643  -1.6486  -1.6204
    -1.5999  -1.5709  -1.5482  -1.5190  -1.5076  -1.5044  -1.5009  -1.4900
    -1.4738  -1.4714  -1.4582  -1.4530  -1.4512  -1.4309  -1.4158  -1.3997
    -1.3827  -1.3772  -1.3413  -1.3048  -1.2856  -1.2197  -1.2097  -1.1814
    -1.1693  -1.1605  -1.1521  -1.1443  -1.1377  -1.1056  -1.0322  -0.9981
    -0.9650  -0.9598  -0.9170  -0.8937  -0.8733  -0.8265  -0.8063  -0.7898
    -0.7726  -0.7149  -0.6914  -0.6835  -0.6530  -0.6451  -0.6229  -0.6135
    -0.6061  -0.5796  -0.5712  -0.5327  -0.5173  -0.5109  -0.4981  -0.4932
    -0.4419  -0.4289  -0.4159  -0.4107  -0.3919  -0.3709  -0.3508  -0.3466
    -0.3373  -0.3292  -0.3235  -0.3169  -0.2974  -0.2886  -0.2706  -0.2370
    -0.2289  -0.2136  -0.2008  -0.1745  -0.1632  -0.1431  -0.1209  -0.0983
    -0.0885  -0.0800  -0.0682  -0.0638  -0.0400  -0.0326  -0.0294  -0.0251
     0.0043   0.0381   0.0508   0.0636   0.0821   0.0898   0.1246   0.1344
     0.1468   0.1869   0.4234   0.4345   0.5259   0.5940   0.6586   0.6977
     0.7824   0.9134

          k = 0.2000 0.1155 0.0000 ( 36641 PWs)   bands (ev):

   -21.4358 -10.1552  -7.3321  -6.7879  -6.1707  -5.5937  -5.4277  -5.2755
    -4.7834  -4.7641  -4.4200  -4.3043  -4.2003  -4.1901  -4.1308  -4.0782
    -4.0208  -4.0064  -3.9357  -3.8707  -3.8576  -3.6132  -3.4990  -3.4922
    -3.4245  -3.3983  -3.3633  -3.3602  -3.3550  -3.3433  -3.3255  -3.3170
    -3.2763  -3.2403  -3.2361  -3.2085  -3.2058  -3.0280  -2.9808  -2.9801
    -2.9387  -2.9272  -2.9194  -2.9180  -2.8501  -2.8106  -2.7970  -2.7717
    -2.7564  -2.7496  -2.7333  -2.7189  -2.6224  -2.6182  -2.5922  -2.5633
    -2.5550  -2.5233  -2.5114  -2.4937  -2.4795  -2.4618  -2.4391  -2.4356
    -2.3888  -2.2497  -2.1210  -2.0940  -2.0757  -2.0502  -2.0281  -1.9569
    -1.9514  -1.9447  -1.9364  -1.9242  -1.9151  -1.8988  -1.8604  -1.8520
    -1.8228  -1.7994  -1.7738  -1.7636  -1.7398  -1.7370  -1.7309  -1.7133
    -1.7031  -1.6985  -1.6976  -1.6910  -1.6682  -1.6673  -1.6370  -1.6270
    -1.5874  -1.5669  -1.5628  -1.5240  -1.5066  -1.4980  -1.4962  -1.4892
    -1.4780  -1.4690  -1.4679  -1.4534  -1.4533  -1.4267  -1.4113  -1.3996
    -1.3840  -1.3814  -1.3614  -1.3173  -1.2882  -1.2067  -1.1873  -1.1799
    -1.1670  -1.1629  -1.1507  -1.1501  -1.1361  -1.1315  -1.0361  -1.0122
    -0.9587  -0.9434  -0.8971  -0.8938  -0.8621  -0.8451  -0.8107  -0.7959
    -0.7443  -0.7220  -0.6970  -0.6772  -0.6509  -0.6487  -0.6185  -0.6154
    -0.5959  -0.5901  -0.5641  -0.5185  -0.5090  -0.5037  -0.4905  -0.4859
    -0.4661  -0.4245  -0.4227  -0.4067  -0.4054  -0.3704  -0.3604  -0.3436
    -0.3384  -0.3313  -0.3227  -0.3136  -0.2924  -0.2920  -0.2615  -0.2491
    -0.2258  -0.2120  -0.1957  -0.1900  -0.1587  -0.1571  -0.1088  -0.0931
    -0.0873  -0.0784  -0.0768  -0.0641  -0.0394  -0.0344  -0.0216  -0.0182
     0.0090   0.0458   0.0533   0.0617   0.0873   0.0896   0.1224   0.1353
     0.1724   0.1788   0.4255   0.4283   0.5030   0.5708   0.6584   0.6818
     0.7531   0.9431

          k = 0.2000 0.3464 0.0000 ( 36608 PWs)   bands (ev):

   -21.4358 -10.1559  -7.0809  -6.7318  -6.0784  -5.6789  -5.6233  -5.4034
    -5.3456  -4.5146  -4.4518  -4.2051  -4.1950  -4.1515  -3.9851  -3.9771
    -3.8865  -3.8790  -3.8645  -3.7493  -3.7318  -3.6140  -3.5947  -3.5311
    -3.4929  -3.4080  -3.3953  -3.3827  -3.3693  -3.3483  -3.3267  -3.3091
    -3.2967  -3.2719  -3.2563  -3.2219  -3.1879  -3.1403  -3.1358  -3.0427
    -3.0213  -2.9260  -2.9177  -2.8921  -2.8696  -2.8630  -2.7727  -2.7376
    -2.7187  -2.6849  -2.6793  -2.6649  -2.6356  -2.6132  -2.6033  -2.5917
    -2.5683  -2.5022  -2.4602  -2.4052  -2.3972  -2.3848  -2.3538  -2.3357
    -2.3211  -2.2399  -2.2046  -2.1384  -2.1266  -2.0987  -2.0821  -2.0576
    -2.0424  -2.0322  -2.0202  -2.0093  -1.9904  -1.9727  -1.9695  -1.9622
    -1.9442  -1.9017  -1.8622  -1.8442  -1.7806  -1.7748  -1.7603  -1.7365
    -1.7316  -1.6967  -1.6858  -1.6616  -1.6563  -1.6320  -1.6220  -1.6073
    -1.6031  -1.5910  -1.5839  -1.5748  -1.5656  -1.5598  -1.5359  -1.5175
    -1.5120  -1.4989  -1.4690  -1.4407  -1.4229  -1.3959  -1.3910  -1.3743
    -1.3652  -1.3500  -1.3281  -1.3008  -1.2847  -1.2673  -1.2514  -1.2192
    -1.2070  -1.1979  -1.1900  -1.1843  -1.1652  -1.1394  -1.1248  -1.0887
    -1.0625  -1.0313  -1.0156  -0.9830  -0.9444  -0.9001  -0.8827  -0.8329
    -0.7845  -0.7746  -0.7645  -0.7529  -0.7407  -0.7224  -0.7120  -0.7007
    -0.6785  -0.6665  -0.6351  -0.6190  -0.5981  -0.5829  -0.5699  -0.5533
    -0.5374  -0.5200  -0.4953  -0.4791  -0.4725  -0.4233  -0.3694  -0.3312
    -0.3079  -0.2957  -0.2786  -0.2660  -0.2511  -0.2355  -0.2304  -0.2189
    -0.2108  -0.2019  -0.1444  -0.1223  -0.1123  -0.1026  -0.0667  -0.0520
    -0.0399  -0.0347  -0.0223  -0.0122  -0.0027   0.0071   0.0152   0.0355
     0.0413   0.0678   0.1227   0.1323   0.1456   0.1795   0.1844   0.1998
     0.4948   0.5263   0.5753   0.6682   0.8556   0.8760   1.1661   1.3786
     1.4237   1.6071

          k = 0.2000-0.5774 0.0000 ( 36660 PWs)   bands (ev):

   -21.4358 -10.1555  -6.8954  -6.4076  -6.3798  -5.9712  -5.7097  -5.4642
    -5.0578  -4.9372  -4.5376  -4.1903  -3.9464  -3.8929  -3.8085  -3.7715
    -3.7640  -3.7378  -3.7285  -3.7081  -3.6698  -3.6558  -3.6536  -3.6455
    -3.5664  -3.5372  -3.5044  -3.5000  -3.4718  -3.4618  -3.3685  -3.3400
    -3.3194  -3.3122  -3.2870  -3.2434  -3.1882  -3.1474  -3.0587  -3.0201
    -3.0147  -2.9729  -2.9399  -2.9136  -2.8887  -2.8085  -2.8003  -2.7939
    -2.7336  -2.7195  -2.6452  -2.6171  -2.6047  -2.5791  -2.5322  -2.5163
    -2.4683  -2.4381  -2.4305  -2.4197  -2.4154  -2.3955  -2.3645  -2.2948
    -2.2644  -2.2293  -2.2146  -2.2037  -2.1960  -2.1449  -2.1259  -2.0892
    -2.0716  -2.0449  -2.0363  -2.0202  -2.0034  -1.9927  -1.9608  -1.9561
    -1.9405  -1.9292  -1.9136  -1.8901  -1.8866  -1.8756  -1.8197  -1.8093
    -1.7759  -1.7570  -1.7276  -1.7009  -1.6854  -1.6625  -1.6436  -1.6262
    -1.6110  -1.6070  -1.5967  -1.5840  -1.5741  -1.5670  -1.5387  -1.5145
    -1.4831  -1.4613  -1.4432  -1.4366  -1.4255  -1.4162  -1.4092  -1.4020
    -1.3957  -1.3840  -1.3659  -1.3469  -1.3202  -1.2986  -1.2743  -1.2552
    -1.2148  -1.1926  -1.1602  -1.1569  -1.1230  -1.1155  -1.1031  -1.0850
    -1.0470  -1.0400  -1.0265  -0.9955  -0.9437  -0.9034  -0.8884  -0.8711
    -0.8609  -0.8513  -0.8404  -0.8098  -0.7938  -0.7797  -0.7519  -0.7245
    -0.7036  -0.6807  -0.6690  -0.6601  -0.6335  -0.6037  -0.5899  -0.5815
    -0.5645  -0.5422  -0.5294  -0.5227  -0.4838  -0.4505  -0.4309  -0.3413
    -0.2950  -0.2757  -0.2653  -0.2516  -0.2481  -0.2388  -0.2319  -0.2001
    -0.1844  -0.1755  -0.1626  -0.1488  -0.1204  -0.1062  -0.0395  -0.0379
    -0.0249  -0.0089   0.0022   0.0142   0.0573   0.0630   0.0676   0.0767
     0.0915   0.1592   0.1664   0.1743   0.1854   0.1914   0.2173   0.2438
     0.3282   0.5504   0.6403   0.8983   1.3656   1.4730   1.5338   1.8009
     1.9301   2.0047

          k = 0.2000-0.3464 0.0000 ( 36608 PWs)   bands (ev):

   -21.4358 -10.1545  -7.0847  -6.7335  -6.0893  -5.7090  -5.6207  -5.4106
    -5.2855  -4.5345  -4.4274  -4.2070  -4.2022  -4.1449  -3.9832  -3.9790
    -3.8862  -3.8697  -3.8577  -3.7574  -3.7465  -3.6049  -3.6017  -3.5344
    -3.4927  -3.4162  -3.3928  -3.3780  -3.3661  -3.3404  -3.3298  -3.3244
    -3.3033  -3.2772  -3.2582  -3.2247  -3.1932  -3.1462  -3.1279  -3.0386
    -3.0222  -2.9286  -2.9188  -2.8921  -2.8808  -2.8444  -2.7589  -2.7260
    -2.7113  -2.6898  -2.6812  -2.6584  -2.6380  -2.6234  -2.6014  -2.5809
    -2.5772  -2.5072  -2.4581  -2.4057  -2.3996  -2.3679  -2.3592  -2.3306
    -2.3169  -2.2662  -2.1998  -2.1354  -2.1205  -2.1056  -2.0855  -2.0541
    -2.0496  -2.0299  -2.0202  -2.0060  -1.9953  -1.9794  -1.9661  -1.9617
    -1.9372  -1.9025  -1.8534  -1.8080  -1.7787  -1.7653  -1.7534  -1.7360
    -1.7218  -1.7177  -1.6879  -1.6694  -1.6467  -1.6435  -1.6211  -1.6115
    -1.6072  -1.5985  -1.5911  -1.5727  -1.5645  -1.5532  -1.5452  -1.5225
    -1.5119  -1.4979  -1.4774  -1.4405  -1.4221  -1.4002  -1.3797  -1.3709
    -1.3579  -1.3473  -1.3394  -1.2886  -1.2748  -1.2668  -1.2469  -1.2285
    -1.2075  -1.1993  -1.1888  -1.1780  -1.1605  -1.1465  -1.1289  -1.0829
    -1.0713  -1.0363  -1.0270  -0.9827  -0.9439  -0.9123  -0.8846  -0.8107
    -0.7885  -0.7704  -0.7680  -0.7546  -0.7423  -0.7261  -0.7250  -0.7024
    -0.6847  -0.6623  -0.6362  -0.6195  -0.6055  -0.5814  -0.5749  -0.5560
    -0.5410  -0.5234  -0.4924  -0.4779  -0.4723  -0.4280  -0.3671  -0.3203
    -0.3117  -0.2938  -0.2775  -0.2682  -0.2490  -0.2453  -0.2348  -0.2169
    -0.2074  -0.1855  -0.1372  -0.1281  -0.1212  -0.1152  -0.0690  -0.0441
    -0.0421  -0.0346  -0.0259  -0.0094  -0.0053   0.0027   0.0114   0.0240
     0.0488   0.1004   0.1249   0.1288   0.1407   0.1726   0.1884   0.2151
     0.4937   0.5251   0.5370   0.7414   0.8005   0.8812   1.1645   1.3843
     1.4096   1.6125

          k = 0.4000-0.2309 0.0000 ( 36606 PWs)   bands (ev):

   -21.4358 -10.1548  -6.9917  -6.6873  -6.1866  -5.9778  -5.5121  -5.2507
    -4.9322  -4.9160  -4.7897  -4.0888  -4.0558  -4.0302  -3.9913  -3.9429
    -3.8416  -3.8358  -3.7918  -3.7111  -3.6989  -3.6861  -3.5976  -3.5222
    -3.5143  -3.5098  -3.5043  -3.4516  -3.4206  -3.3958  -3.3880  -3.2523
    -3.2355  -3.2284  -3.2120  -3.1914  -3.1787  -3.0960  -3.0857  -3.0728
    -3.0566  -3.0487  -2.9428  -2.8791  -2.8541  -2.7771  -2.7529  -2.7278
    -2.7103  -2.6738  -2.6677  -2.6630  -2.6487  -2.6328  -2.5821  -2.5641
    -2.5350  -2.5162  -2.4966  -2.4169  -2.3633  -2.3584  -2.3216  -2.2906
    -2.2615  -2.2424  -2.2221  -2.1990  -2.1907  -2.1358  -2.0903  -2.0714
    -2.0661  -2.0641  -2.0559  -2.0405  -2.0267  -2.0166  -1.9764  -1.9553
    -1.9457  -1.9239  -1.8945  -1.8813  -1.8523  -1.8282  -1.7706  -1.7555
    -1.7452  -1.7221  -1.7131  -1.6908  -1.6670  -1.6487  -1.6334  -1.6245
    -1.6104  -1.6061  -1.5821  -1.5725  -1.5593  -1.5505  -1.5375  -1.5129
    -1.5049  -1.4811  -1.4546  -1.4400  -1.3949  -1.3604  -1.3406  -1.3280
    -1.3259  -1.3032  -1.2641  -1.2393  -1.2229  -1.2111  -1.2023  -1.1983
    -1.1848  -1.1804  -1.1696  -1.1650  -1.1523  -1.1449  -1.1303  -1.1197
    -1.0971  -1.0793  -1.0209  -0.9991  -0.9707  -0.9603  -0.9486  -0.9234
    -0.9018  -0.8575  -0.8459  -0.8295  -0.8109  -0.7766  -0.7581  -0.7115
    -0.6893  -0.6526  -0.6398  -0.6264  -0.6078  -0.5957  -0.5787  -0.5062
    -0.4625  -0.4485  -0.4281  -0.4157  -0.4104  -0.4030  -0.3944  -0.3833
    -0.3646  -0.3401  -0.2811  -0.2690  -0.2563  -0.2462  -0.2367  -0.2299
    -0.2183  -0.2099  -0.1998  -0.1823  -0.1599  -0.1356  -0.0884  -0.0633
    -0.0590  -0.0440  -0.0259   0.0235   0.0415   0.0479   0.0675   0.1042
     0.1174   0.1553   0.1601   0.1808   0.1837   0.1904   0.2076   0.2143
     0.2874   0.3064   0.4129   0.9645   1.1929   1.3776   1.4123   1.4484
     1.6535   1.7862

          k = 0.4000 0.0000 0.0000 ( 36608 PWs)   bands (ev):

   -21.4358 -10.1558  -7.0809  -6.7321  -6.0793  -5.6817  -5.6225  -5.4047
    -5.3414  -4.5158  -4.4498  -4.2053  -4.1959  -4.1510  -3.9850  -3.9770
    -3.8863  -3.8783  -3.8645  -3.7494  -3.7328  -3.6138  -3.5947  -3.5312
    -3.4930  -3.4084  -3.3951  -3.3816  -3.3691  -3.3483  -3.3264  -3.3095
    -3.2968  -3.2720  -3.2561  -3.2220  -3.1879  -3.1405  -3.1360  -3.0407
    -3.0212  -2.9271  -2.9182  -2.8923  -2.8685  -2.8626  -2.7727  -2.7392
    -2.7188  -2.6850  -2.6792  -2.6650  -2.6364  -2.6136  -2.6035  -2.5919
    -2.5678  -2.5051  -2.4605  -2.4044  -2.3964  -2.3851  -2.3538  -2.3359
    -2.3209  -2.2386  -2.2047  -2.1380  -2.1262  -2.0986  -2.0820  -2.0587
    -2.0424  -2.0310  -2.0200  -2.0099  -1.9909  -1.9730  -1.9695  -1.9611
    -1.9442  -1.9016  -1.8617  -1.8425  -1.7812  -1.7748  -1.7612  -1.7364
    -1.7313  -1.6965  -1.6861  -1.6618  -1.6565  -1.6313  -1.6221  -1.6075
    -1.6031  -1.5907  -1.5842  -1.5745  -1.5656  -1.5599  -1.5362  -1.5175
    -1.5117  -1.4981  -1.4694  -1.4406  -1.4226  -1.3958  -1.3911  -1.3747
    -1.3652  -1.3501  -1.3277  -1.3014  -1.2845  -1.2674  -1.2516  -1.2207
    -1.2070  -1.1981  -1.1901  -1.1848  -1.1649  -1.1392  -1.1247  -1.0887
    -1.0624  -1.0312  -1.0158  -0.9834  -0.9437  -0.8998  -0.8830  -0.8340
    -0.7844  -0.7743  -0.7647  -0.7524  -0.7408  -0.7223  -0.7114  -0.7005
    -0.6785  -0.6663  -0.6349  -0.6189  -0.5981  -0.5824  -0.5698  -0.5535
    -0.5377  -0.5198  -0.4949  -0.4793  -0.4727  -0.4245  -0.3698  -0.3315
    -0.3082  -0.2953  -0.2787  -0.2658  -0.2510  -0.2351  -0.2307  -0.2183
    -0.2114  -0.2024  -0.1442  -0.1223  -0.1123  -0.1027  -0.0667  -0.0514
    -0.0397  -0.0347  -0.0221  -0.0121  -0.0027   0.0072   0.0149   0.0356
     0.0416   0.0680   0.1226   0.1323   0.1459   0.1794   0.1843   0.2009
     0.4953   0.5264   0.5749   0.6717   0.8549   0.8747   1.1676   1.3772
     1.4252   1.6025

          k = 0.4000 0.2309 0.0000 ( 36606 PWs)   bands (ev):

   -21.4358 -10.1571  -6.9885  -6.6835  -6.1539  -5.9789  -5.4386  -5.3778
    -4.9320  -4.8885  -4.8322  -4.1015  -4.0215  -4.0163  -3.9936  -3.9547
    -3.8400  -3.8316  -3.7915  -3.7067  -3.6914  -3.6904  -3.6148  -3.5157
    -3.5156  -3.5063  -3.5033  -3.4508  -3.4370  -3.3964  -3.3857  -3.2344
    -3.2327  -3.2092  -3.2038  -3.1840  -3.1749  -3.1026  -3.0712  -3.0675
    -3.0559  -3.0521  -2.9416  -2.8740  -2.8706  -2.7886  -2.7726  -2.7330
    -2.7202  -2.6780  -2.6731  -2.6622  -2.6460  -2.6327  -2.5710  -2.5657
    -2.5470  -2.5271  -2.5037  -2.4131  -2.3658  -2.3464  -2.3444  -2.2904
    -2.2525  -2.2341  -2.2310  -2.2144  -2.1557  -2.1373  -2.1271  -2.0749
    -2.0718  -2.0608  -2.0469  -2.0456  -2.0216  -2.0136  -1.9880  -1.9465
    -1.9452  -1.9199  -1.8937  -1.8574  -1.8480  -1.8376  -1.7691  -1.7644
    -1.7516  -1.7327  -1.7154  -1.7042  -1.6609  -1.6410  -1.6295  -1.6247
    -1.6159  -1.5942  -1.5867  -1.5686  -1.5565  -1.5446  -1.5289  -1.5224
    -1.5017  -1.4822  -1.4378  -1.4347  -1.3731  -1.3616  -1.3452  -1.3273
    -1.3176  -1.3080  -1.2747  -1.2348  -1.2275  -1.2119  -1.2015  -1.1997
    -1.1850  -1.1821  -1.1706  -1.1703  -1.1633  -1.1506  -1.1257  -1.1198
    -1.1145  -1.0840  -1.0179  -0.9937  -0.9637  -0.9627  -0.9379  -0.9340
    -0.9121  -0.8520  -0.8371  -0.8160  -0.8045  -0.7649  -0.7638  -0.7141
    -0.6953  -0.6499  -0.6301  -0.6217  -0.6009  -0.5863  -0.5494  -0.5407
    -0.4626  -0.4454  -0.4208  -0.4146  -0.4135  -0.4029  -0.3902  -0.3899
    -0.3689  -0.3195  -0.2918  -0.2669  -0.2554  -0.2508  -0.2448  -0.2339
    -0.2240  -0.1965  -0.1887  -0.1798  -0.1669  -0.1589  -0.0781  -0.0684
    -0.0556  -0.0491  -0.0197   0.0114   0.0393   0.0453   0.0757   0.0898
     0.1168   0.1572   0.1578   0.1820   0.1842   0.1892   0.2121   0.2351
     0.2865   0.3006   0.4069   1.0011   1.2351   1.3212   1.3990   1.4243
     1.7299   1.7777

          k = 0.4000-0.6928 0.0000 ( 36660 PWs)   bands (ev):

   -21.4358 -10.1568  -6.8950  -6.3956  -6.3630  -5.9990  -5.7110  -5.3899
    -5.1527  -4.9595  -4.4969  -4.1867  -3.9454  -3.9015  -3.8178  -3.7736
    -3.7631  -3.7394  -3.7266  -3.7136  -3.6657  -3.6549  -3.6516  -3.6393
    -3.5655  -3.5412  -3.5010  -3.4936  -3.4688  -3.4683  -3.3741  -3.3344
    -3.3132  -3.3110  -3.2745  -3.2435  -3.1714  -3.1414  -3.0743  -3.0178
    -3.0147  -2.9661  -2.9421  -2.9159  -2.8820  -2.8174  -2.8076  -2.7894
    -2.7447  -2.7339  -2.6395  -2.6180  -2.5986  -2.5778  -2.5342  -2.5260
    -2.4735  -2.4376  -2.4348  -2.4224  -2.4179  -2.4037  -2.3768  -2.2984
    -2.2424  -2.2225  -2.2141  -2.2074  -2.1794  -2.1450  -2.1414  -2.0945
    -2.0684  -2.0440  -2.0332  -2.0269  -2.0169  -1.9855  -1.9671  -1.9581
    -1.9442  -1.9319  -1.9220  -1.8916  -1.8845  -1.8595  -1.8200  -1.8070
    -1.7914  -1.7487  -1.7166  -1.7129  -1.6940  -1.6469  -1.6382  -1.6277
    -1.6104  -1.6062  -1.5999  -1.5818  -1.5765  -1.5522  -1.5343  -1.5001
    -1.4830  -1.4599  -1.4411  -1.4361  -1.4193  -1.4155  -1.4127  -1.4010
    -1.3895  -1.3764  -1.3570  -1.3495  -1.3357  -1.2972  -1.2716  -1.2690
    -1.2360  -1.1970  -1.1498  -1.1470  -1.1380  -1.1203  -1.1108  -1.0832
    -1.0485  -1.0356  -1.0234  -0.9968  -0.9268  -0.9051  -0.8855  -0.8812
    -0.8688  -0.8511  -0.8263  -0.8163  -0.7915  -0.7693  -0.7478  -0.7364
    -0.7091  -0.6828  -0.6657  -0.6558  -0.6319  -0.5975  -0.5858  -0.5662
    -0.5571  -0.5471  -0.5358  -0.5187  -0.4723  -0.4596  -0.4293  -0.3455
    -0.2870  -0.2843  -0.2661  -0.2593  -0.2461  -0.2401  -0.2233  -0.2133
    -0.1889  -0.1727  -0.1591  -0.1465  -0.1283  -0.0977  -0.0414  -0.0306
    -0.0196  -0.0057  -0.0011   0.0190   0.0536   0.0607   0.0729   0.0762
     0.0979   0.1255   0.1629   0.1669   0.1810   0.1956   0.2135   0.2376
     0.3361   0.5524   0.6702   0.9433   1.3109   1.4700   1.5105   1.8273
     1.9377   1.9947

          k = 0.4000-0.4619 0.0000 ( 36660 PWs)   bands (ev):

   -21.4358 -10.1554  -6.8950  -6.4083  -6.3809  -5.9710  -5.7082  -5.4685
    -5.0521  -4.9374  -4.5394  -4.1906  -3.9463  -3.8922  -3.8069  -3.7713
    -3.7640  -3.7378  -3.7292  -3.7079  -3.6701  -3.6557  -3.6536  -3.6458
    -3.5661  -3.5372  -3.5043  -3.5003  -3.4719  -3.4618  -3.3680  -3.3390
    -3.3197  -3.3122  -3.2873  -3.2435  -3.1903  -3.1475  -3.0551  -3.0201
    -3.0147  -2.9754  -2.9399  -2.9128  -2.8889  -2.8084  -2.8004  -2.7950
    -2.7333  -2.7196  -2.6453  -2.6174  -2.6054  -2.5790  -2.5327  -2.5162
    -2.4681  -2.4381  -2.4304  -2.4201  -2.4155  -2.3947  -2.3639  -2.2959
    -2.2648  -2.2289  -2.2147  -2.2035  -2.1967  -2.1451  -2.1261  -2.0896
    -2.0716  -2.0448  -2.0362  -2.0198  -2.0029  -1.9933  -1.9610  -1.9557
    -1.9402  -1.9293  -1.9150  -1.8903  -1.8867  -1.8750  -1.8194  -1.8087
    -1.7765  -1.7567  -1.7262  -1.7007  -1.6853  -1.6624  -1.6436  -1.6256
    -1.6117  -1.6070  -1.5966  -1.5841  -1.5736  -1.5660  -1.5385  -1.5157
    -1.4833  -1.4617  -1.4434  -1.4368  -1.4252  -1.4162  -1.4089  -1.4020
    -1.3957  -1.3835  -1.3659  -1.3469  -1.3199  -1.2987  -1.2741  -1.2559
    -1.2143  -1.1920  -1.1612  -1.1563  -1.1232  -1.1148  -1.1030  -1.0860
    -1.0469  -1.0396  -1.0262  -0.9955  -0.9433  -0.9035  -0.8885  -0.8711
    -0.8609  -0.8519  -0.8402  -0.8098  -0.7944  -0.7798  -0.7513  -0.7244
    -0.7041  -0.6810  -0.6688  -0.6596  -0.6340  -0.6038  -0.5894  -0.5815
    -0.5650  -0.5419  -0.5294  -0.5228  -0.4839  -0.4505  -0.4313  -0.3416
    -0.2951  -0.2756  -0.2655  -0.2520  -0.2479  -0.2393  -0.2318  -0.1998
    -0.1851  -0.1754  -0.1627  -0.1486  -0.1201  -0.1062  -0.0397  -0.0379
    -0.0239  -0.0091   0.0020   0.0140   0.0576   0.0627   0.0675   0.0771
     0.0914   0.1593   0.1666   0.1748   0.1855   0.1927   0.2173   0.2442
     0.3291   0.5507   0.6388   0.9002   1.3646   1.4727   1.5348   1.7955
     1.9382   2.0021

 ------ SPIN DOWN ----------


          k = 0.0000 0.0000 0.0000 ( 36693 PWs)   bands (ev):

   -21.4121 -10.2337  -7.5904  -6.8016  -6.2824  -5.6183  -5.4035  -4.3601
    -4.3409  -4.3360  -4.3334  -4.3291  -4.2941  -4.1987  -3.4968  -3.4630
    -3.4622  -3.4562  -3.4283  -3.3964  -3.2979  -2.5709  -2.5151  -2.5109
    -2.5013  -2.4752  -2.4258  -2.0702  -2.0459  -2.0432  -2.0391  -2.0339
    -2.0148  -1.8873  -1.8387  -1.7817  -1.7608  -1.7583  -1.7450  -1.7227
    -1.6503  -1.6453  -1.6038  -1.5987  -1.5913  -1.5235  -1.4920  -1.4909
    -1.4795  -1.4581  -1.3080  -1.2385  -1.2293  -1.2236  -1.2185  -1.2086
    -1.2084  -1.1943  -1.1793  -1.1547  -1.1526  -1.1334  -1.1287  -1.1167
    -1.0855  -0.9963  -0.6846  -0.5708  -0.5653  -0.5439  -0.5401  -0.4132
    -0.3527  -0.2547  -0.2328  -0.2289  -0.2159  -0.2148  -0.2100  -0.1672
    -0.1592  -0.1577  -0.1413  -0.1318  -0.1315  -0.1305  -0.0750  -0.0482
    -0.0346  -0.0244  -0.0176  -0.0047   0.0182   0.0241   0.0261   0.0342
     0.0353   0.0360   0.0605   0.0622   0.0635   0.0757   0.1092   0.1223
     0.1975   0.2240   0.2298   0.2774   0.2794   0.2885   0.2910   0.2946
     0.3000   0.3012   0.3024   0.3682   0.3708   0.3731   0.4341   0.4369
     0.4574   0.4780   0.4798   0.5128   0.6353   0.6817   0.6910   0.7318
     0.7683   0.7719   0.7798   0.7813   0.8523   0.9612   1.0793   1.1094
     1.1248   1.1300   1.3070   1.3247   1.3334   1.3387   1.3458   1.3487
     1.3672   1.4972   1.4988   1.5125   1.5173   1.5177   1.5432   1.5434
     1.5514   1.5765   1.5935   1.6054   1.6451   1.6465   1.6485   1.6645
     1.6651   1.6714   1.6733   1.6849   1.7148   1.7231   1.7543   1.7711
     1.7787   1.7831   1.7839   1.7934   1.7942   1.8003   1.8039   1.8397
     1.8582   1.8700   1.8738   1.8752   1.8880   1.8895   1.8946   1.9287
     1.9296   1.9397   1.9405   1.9467   1.9487   1.9568   1.9637   1.9671
     1.9733   2.0201   2.0221   2.0569   2.1677   2.1711   2.1775   2.1823
     2.1843   2.1866

          k = 0.0000 0.2309 0.0000 ( 36641 PWs)   bands (ev):

   -21.4121 -10.2340  -7.4456  -6.7752  -6.2086  -5.6335  -5.4060  -5.2382
    -4.7237  -4.7054  -4.1928  -4.0513  -3.7928  -3.7809  -3.7096  -3.6521
    -3.4917  -3.2365  -3.1329  -3.0929  -3.0048  -2.7370  -2.5570  -2.5004
    -2.4587  -2.4152  -2.3790  -2.1783  -2.0956  -2.0810  -2.0710  -2.0434
    -2.0252  -1.9996  -1.9825  -1.9532  -1.9369  -1.8578  -1.7995  -1.7329
    -1.7182  -1.7071  -1.6789  -1.5689  -1.5219  -1.5181  -1.4958  -1.4359
    -1.3794  -1.3637  -1.3149  -1.2834  -1.2632  -1.2405  -1.2230  -1.2176
    -1.1970  -1.1863  -1.1237  -1.1049  -1.0760  -1.0571  -1.0438  -1.0062
    -0.9752  -0.8873  -0.7389  -0.6098  -0.5964  -0.5733  -0.5629  -0.5128
    -0.4446  -0.4293  -0.3834  -0.3688  -0.2648  -0.2527  -0.2414  -0.2247
    -0.2101  -0.1975  -0.1811  -0.1655  -0.1592  -0.1437  -0.1107  -0.0571
    -0.0328  -0.0206  -0.0104  -0.0034   0.0191   0.0405   0.0493   0.0588
     0.0657   0.0726   0.0753   0.0842   0.0865   0.0926   0.1339   0.1453
     0.1657   0.1763   0.1894   0.1966   0.2169   0.2348   0.2483   0.2665
     0.2907   0.2991   0.3562   0.3803   0.3933   0.4106   0.4201   0.4378
     0.5221   0.5721   0.6240   0.6509   0.6581   0.6807   0.7074   0.7319
     0.7395   0.7567   0.7588   0.7657   0.8430   0.9954   1.0693   1.0920
     1.0953   1.0997   1.1167   1.1340   1.1598   1.1734   1.2548   1.2799
     1.3120   1.3324   1.3716   1.3803   1.4061   1.4259   1.4549   1.4862
     1.5166   1.5511   1.5598   1.5716   1.5815   1.5968   1.6194   1.6286
     1.6574   1.6905   1.7136   1.7270   1.7529   1.7575   1.7706   1.8104
     1.8190   1.8298   1.8356   1.8414   1.8590   1.8922   1.9172   1.9264
     1.9328   1.9537   1.9651   1.9782   1.9883   2.0008   2.0176   2.0238
     2.0386   2.0784   2.0806   2.0901   2.1027   2.1102   2.1248   2.1328
     2.1475   2.1688   2.1760   2.1856   2.2482   2.2736   2.2777   2.3081
     2.3506   2.3756

          k = 0.0000 0.4619 0.0000 ( 36606 PWs)   bands (ev):

   -21.4121 -10.2346  -7.0551  -6.7166  -6.2551  -6.0019  -5.5272  -5.2656
    -4.9377  -4.9136  -4.7723  -3.8543  -3.8301  -3.7142  -3.2253  -3.1712
    -3.1625  -3.0444  -2.8993  -2.8503  -2.7399  -2.7098  -2.5789  -2.5620
    -2.5344  -2.4941  -2.4440  -2.4087  -2.3389  -2.3153  -2.2813  -2.2455
    -2.2285  -2.0533  -2.0229  -1.9561  -1.9415  -1.8490  -1.8309  -1.8190
    -1.8095  -1.7903  -1.7186  -1.5568  -1.5130  -1.4830  -1.4654  -1.4305
    -1.3142  -1.2946  -1.2723  -1.2672  -1.2563  -1.2308  -1.2288  -1.2045
    -1.1796  -1.1098  -1.1061  -1.0955  -1.0675  -1.0440  -0.9390  -0.8987
    -0.8196  -0.7655  -0.7171  -0.6432  -0.6191  -0.5926  -0.5681  -0.5502
    -0.5367  -0.5176  -0.4782  -0.4557  -0.4307  -0.3916  -0.3608  -0.3453
    -0.3151  -0.2934  -0.2710  -0.2673  -0.2325  -0.2000  -0.1575  -0.1094
    -0.0836  -0.0701  -0.0336  -0.0086   0.0088   0.0396   0.0492   0.0720
     0.0957   0.1100   0.1186   0.1366   0.1439   0.1499   0.1716   0.1961
     0.2024   0.2271   0.2376   0.2477   0.2494   0.2569   0.2665   0.2894
     0.3112   0.3277   0.3811   0.4224   0.4536   0.4610   0.4928   0.5110
     0.5133   0.5354   0.5480   0.5843   0.6211   0.6229   0.6329   0.6684
     0.6901   0.6963   0.7214   0.7388   0.7657   0.8063   0.8723   0.9107
     0.9273   0.9609   1.0500   1.0889   1.1473   1.1718   1.1881   1.1953
     1.2144   1.2276   1.2588   1.2939   1.3051   1.3854   1.4569   1.4731
     1.4889   1.5121   1.5395   1.5584   1.5952   1.6048   1.6321   1.6454
     1.6767   1.6855   1.7295   1.7573   1.7907   1.8023   1.8292   1.8392
     1.8485   1.8535   1.8687   1.9002   1.9193   1.9291   1.9407   1.9681
     1.9830   2.0236   2.0331   2.0736   2.0923   2.1107   2.1198   2.1287
     2.1327   2.1538   2.1701   2.1787   2.1915   2.2037   2.2079   2.2112
     2.2323   2.2591   2.3475   2.4117   2.4216   2.5425   2.6859   2.8499
     2.9310   2.9779

          k = 0.2000-0.1155 0.0000 ( 36641 PWs)   bands (ev):

   -21.4121 -10.2340  -7.4456  -6.7751  -6.2091  -5.6353  -5.4064  -5.2347
    -4.7243  -4.7063  -4.1909  -4.0508  -3.7930  -3.7810  -3.7114  -3.6524
    -3.4913  -3.2365  -3.1336  -3.0928  -3.0037  -2.7348  -2.5593  -2.5000
    -2.4575  -2.4167  -2.3790  -2.1757  -2.0962  -2.0808  -2.0709  -2.0457
    -2.0247  -2.0001  -1.9826  -1.9545  -1.9366  -1.8568  -1.7995  -1.7290
    -1.7182  -1.7026  -1.6874  -1.5690  -1.5219  -1.5180  -1.4954  -1.4352
    -1.3803  -1.3637  -1.3137  -1.2847  -1.2630  -1.2405  -1.2231  -1.2171
    -1.1966  -1.1874  -1.1250  -1.1050  -1.0760  -1.0563  -1.0448  -1.0052
    -0.9761  -0.8849  -0.7394  -0.6099  -0.5960  -0.5734  -0.5630  -0.5129
    -0.4451  -0.4287  -0.3838  -0.3690  -0.2651  -0.2530  -0.2416  -0.2247
    -0.2099  -0.1972  -0.1809  -0.1655  -0.1593  -0.1443  -0.1104  -0.0572
    -0.0326  -0.0206  -0.0103  -0.0038   0.0183   0.0403   0.0494   0.0589
     0.0661   0.0728   0.0757   0.0844   0.0865   0.0927   0.1337   0.1452
     0.1656   0.1760   0.1900   0.1965   0.2165   0.2357   0.2479   0.2660
     0.2911   0.2982   0.3561   0.3793   0.3933   0.4106   0.4205   0.4378
     0.5221   0.5729   0.6271   0.6510   0.6595   0.6791   0.7073   0.7319
     0.7398   0.7564   0.7590   0.7659   0.8418   0.9955   1.0694   1.0923
     1.0950   1.0998   1.1173   1.1338   1.1593   1.1743   1.2548   1.2800
     1.3122   1.3327   1.3719   1.3802   1.4062   1.4258   1.4549   1.4849
     1.5166   1.5514   1.5601   1.5723   1.5813   1.5971   1.6194   1.6286
     1.6560   1.6906   1.7139   1.7269   1.7528   1.7582   1.7705   1.8101
     1.8190   1.8298   1.8359   1.8414   1.8588   1.8922   1.9171   1.9261
     1.9328   1.9538   1.9649   1.9782   1.9884   2.0012   2.0174   2.0238
     2.0384   2.0785   2.0807   2.0901   2.1030   2.1103   2.1248   2.1337
     2.1479   2.1688   2.1761   2.1857   2.2484   2.2734   2.2777   2.3099
     2.3494   2.3760

          k = 0.2000 0.1155 0.0000 ( 36641 PWs)   bands (ev):

   -21.4121 -10.2349  -7.4439  -6.7756  -6.1995  -5.6018  -5.4131  -5.2929
    -4.7054  -4.6951  -4.2059  -4.0881  -3.7891  -3.7831  -3.6629  -3.6427
    -3.5009  -3.2357  -3.1169  -3.0965  -3.0224  -2.7571  -2.5184  -2.5128
    -2.4614  -2.3999  -2.3912  -2.1743  -2.0804  -2.0713  -2.0698  -2.0452
    -2.0331  -2.0019  -1.9830  -1.9525  -1.9468  -1.8683  -1.7956  -1.7626
    -1.7158  -1.7150  -1.6345  -1.6157  -1.5370  -1.5177  -1.4747  -1.4070
    -1.3866  -1.3613  -1.3142  -1.3036  -1.2582  -1.2403  -1.2255  -1.2172
    -1.2093  -1.1644  -1.1458  -1.1017  -1.0843  -1.0429  -1.0401  -1.0052
    -0.9662  -0.8720  -0.7531  -0.6103  -0.5993  -0.5710  -0.5621  -0.5162
    -0.4630  -0.4171  -0.3795  -0.3772  -0.2800  -0.2430  -0.2415  -0.2334
    -0.1960  -0.1871  -0.1865  -0.1686  -0.1625  -0.1360  -0.1221  -0.0535
    -0.0318  -0.0210  -0.0079  -0.0045   0.0113   0.0494   0.0543   0.0586
     0.0632   0.0723   0.0752   0.0847   0.0849   0.0936   0.1373   0.1383
     0.1684   0.1733   0.1943   0.1947   0.2015   0.2405   0.2545   0.2700
     0.2903   0.2950   0.3523   0.3931   0.4030   0.4101   0.4241   0.4372
     0.4929   0.5723   0.6113   0.6502   0.6585   0.7040   0.7145   0.7349
     0.7443   0.7525   0.7619   0.7682   0.8352   0.9932   1.0686   1.0847
     1.0914   1.1055   1.1255   1.1389   1.1620   1.2229   1.2606   1.2915
     1.2959   1.3293   1.3724   1.3850   1.4151   1.4257   1.4343   1.4560
     1.5221   1.5437   1.5674   1.5812   1.5955   1.6137   1.6149   1.6390
     1.6432   1.6987   1.7027   1.7242   1.7370   1.7686   1.7707   1.8024
     1.8207   1.8281   1.8400   1.8429   1.8680   1.8854   1.9157   1.9216
     1.9293   1.9426   1.9669   1.9758   1.9927   2.0029   2.0130   2.0282
     2.0429   2.0764   2.0806   2.0837   2.1041   2.1080   2.1151   2.1381
     2.1430   2.1718   2.1732   2.1811   2.2591   2.2677   2.2765   2.3119
     2.3439   2.3891

          k = 0.2000 0.3464 0.0000 ( 36608 PWs)   bands (ev):

   -21.4121 -10.2356  -7.1697  -6.7360  -6.0867  -5.7414  -5.6945  -5.4172
    -5.3461  -4.4565  -4.3645  -3.9828  -3.9661  -3.8591  -3.1596  -3.1414
    -3.1314  -3.1206  -3.0208  -2.9367  -2.8496  -2.8364  -2.7992  -2.4679
    -2.4151  -2.3799  -2.3636  -2.3064  -2.2845  -2.2657  -2.2002  -2.1731
    -2.1618  -2.1565  -2.1265  -2.0237  -1.9645  -1.8777  -1.7975  -1.7833
    -1.7421  -1.7258  -1.6538  -1.6443  -1.5933  -1.4804  -1.4603  -1.4201
    -1.3463  -1.3031  -1.2630  -1.2577  -1.2534  -1.2350  -1.2120  -1.2028
    -1.1904  -1.1846  -1.1194  -1.0736  -1.0455  -0.9696  -0.9181  -0.8853
    -0.8193  -0.7893  -0.7486  -0.6781  -0.5822  -0.5604  -0.5503  -0.5094
    -0.4983  -0.4740  -0.4642  -0.4427  -0.3990  -0.3811  -0.3486  -0.3380
    -0.3306  -0.3090  -0.2934  -0.2699  -0.2172  -0.1829  -0.1227  -0.1078
    -0.0940  -0.0710  -0.0323  -0.0151   0.0002   0.0135   0.0253   0.0368
     0.0508   0.0724   0.0840   0.0911   0.1069   0.1223   0.1503   0.1773
     0.1893   0.1944   0.2025   0.2172   0.2319   0.2381   0.2527   0.2652
     0.3332   0.3534   0.3614   0.3807   0.4478   0.4877   0.5114   0.5215
     0.5519   0.5693   0.5947   0.6402   0.6548   0.6725   0.6829   0.6894
     0.7002   0.7166   0.7500   0.8013   0.8316   0.8573   0.9668   0.9952
     1.0453   1.0989   1.1114   1.1334   1.1495   1.1668   1.1789   1.1943
     1.2154   1.2252   1.2322   1.2582   1.2875   1.3498   1.3930   1.4011
     1.4329   1.4537   1.4580   1.4913   1.5174   1.5643   1.5688   1.5936
     1.6336   1.6898   1.7733   1.8012   1.8044   1.8287   1.8434   1.8542
     1.8705   1.8771   1.8941   1.9047   1.9325   1.9568   1.9767   1.9837
     2.0050   2.0222   2.0380   2.0401   2.0593   2.0772   2.0848   2.1085
     2.1172   2.1252   2.1315   2.1575   2.1631   2.1913   2.2144   2.2415
     2.2527   2.2701   2.3592   2.3836   2.4502   2.5068   2.5370   2.6667
     2.7866   2.8452

          k = 0.2000-0.5774 0.0000 ( 36660 PWs)   bands (ev):

   -21.4121 -10.2352  -6.8917  -6.5174  -6.4508  -5.9827  -5.7772  -5.4792
    -5.0871  -4.9408  -4.4950  -4.0366  -3.5080  -3.3652  -3.1757  -3.1656
    -3.1505  -2.9498  -2.9090  -2.7717  -2.7510  -2.7429  -2.6287  -2.6166
    -2.6065  -2.5748  -2.5700  -2.5504  -2.3697  -2.2728  -2.2131  -2.1969
    -2.1848  -2.1634  -2.1380  -2.1284  -2.0454  -2.0069  -1.8176  -1.7655
    -1.6822  -1.6658  -1.6600  -1.5900  -1.5370  -1.5143  -1.4222  -1.4169
    -1.3855  -1.3685  -1.3614  -1.2500  -1.2107  -1.1944  -1.1843  -1.1702
    -1.1367  -1.0765  -1.0372  -1.0131  -0.9786  -0.9633  -0.9417  -0.8582
    -0.8375  -0.7787  -0.6681  -0.6476  -0.6294  -0.5906  -0.5664  -0.5604
    -0.5214  -0.4947  -0.4711  -0.4467  -0.4120  -0.3926  -0.3575  -0.3437
    -0.3297  -0.3098  -0.2936  -0.2833  -0.2784  -0.2712  -0.2343  -0.2154
    -0.2065  -0.1740  -0.1422  -0.1233  -0.0988  -0.0482  -0.0202   0.0130
     0.0443   0.0900   0.0927   0.1155   0.1219   0.1439   0.1563   0.1726
     0.2074   0.2271   0.2553   0.2713   0.2839   0.2959   0.3369   0.3758
     0.4094   0.4225   0.4329   0.4388   0.4539   0.4926   0.5138   0.5418
     0.5498   0.5858   0.6119   0.6292   0.6540   0.6659   0.6981   0.7032
     0.7253   0.7305   0.7490   0.7646   0.7934   0.8065   0.8134   0.8525
     0.8823   0.9705   1.0192   1.0792   1.1018   1.1138   1.1398   1.1542
     1.1632   1.1765   1.1956   1.2599   1.2951   1.3415   1.3604   1.3752
     1.4035   1.4111   1.4457   1.4868   1.5039   1.5188   1.5564   1.6143
     1.6594   1.7045   1.7533   1.7820   1.8277   1.8626   1.8686   1.8874
     1.8991   1.9074   1.9269   1.9476   1.9697   1.9823   1.9976   2.0051
     2.0291   2.0583   2.0746   2.0856   2.0912   2.0968   2.1000   2.1071
     2.1238   2.1606   2.1771   2.1900   2.1963   2.2173   2.2213   2.2504
     2.2882   2.3105   2.4066   2.5486   2.6944   2.7759   2.9583   3.0921
     3.1094   3.1474

          k = 0.2000-0.3464 0.0000 ( 36608 PWs)   bands (ev):

   -21.4121 -10.2342  -7.1743  -6.7362  -6.1006  -5.7665  -5.6925  -5.4247
    -5.2853  -4.4815  -4.3360  -3.9800  -3.9781  -3.8488  -3.1724  -3.1444
    -3.1330  -3.1264  -3.0187  -2.9569  -2.8526  -2.8142  -2.7966  -2.4697
    -2.4203  -2.3821  -2.3687  -2.3159  -2.2843  -2.2661  -2.1992  -2.1742
    -2.1651  -2.1522  -2.1381  -2.0259  -1.9579  -1.8237  -1.7886  -1.7813
    -1.7482  -1.7227  -1.6752  -1.6493  -1.5674  -1.4915  -1.4676  -1.4298
    -1.3174  -1.3023  -1.2644  -1.2597  -1.2495  -1.2353  -1.2274  -1.2058
    -1.2012  -1.1751  -1.1097  -1.0683  -1.0416  -0.9927  -0.9276  -0.8957
    -0.8207  -0.7869  -0.7210  -0.6825  -0.5895  -0.5613  -0.5483  -0.5083
    -0.5012  -0.4770  -0.4495  -0.4271  -0.3965  -0.3651  -0.3501  -0.3370
    -0.3245  -0.3098  -0.2887  -0.2614  -0.2272  -0.1951  -0.1318  -0.1208
    -0.0979  -0.0862  -0.0330  -0.0195   0.0007   0.0128   0.0280   0.0380
     0.0433   0.0744   0.0807   0.1037   0.1148   0.1288   0.1464   0.1758
     0.1814   0.1869   0.2154   0.2276   0.2334   0.2365   0.2491   0.2634
     0.3156   0.3423   0.3663   0.3818   0.4785   0.4972   0.5035   0.5437
     0.5500   0.5880   0.5940   0.6092   0.6594   0.6750   0.6848   0.6873
     0.6915   0.7036   0.7403   0.7968   0.8212   0.8543   0.9666   1.0111
     1.0417   1.0906   1.0945   1.1423   1.1464   1.1624   1.1724   1.1961
     1.2035   1.2259   1.2378   1.2451   1.2878   1.3518   1.3892   1.3931
     1.4320   1.4502   1.4648   1.4855   1.5131   1.5576   1.5739   1.6281
     1.6432   1.6795   1.7778   1.7942   1.8208   1.8248   1.8369   1.8545
     1.8608   1.8756   1.9047   1.9099   1.9328   1.9652   1.9775   1.9813
     2.0092   2.0206   2.0311   2.0408   2.0604   2.0746   2.0833   2.1125
     2.1205   2.1267   2.1308   2.1583   2.1620   2.1736   2.2104   2.2482
     2.2588   2.3221   2.3472   2.3868   2.4149   2.5112   2.5329   2.6353
     2.7674   2.8570

          k = 0.4000-0.2309 0.0000 ( 36606 PWs)   bands (ev):

   -21.4121 -10.2345  -7.0550  -6.7168  -6.2567  -6.0030  -5.5299  -5.2601
    -4.9371  -4.9156  -4.7703  -3.8535  -3.8328  -3.7137  -3.2237  -3.1714
    -3.1626  -3.0440  -2.8987  -2.8492  -2.7413  -2.7097  -2.5798  -2.5620
    -2.5357  -2.4938  -2.4429  -2.4080  -2.3392  -2.3152  -2.2792  -2.2463
    -2.2283  -2.0546  -2.0228  -1.9584  -1.9408  -1.8480  -1.8283  -1.8190
    -1.8104  -1.7882  -1.7245  -1.5533  -1.5139  -1.4828  -1.4652  -1.4314
    -1.3176  -1.2940  -1.2723  -1.2662  -1.2566  -1.2311  -1.2291  -1.2035
    -1.1805  -1.1102  -1.1061  -1.0952  -1.0669  -1.0439  -0.9414  -0.8976
    -0.8167  -0.7647  -0.7195  -0.6440  -0.6189  -0.5933  -0.5674  -0.5502
    -0.5365  -0.5172  -0.4777  -0.4564  -0.4301  -0.3916  -0.3611  -0.3453
    -0.3149  -0.2932  -0.2709  -0.2671  -0.2325  -0.1992  -0.1584  -0.1102
    -0.0833  -0.0690  -0.0343  -0.0075   0.0090   0.0397   0.0488   0.0709
     0.0959   0.1094   0.1186   0.1371   0.1433   0.1500   0.1712   0.1962
     0.2021   0.2272   0.2373   0.2475   0.2491   0.2566   0.2669   0.2898
     0.3113   0.3278   0.3805   0.4223   0.4533   0.4612   0.4931   0.5107
     0.5135   0.5352   0.5481   0.5845   0.6209   0.6229   0.6326   0.6685
     0.6899   0.6982   0.7218   0.7392   0.7656   0.8085   0.8715   0.9106
     0.9291   0.9614   1.0499   1.0882   1.1471   1.1719   1.1884   1.1951
     1.2142   1.2286   1.2587   1.2942   1.3047   1.3855   1.4559   1.4716
     1.4889   1.5132   1.5406   1.5591   1.5942   1.6045   1.6317   1.6449
     1.6755   1.6856   1.7295   1.7574   1.7910   1.8023   1.8292   1.8397
     1.8488   1.8531   1.8695   1.9006   1.9191   1.9296   1.9412   1.9688
     1.9829   2.0259   2.0343   2.0738   2.0923   2.1103   2.1196   2.1290
[...]
     atom    8 type  1   force =     0.00044652   -0.00550104   -0.09882338
     atom    9 type  1   force =    -0.00062439    0.00405476   -0.10354058
     atom   10 type  1   force =     0.00112473    0.00065184   -0.01708162
     atom   11 type  1   force =     0.00015016    0.00073278   -0.00849407
     atom   12 type  1   force =     0.00010824    0.00230865   -0.01280562
     atom   13 type  1   force =     0.00067135   -0.00023318   -0.00849773
     atom   14 type  1   force =     0.00028071    0.00013656   -0.01172329
     atom   15 type  1   force =    -0.00110025    0.00084561   -0.01027307
     atom   16 type  1   force =     0.00204779   -0.00103400   -0.01278660
     atom   17 type  1   force =     0.00014953   -0.00139970   -0.01027659
     atom   18 type  1   force =    -0.00143077   -0.00085810   -0.01540400
     atom   19 type  1   force =    -0.00518998   -0.00029808    0.00704546
     atom   20 type  1   force =    -0.00303744   -0.00180942   -0.00081344
     atom   21 type  1   force =     0.00523423   -0.00630394    0.01136690
     atom   22 type  1   force =     0.00150263    0.00529647    0.00638659
     atom   23 type  1   force =    -0.00284453    0.00788420    0.01132255
     atom   24 type  1   force =     0.00134108    0.00083336    0.02031305
     atom   25 type  1   force =     0.00174526    0.00103549    0.01906510
     atom   26 type  1   force =    -0.00275046   -0.00432346    0.00726738
     atom   27 type  1   force =     0.00520223   -0.00131549    0.00644772
     atom   28 type  1   force =     0.05153217    0.02947552    0.15929532
     atom   29 type  1   force =    -0.02273398    0.08447214    0.17679220
     atom   30 type  1   force =    -0.01041704    0.00440099    0.11519823
     atom   31 type  1   force =     0.06160752   -0.06238250    0.17866541
     atom   32 type  1   force =    -0.00062237    0.00067643    0.01531554
     atom   33 type  1   force =     0.00216767   -0.00077251    0.11015769
     atom   34 type  1   force =    -0.00108959   -0.01214397    0.11569963
     atom   35 type  1   force =     0.00017383    0.00215302    0.11035671
     atom   36 type  1   force =    -0.00215977   -0.00127707    0.09972672
     atom   37 type  2   force =    -0.41463987   -0.23739532    0.18390579
     atom   38 type  3   force =     1.86541879    1.12361651   -1.01887782
     atom   39 type  4   force =    -0.04039063   -0.02540966   -0.06183016
     The ionic contribution  to forces
     atom    1 type  1   force =    -0.00961198    0.00068821 -111.25545689
     atom    2 type  1   force =     0.00083513    0.00034632 -111.27310361
     atom    3 type  1   force =     0.00877685   -0.00029708 -111.25379408
     atom    4 type  1   force =    -0.00467346    0.00889752 -111.25312946
     atom    5 type  1   force =     0.00424823    0.00771098 -111.25397975
     atom    6 type  1   force =     0.00042526    0.00027269 -111.24470665
     atom    7 type  1   force =    -0.00125069   -0.00061596 -111.24478704
     atom    8 type  1   force =    -0.00409399   -0.00862853 -111.25540846
     atom    9 type  1   force =     0.00534467   -0.00837416 -111.25289648
     atom   10 type  1   force =    -0.05465815   -0.03141920  -40.20712505
     atom   11 type  1   force =     0.00923784   -0.07478621  -40.29938071
     atom   12 type  1   force =     0.04542376   -0.03254610  -40.18901780
     atom   13 type  1   force =    -0.06031685    0.04453122  -40.30077086
     atom   14 type  1   force =     0.06336131    0.03561042  -40.29482668
     atom   15 type  1   force =    -0.00304049    0.01535230  -40.17575903
     atom   16 type  1   force =    -0.00560272    0.05650702  -40.19062326
     atom   17 type  1   force =     0.01256672   -0.00998994  -40.17603126
     atom   18 type  1   force =    -0.00696705   -0.00325710  -40.16495392
     atom   19 type  1   force =    -0.48375065    0.04008881   31.20134694
     atom   20 type  1   force =     0.04557760    0.01833615   30.21641772
     atom   21 type  1   force =     0.43786932   -0.02044630   31.28407570
     atom   22 type  1   force =    -0.22780043    0.43230323   31.32334204
     atom   23 type  1   force =     0.20752643    0.38848757   31.27442569
     atom   24 type  1   force =     0.02088438    0.01304524   31.68048375
     atom   25 type  1   force =    -0.05795303   -0.02877760   31.67718163
     atom   26 type  1   force =    -0.20183517   -0.43688211   31.20359905
     atom   27 type  1   force =     0.25917747   -0.40642777   31.33425006
     atom   28 type  1   force =    -2.28574328   -1.31687723  103.28566286
     atom   29 type  1   force =     0.91547954   -4.85769674   99.08268857
     atom   30 type  1   force =     1.58132884   -1.13869767  104.00761980
     atom   31 type  1   force =    -3.80224602    3.18550069   99.00712090
     atom   32 type  1   force =     4.23751275    2.35244613   98.42292777
     atom   33 type  1   force =    -0.08277923    0.42859090  104.32573234
     atom   34 type  1   force =    -0.20356026    1.99523361  103.96097161
     atom   35 type  1   force =     0.35569014   -0.27338548  104.31705724
     atom   36 type  1   force =    -0.16772493   -0.07462957  104.56038272
     atom   37 type  2   force =     5.19079228    3.12575421   57.11282436
     atom   38 type  3   force =    -7.21439086   -4.34985708   88.70537691
     atom   39 type  4   force =     1.47594073    0.92388859   15.30226332
     The local contribution  to forces
     atom    1 type  1   force =     0.01432922   -0.00372428  111.35710349
     atom    2 type  1   force =    -0.00284248   -0.00147748  111.37651711
     atom    3 type  1   force =    -0.01145221    0.00303875  111.36072208
     atom    4 type  1   force =     0.00121356   -0.00643511  111.35887628
     atom    5 type  1   force =    -0.00317777   -0.01141818  111.36089175
     atom    6 type  1   force =     0.00144336    0.00079733  111.34934282
     atom    7 type  1   force =     0.00041361    0.00006988  111.35051217
     atom    8 type  1   force =     0.00377705    0.01419044  111.35693419
     atom    9 type  1   force =    -0.00493312    0.00412444  111.35860350
     atom   10 type  1   force =     0.05422903    0.03121738   40.20190017
     atom   11 type  1   force =    -0.01058819    0.07331274   40.28791406
     atom   12 type  1   force =    -0.04453116    0.02979945   40.18143535
     atom   13 type  1   force =     0.05843292   -0.04494757   40.28924132
     atom   14 type  1   force =    -0.06237158   -0.03497765   40.28405786
     atom   15 type  1   force =     0.00440113   -0.01638049   40.16480896
     atom   16 type  1   force =     0.00362700   -0.05444839   40.18299268
     atom   17 type  1   force =    -0.01275310    0.01169253   40.16502605
     atom   18 type  1   force =     0.00922835    0.00454935   40.15824752
     atom   19 type  1   force =     0.48928088   -0.03789770  -31.18498552
     atom   20 type  1   force =    -0.04071479   -0.01541731  -30.19628843
     atom   21 type  1   force =    -0.44281796    0.02595057  -31.27757215
     atom   22 type  1   force =     0.22647077   -0.43731886  -31.30942997
     atom   23 type  1   force =    -0.20525818   -0.39560235  -31.26785694
     atom   24 type  1   force =    -0.02184625   -0.01364207  -31.67719875
     atom   25 type  1   force =     0.05633133    0.02771571  -31.67019081
     atom   26 type  1   force =     0.20642788    0.44052091  -31.18736660
     atom   27 type  1   force =    -0.26406364    0.40774661  -31.32046510
     atom   28 type  1   force =     2.22363473    1.28114763 -103.45820238
     atom   29 type  1   force =    -0.89472749    4.75018510  -99.26455627
     atom   30 type  1   force =    -1.56172968    1.13038598 -104.12956669
     atom   31 type  1   force =     3.71987004   -3.11298787  -99.19082957
     atom   32 type  1   force =    -4.22333814   -2.34630735  -98.43287184
     atom   33 type  1   force =     0.07844066   -0.42500764 -104.44585386
     atom   34 type  1   force =     0.20568072   -1.97267394 -104.08350978
     atom   35 type  1   force =    -0.35435570    0.26827842 -104.43756710
     atom   36 type  1   force =     0.16768903    0.07478785 -104.66851999
     atom   37 type  2   force =    -4.77856744   -2.88976571  -57.29926254
     atom   38 type  3   force =     5.36832877    3.23738046  -87.69572229
     atom   39 type  4   force =    -1.43796706   -0.89938433  -15.23358153
     The core correction contribution to forces
     atom    1 type  1   force =     0.00036253   -0.00015249    0.01041193
     atom    2 type  1   force =    -0.00011091   -0.00005675    0.00994524
     atom    3 type  1   force =    -0.00018544    0.00012522    0.01058088
     atom    4 type  1   force =    -0.00020283   -0.00012730    0.01021359
     atom    5 type  1   force =     0.00002770   -0.00022669    0.01056175
     atom    6 type  1   force =    -0.00012694   -0.00008959    0.01023168
     atom    7 type  1   force =    -0.00009118   -0.00005661    0.00992372
     atom    8 type  1   force =     0.00005699    0.00039223    0.01040797
     atom    9 type  1   force =    -0.00021337   -0.00010464    0.01021583
     atom   10 type  1   force =     0.00016118    0.00009224   -0.00203561
     atom   11 type  1   force =    -0.00032298    0.00004698   -0.00172658
     atom   12 type  1   force =     0.00012317   -0.00007643   -0.00184496
     atom   13 type  1   force =    -0.00012339   -0.00029521   -0.00172636
     atom   14 type  1   force =     0.00013533    0.00008788   -0.00188002
     atom   15 type  1   force =    -0.00007492    0.00008912   -0.00165162
     atom   16 type  1   force =    -0.00000545    0.00014053   -0.00184683
     atom   17 type  1   force =     0.00004232   -0.00010515   -0.00165723
     atom   18 type  1   force =    -0.00006907   -0.00003798   -0.00202368
     atom   19 type  1   force =    -0.00019139   -0.00028700    0.00149069
     atom   20 type  1   force =    -0.00028888   -0.00014476    0.00146718
     atom   21 type  1   force =     0.00104935   -0.00101692    0.00025494
     atom   22 type  1   force =    -0.00017351    0.00030536    0.00118788
     atom   23 type  1   force =    -0.00031782    0.00139986    0.00024577
     atom   24 type  1   force =     0.00008121    0.00005037    0.00193702
     atom   25 type  1   force =     0.00042422    0.00024519    0.00195540
     atom   26 type  1   force =    -0.00034334   -0.00003981    0.00151019
     atom   27 type  1   force =     0.00020229   -0.00029614    0.00116486
     atom   28 type  1   force =     0.00240504    0.00146116   -0.00759191
     atom   29 type  1   force =    -0.00099364    0.01246015    0.00193419
     atom   30 type  1   force =    -0.00315364    0.00324401   -0.00875329
     atom   31 type  1   force =     0.01070732   -0.00708699    0.00224943
     atom   32 type  1   force =    -0.00581630   -0.00282140   -0.00292807
     atom   33 type  1   force =    -0.00148679   -0.00036865   -0.00974944
     atom   34 type  1   force =     0.00117623   -0.00464070   -0.00869911
     atom   35 type  1   force =    -0.00100647   -0.00113918   -0.00978440
     atom   36 type  1   force =     0.00007704    0.00000897   -0.01105179
     atom   37 type  2   force =     0.00573869    0.00323223   -0.00244201
     atom   38 type  3   force =    -0.01572521   -0.00948587    0.00960621
     atom   39 type  4   force =     0.00000000    0.00000000    0.00000000
     The Hubbard contrib.    to forces
     atom    1 type  1   force =     0.00000000    0.00000000    0.00000000
     atom    2 type  1   force =     0.00000000    0.00000000    0.00000000
     atom    3 type  1   force =     0.00000000    0.00000000    0.00000000
     atom    4 type  1   force =     0.00000000    0.00000000    0.00000000
     atom    5 type  1   force =     0.00000000    0.00000000    0.00000000
     atom    6 type  1   force =     0.00000000    0.00000000    0.00000000
     atom    7 type  1   force =     0.00000000    0.00000000    0.00000000
     atom    8 type  1   force =     0.00000000    0.00000000    0.00000000
     atom    9 type  1   force =     0.00000000    0.00000000    0.00000000
     atom   10 type  1   force =     0.00000000    0.00000000    0.00000000
     atom   11 type  1   force =     0.00000000    0.00000000    0.00000000
     atom   12 type  1   force =     0.00000000    0.00000000    0.00000000
     atom   13 type  1   force =     0.00000000    0.00000000    0.00000000
     atom   14 type  1   force =     0.00000000    0.00000000    0.00000000
     atom   15 type  1   force =     0.00000000    0.00000000    0.00000000
     atom   16 type  1   force =     0.00000000    0.00000000    0.00000000
     atom   17 type  1   force =     0.00000000    0.00000000    0.00000000
     atom   18 type  1   force =     0.00000000    0.00000000    0.00000000
     atom   19 type  1   force =     0.00000000    0.00000000    0.00000000
     atom   20 type  1   force =     0.00000000    0.00000000    0.00000000
     atom   21 type  1   force =     0.00000000    0.00000000    0.00000000
     atom   22 type  1   force =     0.00000000    0.00000000    0.00000000
     atom   23 type  1   force =     0.00000000    0.00000000    0.00000000
     atom   24 type  1   force =     0.00000000    0.00000000    0.00000000
     atom   25 type  1   force =     0.00000000    0.00000000    0.00000000
     atom   26 type  1   force =     0.00000000    0.00000000    0.00000000
     atom   27 type  1   force =     0.00000000    0.00000000    0.00000000
     atom   28 type  1   force =     0.00000000    0.00000000    0.00000000
     atom   29 type  1   force =     0.00000000    0.00000000    0.00000000
     atom   30 type  1   force =     0.00000000    0.00000000    0.00000000
     atom   31 type  1   force =     0.00000000    0.00000000    0.00000000
     atom   32 type  1   force =     0.00000000    0.00000000    0.00000000
     atom   33 type  1   force =     0.00000000    0.00000000    0.00000000
     atom   34 type  1   force =     0.00000000    0.00000000    0.00000000
     atom   35 type  1   force =     0.00000000    0.00000000    0.00000000
     atom   36 type  1   force =     0.00000000    0.00000000    0.00000000
     atom   37 type  2   force =     0.00000000    0.00000000    0.00000000
     atom   38 type  3   force =     0.00000000    0.00000000    0.00000000
     atom   39 type  4   force =     0.00000000    0.00000000    0.00000000
     The SCF correction term to forces
     atom    1 type  1   force =     0.00000000   -0.00000000    0.00000000
     atom    2 type  1   force =    -0.00000000   -0.00000000    0.00000000
     atom    3 type  1   force =    -0.00000000    0.00000000    0.00000000
     atom    4 type  1   force =     0.00000000   -0.00000000    0.00000000
     atom    5 type  1   force =     0.00000000   -0.00000000    0.00000000
     atom    6 type  1   force =    -0.00000000   -0.00000000    0.00000000
     atom    7 type  1   force =     0.00000000    0.00000000    0.00000000
     atom    8 type  1   force =    -0.00000000    0.00000000    0.00000000
     atom    9 type  1   force =    -0.00000000    0.00000000    0.00000000
     atom   10 type  1   force =     0.00000000    0.00000000   -0.00000000
     atom   11 type  1   force =    -0.00000000    0.00000000    0.00000000
     atom   12 type  1   force =    -0.00000000    0.00000000    0.00000000
     atom   13 type  1   force =     0.00000000   -0.00000000   -0.00000000
     atom   14 type  1   force =     0.00000000   -0.00000000    0.00000000
     atom   15 type  1   force =    -0.00000000    0.00000000    0.00000000
     atom   16 type  1   force =     0.00000000   -0.00000000    0.00000000
     atom   17 type  1   force =     0.00000000   -0.00000000    0.00000000
     atom   18 type  1   force =    -0.00000000   -0.00000000    0.00000000
     atom   19 type  1   force =     0.00000000    0.00000000   -0.00000000
     atom   20 type  1   force =     0.00000000   -0.00000000   -0.00000000
     atom   21 type  1   force =    -0.00000000    0.00000000   -0.00000000
     atom   22 type  1   force =     0.00000000   -0.00000000   -0.00000000
     atom   23 type  1   force =     0.00000000   -0.00000000   -0.00000000
     atom   24 type  1   force =    -0.00000000   -0.00000000   -0.00000000
     atom   25 type  1   force =    -0.00000000   -0.00000000   -0.00000000
     atom   26 type  1   force =     0.00000000    0.00000000   -0.00000000
     atom   27 type  1   force =    -0.00000000    0.00000000   -0.00000000
     atom   28 type  1   force =     0.00000000    0.00000000   -0.00000000
     atom   29 type  1   force =     0.00000000    0.00000000   -0.00000000
     atom   30 type  1   force =    -0.00000000    0.00000000   -0.00000000
     atom   31 type  1   force =     0.00000000    0.00000000   -0.00000000
     atom   32 type  1   force =    -0.00000000   -0.00000000   -0.00000000
     atom   33 type  1   force =    -0.00000000    0.00000000   -0.00000000
     atom   34 type  1   force =    -0.00000000   -0.00000000   -0.00000000
     atom   35 type  1   force =     0.00000000   -0.00000000   -0.00000000
     atom   36 type  1   force =     0.00000000    0.00000000   -0.00000000
     atom   37 type  2   force =    -0.00000703   -0.00000981   -0.00026929
     atom   38 type  3   force =     0.00011304    0.00009468   -0.00033809
     atom   39 type  4   force =    -0.00000305   -0.00000467   -0.00004011

     Total force =     0.010575     Total SCF correction =     0.000459

     Writing all to output data dir ./pwscf.save/

     init_run     :     10.82s CPU     11.25s WALL (       1 calls)
     electrons    :    550.38s CPU    557.23s WALL (       1 calls)
     forces       :      3.04s CPU      3.12s WALL (       1 calls)

     Called by init_run:
     wfcinit      :      7.61s CPU      7.91s WALL (       1 calls)
     potinit      :      2.12s CPU      2.21s WALL (       1 calls)
     hinit0       :      0.84s CPU      0.86s WALL (       1 calls)

     Called by electrons:
     c_bands      :    467.02s CPU    472.15s WALL (      41 calls)
     sum_band     :     56.61s CPU     57.46s WALL (      41 calls)
     v_of_rho     :      7.15s CPU      7.53s WALL (      42 calls)
     newd         :      2.31s CPU      2.34s WALL (      42 calls)
     PAW_pot      :     10.62s CPU     10.72s WALL (      42 calls)
     mix_rho      :      8.01s CPU      8.15s WALL (      41 calls)
     vdW_kernel   :      1.07s CPU      1.08s WALL (       1 calls)

     Called by c_bands:
     init_us_2    :      5.26s CPU      5.36s WALL (    2184 calls)
     init_us_2:cp :      5.25s CPU      5.35s WALL (    2184 calls)
     cegterg      :    453.45s CPU    458.33s WALL (    1066 calls)

     Called by *egterg:
     cdiaghg      :    168.18s CPU    169.21s WALL (    4055 calls)
     h_psi        :    197.04s CPU    200.06s WALL (    4081 calls)
     s_psi        :     23.19s CPU     23.48s WALL (    4081 calls)
     g_psi        :      0.46s CPU      0.46s WALL (    2989 calls)

     Called by h_psi:
     h_psi:calbec :     31.95s CPU     32.46s WALL (    4081 calls)
     vloc_psi     :    139.73s CPU    141.92s WALL (    4081 calls)
     add_vuspsi   :     24.26s CPU     24.57s WALL (    4081 calls)

     General routines
     calbec       :     46.93s CPU     47.64s WALL (    5251 calls)
     fft          :      4.46s CPU      4.84s WALL (    3815 calls)
     ffts         :      5.18s CPU      5.27s WALL (   14256 calls)
     fftw         :    159.37s CPU    161.88s WALL ( 1111882 calls)
     interpolate  :      0.51s CPU      0.53s WALL (      84 calls)

     Parallel routines

     PWSCF        :   9m28.55s CPU   9m40.54s WALL


   This run was terminated on:  13: 5: 1  21Nov2025            

=------------------------------------------------------------------------------=
   JOB DONE.
=------------------------------------------------------------------------------=
