
     Program PWSCF v.7.1 starts on 17Dec2025 at  9:18: 4 
        Git branch: heads/qe-7.1
        Last git commit: 48ba0178f8fede6d020eb786884699a9f063f55d-dirty
        Last git commit date: Fri Jan 27 14:22:33 2023 +0000
        Last git commit subject: Merge branch 'fix_hubbard' into 'develop'

     This program is part of the open-source Quantum ESPRESSO suite
     for quantum simulation of materials; please cite
         "P. Giannozzi et al., J. Phys.:Condens. Matter 21 395502 (2009);
         "P. Giannozzi et al., J. Phys.:Condens. Matter 29 465901 (2017);
         "P. Giannozzi et al., J. Chem. Phys. 152 154105 (2020);
          URL http://www.quantum-espresso.org", 
     in publications or presentations arising from this work. More details at
     http://www.quantum-espresso.org/quote

     Parallel version (MPI), running on    96 processors

     MPI processes distributed on     2 nodes
     30737 MiB available memory on the printing compute node when the environment starts

     Reading input from espresso.pwi
Warning: card &CELL ignored
Warning: card / ignored
Warning: card &FCP ignored
Warning: card / ignored
Warning: card &RISM ignored
Warning: card / ignored

     Current dimensions of program PWSCF are:
     Max number of different atomic species (ntypx) = 10
     Max number of k-points (npk) =  40000
     Max angular momentum in pseudopotentials (lmaxx) =  4
     file Co.pbe-n-kjpaw_psl.1.0.0.UPF: wavefunction(s)  4S 3D renormalized
     file C.pbe-n-kjpaw_psl.1.0.0.UPF: wavefunction(s)  2S 2P renormalized
     file O.pbe-nl-kjpaw_psl.1.0.0.UPF: wavefunction(s)  2S 2P renormalized
     file H.pbe-kjpaw_psl.1.0.0.UPF: wavefunction(s)  1S renormalized

     **************************************************************************
     Initializing libbeef V0.1.2 with the BEEF-vdW functional.
     Citation: Wellendorff et al., PRB 85, 235149 (2012).
     **************************************************************************


     IMPORTANT: XC functional enforced from input :
     Exchange-correlation= BEEF-VDW
                           (   1   4  43  14   2   0   0)
     Any further DFT definition will be discarded
     Please, verify this is what you really want


     R & G space division:  proc/nbgrp/npool/nimage =      96
     Subspace diagonalization in iterative solution of the eigenvalue problem:
     one sub-group per band group will be used
     custom distributed-memory algorithm (size of sub-group:  2*  2 procs)


     Parallelization info
     --------------------
     sticks:   dense  smooth     PW     G-vecs:    dense   smooth      PW
     Min          43      28      7                 7829     4248     595
     Max          44      29      8                 7845     4281     630
     Sum        4153    2773    757               752179   409445   59217

     Using Slab Decomposition



     bravais-lattice index     =            0
     lattice parameter (alat)  =      14.1729  a.u.
     unit-cell volume          =    8574.3059 (a.u.)^3
     number of atoms/cell      =           39
     number of atomic types    =            4
     number of electrons       =       335.00
     number of Kohn-Sham states=          202
     kinetic-energy cutoff     =      50.0000  Ry
     charge density cutoff     =     300.0000  Ry
     scf convergence threshold =      1.0E-08
     mixing beta               =       0.7000
     number of iterations used =            8  local-TF  mixing
     Exchange-correlation= BEEF-VDW
                           (   1   4  43  14   2   0   0)

     celldm(1)=  14.172946  celldm(2)=   0.000000  celldm(3)=   0.000000
     celldm(4)=   0.000000  celldm(5)=   0.000000  celldm(6)=   0.000000

     crystal axes: (cart. coord. in units of alat)
               a(1) = (   1.000000   0.000000   0.000000 )  
               a(2) = (   0.500000   0.866025   0.000000 )  
               a(3) = (   0.000000   0.000000   3.477667 )  

     reciprocal axes: (cart. coord. in units 2 pi/alat)
               b(1) = (  1.000000 -0.577350  0.000000 )  
               b(2) = (  0.000000  1.154701  0.000000 )  
               b(3) = (  0.000000  0.000000  0.287549 )  


     PseudoPot. # 1 for Co read from file:
     /users/kbadger1/espresso/pseudo/pslibrary.1.0.0/pbe/PSEUDOPOTENTIALS/Co.pbe-n-kjpaw_psl.1.0.0.UPF
     MD5 check sum: 88af6ec42553d4236c267fdfcb472151
     Pseudo is Projector augmented-wave + core cor, Zval =  9.0
     Generated using 'atomic' code by A. Dal Corso  v.7.0
     Shape of augmentation charge: PSQ
     Using radial grid of 1193 points,  6 beta functions with: 
                l(1) =   0
                l(2) =   0
                l(3) =   1
                l(4) =   1
                l(5) =   2
                l(6) =   2
     Q(r) pseudized with 0 coefficients 


     PseudoPot. # 2 for C  read from file:
     /users/kbadger1/espresso/pseudo/pslibrary.1.0.0/pbe/PSEUDOPOTENTIALS/C.pbe-n-kjpaw_psl.1.0.0.UPF
     MD5 check sum: 6408e75cdba28732cea38a4db8498ce4
     Pseudo is Projector augmented-wave + core cor, Zval =  4.0
     Generated using 'atomic' code by A. Dal Corso  v.7.0
     Shape of augmentation charge: PSQ
     Using radial grid of 1073 points,  4 beta functions with: 
                l(1) =   0
                l(2) =   0
                l(3) =   1
                l(4) =   1
     Q(r) pseudized with 0 coefficients 


     PseudoPot. # 3 for O  read from file:
     /users/kbadger1/espresso/pseudo/pslibrary.1.0.0/pbe/PSEUDOPOTENTIALS/O.pbe-nl-kjpaw_psl.1.0.0.UPF
     MD5 check sum: f0439fab3598ca4e468f064226030408
     Pseudo is Projector augmented-wave + core cor, Zval =  6.0
     Generated using 'atomic' code by A. Dal Corso  v.7.0
     Shape of augmentation charge: PSQ
     Using radial grid of 1095 points,  4 beta functions with: 
                l(1) =   0
                l(2) =   0
                l(3) =   1
                l(4) =   1
     Q(r) pseudized with 0 coefficients 


     PseudoPot. # 4 for H  read from file:
     /users/kbadger1/espresso/pseudo/pslibrary.1.0.0/pbe/PSEUDOPOTENTIALS/H.pbe-kjpaw_psl.1.0.0.UPF
     MD5 check sum: fe4c6fa958fa6d3815bf5d2419cbf1df
     Pseudo is Projector augmented-wave, Zval =  1.0
     Generated using 'atomic' code by A. Dal Corso  v.7.0
     Shape of augmentation charge: PSQ
     Using radial grid of  929 points,  2 beta functions with: 
                l(1) =   0
                l(2) =   0
     Q(r) pseudized with 0 coefficients 


     atomic species   valence    mass     pseudopotential
        Co             9.00    58.93319     Co( 1.00)
        C              4.00    12.01100     C ( 1.00)
        O              6.00    15.99900     O ( 1.00)
        H              1.00     1.00800     H ( 1.00)

     Starting magnetic structure 
     atomic species   magnetization
        Co           1.000
        C            1.000
        O            0.000
        H            0.000

     No symmetry found



   Cartesian axes

     site n.     atom                  positions (alat units)
         1           Co  tau(   1) = (   0.0000000   0.1924501   1.3333333  )
         2           Co  tau(   2) = (   0.3333333   0.1924501   1.3333333  )
         3           Co  tau(   3) = (   0.6666667   0.1924501   1.3333333  )
         4           Co  tau(   4) = (   0.1666667   0.4811252   1.3333333  )
         5           Co  tau(   5) = (   0.5000000   0.4811252   1.3333333  )
         6           Co  tau(   6) = (   0.8333333   0.4811252   1.3333333  )
         7           Co  tau(   7) = (   0.3333333   0.7698004   1.3333333  )
         8           Co  tau(   8) = (   0.6666667   0.7698004   1.3333333  )
         9           Co  tau(   9) = (   1.0000000   0.7698004   1.3333333  )
        10           Co  tau(  10) = (   0.0000000   0.0000000   1.6036667  )
        11           Co  tau(  11) = (   0.3333333   0.0000000   1.6036667  )
        12           Co  tau(  12) = (   0.6666667   0.0000000   1.6036667  )
        13           Co  tau(  13) = (   0.1666667   0.2886751   1.6036667  )
        14           Co  tau(  14) = (   0.5000000   0.2886751   1.6036667  )
        15           Co  tau(  15) = (   0.8333333   0.2886751   1.6036667  )
        16           Co  tau(  16) = (   0.3333333   0.5773503   1.6036667  )
        17           Co  tau(  17) = (   0.6666667   0.5773503   1.6036667  )
        18           Co  tau(  18) = (   1.0000000   0.5773503   1.6036667  )
        19           Co  tau(  19) = (   0.0000000   0.1924501   1.8740000  )
        20           Co  tau(  20) = (   0.3333333   0.1924501   1.8740000  )
        21           Co  tau(  21) = (   0.6666667   0.1924501   1.8740000  )
        22           Co  tau(  22) = (   0.1666667   0.4811252   1.8740000  )
        23           Co  tau(  23) = (   0.5000000   0.4811252   1.8740000  )
        24           Co  tau(  24) = (   0.8333333   0.4811252   1.8740000  )
        25           Co  tau(  25) = (   0.3333333   0.7698004   1.8740000  )
        26           Co  tau(  26) = (   0.6666667   0.7698004   1.8740000  )
        27           Co  tau(  27) = (   1.0000000   0.7698004   1.8740000  )
        28           Co  tau(  28) = (   0.0000000   0.0000000   2.1443333  )
        29           Co  tau(  29) = (   0.3333333   0.0000000   2.1443333  )
        30           Co  tau(  30) = (   0.6666667   0.0000000   2.1443333  )
        31           Co  tau(  31) = (   0.1666667   0.2886751   2.1443333  )
        32           Co  tau(  32) = (   0.5000000   0.2886751   2.1443333  )
        33           Co  tau(  33) = (   0.8333333   0.2886751   2.1443333  )
        34           Co  tau(  34) = (   0.3333333   0.5773503   2.1443333  )
        35           Co  tau(  35) = (   0.6666667   0.5773503   2.1443333  )
        36           Co  tau(  36) = (   1.0000000   0.5773503   2.1443333  )
        37           C   tau(  37) = (   0.2300086  -0.0256659   2.3688493  )
        38           O   tau(  38) = (   0.0687350  -0.0500573   2.4121471  )
        39           H   tau(  39) = (   0.3259865  -0.0127746   2.4791995  )

     number of k points=    13  Marzari-Vanderbilt smearing, width (Ry)=  0.0010
                       cart. coord. in units 2pi/alat
        k(    1) = (   0.0000000   0.0000000   0.0000000), wk =   0.0400000
        k(    2) = (   0.0000000   0.2309401   0.0000000), wk =   0.0800000
        k(    3) = (   0.0000000   0.4618802   0.0000000), wk =   0.0800000
        k(    4) = (   0.2000000  -0.1154701   0.0000000), wk =   0.0800000
        k(    5) = (   0.2000000   0.1154701   0.0000000), wk =   0.0800000
        k(    6) = (   0.2000000   0.3464102   0.0000000), wk =   0.0800000
        k(    7) = (   0.2000000  -0.5773503   0.0000000), wk =   0.0800000
        k(    8) = (   0.2000000  -0.3464102   0.0000000), wk =   0.0800000
        k(    9) = (   0.4000000  -0.2309401   0.0000000), wk =   0.0800000
        k(   10) = (   0.4000000   0.0000000   0.0000000), wk =   0.0800000
        k(   11) = (   0.4000000   0.2309401   0.0000000), wk =   0.0800000
        k(   12) = (   0.4000000  -0.6928203   0.0000000), wk =   0.0800000
        k(   13) = (   0.4000000  -0.4618802   0.0000000), wk =   0.0800000

     Dense  grid:   752179 G-vectors     FFT dimensions: (  80,  80, 288)

     Smooth grid:   409445 G-vectors     FFT dimensions: (  64,  64, 225)

     Estimated max dynamical RAM per process >      99.02 MB

     Estimated total dynamical RAM >       9.28 GB
     Generating pointlists ...
     new r_m :   0.1025 (alat units)  1.4527 (a.u.) for type    1
     new r_m :   0.0606 (alat units)  0.8583 (a.u.) for type    2
     new r_m :   0.0696 (alat units)  0.9866 (a.u.) for type    3
     new r_m :   0.0606 (alat units)  0.8583 (a.u.) for type    4

     Initial potential from superposition of free atoms

     starting charge     334.9897, renormalised to     335.0000

     negative rho (up, down):  2.996E-03 4.704E-04


     %%%%%%%%%%%%%%%%%%%%%%%%%%%%%%%%%%%%%%%%%%%%%%%%%%%%%%%%%%%%%%%%%%%%%%%%
     %                                                                      %
     % You are using vdW-DF, which was implemented by the Thonhauser group. %
     % Please cite the following two papers that made this development      %
     % possible and the two reviews that describe the various versions:     %
     %                                                                      %
     %   T. Thonhauser et al., PRL 115, 136402 (2015).                      %
     %   T. Thonhauser et al., PRB 76, 125112 (2007).                       %
     %   K. Berland et al., Rep. Prog. Phys. 78, 066501 (2015).             %
     %   D.C. Langreth et al., J. Phys.: Condens. Matter 21, 084203 (2009). %
     %                                                                      %
     % If you are calculating stress with vdW-DF, please also cite:         %
     %                                                                      %
     %   R. Sabatini et al., J. Phys.: Condens. Matter 24, 424209 (2012).   %
     %   C.M. Frostenson et al., Electr. Struct. 4, 014001 (2022).          %
     %                                                                      %
     %%%%%%%%%%%%%%%%%%%%%%%%%%%%%%%%%%%%%%%%%%%%%%%%%%%%%%%%%%%%%%%%%%%%%%%%

     %%%%%%%%%%%%%%%%%%%%%%%%%%%%%%%%%%%%%%%%%%%%%%%%%%%%%%%%%%%%%%%%%%%%%%%%
     %                                                                      %
     %  vdW-DF NEWS:                                                        %
     %                                                                      %
     %  * vdW-DF3 is now available. DOI: 10.1021/acs.jctc.0c00471           %
     %    use with input_dft = 'vdW-DF3-opt1' or 'vdW-DF3-opt2'             %
     %                                                                      %
     %  * Unscreened and range-separated hybrid vdW-DF-cx functionals       %
     %    DOI: 10.1063/1.4986522 and 10.1088/1361-648X/ac2ad2               %
     %    use with input_dft = 'vdW-DF-cx0'    and 'vdW-DF-ahcx'            %
     %  * Unscreened and range-separated hybrid vdW-DF2-b86r functionals    %
     %    DOI: 10.1063/1.4986522 and DOI: 10.1103/PhysRevX.12.041003        %
     %    use with input_dft = 'vdW-DF2-br0' and 'vdW-DF2-ahbr'             %
     %                                                                      %
     %%%%%%%%%%%%%%%%%%%%%%%%%%%%%%%%%%%%%%%%%%%%%%%%%%%%%%%%%%%%%%%%%%%%%%%%


     Starting wfcs are  333 randomized atomic wfcs
     Checking if some PAW data can be deallocated... 

     total cpu time spent up to now is       16.9 secs

     per-process dynamical memory:   230.6 Mb

     Self-consistent Calculation

     iteration #  1     ecut=    50.00 Ry     beta= 0.70
     Davidson diagonalization with overlap
     ethr =  1.00E-02,  avg # of iterations =  2.0

     negative rho (up, down):  2.253E-05 3.974E-08

     total cpu time spent up to now is       38.3 secs

     total energy              =   -6053.06426854 Ry
     estimated scf accuracy    <      39.76991203 Ry

     total magnetization       =    69.00 Bohr mag/cell
     absolute magnetization    =    81.16 Bohr mag/cell

     iteration #  2     ecut=    50.00 Ry     beta= 0.70
     Davidson diagonalization with overlap
     ethr =  1.00E-02,  avg # of iterations =  1.0

     negative rho (up, down):  2.445E-06 3.003E-09

     total cpu time spent up to now is       56.6 secs

     total energy              =   -6052.46307889 Ry
     estimated scf accuracy    <      25.38911501 Ry

     total magnetization       =    69.01 Bohr mag/cell
     absolute magnetization    =    76.80 Bohr mag/cell

     iteration #  3     ecut=    50.00 Ry     beta= 0.70
     Davidson diagonalization with overlap
     ethr =  7.58E-03,  avg # of iterations =  1.0

     negative rho (up, down):  1.068E-08 0.000E+00

     total cpu time spent up to now is       70.0 secs

     total energy              =   -6055.15648146 Ry
     estimated scf accuracy    <      84.64137116 Ry

     total magnetization       =    66.13 Bohr mag/cell
     absolute magnetization    =    73.26 Bohr mag/cell

     iteration #  4     ecut=    50.00 Ry     beta= 0.70
     Davidson diagonalization with overlap
     ethr =  7.58E-03,  avg # of iterations =  1.0

     total cpu time spent up to now is       88.7 secs

     total energy              =   -6056.34495876 Ry
     estimated scf accuracy    <       5.70390764 Ry

     total magnetization       =    60.69 Bohr mag/cell
     absolute magnetization    =    70.47 Bohr mag/cell

     iteration #  5     ecut=    50.00 Ry     beta= 0.70
     Davidson diagonalization with overlap
     ethr =  1.70E-03,  avg # of iterations =  1.2

     total cpu time spent up to now is      102.0 secs

     total energy              =   -6056.37872950 Ry
     estimated scf accuracy    <       3.37223982 Ry

     total magnetization       =    60.44 Bohr mag/cell
     absolute magnetization    =    69.80 Bohr mag/cell

     iteration #  6     ecut=    50.00 Ry     beta= 0.70
     Davidson diagonalization with overlap
     ethr =  1.01E-03,  avg # of iterations =  1.4

     total cpu time spent up to now is      121.7 secs

     total energy              =   -6056.48340407 Ry
     estimated scf accuracy    <       0.54765858 Ry

     total magnetization       =    60.44 Bohr mag/cell
     absolute magnetization    =    69.60 Bohr mag/cell

     iteration #  7     ecut=    50.00 Ry     beta= 0.70
     Davidson diagonalization with overlap
     ethr =  1.63E-04,  avg # of iterations =  6.4

     total cpu time spent up to now is      144.9 secs

     total energy              =   -6056.51588771 Ry
     estimated scf accuracy    <       0.73621537 Ry

     total magnetization       =    60.79 Bohr mag/cell
     absolute magnetization    =    69.46 Bohr mag/cell

     iteration #  8     ecut=    50.00 Ry     beta= 0.70
     Davidson diagonalization with overlap
     ethr =  1.63E-04,  avg # of iterations =  2.1

     total cpu time spent up to now is      160.7 secs

     total energy              =   -6056.53264706 Ry
     estimated scf accuracy    <       0.16850067 Ry

     total magnetization       =    60.96 Bohr mag/cell
     absolute magnetization    =    69.42 Bohr mag/cell

     iteration #  9     ecut=    50.00 Ry     beta= 0.70
     Davidson diagonalization with overlap
     c_bands:  3 eigenvalues not converged
     ethr =  5.03E-05,  avg # of iterations = 10.1

     total cpu time spent up to now is      188.9 secs

     total energy              =   -6056.54201052 Ry
     estimated scf accuracy    <       0.17243949 Ry

     total magnetization       =    61.32 Bohr mag/cell
     absolute magnetization    =    69.44 Bohr mag/cell

     iteration # 10     ecut=    50.00 Ry     beta= 0.70
     Davidson diagonalization with overlap
     ethr =  5.03E-05,  avg # of iterations =  2.0

     total cpu time spent up to now is      207.2 secs

     total energy              =   -6056.54153416 Ry
     estimated scf accuracy    <       0.17416127 Ry

     total magnetization       =    61.32 Bohr mag/cell
     absolute magnetization    =    69.27 Bohr mag/cell

     iteration # 11     ecut=    50.00 Ry     beta= 0.70
     Davidson diagonalization with overlap
     ethr =  5.03E-05,  avg # of iterations =  1.4

     total cpu time spent up to now is      222.4 secs

     total energy              =   -6056.53801986 Ry
     estimated scf accuracy    <       0.10332767 Ry

     total magnetization       =    61.34 Bohr mag/cell
     absolute magnetization    =    69.16 Bohr mag/cell

     iteration # 12     ecut=    50.00 Ry     beta= 0.70
     Davidson diagonalization with overlap
     ethr =  3.08E-05,  avg # of iterations =  2.5

     negative rho (up, down):  2.654E-07 0.000E+00

     total cpu time spent up to now is      240.9 secs

     total energy              =   -6056.53950497 Ry
     estimated scf accuracy    <       0.08736887 Ry

     total magnetization       =    61.34 Bohr mag/cell
     absolute magnetization    =    69.02 Bohr mag/cell

     iteration # 13     ecut=    50.00 Ry     beta= 0.70
     Davidson diagonalization with overlap
     ethr =  2.61E-05,  avg # of iterations =  1.5

     total cpu time spent up to now is      256.2 secs

     total energy              =   -6056.53678530 Ry
     estimated scf accuracy    <       0.09661482 Ry

     total magnetization       =    61.34 Bohr mag/cell
     absolute magnetization    =    68.97 Bohr mag/cell

     iteration # 14     ecut=    50.00 Ry     beta= 0.70
     Davidson diagonalization with overlap
     ethr =  2.61E-05,  avg # of iterations =  2.2

     negative rho (up, down):  6.861E-03 5.436E-03

     total cpu time spent up to now is      274.3 secs

     total energy              =   -6056.52969595 Ry
     estimated scf accuracy    <       0.05939764 Ry

     total magnetization       =    61.33 Bohr mag/cell
     absolute magnetization    =    68.99 Bohr mag/cell

     iteration # 15     ecut=    50.00 Ry     beta= 0.70
     Davidson diagonalization with overlap
     c_bands:  3 eigenvalues not converged
     ethr =  1.77E-05,  avg # of iterations =  3.4

     negative rho (up, down):  9.592E-03 8.042E-03

     total cpu time spent up to now is      294.8 secs

     total energy              =   -6056.52894021 Ry
     estimated scf accuracy    <       0.06846500 Ry

     total magnetization       =    61.33 Bohr mag/cell
     absolute magnetization    =    68.93 Bohr mag/cell

     iteration # 16     ecut=    50.00 Ry     beta= 0.70
     Davidson diagonalization with overlap
     ethr =  1.77E-05,  avg # of iterations =  1.4

     negative rho (up, down):  1.272E-02 1.109E-02

     total cpu time spent up to now is      308.4 secs

     total energy              =   -6056.52879724 Ry
     estimated scf accuracy    <       0.02551778 Ry

     total magnetization       =    61.32 Bohr mag/cell
     absolute magnetization    =    68.91 Bohr mag/cell

     iteration # 17     ecut=    50.00 Ry     beta= 0.70
     Davidson diagonalization with overlap
     c_bands:  3 eigenvalues not converged
     c_bands:  1 eigenvalues not converged
     c_bands:  2 eigenvalues not converged
     c_bands:  3 eigenvalues not converged
     c_bands:  1 eigenvalues not converged
     ethr =  7.62E-06,  avg # of iterations =  7.8

     negative rho (up, down):  1.557E-02 1.392E-02

     total cpu time spent up to now is      333.9 secs

     total energy              =   -6056.52699126 Ry
     estimated scf accuracy    <       0.03734520 Ry

     total magnetization       =    61.33 Bohr mag/cell
     absolute magnetization    =    68.89 Bohr mag/cell

     iteration # 18     ecut=    50.00 Ry     beta= 0.70
     Davidson diagonalization with overlap
     ethr =  7.62E-06,  avg # of iterations =  1.7

     negative rho (up, down):  7.646E-03 6.351E-03

     total cpu time spent up to now is      348.2 secs

     total energy              =   -6056.52721494 Ry
     estimated scf accuracy    <       0.02229606 Ry

     total magnetization       =    61.32 Bohr mag/cell
     absolute magnetization    =    68.87 Bohr mag/cell

     iteration # 19     ecut=    50.00 Ry     beta= 0.70
     Davidson diagonalization with overlap
     ethr =  6.66E-06,  avg # of iterations =  2.0

     negative rho (up, down):  1.941E-02 1.781E-02

     total cpu time spent up to now is      368.3 secs

     total energy              =   -6056.52534998 Ry
     estimated scf accuracy    <       0.01713239 Ry

     total magnetization       =    61.32 Bohr mag/cell
     absolute magnetization    =    68.87 Bohr mag/cell

     iteration # 20     ecut=    50.00 Ry     beta= 0.70
     Davidson diagonalization with overlap
     ethr =  5.11E-06,  avg # of iterations =  1.7

     negative rho (up, down):  2.129E-02 2.007E-02

     total cpu time spent up to now is      386.3 secs

     total energy              =   -6056.52405553 Ry
     estimated scf accuracy    <       0.01453775 Ry

     total magnetization       =    61.32 Bohr mag/cell
     absolute magnetization    =    68.85 Bohr mag/cell

     iteration # 21     ecut=    50.00 Ry     beta= 0.70
     Davidson diagonalization with overlap
     ethr =  4.34E-06,  avg # of iterations =  2.3

     negative rho (up, down):  1.954E-02 1.844E-02

     total cpu time spent up to now is      402.3 secs

     total energy              =   -6056.52384112 Ry
     estimated scf accuracy    <       0.01606013 Ry

     total magnetization       =    61.33 Bohr mag/cell
     absolute magnetization    =    68.84 Bohr mag/cell

     iteration # 22     ecut=    50.00 Ry     beta= 0.70
     Davidson diagonalization with overlap
     ethr =  4.34E-06,  avg # of iterations =  1.2

     negative rho (up, down):  2.056E-02 1.951E-02

     total cpu time spent up to now is      419.9 secs

     total energy              =   -6056.52430208 Ry
     estimated scf accuracy    <       0.00504382 Ry

     total magnetization       =    61.33 Bohr mag/cell
     absolute magnetization    =    68.84 Bohr mag/cell

     iteration # 23     ecut=    50.00 Ry     beta= 0.70
     Davidson diagonalization with overlap
     c_bands:  1 eigenvalues not converged
     ethr =  1.51E-06,  avg # of iterations =  5.2

     negative rho (up, down):  1.198E-02 1.114E-02

     total cpu time spent up to now is      440.7 secs

     total energy              =   -6056.52406457 Ry
     estimated scf accuracy    <       0.00168794 Ry

     total magnetization       =    61.33 Bohr mag/cell
     absolute magnetization    =    68.84 Bohr mag/cell

     iteration # 24     ecut=    50.00 Ry     beta= 0.70
     Davidson diagonalization with overlap
     ethr =  5.04E-07,  avg # of iterations =  4.2

     negative rho (up, down):  7.133E-03 6.271E-03

     total cpu time spent up to now is      460.7 secs

     total energy              =   -6056.52403786 Ry
     estimated scf accuracy    <       0.00282446 Ry

     total magnetization       =    61.32 Bohr mag/cell
     absolute magnetization    =    68.85 Bohr mag/cell

     iteration # 25     ecut=    50.00 Ry     beta= 0.70
     Davidson diagonalization with overlap
     ethr =  5.04E-07,  avg # of iterations =  2.0

     negative rho (up, down):  8.419E-03 7.665E-03

     total cpu time spent up to now is      480.4 secs

     total energy              =   -6056.52423167 Ry
     estimated scf accuracy    <       0.00097700 Ry

     total magnetization       =    61.32 Bohr mag/cell
     absolute magnetization    =    68.86 Bohr mag/cell

     iteration # 26     ecut=    50.00 Ry     beta= 0.70
     Davidson diagonalization with overlap
     ethr =  2.92E-07,  avg # of iterations =  1.7

     negative rho (up, down):  7.157E-03 6.395E-03

     total cpu time spent up to now is      496.2 secs

     total energy              =   -6056.52425115 Ry
     estimated scf accuracy    <       0.00126860 Ry

     total magnetization       =    61.32 Bohr mag/cell
     absolute magnetization    =    68.85 Bohr mag/cell

     iteration # 27     ecut=    50.00 Ry     beta= 0.70
     Davidson diagonalization with overlap
     ethr =  2.92E-07,  avg # of iterations =  1.0

     negative rho (up, down):  6.924E-03 6.170E-03

     total cpu time spent up to now is      513.3 secs

     total energy              =   -6056.52433983 Ry
     estimated scf accuracy    <       0.00061359 Ry

     total magnetization       =    61.32 Bohr mag/cell
     absolute magnetization    =    68.85 Bohr mag/cell

     iteration # 28     ecut=    50.00 Ry     beta= 0.70
     Davidson diagonalization with overlap
     ethr =  1.83E-07,  avg # of iterations =  1.5

     negative rho (up, down):  5.546E-03 4.759E-03

     total cpu time spent up to now is      527.2 secs

     total energy              =   -6056.52433478 Ry
     estimated scf accuracy    <       0.00027088 Ry

     total magnetization       =    61.32 Bohr mag/cell
     absolute magnetization    =    68.85 Bohr mag/cell

     iteration # 29     ecut=    50.00 Ry     beta= 0.70
     Davidson diagonalization with overlap
     ethr =  8.09E-08,  avg # of iterations =  2.4

     negative rho (up, down):  4.144E-03 3.200E-03

     total cpu time spent up to now is      547.2 secs

     total energy              =   -6056.52435662 Ry
     estimated scf accuracy    <       0.00016455 Ry

     total magnetization       =    61.32 Bohr mag/cell
     absolute magnetization    =    68.85 Bohr mag/cell

     iteration # 30     ecut=    50.00 Ry     beta= 0.70
     Davidson diagonalization with overlap
     ethr =  4.91E-08,  avg # of iterations =  3.6

     negative rho (up, down):  3.971E-03 2.953E-03

     total cpu time spent up to now is      568.4 secs

     total energy              =   -6056.52436127 Ry
     estimated scf accuracy    <       0.00032601 Ry

     total magnetization       =    61.32 Bohr mag/cell
     absolute magnetization    =    68.85 Bohr mag/cell

     iteration # 31     ecut=    50.00 Ry     beta= 0.70
     Davidson diagonalization with overlap
     ethr =  4.91E-08,  avg # of iterations =  1.5

     negative rho (up, down):  3.793E-03 2.754E-03

     total cpu time spent up to now is      582.5 secs

     total energy              =   -6056.52436314 Ry
     estimated scf accuracy    <       0.00009374 Ry

     total magnetization       =    61.32 Bohr mag/cell
     absolute magnetization    =    68.85 Bohr mag/cell

     iteration # 32     ecut=    50.00 Ry     beta= 0.70
     Davidson diagonalization with overlap
     ethr =  2.80E-08,  avg # of iterations =  1.8

     negative rho (up, down):  3.720E-03 2.692E-03

     total cpu time spent up to now is      602.7 secs

     total energy              =   -6056.52436137 Ry
     estimated scf accuracy    <       0.00021506 Ry

     total magnetization       =    61.32 Bohr mag/cell
     absolute magnetization    =    68.85 Bohr mag/cell

     iteration # 33     ecut=    50.00 Ry     beta= 0.70
     Davidson diagonalization with overlap
     ethr =  2.80E-08,  avg # of iterations =  1.6

     negative rho (up, down):  3.424E-03 2.421E-03

     total cpu time spent up to now is      616.7 secs

     total energy              =   -6056.52436352 Ry
     estimated scf accuracy    <       0.00004300 Ry

     total magnetization       =    61.32 Bohr mag/cell
     absolute magnetization    =    68.85 Bohr mag/cell

     iteration # 34     ecut=    50.00 Ry     beta= 0.70
     Davidson diagonalization with overlap
     ethr =  1.28E-08,  avg # of iterations =  3.0

     negative rho (up, down):  3.489E-03 2.527E-03

     total cpu time spent up to now is      637.9 secs

     total energy              =   -6056.52436670 Ry
     estimated scf accuracy    <       0.00005749 Ry

     total magnetization       =    61.32 Bohr mag/cell
     absolute magnetization    =    68.85 Bohr mag/cell

     iteration # 35     ecut=    50.00 Ry     beta= 0.70
     Davidson diagonalization with overlap
     ethr =  1.28E-08,  avg # of iterations =  1.6

     negative rho (up, down):  3.371E-03 2.407E-03

     total cpu time spent up to now is      655.7 secs

     total energy              =   -6056.52436769 Ry
     estimated scf accuracy    <       0.00001847 Ry

     total magnetization       =    61.32 Bohr mag/cell
     absolute magnetization    =    68.85 Bohr mag/cell

     iteration # 36     ecut=    50.00 Ry     beta= 0.70
     Davidson diagonalization with overlap
     ethr =  5.51E-09,  avg # of iterations =  3.1

     negative rho (up, down):  3.198E-03 2.187E-03

     total cpu time spent up to now is      673.3 secs

     total energy              =   -6056.52436359 Ry
     estimated scf accuracy    <       0.00002167 Ry

     total magnetization       =    61.32 Bohr mag/cell
     absolute magnetization    =    68.85 Bohr mag/cell

     iteration # 37     ecut=    50.00 Ry     beta= 0.70
     Davidson diagonalization with overlap
     ethr =  5.51E-09,  avg # of iterations =  1.7

     negative rho (up, down):  3.172E-03 2.192E-03

     total cpu time spent up to now is      691.2 secs

     total energy              =   -6056.52436454 Ry
     estimated scf accuracy    <       0.00004425 Ry

     total magnetization       =    61.32 Bohr mag/cell
     absolute magnetization    =    68.85 Bohr mag/cell

     iteration # 38     ecut=    50.00 Ry     beta= 0.70
     Davidson diagonalization with overlap
     ethr =  5.51E-09,  avg # of iterations =  1.5

     negative rho (up, down):  3.070E-03 2.096E-03

     total cpu time spent up to now is      706.8 secs

     total energy              =   -6056.52436430 Ry
     estimated scf accuracy    <       0.00001647 Ry

     total magnetization       =    61.32 Bohr mag/cell
     absolute magnetization    =    68.85 Bohr mag/cell

     iteration # 39     ecut=    50.00 Ry     beta= 0.70
     Davidson diagonalization with overlap
     ethr =  4.92E-09,  avg # of iterations =  1.2

     negative rho (up, down):  2.663E-03 1.614E-03

     total cpu time spent up to now is      724.8 secs

     total energy              =   -6056.52435885 Ry
     estimated scf accuracy    <       0.00000425 Ry

     total magnetization       =    61.32 Bohr mag/cell
     absolute magnetization    =    68.85 Bohr mag/cell

     iteration # 40     ecut=    50.00 Ry     beta= 0.70
     Davidson diagonalization with overlap
     ethr =  1.27E-09,  avg # of iterations =  5.3

     negative rho (up, down):  2.576E-03 1.510E-03

     total cpu time spent up to now is      748.1 secs

     total energy              =   -6056.52435846 Ry
     estimated scf accuracy    <       0.00000816 Ry

     total magnetization       =    61.32 Bohr mag/cell
     absolute magnetization    =    68.85 Bohr mag/cell

     iteration # 41     ecut=    50.00 Ry     beta= 0.70
     Davidson diagonalization with overlap
     ethr =  1.27E-09,  avg # of iterations =  1.5

     negative rho (up, down):  2.534E-03 1.427E-03

     total cpu time spent up to now is      762.1 secs

     total energy              =   -6056.52435911 Ry
     estimated scf accuracy    <       0.00000720 Ry

     total magnetization       =    61.32 Bohr mag/cell
     absolute magnetization    =    68.85 Bohr mag/cell

     iteration # 42     ecut=    50.00 Ry     beta= 0.70
     Davidson diagonalization with overlap
     ethr =  1.27E-09,  avg # of iterations =  2.0

     negative rho (up, down):  2.480E-03 1.393E-03

     total cpu time spent up to now is      782.2 secs

     total energy              =   -6056.52435838 Ry
     estimated scf accuracy    <       0.00001393 Ry

     total magnetization       =    61.32 Bohr mag/cell
     absolute magnetization    =    68.85 Bohr mag/cell

     iteration # 43     ecut=    50.00 Ry     beta= 0.70
     Davidson diagonalization with overlap
     ethr =  1.27E-09,  avg # of iterations =  1.8

     negative rho (up, down):  2.335E-03 1.230E-03

     total cpu time spent up to now is      796.6 secs

     total energy              =   -6056.52435914 Ry
     estimated scf accuracy    <       0.00000669 Ry

     total magnetization       =    61.32 Bohr mag/cell
     absolute magnetization    =    68.85 Bohr mag/cell

     iteration # 44     ecut=    50.00 Ry     beta= 0.70
     Davidson diagonalization with overlap
     ethr =  1.27E-09,  avg # of iterations =  1.1

     negative rho (up, down):  2.276E-03 1.172E-03

     total cpu time spent up to now is      814.8 secs

     total energy              =   -6056.52435918 Ry
     estimated scf accuracy    <       0.00000284 Ry

     total magnetization       =    61.32 Bohr mag/cell
     absolute magnetization    =    68.85 Bohr mag/cell

     iteration # 45     ecut=    50.00 Ry     beta= 0.70
     Davidson diagonalization with overlap
     ethr =  8.49E-10,  avg # of iterations =  1.5

     negative rho (up, down):  2.243E-03 1.134E-03

     total cpu time spent up to now is      831.5 secs

     total energy              =   -6056.52435915 Ry
     estimated scf accuracy    <       0.00000473 Ry

     total magnetization       =    61.32 Bohr mag/cell
     absolute magnetization    =    68.85 Bohr mag/cell

     iteration # 46     ecut=    50.00 Ry     beta= 0.70
     Davidson diagonalization with overlap
     ethr =  8.49E-10,  avg # of iterations =  1.5

     negative rho (up, down):  2.255E-03 1.147E-03

     total cpu time spent up to now is      849.0 secs

     total energy              =   -6056.52435930 Ry
     estimated scf accuracy    <       0.00000105 Ry

     total magnetization       =    61.32 Bohr mag/cell
     absolute magnetization    =    68.85 Bohr mag/cell

     iteration # 47     ecut=    50.00 Ry     beta= 0.70
     Davidson diagonalization with overlap
     ethr =  3.14E-10,  avg # of iterations =  1.7

     negative rho (up, down):  2.235E-03 1.126E-03

     total cpu time spent up to now is      866.8 secs

     total energy              =   -6056.52435916 Ry
     estimated scf accuracy    <       0.00000174 Ry

     total magnetization       =    61.32 Bohr mag/cell
     absolute magnetization    =    68.85 Bohr mag/cell

     iteration # 48     ecut=    50.00 Ry     beta= 0.70
     Davidson diagonalization with overlap
     ethr =  3.14E-10,  avg # of iterations =  1.7

     negative rho (up, down):  2.196E-03 1.088E-03

     total cpu time spent up to now is      882.7 secs

     total energy              =   -6056.52435910 Ry
     estimated scf accuracy    <       0.00000050 Ry

     total magnetization       =    61.32 Bohr mag/cell
     absolute magnetization    =    68.85 Bohr mag/cell

     iteration # 49     ecut=    50.00 Ry     beta= 0.70
     Davidson diagonalization with overlap
     ethr =  1.49E-10,  avg # of iterations =  2.4

     negative rho (up, down):  2.247E-03 1.140E-03

     total cpu time spent up to now is      902.2 secs

     total energy              =   -6056.52435934 Ry
     estimated scf accuracy    <       0.00000042 Ry

     total magnetization       =    61.32 Bohr mag/cell
     absolute magnetization    =    68.85 Bohr mag/cell

     iteration # 50     ecut=    50.00 Ry     beta= 0.70
     Davidson diagonalization with overlap
     ethr =  1.26E-10,  avg # of iterations =  1.7

     negative rho (up, down):  2.224E-03 1.118E-03

     total cpu time spent up to now is      918.2 secs

     total energy              =   -6056.52435932 Ry
     estimated scf accuracy    <       0.00000019 Ry

     total magnetization       =    61.32 Bohr mag/cell
     absolute magnetization    =    68.85 Bohr mag/cell

     iteration # 51     ecut=    50.00 Ry     beta= 0.70
     Davidson diagonalization with overlap
     ethr =  5.80E-11,  avg # of iterations =  3.4

     negative rho (up, down):  2.226E-03 1.120E-03

     total cpu time spent up to now is      937.8 secs

     total energy              =   -6056.52435935 Ry
     estimated scf accuracy    <       0.00000004 Ry

     total magnetization       =    61.32 Bohr mag/cell
     absolute magnetization    =    68.85 Bohr mag/cell

     iteration # 52     ecut=    50.00 Ry     beta= 0.70
     Davidson diagonalization with overlap
     c_bands:  1 eigenvalues not converged
     ethr =  1.20E-11,  avg # of iterations =  7.0

     negative rho (up, down):  2.226E-03 1.123E-03

     total cpu time spent up to now is      963.4 secs

     total energy              =   -6056.52435938 Ry
     estimated scf accuracy    <       0.00000002 Ry

     total magnetization       =    61.32 Bohr mag/cell
     absolute magnetization    =    68.85 Bohr mag/cell

     iteration # 53     ecut=    50.00 Ry     beta= 0.70
     Davidson diagonalization with overlap
     ethr =  4.54E-12,  avg # of iterations =  4.9

     negative rho (up, down):  2.224E-03 1.121E-03

     total cpu time spent up to now is      987.0 secs

     total energy              =   -6056.52435938 Ry
     estimated scf accuracy    <       0.00000003 Ry

     total magnetization       =    61.32 Bohr mag/cell
     absolute magnetization    =    68.85 Bohr mag/cell

     iteration # 54     ecut=    50.00 Ry     beta= 0.70
     Davidson diagonalization with overlap
     ethr =  4.54E-12,  avg # of iterations =  1.4

     negative rho (up, down):  2.225E-03 1.121E-03

     total cpu time spent up to now is     1000.9 secs

     total energy              =   -6056.52435938 Ry
     estimated scf accuracy    <       0.00000002 Ry

     total magnetization       =    61.32 Bohr mag/cell
     absolute magnetization    =    68.85 Bohr mag/cell

     iteration # 55     ecut=    50.00 Ry     beta= 0.70
     Davidson diagonalization with overlap
     ethr =  4.54E-12,  avg # of iterations =  1.3

     negative rho (up, down):  2.223E-03 1.121E-03

     total cpu time spent up to now is     1020.7 secs

     total energy              =   -6056.52435939 Ry
     estimated scf accuracy    <       0.00000002 Ry

     total magnetization       =    61.32 Bohr mag/cell
     absolute magnetization    =    68.85 Bohr mag/cell

     iteration # 56     ecut=    50.00 Ry     beta= 0.70
     Davidson diagonalization with overlap
     ethr =  4.54E-12,  avg # of iterations =  2.0

     negative rho (up, down):  2.223E-03 1.121E-03

     total cpu time spent up to now is     1036.0 secs

     total energy              =   -6056.52435939 Ry
     estimated scf accuracy    <       0.00000001 Ry

     total magnetization       =    61.32 Bohr mag/cell
     absolute magnetization    =    68.85 Bohr mag/cell

     iteration # 57     ecut=    50.00 Ry     beta= 0.70
     Davidson diagonalization with overlap
     ethr =  3.94E-12,  avg # of iterations =  1.0

     negative rho (up, down):  2.222E-03 1.120E-03

     total cpu time spent up to now is     1053.3 secs

     total energy              =   -6056.52435939 Ry
     estimated scf accuracy    <       0.00000002 Ry

     total magnetization       =    61.32 Bohr mag/cell
     absolute magnetization    =    68.85 Bohr mag/cell

     iteration # 58     ecut=    50.00 Ry     beta= 0.70
     Davidson diagonalization with overlap
     ethr =  3.94E-12,  avg # of iterations =  1.2

     negative rho (up, down):  2.221E-03 1.120E-03

     total cpu time spent up to now is     1066.8 secs

     total energy              =   -6056.52435939 Ry
     estimated scf accuracy    <       0.00000001 Ry

     total magnetization       =    61.32 Bohr mag/cell
     absolute magnetization    =    68.85 Bohr mag/cell

     iteration # 59     ecut=    50.00 Ry     beta= 0.70
     Davidson diagonalization with overlap
     ethr =  3.63E-12,  avg # of iterations =  2.0

     negative rho (up, down):  2.220E-03 1.119E-03

     Magnetic moment per site  (integrated on atomic sphere of radius R)
     atom   1 (R=0.102)  charge=  6.2231  magn=  1.7643
     atom   2 (R=0.102)  charge=  6.2229  magn=  1.7666
     atom   3 (R=0.102)  charge=  6.2226  magn=  1.7688
     atom   4 (R=0.102)  charge=  6.2232  magn=  1.7710
     atom   5 (R=0.102)  charge=  6.2226  magn=  1.7699
     atom   6 (R=0.102)  charge=  6.2231  magn=  1.7697
     atom   7 (R=0.102)  charge=  6.2227  magn=  1.7702
     atom   8 (R=0.102)  charge=  6.2232  magn=  1.7628
     atom   9 (R=0.102)  charge=  6.2233  magn=  1.7653
     atom  10 (R=0.102)  charge=  6.2287  magn=  1.7063
     atom  11 (R=0.102)  charge=  6.2290  magn=  1.6859
     atom  12 (R=0.102)  charge=  6.2294  magn=  1.7021
     atom  13 (R=0.102)  charge=  6.2285  magn=  1.7008
     atom  14 (R=0.102)  charge=  6.2297  magn=  1.6942
     atom  15 (R=0.102)  charge=  6.2290  magn=  1.6919
     atom  16 (R=0.102)  charge=  6.2286  magn=  1.6915
     atom  17 (R=0.102)  charge=  6.2291  magn=  1.7026
     atom  18 (R=0.102)  charge=  6.2293  magn=  1.6962
     atom  19 (R=0.102)  charge=  6.2284  magn=  1.6808
     atom  20 (R=0.102)  charge=  6.2298  magn=  1.6688
     atom  21 (R=0.102)  charge=  6.2279  magn=  1.7063
     atom  22 (R=0.102)  charge=  6.2292  magn=  1.6937
     atom  23 (R=0.102)  charge=  6.2289  magn=  1.6863
     atom  24 (R=0.102)  charge=  6.2291  magn=  1.7006
     atom  25 (R=0.102)  charge=  6.2276  magn=  1.6856
     atom  26 (R=0.102)  charge=  6.2245  magn=  1.7248
     atom  27 (R=0.102)  charge=  6.2310  magn=  1.6614
     atom  28 (R=0.102)  charge=  6.2302  magn=  1.6703
     atom  29 (R=0.102)  charge=  6.2522  magn=  1.1166
     atom  30 (R=0.102)  charge=  6.2242  magn=  1.7740
     atom  31 (R=0.102)  charge=  6.2261  magn=  1.7674
     atom  32 (R=0.102)  charge=  6.2222  magn=  1.7739
     atom  33 (R=0.102)  charge=  6.2229  magn=  1.7898
     atom  34 (R=0.102)  charge=  6.2260  magn=  1.7897
     atom  35 (R=0.102)  charge=  6.2324  magn=  1.7501
     atom  36 (R=0.102)  charge=  6.2234  magn=  1.7640
     atom  37 (R=0.061)  charge=  0.8363  magn= -0.0201
     atom  38 (R=0.070)  charge=  3.2190  magn= -0.0068
     atom  39 (R=0.061)  charge=  0.5057  magn= -0.0030

     total cpu time spent up to now is     1087.0 secs

     End of self-consistent calculation

 ------ SPIN UP ------------


          k = 0.0000 0.0000 0.0000 ( 51087 PWs)   bands (ev):

   -21.3750  -9.9699  -7.4848  -6.6594  -6.1415  -5.5693  -5.1078  -4.6073
    -4.5784  -4.5760  -4.5736  -4.5723  -4.5570  -4.5203  -4.2207  -4.0523
    -4.0454  -4.0440  -4.0387  -4.0168  -3.9815  -3.5370  -3.5318  -3.5280
    -3.5209  -3.5067  -3.4789  -3.4007  -3.3974  -3.3894  -3.3873  -3.3847
    -3.3585  -3.3244  -3.3199  -3.0132  -3.0067  -3.0055  -3.0044  -2.9613
    -2.9469  -2.9419  -2.9404  -2.9341  -2.9325  -2.9303  -2.9226  -2.7793
    -2.7746  -2.7309  -2.7200  -2.7096  -2.7005  -2.6949  -2.6889  -2.6733
    -2.6706  -2.6654  -2.6565  -2.5718  -2.5698  -2.5671  -2.5582  -2.5471
    -2.5001  -2.1123  -2.0510  -2.0294  -2.0281  -2.0252  -2.0229  -1.9219
    -1.9013  -1.8981  -1.8806  -1.8681  -1.8515  -1.8480  -1.8438  -1.8309
    -1.8159  -1.7955  -1.7901  -1.7493  -1.7456  -1.7370  -1.7253  -1.7167
    -1.7145  -1.7045  -1.7013  -1.6880  -1.6759  -1.6727  -1.6687  -1.6652
    -1.6636  -1.6589  -1.6558  -1.6530  -1.6509  -1.6480  -1.6429  -1.6418
    -1.6369  -1.5898  -1.5759  -1.5682  -1.5575  -1.4919  -1.4873  -1.4296
    -1.2956  -1.2128  -1.2085  -1.2020  -1.2007  -1.1976  -1.1781  -1.1596
    -1.1582  -1.1491  -1.1210  -1.1092  -1.1061  -1.0323  -0.9944  -0.9811
    -0.9712  -0.9565  -0.8655  -0.8003  -0.7883  -0.7795  -0.7707  -0.7460
    -0.7358  -0.7164  -0.7118  -0.7092  -0.7068  -0.6853  -0.6274  -0.5912
    -0.5335  -0.4702  -0.4660  -0.4629  -0.4409  -0.4161  -0.4024  -0.3992
    -0.3940  -0.3915  -0.3893  -0.3828  -0.3796  -0.3763  -0.3752  -0.3656
    -0.3562  -0.3551  -0.3319  -0.3244  -0.3197  -0.3170  -0.3147  -0.3066
    -0.2917  -0.2898  -0.2664  -0.2653  -0.2612  -0.2504  -0.2433  -0.2395
    -0.2377  -0.2336  -0.2038  -0.1844  -0.1774  -0.1639  -0.1613  -0.1590
    -0.1542  -0.1483  -0.1397  -0.1273  -0.1201  -0.1079  -0.0698  -0.0692
    -0.0662  -0.0611  -0.0042   0.0006   0.0041   0.0087   0.0276   0.0567
     0.4146   0.9456

          k = 0.0000 0.2309 0.0000 ( 51134 PWs)   bands (ev):

   -21.3750  -9.9696  -7.3395  -6.6304  -6.0653  -5.5774  -5.2909  -5.0922
    -4.8282  -4.8175  -4.4583  -4.3076  -4.2393  -4.2342  -4.1668  -4.1183
    -4.0937  -4.0630  -3.9614  -3.9256  -3.9060  -3.6527  -3.5452  -3.5297
    -3.4543  -3.4260  -3.4172  -3.4045  -3.4015  -3.3885  -3.3824  -3.3610
    -3.3276  -3.2833  -3.2794  -3.2571  -3.2511  -3.0572  -3.0268  -3.0220
    -2.9779  -2.9716  -2.9620  -2.9551  -2.8783  -2.8441  -2.8347  -2.8069
    -2.7967  -2.7941  -2.7715  -2.7510  -2.6733  -2.6621  -2.6334  -2.6017
    -2.5857  -2.5702  -2.5584  -2.5470  -2.5237  -2.5118  -2.4878  -2.4840
    -2.4197  -2.1916  -2.1501  -2.1356  -2.1158  -2.0923  -2.0519  -1.9992
    -1.9953  -1.9887  -1.9714  -1.9694  -1.9523  -1.9281  -1.8958  -1.8739
    -1.8560  -1.8455  -1.8337  -1.7958  -1.7865  -1.7821  -1.7781  -1.7650
    -1.7503  -1.7459  -1.7416  -1.7382  -1.7217  -1.6869  -1.6681  -1.6578
    -1.6387  -1.6053  -1.5742  -1.5640  -1.5523  -1.5448  -1.5379  -1.5332
    -1.5137  -1.5069  -1.5026  -1.4965  -1.4861  -1.4683  -1.4577  -1.4477
    -1.4281  -1.4194  -1.3825  -1.3401  -1.3273  -1.3051  -1.2508  -1.2280
    -1.2181  -1.2029  -1.2002  -1.1920  -1.1894  -1.1745  -1.0932  -1.0437
    -1.0320  -1.0110  -0.9624  -0.9388  -0.9233  -0.8700  -0.8576  -0.8387
    -0.8165  -0.7436  -0.7349  -0.7155  -0.6952  -0.6865  -0.6742  -0.6610
    -0.6534  -0.6326  -0.6240  -0.5767  -0.5641  -0.5566  -0.5418  -0.5351
    -0.5029  -0.4872  -0.4667  -0.4598  -0.4350  -0.4205  -0.4012  -0.3932
    -0.3862  -0.3769  -0.3703  -0.3655  -0.3498  -0.3360  -0.3308  -0.3186
    -0.2740  -0.2547  -0.2510  -0.2178  -0.2009  -0.1948  -0.1711  -0.1471
    -0.1409  -0.1274  -0.1206  -0.1110  -0.0967  -0.0883  -0.0817  -0.0478
    -0.0428  -0.0034   0.0061   0.0137   0.0351   0.0398   0.0790   0.0900
     0.1001   0.1449   0.3779   0.3893   0.4947   0.5874   0.6387   0.6640
     0.7500   0.8102

          k = 0.0000 0.4619 0.0000 ( 51204 PWs)   bands (ev):

   -21.3750  -9.9692  -6.9399  -6.5836  -6.1649  -5.8659  -5.4235  -5.0828
    -4.9657  -4.9578  -4.7929  -4.1210  -4.0943  -4.0680  -4.0494  -3.9834
    -3.8823  -3.8774  -3.8369  -3.7521  -3.7443  -3.7340  -3.6411  -3.5659
    -3.5585  -3.5555  -3.5498  -3.4975  -3.4509  -3.4379  -3.4338  -3.2893
    -3.2740  -3.2727  -3.2579  -3.2347  -3.2259  -3.1279  -3.1196  -3.1093
    -3.1019  -3.0956  -2.9787  -2.9061  -2.8875  -2.8080  -2.7914  -2.7711
    -2.7544  -2.7206  -2.7149  -2.7079  -2.6954  -2.6759  -2.6224  -2.6096
    -2.5778  -2.5541  -2.5391  -2.4164  -2.4042  -2.3978  -2.3659  -2.3382
    -2.2891  -2.2757  -2.2600  -2.2475  -2.2053  -2.1694  -2.1340  -2.1148
    -2.1129  -2.1029  -2.1012  -2.0813  -2.0720  -2.0495  -2.0130  -1.9945
    -1.9789  -1.9628  -1.9418  -1.9292  -1.8996  -1.8723  -1.8126  -1.8017
    -1.7932  -1.7654  -1.7533  -1.7389  -1.7046  -1.6859  -1.6804  -1.6713
    -1.6557  -1.6396  -1.6277  -1.6126  -1.5933  -1.5915  -1.5818  -1.5640
    -1.5527  -1.5263  -1.5009  -1.4849  -1.4211  -1.4031  -1.3894  -1.3716
    -1.3581  -1.3375  -1.3160  -1.2857  -1.2646  -1.2502  -1.2446  -1.2423
    -1.2348  -1.2317  -1.2147  -1.2077  -1.1961  -1.1943  -1.1807  -1.1711
    -1.1449  -1.1187  -1.0591  -1.0521  -1.0107  -1.0054  -0.9837  -0.9653
    -0.9340  -0.9249  -0.8863  -0.8774  -0.8600  -0.8217  -0.8017  -0.7618
    -0.7408  -0.7199  -0.6869  -0.6709  -0.6528  -0.6440  -0.6264  -0.5636
    -0.5203  -0.4927  -0.4785  -0.4625  -0.4609  -0.4530  -0.4447  -0.4354
    -0.4169  -0.4111  -0.3402  -0.3226  -0.3023  -0.2980  -0.2872  -0.2841
    -0.2713  -0.2546  -0.2432  -0.2260  -0.2108  -0.1925  -0.1368  -0.1131
    -0.1097  -0.0925  -0.0800  -0.0360  -0.0144   0.0114   0.0214   0.0608
     0.0672   0.1071   0.1122   0.1321   0.1341   0.1406   0.1627   0.1703
     0.2388   0.2705   0.4016   0.8962   1.1699   1.3556   1.3803   1.4069
     1.6574   1.7515

          k = 0.2000-0.1155 0.0000 ( 51134 PWs)   bands (ev):

   -21.3750  -9.9704  -7.3383  -6.6302  -6.0593  -5.5612  -5.3128  -5.0970
    -4.8235  -4.8070  -4.4637  -4.3327  -4.2377  -4.2328  -4.1710  -4.1238
    -4.0850  -4.0437  -3.9734  -3.9212  -3.9002  -3.6542  -3.5436  -3.5313
    -3.4579  -3.4347  -3.4110  -3.4032  -3.4009  -3.3936  -3.3778  -3.3579
    -3.3278  -3.2822  -3.2790  -3.2543  -3.2509  -3.0635  -3.0302  -3.0207
    -2.9742  -2.9701  -2.9630  -2.9527  -2.8890  -2.8462  -2.8344  -2.8075
    -2.7990  -2.7935  -2.7635  -2.7539  -2.6764  -2.6606  -2.6376  -2.5981
    -2.5904  -2.5651  -2.5566  -2.5409  -2.5207  -2.5075  -2.4894  -2.4820
    -2.4277  -2.1885  -2.1509  -2.1334  -2.1194  -2.0943  -2.0529  -2.0005
    -1.9965  -1.9866  -1.9795  -1.9617  -1.9523  -1.9284  -1.9056  -1.8725
    -1.8511  -1.8387  -1.8304  -1.7953  -1.7878  -1.7807  -1.7754  -1.7634
    -1.7518  -1.7452  -1.7414  -1.7383  -1.7335  -1.7000  -1.6690  -1.6457
    -1.6343  -1.6128  -1.5736  -1.5592  -1.5565  -1.5488  -1.5420  -1.5302
    -1.5207  -1.5124  -1.4997  -1.4983  -1.4871  -1.4730  -1.4570  -1.4437
    -1.4257  -1.4161  -1.3933  -1.3611  -1.3176  -1.2835  -1.2412  -1.2258
    -1.2208  -1.2132  -1.1981  -1.1925  -1.1827  -1.1661  -1.0741  -1.0337
    -1.0169  -1.0021  -0.9687  -0.9380  -0.9197  -0.8824  -0.8600  -0.8316
    -0.8068  -0.7692  -0.7433  -0.7289  -0.7043  -0.6909  -0.6656  -0.6547
    -0.6508  -0.6295  -0.6098  -0.5776  -0.5658  -0.5567  -0.5410  -0.5383
    -0.5162  -0.4816  -0.4633  -0.4624  -0.4433  -0.4230  -0.3986  -0.3904
    -0.3851  -0.3753  -0.3724  -0.3706  -0.3503  -0.3372  -0.3332  -0.3051
    -0.2694  -0.2538  -0.2507  -0.2206  -0.2086  -0.1869  -0.1677  -0.1458
    -0.1358  -0.1303  -0.1226  -0.1094  -0.1026  -0.0881  -0.0798  -0.0548
    -0.0409  -0.0047   0.0104   0.0157   0.0346   0.0400   0.0825   0.0916
     0.1089   0.1476   0.3828   0.3890   0.4591   0.5578   0.6415   0.6761
     0.6964   0.8432

          k = 0.2000 0.1155 0.0000 ( 51134 PWs)   bands (ev):

   -21.3750  -9.9706  -7.3379  -6.6303  -6.0568  -5.5588  -5.3074  -5.1152
    -4.8162  -4.8042  -4.4659  -4.3419  -4.2384  -4.2313  -4.1711  -4.1242
    -4.0750  -4.0453  -3.9765  -3.9173  -3.9009  -3.6557  -3.5403  -3.5349
    -3.4568  -3.4376  -3.4085  -3.4062  -3.3996  -3.3923  -3.3758  -3.3572
    -3.3268  -3.2844  -3.2783  -3.2532  -3.2511  -3.0566  -3.0259  -3.0206
    -2.9728  -2.9680  -2.9627  -2.9590  -2.8807  -2.8477  -2.8363  -2.8126
    -2.7985  -2.7952  -2.7698  -2.7583  -2.6747  -2.6617  -2.6410  -2.5980
    -2.5933  -2.5635  -2.5567  -2.5333  -2.5237  -2.5074  -2.4916  -2.4834
    -2.4292  -2.1818  -2.1526  -2.1372  -2.1139  -2.0936  -2.0538  -1.9985
    -1.9920  -1.9878  -1.9749  -1.9642  -1.9575  -1.9344  -1.8885  -1.8734
    -1.8591  -1.8473  -1.8229  -1.7963  -1.7871  -1.7839  -1.7792  -1.7608
    -1.7501  -1.7484  -1.7426  -1.7361  -1.7274  -1.7028  -1.6699  -1.6479
    -1.6310  -1.6026  -1.5842  -1.5647  -1.5512  -1.5487  -1.5367  -1.5319
    -1.5164  -1.5134  -1.5042  -1.4990  -1.4908  -1.4672  -1.4497  -1.4421
    -1.4282  -1.4232  -1.4037  -1.3616  -1.3219  -1.2755  -1.2428  -1.2252
    -1.2138  -1.2101  -1.2029  -1.1925  -1.1896  -1.1760  -1.0806  -1.0493
    -1.0128  -0.9909  -0.9659  -0.9394  -0.9125  -0.8870  -0.8606  -0.8417
    -0.7904  -0.7632  -0.7415  -0.7180  -0.7024  -0.6927  -0.6731  -0.6605
    -0.6484  -0.6315  -0.6095  -0.5644  -0.5577  -0.5531  -0.5411  -0.5355
    -0.5237  -0.4882  -0.4661  -0.4596  -0.4413  -0.4187  -0.4032  -0.3918
    -0.3874  -0.3790  -0.3738  -0.3627  -0.3456  -0.3401  -0.3264  -0.3077
    -0.2750  -0.2560  -0.2476  -0.2265  -0.2011  -0.1947  -0.1653  -0.1441
    -0.1352  -0.1332  -0.1196  -0.1107  -0.0963  -0.0860  -0.0814  -0.0524
    -0.0373  -0.0011   0.0103   0.0138   0.0380   0.0402   0.0786   0.0851
     0.1175   0.1374   0.3739   0.3877   0.4720   0.5487   0.6417   0.6520
     0.7078   0.8590

          k = 0.2000 0.3464 0.0000 ( 51202 PWs)   bands (ev):

   -21.3750  -9.9704  -7.0613  -6.5932  -5.9374  -5.6867  -5.6526  -5.3831
    -5.0902  -4.5614  -4.4659  -4.2427  -4.2397  -4.1973  -4.0253  -4.0199
    -3.9311  -3.9227  -3.9076  -3.7914  -3.7833  -3.6553  -3.6427  -3.5798
    -3.5362  -3.4443  -3.4404  -3.4156  -3.4007  -3.3904  -3.3778  -3.3551
    -3.3431  -3.3169  -3.3087  -3.2672  -3.2310  -3.1869  -3.1793  -3.0603
    -3.0508  -2.9660  -2.9554  -2.9341  -2.9042  -2.9028  -2.8123  -2.7656
    -2.7599  -2.7359  -2.7251  -2.7121  -2.6746  -2.6651  -2.6478  -2.6365
    -2.6161  -2.5161  -2.5011  -2.4464  -2.4420  -2.4239  -2.3875  -2.3814
    -2.3683  -2.2772  -2.1958  -2.1781  -2.1587  -2.1314  -2.1229  -2.0939
    -2.0885  -2.0710  -2.0602  -2.0450  -2.0335  -2.0188  -2.0057  -1.9927
    -1.9803  -1.9490  -1.9041  -1.8656  -1.8234  -1.8152  -1.7984  -1.7784
    -1.7697  -1.7492  -1.7141  -1.7096  -1.6930  -1.6691  -1.6659  -1.6558
    -1.6491  -1.6353  -1.6322  -1.6173  -1.6089  -1.6014  -1.5748  -1.5601
    -1.5530  -1.5391  -1.5060  -1.4841  -1.4705  -1.4430  -1.4345  -1.4179
    -1.4100  -1.4013  -1.3799  -1.3545  -1.3277  -1.3145  -1.2949  -1.2720
    -1.2515  -1.2471  -1.2375  -1.2199  -1.2081  -1.1882  -1.1807  -1.1390
    -1.0980  -1.0832  -1.0627  -1.0503  -0.9844  -0.9419  -0.9291  -0.8832
    -0.8257  -0.8164  -0.8098  -0.7954  -0.7867  -0.7689  -0.7598  -0.7282
    -0.7255  -0.7131  -0.6811  -0.6618  -0.6442  -0.6363  -0.6144  -0.6048
    -0.5865  -0.5674  -0.5459  -0.5313  -0.5214  -0.5021  -0.4529  -0.3816
    -0.3619  -0.3426  -0.3294  -0.3165  -0.3116  -0.2883  -0.2773  -0.2712
    -0.2614  -0.2399  -0.1877  -0.1672  -0.1591  -0.1531  -0.1220  -0.0977
    -0.0919  -0.0836  -0.0778  -0.0578  -0.0527  -0.0426  -0.0364  -0.0282
    -0.0068   0.0546   0.0743   0.0855   0.1021   0.1337   0.1412   0.1560
     0.4516   0.4804   0.5038   0.6661   0.7931   0.8351   1.1297   1.3488
     1.3857   1.5680

          k = 0.2000-0.5774 0.0000 ( 51262 PWs)   bands (ev):

   -21.3750  -9.9700  -6.7444  -6.4364  -6.3424  -5.8452  -5.7112  -5.3233
    -4.9687  -4.9393  -4.5839  -4.2299  -3.9866  -3.9375  -3.8288  -3.8114
    -3.8089  -3.7822  -3.7760  -3.7580  -3.7155  -3.6959  -3.6949  -3.6906
    -3.6077  -3.5886  -3.5457  -3.5445  -3.5164  -3.5088  -3.4131  -3.3736
    -3.3611  -3.3540  -3.3350  -3.2902  -3.2156  -3.1901  -3.0786  -3.0650
    -3.0605  -2.9953  -2.9765  -2.9570  -2.9341  -2.8555  -2.8480  -2.8420
    -2.7775  -2.7675  -2.6926  -2.6605  -2.6310  -2.6232  -2.5722  -2.5644
    -2.4878  -2.4773  -2.4741  -2.4619  -2.4489  -2.4248  -2.4047  -2.3428
    -2.2795  -2.2691  -2.2532  -2.2464  -2.2059  -2.1907  -2.1645  -2.1295
    -2.1202  -2.0831  -2.0767  -2.0680  -2.0439  -2.0186  -2.0048  -1.9962
    -1.9891  -1.9791  -1.9518  -1.9349  -1.9321  -1.9060  -1.8634  -1.8458
    -1.8259  -1.7853  -1.7663  -1.7387  -1.7191  -1.6931  -1.6881  -1.6680
    -1.6565  -1.6483  -1.6384  -1.6310  -1.6160  -1.6128  -1.5866  -1.5763
    -1.5305  -1.5024  -1.4898  -1.4855  -1.4680  -1.4609  -1.4586  -1.4475
    -1.4415  -1.4289  -1.4132  -1.3886  -1.3674  -1.3456  -1.3247  -1.3083
    -1.2511  -1.2427  -1.2254  -1.1901  -1.1737  -1.1642  -1.1536  -1.1077
    -1.0831  -1.0712  -1.0586  -1.0387  -0.9999  -0.9449  -0.9391  -0.9162
    -0.9031  -0.8976  -0.8844  -0.8658  -0.8384  -0.8243  -0.7972  -0.7667
    -0.7582  -0.7305  -0.7101  -0.7039  -0.6949  -0.6601  -0.6279  -0.6237
    -0.6064  -0.5893  -0.5778  -0.5665  -0.5338  -0.5046  -0.4908  -0.4278
    -0.3526  -0.3216  -0.3158  -0.3041  -0.2973  -0.2911  -0.2833  -0.2652
    -0.2411  -0.2250  -0.2164  -0.2083  -0.1570  -0.1530  -0.0920  -0.0870
    -0.0662  -0.0559  -0.0502  -0.0350   0.0093   0.0146   0.0217   0.0305
     0.0410   0.1061   0.1146   0.1245   0.1354   0.1430   0.1675   0.2030
     0.3069   0.5135   0.5881   0.8665   1.3754   1.4207   1.4990   1.7161
     1.9008   1.9679

          k = 0.2000-0.3464 0.0000 ( 51202 PWs)   bands (ev):

   -21.3750  -9.9701  -7.0622  -6.5932  -5.9414  -5.6883  -5.6539  -5.3815
    -5.0808  -4.5669  -4.4605  -4.2445  -4.2398  -4.1945  -4.0246  -4.0208
    -3.9301  -3.9220  -3.9048  -3.7956  -3.7848  -3.6502  -3.6464  -3.5814
    -3.5360  -3.4470  -3.4396  -3.4138  -3.4032  -3.3864  -3.3812  -3.3551
    -3.3455  -3.3205  -3.3023  -3.2701  -3.2335  -3.1924  -3.1751  -3.0648
    -3.0548  -2.9651  -2.9580  -2.9316  -2.9198  -2.8927  -2.8067  -2.7690
    -2.7502  -2.7349  -2.7267  -2.7059  -2.6766  -2.6661  -2.6434  -2.6281
    -2.6203  -2.5110  -2.4961  -2.4484  -2.4403  -2.4167  -2.3946  -2.3781
    -2.3648  -2.2769  -2.2113  -2.1824  -2.1677  -2.1355  -2.1213  -2.1008
    -2.0897  -2.0694  -2.0524  -2.0427  -2.0315  -2.0220  -2.0078  -1.9962
    -1.9815  -1.9590  -1.8960  -1.8469  -1.8207  -1.8111  -1.7904  -1.7766
    -1.7653  -1.7389  -1.7370  -1.7074  -1.6909  -1.6746  -1.6648  -1.6567
    -1.6542  -1.6398  -1.6288  -1.6158  -1.6020  -1.5965  -1.5774  -1.5656
    -1.5467  -1.5389  -1.5193  -1.4889  -1.4720  -1.4539  -1.4252  -1.4193
    -1.4089  -1.3961  -1.3844  -1.3358  -1.3220  -1.3093  -1.2915  -1.2708
    -1.2562  -1.2464  -1.2364  -1.2203  -1.2098  -1.1980  -1.1729  -1.1360
    -1.1114  -1.0774  -1.0699  -1.0313  -0.9886  -0.9501  -0.9306  -0.8791
    -0.8327  -0.8174  -0.8092  -0.7956  -0.7868  -0.7758  -0.7550  -0.7416
    -0.7280  -0.7065  -0.6818  -0.6712  -0.6486  -0.6300  -0.6210  -0.6043
    -0.5982  -0.5772  -0.5384  -0.5275  -0.5196  -0.4961  -0.4373  -0.3759
    -0.3675  -0.3465  -0.3270  -0.3184  -0.3126  -0.2878  -0.2811  -0.2710
    -0.2533  -0.2406  -0.1817  -0.1740  -0.1651  -0.1555  -0.1184  -0.1066
    -0.0911  -0.0833  -0.0796  -0.0653  -0.0526  -0.0436  -0.0370  -0.0248
    -0.0052   0.0572   0.0788   0.0882   0.0955   0.1311   0.1401   0.1719
     0.4606   0.4781   0.4935   0.6807   0.7742   0.8333   1.1379   1.3531
     1.3738   1.5933

          k = 0.4000-0.2309 0.0000 ( 51204 PWs)   bands (ev):

   -21.3750  -9.9714  -6.9341  -6.5825  -6.1564  -5.8560  -5.4072  -5.1217
    -4.9672  -4.9299  -4.8288  -4.1394  -4.0831  -4.0680  -4.0252  -3.9953
    -3.8790  -3.8769  -3.8406  -3.7493  -3.7435  -3.7351  -3.6521  -3.5645
    -3.5584  -3.5527  -3.5493  -3.4997  -3.4539  -3.4447  -3.4345  -3.2793
    -3.2765  -3.2691  -3.2467  -3.2324  -3.2258  -3.1300  -3.1249  -3.1112
    -3.1028  -3.0955  -2.9926  -2.8991  -2.8902  -2.8075  -2.7957  -2.7687
    -2.7545  -2.7204  -2.7156  -2.7096  -2.6885  -2.6781  -2.6206  -2.6104
    -2.5849  -2.5505  -2.5421  -2.4215  -2.4056  -2.3939  -2.3692  -2.3398
    -2.2928  -2.2850  -2.2657  -2.2462  -2.2012  -2.1599  -2.1205  -2.1163
    -2.1134  -2.1008  -2.0872  -2.0775  -2.0710  -2.0513  -2.0201  -1.9996
    -1.9837  -1.9577  -1.9411  -1.9128  -1.9000  -1.8724  -1.8099  -1.7948
    -1.7915  -1.7797  -1.7595  -1.7491  -1.7127  -1.6853  -1.6836  -1.6722
    -1.6608  -1.6388  -1.6353  -1.6084  -1.6044  -1.5933  -1.5848  -1.5589
    -1.5484  -1.5406  -1.4875  -1.4458  -1.4267  -1.4066  -1.3836  -1.3743
    -1.3560  -1.3449  -1.3023  -1.2793  -1.2626  -1.2528  -1.2475  -1.2421
    -1.2323  -1.2272  -1.2193  -1.2091  -1.2014  -1.1919  -1.1752  -1.1619
    -1.1456  -1.1165  -1.0750  -1.0437  -1.0054  -1.0029  -0.9844  -0.9681
    -0.9401  -0.9035  -0.8943  -0.8762  -0.8548  -0.8318  -0.8124  -0.7611
    -0.7337  -0.7062  -0.6881  -0.6708  -0.6564  -0.6377  -0.6251  -0.5729
    -0.5388  -0.4861  -0.4739  -0.4670  -0.4579  -0.4538  -0.4400  -0.4359
    -0.4195  -0.4103  -0.3351  -0.3234  -0.3078  -0.2874  -0.2843  -0.2728
    -0.2680  -0.2537  -0.2453  -0.2361  -0.2143  -0.1974  -0.1313  -0.1132
    -0.1059  -0.0921  -0.0728  -0.0554  -0.0146   0.0058   0.0212   0.0542
     0.0674   0.1096   0.1130   0.1307   0.1350   0.1402   0.1593   0.1763
     0.2388   0.2715   0.3555   0.9633   1.1449   1.3179   1.3791   1.3974
     1.6215   1.7769

          k = 0.4000 0.0000 0.0000 ( 51202 PWs)   bands (ev):

   -21.3750  -9.9717  -7.0575  -6.5937  -5.9254  -5.6693  -5.6610  -5.3915
    -5.1032  -4.5320  -4.4986  -4.2462  -4.2404  -4.1963  -4.0277  -4.0202
    -3.9303  -3.9260  -3.9187  -3.7902  -3.7693  -3.6550  -3.6433  -3.5773
    -3.5346  -3.4428  -3.4361  -3.4199  -3.4032  -3.3917  -3.3776  -3.3548
    -3.3400  -3.3164  -3.3053  -3.2692  -3.2295  -3.1866  -3.1808  -3.0667
    -3.0506  -2.9678  -2.9536  -2.9298  -2.9156  -2.9057  -2.8188  -2.7694
    -2.7636  -2.7297  -2.7253  -2.7108  -2.6711  -2.6558  -2.6486  -2.6362
    -2.6158  -2.5152  -2.5018  -2.4471  -2.4380  -2.4324  -2.3865  -2.3822
    -2.3691  -2.2620  -2.2051  -2.1784  -2.1629  -2.1358  -2.1149  -2.0971
    -2.0791  -2.0735  -2.0645  -2.0498  -2.0331  -2.0165  -2.0135  -1.9930
    -1.9728  -1.9442  -1.9018  -1.8823  -1.8231  -1.8104  -1.7998  -1.7823
    -1.7633  -1.7469  -1.7263  -1.7128  -1.6867  -1.6709  -1.6605  -1.6563
    -1.6466  -1.6422  -1.6293  -1.6120  -1.6064  -1.6021  -1.5813  -1.5614
    -1.5530  -1.5281  -1.5052  -1.4845  -1.4683  -1.4561  -1.4453  -1.4195
    -1.4080  -1.3874  -1.3769  -1.3493  -1.3403  -1.3093  -1.2964  -1.2595
    -1.2527  -1.2419  -1.2374  -1.2194  -1.2041  -1.1894  -1.1757  -1.1404
    -1.0941  -1.0774  -1.0619  -1.0209  -0.9894  -0.9510  -0.9318  -0.8841
    -0.8305  -0.8154  -0.8111  -0.7877  -0.7806  -0.7677  -0.7601  -0.7504
    -0.7226  -0.7129  -0.6785  -0.6623  -0.6524  -0.6329  -0.6158  -0.6096
    -0.5949  -0.5771  -0.5472  -0.5282  -0.5161  -0.4986  -0.4304  -0.4003
    -0.3619  -0.3405  -0.3278  -0.3164  -0.3104  -0.2849  -0.2780  -0.2698
    -0.2532  -0.2433  -0.1887  -0.1690  -0.1584  -0.1553  -0.1166  -0.1094
    -0.0876  -0.0838  -0.0779  -0.0689  -0.0497  -0.0434  -0.0363  -0.0177
    -0.0081   0.0506   0.0737   0.0857   0.0943   0.1331   0.1366   0.1616
     0.4653   0.4791   0.5417   0.5762   0.8153   0.8299   1.1452   1.3491
     1.3734   1.5843

          k = 0.4000 0.2309 0.0000 ( 51204 PWs)   bands (ev):

   -21.3750  -9.9719  -6.9330  -6.5826  -6.1515  -5.8521  -5.4004  -5.1430
    -4.9663  -4.9181  -4.8467  -4.1419  -4.0708  -4.0658  -4.0263  -3.9988
    -3.8802  -3.8751  -3.8391  -3.7480  -3.7412  -3.7364  -3.6592  -3.5629
    -3.5597  -3.5505  -3.5494  -3.4998  -3.4592  -3.4428  -3.4331  -3.2770
    -3.2756  -3.2643  -3.2452  -3.2309  -3.2226  -3.1257  -3.1161  -3.1077
    -3.1019  -3.0980  -2.9833  -2.9003  -2.8947  -2.8159  -2.7983  -2.7747
    -2.7615  -2.7271  -2.7177  -2.7078  -2.6871  -2.6822  -2.6147  -2.6113
    -2.5866  -2.5550  -2.5451  -2.4250  -2.4039  -2.3911  -2.3801  -2.3407
    -2.2958  -2.2785  -2.2695  -2.2500  -2.1922  -2.1514  -2.1349  -2.1179
    -2.1157  -2.1036  -2.0881  -2.0802  -2.0676  -2.0483  -2.0405  -1.9950
    -1.9684  -1.9548  -1.9393  -1.9082  -1.8863  -1.8684  -1.8219  -1.7970
    -1.7896  -1.7803  -1.7571  -1.7475  -1.7057  -1.6844  -1.6753  -1.6677
    -1.6532  -1.6468  -1.6315  -1.6097  -1.6029  -1.5913  -1.5775  -1.5634
    -1.5479  -1.5318  -1.4921  -1.4739  -1.4224  -1.4042  -1.3833  -1.3733
    -1.3512  -1.3387  -1.3173  -1.2871  -1.2622  -1.2546  -1.2472  -1.2430
    -1.2350  -1.2318  -1.2189  -1.2113  -1.2059  -1.1925  -1.1713  -1.1637
    -1.1539  -1.1144  -1.0750  -1.0389  -1.0066  -1.0027  -0.9895  -0.9687
    -0.9498  -0.9014  -0.8832  -0.8762  -0.8575  -0.8173  -0.8016  -0.7660
    -0.7408  -0.6979  -0.6751  -0.6631  -0.6537  -0.6385  -0.6025  -0.5978
    -0.5393  -0.4849  -0.4763  -0.4641  -0.4587  -0.4524  -0.4418  -0.4374
    -0.4253  -0.4095  -0.3396  -0.3160  -0.3032  -0.2949  -0.2894  -0.2822
    -0.2668  -0.2455  -0.2385  -0.2289  -0.2149  -0.2042  -0.1305  -0.1140
    -0.1056  -0.0990  -0.0712  -0.0488  -0.0149   0.0052   0.0234   0.0550
     0.0675   0.1090   0.1112   0.1324   0.1350   0.1386   0.1554   0.1863
     0.2388   0.2637   0.3638   0.9507   1.1536   1.3154   1.3719   1.3895
     1.6825   1.7313

          k = 0.4000-0.6928 0.0000 ( 51262 PWs)   bands (ev):

   -21.3750  -9.9717  -6.7388  -6.4284  -6.3403  -5.8724  -5.6851  -5.2317
    -5.1021  -4.9560  -4.5348  -4.2248  -3.9893  -3.9454  -3.8490  -3.8132
    -3.8048  -3.7877  -3.7765  -3.7612  -3.7032  -3.6972  -3.6940  -3.6866
    -3.6097  -3.5922  -3.5460  -3.5416  -3.5145  -3.5120  -3.3985  -3.3786
    -3.3607  -3.3562  -3.3275  -3.2902  -3.2045  -3.1873  -3.0863  -3.0634
    -3.0616  -2.9878  -2.9803  -2.9582  -2.9288  -2.8653  -2.8524  -2.8350
    -2.7861  -2.7720  -2.6865  -2.6650  -2.6329  -2.6213  -2.5718  -2.5665
    -2.4975  -2.4799  -2.4691  -2.4648  -2.4527  -2.4343  -2.4119  -2.3437
    -2.2845  -2.2645  -2.2597  -2.2494  -2.2057  -2.1875  -2.1418  -2.1324
    -2.1071  -2.0821  -2.0757  -2.0626  -2.0586  -2.0329  -2.0104  -1.9886
    -1.9809  -1.9775  -1.9566  -1.9349  -1.9261  -1.8922  -1.8630  -1.8444
    -1.8280  -1.7915  -1.7611  -1.7501  -1.7281  -1.6918  -1.6825  -1.6732
    -1.6531  -1.6491  -1.6415  -1.6272  -1.6193  -1.5890  -1.5801  -1.5525
    -1.5274  -1.4998  -1.4877  -1.4834  -1.4702  -1.4634  -1.4596  -1.4488
    -1.4365  -1.4272  -1.4102  -1.3992  -1.3761  -1.3603  -1.3266  -1.3187
    -1.2798  -1.2426  -1.2061  -1.1842  -1.1785  -1.1715  -1.1583  -1.0979
    -1.0872  -1.0805  -1.0635  -1.0347  -0.9702  -0.9494  -0.9301  -0.9191
    -0.9092  -0.8974  -0.8759  -0.8679  -0.8373  -0.8147  -0.7888  -0.7785
    -0.7550  -0.7289  -0.7157  -0.7102  -0.6827  -0.6452  -0.6383  -0.6147
    -0.6009  -0.5920  -0.5761  -0.5684  -0.5266  -0.5187  -0.5010  -0.4232
    -0.3565  -0.3210  -0.3111  -0.3063  -0.2993  -0.2897  -0.2800  -0.2596
    -0.2424  -0.2288  -0.2156  -0.2057  -0.1641  -0.1471  -0.0929  -0.0806
    -0.0642  -0.0541  -0.0484  -0.0269   0.0013   0.0157   0.0230   0.0273
     0.0399   0.0807   0.1146   0.1167   0.1338   0.1467   0.1651   0.1969
     0.2941   0.5155   0.6238   0.8777   1.2996   1.4251   1.4731   1.8121
     1.9008   1.9514

          k = 0.4000-0.4619 0.0000 ( 51262 PWs)   bands (ev):

   -21.3750  -9.9714  -6.7391  -6.4300  -6.3435  -5.8641  -5.6923  -5.2633
    -5.0672  -4.9399  -4.5498  -4.2254  -3.9895  -3.9426  -3.8479  -3.8095
    -3.8075  -3.7874  -3.7793  -3.7587  -3.7045  -3.6954  -3.6930  -3.6886
    -3.6112  -3.5880  -3.5477  -3.5434  -3.5163  -3.5102  -3.4020  -3.3770
    -3.3605  -3.3586  -3.3297  -3.2894  -3.2066  -3.1901  -3.0925  -3.0664
    -3.0616  -2.9853  -2.9779  -2.9646  -2.9328  -2.8528  -2.8474  -2.8409
    -2.7791  -2.7677  -2.6908  -2.6604  -2.6353  -2.6216  -2.5728  -2.5640
    -2.4941  -2.4798  -2.4724  -2.4614  -2.4531  -2.4259  -2.4067  -2.3430
    -2.2865  -2.2640  -2.2568  -2.2479  -2.2140  -2.1915  -2.1512  -2.1266
    -2.1076  -2.0840  -2.0757  -2.0649  -2.0504  -2.0251  -2.0091  -1.9943
    -1.9835  -1.9707  -1.9529  -1.9348  -1.9312  -1.8875  -1.8632  -1.8490
    -1.8338  -1.7900  -1.7689  -1.7494  -1.7121  -1.6981  -1.6833  -1.6757
    -1.6560  -1.6476  -1.6387  -1.6296  -1.6182  -1.6036  -1.5801  -1.5618
    -1.5253  -1.4994  -1.4911  -1.4840  -1.4791  -1.4640  -1.4572  -1.4500
    -1.4406  -1.4320  -1.4132  -1.3898  -1.3774  -1.3432  -1.3281  -1.3089
    -1.2675  -1.2402  -1.2082  -1.1877  -1.1753  -1.1637  -1.1540  -1.1041
    -1.0847  -1.0726  -1.0669  -1.0223  -0.9956  -0.9478  -0.9259  -0.9173
    -0.9041  -0.8947  -0.8854  -0.8619  -0.8451  -0.8249  -0.7936  -0.7657
    -0.7552  -0.7280  -0.7210  -0.7112  -0.6809  -0.6599  -0.6427  -0.6221
    -0.6037  -0.5880  -0.5785  -0.5694  -0.5326  -0.5179  -0.4859  -0.4140
    -0.3578  -0.3205  -0.3116  -0.3010  -0.2989  -0.2884  -0.2776  -0.2684
    -0.2361  -0.2274  -0.2161  -0.2105  -0.1620  -0.1505  -0.0926  -0.0814
    -0.0748  -0.0549  -0.0426  -0.0330   0.0057   0.0151   0.0208   0.0268
     0.0430   0.0839   0.1121   0.1207   0.1336   0.1432   0.1676   0.2030
     0.2865   0.5152   0.6285   0.8623   1.3247   1.4265   1.4689   1.8022
     1.9031   1.9514

 ------ SPIN DOWN ----------


          k = 0.0000 0.0000 0.0000 ( 51087 PWs)   bands (ev):

   -21.3985 -10.0567  -7.6146  -6.6888  -6.1985  -5.5678  -5.1203  -4.4066
    -4.3798  -4.3768  -4.3742  -4.3720  -4.3531  -4.2505  -3.5175  -3.5031
    -3.5022  -3.4999  -3.4743  -3.4614  -3.3504  -2.5696  -2.5576  -2.5523
    -2.5486  -2.5276  -2.4779  -2.0959  -2.0883  -2.0858  -2.0845  -2.0782
    -2.0720  -1.9009  -1.8849  -1.8157  -1.8042  -1.8009  -1.7918  -1.7219
    -1.6943  -1.6720  -1.6464  -1.6233  -1.5729  -1.5493  -1.5393  -1.5358
    -1.5194  -1.4999  -1.3129  -1.2804  -1.2704  -1.2673  -1.2636  -1.2556
    -1.2554  -1.2441  -1.2323  -1.1947  -1.1930  -1.1790  -1.1754  -1.1635
    -1.1271  -0.9835  -0.6368  -0.6089  -0.5922  -0.5895  -0.5677  -0.4473
    -0.3963  -0.2946  -0.2736  -0.2706  -0.2603  -0.2581  -0.2534  -0.2148
    -0.2026  -0.1967  -0.1811  -0.1787  -0.1777  -0.1667  -0.1272  -0.0874
    -0.0802  -0.0697  -0.0664  -0.0580  -0.0373  -0.0166  -0.0141  -0.0093
    -0.0092  -0.0025   0.0151   0.0175   0.0244   0.0290   0.0752   0.1069
     0.1602   0.1776   0.2036   0.2326   0.2364   0.2468   0.2495   0.2519
     0.2526   0.2537   0.2550   0.2819   0.3232   0.3244   0.3699   0.4050
     0.4170   0.4313   0.4452   0.4625   0.5764   0.6354   0.6404   0.6909
     0.7196   0.7240   0.7303   0.7342   0.7516   0.8935   1.0375   1.0562
     1.0789   1.0829   1.2364   1.2593   1.2780   1.2928   1.2950   1.2993
     1.3020   1.4497   1.4572   1.4633   1.4691   1.4748   1.4927   1.5000
     1.5039   1.5290   1.5477   1.5566   1.5750   1.6045   1.6109   1.6168
     1.6232   1.6253   1.6264   1.6451   1.6766   1.6954   1.7066   1.7183
     1.7302   1.7432   1.7453   1.7470   1.7487   1.7560   1.7582   1.7958
     1.7996   1.8242   1.8283   1.8325   1.8430   1.8476   1.8487   1.8794
     1.8840   1.8876   1.8958   1.8974   1.9007   1.9088   1.9109   1.9173
     1.9204   1.9672   1.9744   2.0042   2.1232   2.1254   2.1311   2.1327
     2.1356   2.1375

          k = 0.0000 0.2309 0.0000 ( 51134 PWs)   bands (ev):

   -21.3985 -10.0564  -7.4672  -6.6546  -6.1218  -5.5975  -5.3073  -5.0996
    -4.7662  -4.7533  -4.2359  -4.0918  -3.8331  -3.8260  -3.7511  -3.7111
    -3.5329  -3.2899  -3.1687  -3.1450  -3.0427  -2.7663  -2.5824  -2.5523
    -2.4879  -2.4617  -2.4327  -2.2116  -2.1296  -2.1265  -2.1136  -2.0815
    -2.0743  -2.0436  -2.0290  -1.9946  -1.9892  -1.8751  -1.8421  -1.7666
    -1.7604  -1.7202  -1.6379  -1.6025  -1.5720  -1.5616  -1.5091  -1.4444
    -1.4241  -1.4025  -1.3540  -1.3348  -1.3110  -1.2851  -1.2700  -1.2616
    -1.2481  -1.2166  -1.1696  -1.1519  -1.1227  -1.0895  -1.0780  -1.0513
    -0.9850  -0.9219  -0.7156  -0.6553  -0.6403  -0.6187  -0.5855  -0.5458
    -0.4966  -0.4744  -0.4287  -0.4118  -0.3135  -0.2905  -0.2800  -0.2646
    -0.2526  -0.2385  -0.2282  -0.2082  -0.2015  -0.1791  -0.1501  -0.0993
    -0.0717  -0.0685  -0.0533  -0.0359  -0.0312  -0.0098   0.0012   0.0157
     0.0255   0.0310   0.0369   0.0401   0.0423   0.0463   0.0854   0.0949
     0.1205   0.1361   0.1453   0.1480   0.1782   0.1938   0.2070   0.2148
     0.2447   0.2613   0.2918   0.3167   0.3501   0.3612   0.3667   0.3905
     0.4563   0.5462   0.5930   0.6035   0.6129   0.6451   0.6626   0.6849
     0.6993   0.7098   0.7109   0.7161   0.7586   0.9238   1.0214   1.0430
     1.0495   1.0580   1.0740   1.0851   1.1076   1.1528   1.2077   1.2364
     1.2576   1.2750   1.3246   1.3330   1.3622   1.3840   1.4108   1.4321
     1.4719   1.4809   1.5152   1.5286   1.5378   1.5516   1.5715   1.5797
     1.6052   1.6255   1.6727   1.6819   1.7052   1.7151   1.7277   1.7327
     1.7798   1.7824   1.7913   1.7941   1.8140   1.8493   1.8700   1.8781
     1.8820   1.8911   1.9178   1.9328   1.9416   1.9539   1.9717   1.9805
     1.9923   2.0293   2.0322   2.0377   2.0571   2.0633   2.0692   2.0935
     2.1105   2.1204   2.1245   2.1468   2.2003   2.2274   2.2346   2.2675
     2.3027   2.3212

          k = 0.0000 0.4619 0.0000 ( 51204 PWs)   bands (ev):

   -21.3985 -10.0560  -7.0490  -6.6215  -6.2571  -5.9055  -5.4640  -5.0972
    -4.9743  -4.9630  -4.7834  -3.8873  -3.8774  -3.7735  -3.2676  -3.2124
    -3.2072  -3.0878  -2.9507  -2.8863  -2.7783  -2.7565  -2.6140  -2.6054
    -2.5646  -2.5415  -2.4877  -2.4549  -2.3806  -2.3614  -2.3066  -2.2939
    -2.2757  -2.0928  -2.0676  -1.9929  -1.9876  -1.8764  -1.8693  -1.8587
    -1.8542  -1.8278  -1.5955  -1.5760  -1.5612  -1.5242  -1.5098  -1.4863
    -1.3459  -1.3382  -1.3166  -1.3085  -1.2948  -1.2772  -1.2723  -1.2489
    -1.2140  -1.1549  -1.1491  -1.1395  -1.1099  -1.0888  -0.9744  -0.9283
    -0.8327  -0.7997  -0.7455  -0.6865  -0.6633  -0.6394  -0.6083  -0.5965
    -0.5799  -0.5654  -0.5284  -0.5016  -0.4637  -0.4380  -0.4136  -0.3913
    -0.3548  -0.3389  -0.3122  -0.3110  -0.2874  -0.2398  -0.1881  -0.1724
    -0.1211  -0.1073  -0.0883  -0.0427  -0.0173  -0.0074   0.0057   0.0413
     0.0602   0.0713   0.0855   0.0928   0.1009   0.1067   0.1213   0.1501
     0.1583   0.1815   0.1963   0.2000   0.2068   0.2115   0.2304   0.2408
     0.2674   0.2805   0.3182   0.3718   0.4103   0.4239   0.4460   0.4650
     0.4668   0.4838   0.4959   0.5262   0.5652   0.5776   0.5841   0.6216
     0.6474   0.6527   0.6783   0.6861   0.7101   0.7215   0.8295   0.8665
     0.9086   0.9386   1.0057   1.0383   1.1033   1.1223   1.1342   1.1538
     1.1641   1.1736   1.2124   1.2486   1.2609   1.3163   1.3986   1.4284
     1.4372   1.4451   1.5028   1.5187   1.5423   1.5494   1.5837   1.5881
     1.6237   1.6408   1.6713   1.7216   1.7499   1.7611   1.7756   1.7937
     1.8035   1.8069   1.8264   1.8611   1.8775   1.8832   1.9002   1.9184
     1.9311   1.9666   2.0214   2.0298   2.0432   2.0605   2.0673   2.0819
     2.0898   2.1205   2.1267   2.1311   2.1440   2.1552   2.1614   2.1661
     2.1899   2.2114   2.3170   2.3468   2.3734   2.4848   2.6446   2.8106
     2.8871   2.9232

          k = 0.2000-0.1155 0.0000 ( 51134 PWs)   bands (ev):

   -21.3985 -10.0573  -7.4662  -6.6543  -6.1156  -5.5768  -5.3313  -5.1123
    -4.7591  -4.7396  -4.2431  -4.1277  -3.8333  -3.8246  -3.7401  -3.6821
    -3.5386  -3.2912  -3.1639  -3.1342  -3.0582  -2.7892  -2.5722  -2.5392
    -2.5010  -2.4555  -2.4267  -2.2150  -2.1314  -2.1206  -2.1166  -2.0844
    -2.0740  -2.0416  -2.0293  -1.9964  -1.9857  -1.8662  -1.8429  -1.7737
    -1.7610  -1.7365  -1.6532  -1.5908  -1.5763  -1.5619  -1.5160  -1.4551
    -1.4174  -1.4004  -1.3479  -1.3183  -1.3125  -1.2877  -1.2670  -1.2609
    -1.2512  -1.2033  -1.1693  -1.1533  -1.1239  -1.0912  -1.0754  -1.0508
    -0.9952  -0.9158  -0.7137  -0.6546  -0.6429  -0.6166  -0.5893  -0.5524
    -0.4888  -0.4767  -0.4231  -0.4050  -0.3076  -0.2897  -0.2810  -0.2606
    -0.2560  -0.2377  -0.2284  -0.2079  -0.1970  -0.1838  -0.1487  -0.1004
    -0.0800  -0.0676  -0.0610  -0.0370  -0.0206  -0.0040   0.0013   0.0198
     0.0217   0.0288   0.0348   0.0391   0.0415   0.0541   0.0821   0.0966
     0.1179   0.1340   0.1407   0.1493   0.1752   0.1944   0.2056   0.2203
     0.2513   0.2730   0.3166   0.3256   0.3400   0.3636   0.3679   0.3909
     0.4382   0.5301   0.5748   0.6030   0.6076   0.6482   0.6633   0.6860
     0.6895   0.7088   0.7119   0.7155   0.7816   0.9303   1.0169   1.0391
     1.0473   1.0611   1.0692   1.0858   1.1023   1.1468   1.1995   1.2358
     1.2504   1.2810   1.3248   1.3309   1.3573   1.3857   1.4099   1.4151
     1.4719   1.4947   1.5119   1.5290   1.5379   1.5508   1.5702   1.5792
     1.6101   1.6362   1.6588   1.6844   1.7053   1.7178   1.7260   1.7595
     1.7728   1.7842   1.7899   1.7993   1.8133   1.8423   1.8695   1.8783
     1.8841   1.8877   1.9205   1.9337   1.9427   1.9555   1.9677   1.9837
     1.9911   2.0286   2.0311   2.0366   2.0561   2.0610   2.0705   2.0879
     2.0960   2.1218   2.1284   2.1449   2.2133   2.2267   2.2370   2.2538
     2.3119   2.3235

          k = 0.2000 0.1155 0.0000 ( 51134 PWs)   bands (ev):

   -21.3985 -10.0575  -7.4658  -6.6544  -6.1133  -5.5724  -5.3294  -5.1299
    -4.7475  -4.7394  -4.2459  -4.1405  -3.8312  -3.8258  -3.7258  -3.6805
    -3.5414  -3.2908  -3.1592  -3.1370  -3.0617  -2.7935  -2.5644  -2.5398
    -2.5002  -2.4541  -2.4303  -2.2144  -2.1277  -2.1179  -2.1141  -2.0802
    -2.0759  -2.0429  -2.0294  -1.9937  -1.9899  -1.8697  -1.8409  -1.7745
    -1.7601  -1.7272  -1.6745  -1.6062  -1.5826  -1.5623  -1.4841  -1.4461
    -1.4250  -1.4019  -1.3485  -1.3347  -1.3058  -1.2862  -1.2684  -1.2637
    -1.2518  -1.1996  -1.1805  -1.1533  -1.1260  -1.0874  -1.0756  -1.0497
    -0.9752  -0.9154  -0.7253  -0.6550  -0.6421  -0.6176  -0.5859  -0.5536
    -0.5019  -0.4737  -0.4209  -0.4035  -0.3182  -0.2858  -0.2782  -0.2737
    -0.2386  -0.2302  -0.2248  -0.2125  -0.2057  -0.1756  -0.1586  -0.1001
    -0.0803  -0.0683  -0.0565  -0.0442  -0.0373   0.0007   0.0048   0.0143
     0.0255   0.0265   0.0354   0.0401   0.0446   0.0572   0.0867   0.0965
     0.1196   0.1342   0.1469   0.1492   0.1593   0.1985   0.2115   0.2215
     0.2509   0.2667   0.3139   0.3250   0.3486   0.3590   0.3651   0.3901
     0.4578   0.5381   0.5743   0.6032   0.6105   0.6586   0.6612   0.6872
     0.7001   0.7054   0.7117   0.7137   0.7548   0.9267   1.0212   1.0305
     1.0480   1.0682   1.0790   1.0863   1.1064   1.1683   1.2077   1.2313
     1.2478   1.2688   1.3271   1.3319   1.3594   1.3827   1.3953   1.4138
     1.4764   1.4934   1.5195   1.5337   1.5394   1.5514   1.5683   1.5816
[...]
     atom    8 type  1   force =     0.00129596   -0.00074290   -0.10134143
     atom    9 type  1   force =     0.00316345   -0.00171561   -0.10554703
     atom   10 type  1   force =     0.00135446    0.00020215   -0.00859300
     atom   11 type  1   force =     0.00085132   -0.00000030   -0.01246243
     atom   12 type  1   force =    -0.00247756    0.00091555   -0.00961418
     atom   13 type  1   force =     0.00119253   -0.00069255   -0.01149978
     atom   14 type  1   force =     0.00037102   -0.00103918   -0.01009760
     atom   15 type  1   force =    -0.00095085   -0.00005195   -0.01346715
     atom   16 type  1   force =     0.00101345   -0.00040184   -0.01739713
     atom   17 type  1   force =    -0.00027897   -0.00002316   -0.01018697
     atom   18 type  1   force =    -0.00036060    0.00182467   -0.01178730
     atom   19 type  1   force =     0.00132903    0.01006400    0.00196130
     atom   20 type  1   force =    -0.00337310    0.00796635    0.01125964
     atom   21 type  1   force =     0.00169044   -0.00054042    0.01784891
     atom   22 type  1   force =     0.00041744   -0.00056679    0.01866054
     atom   23 type  1   force =     0.00140518   -0.00137432    0.01296539
     atom   24 type  1   force =    -0.00043827    0.00004361    0.01761799
     atom   25 type  1   force =    -0.00981072   -0.00296467    0.00474455
     atom   26 type  1   force =    -0.00050172   -0.00776807   -0.00112244
     atom   27 type  1   force =     0.00694004   -0.00441300    0.01038526
     atom   28 type  1   force =     0.05869482   -0.01245258    0.11073873
     atom   29 type  1   force =    -0.00309029   -0.00181537    0.01803825
     atom   30 type  1   force =     0.00512819   -0.00170971    0.11789351
     atom   31 type  1   force =    -0.00740059   -0.02656278    0.13461937
     atom   32 type  1   force =     0.00107853   -0.00028893    0.10536226
     atom   33 type  1   force =     0.00110545   -0.00559164    0.10676399
     atom   34 type  1   force =     0.01492327    0.01910228    0.13225277
     atom   35 type  1   force =    -0.02322194    0.06504576    0.17859684
     atom   36 type  1   force =    -0.00315843    0.00079316    0.10860663
     atom   37 type  2   force =    -0.40289659   -0.07660510    0.20870348
     atom   38 type  3   force =     2.12953649    0.37067724   -1.14849293
     atom   39 type  4   force =    -0.05181653   -0.00718926   -0.05734758
     The ionic contribution  to forces
     atom    1 type  1   force =    -0.00522643    0.00855296 -111.19039020
     atom    2 type  1   force =     0.00552539    0.00782924 -111.18979391
     atom    3 type  1   force =    -0.00029894    0.00225824 -111.17939627
     atom    4 type  1   force =    -0.00047626    0.00143719 -111.17884322
     atom    5 type  1   force =    -0.00218044   -0.00645538 -111.18410831
     atom    6 type  1   force =     0.00265670   -0.00582924 -111.18315510
     atom    7 type  1   force =    -0.00819554   -0.00196598 -111.18835531
     atom    8 type  1   force =     0.00078142   -0.00375630 -111.20324542
     atom    9 type  1   force =     0.00741410   -0.00207074 -111.18679321
     atom   10 type  1   force =    -0.05465706    0.01595682  -40.24070040
     atom   11 type  1   force =     0.05960614    0.01320470  -40.23076890
     atom   12 type  1   force =    -0.00494440    0.00646574  -40.12231568
     atom   13 type  1   force =     0.00024573    0.06568038  -40.15137504
     atom   14 type  1   force =     0.02078408    0.01093197  -40.10921533
     atom   15 type  1   force =    -0.02103146    0.01637564  -40.10968866
     atom   16 type  1   force =    -0.03635204   -0.02924254  -40.12568078
     atom   17 type  1   force =     0.00474529   -0.07327542  -40.18923799
     atom   18 type  1   force =     0.03160570   -0.02609444  -40.11633004
     atom   19 type  1   force =    -0.26056323    0.43590752   31.17253843
     atom   20 type  1   force =     0.27511405    0.40174112   31.19778394
     atom   21 type  1   force =    -0.01408969    0.10007448   31.67405872
     atom   22 type  1   force =    -0.02188068    0.06053051   31.69889696
     atom   23 type  1   force =    -0.10427939   -0.31170939   31.47631887
     atom   24 type  1   force =     0.12614485   -0.27752533   31.52171563
     atom   25 type  1   force =    -0.41332764   -0.09437600   31.26381554
     atom   26 type  1   force =     0.04139319   -0.21558524   30.44912313
     atom   27 type  1   force =     0.37118564   -0.10070596   31.34559745
     atom   28 type  1   force =    -3.70931441    1.32762256   97.56164975
     atom   29 type  1   force =     4.17874108    0.95290791   98.03793418
     atom   30 type  1   force =    -0.22066818    0.19666859  103.99904015
     atom   31 type  1   force =     0.00664631    2.69404791  103.18007687
     atom   32 type  1   force =     0.65456590    0.43489611  104.27926867
     atom   33 type  1   force =    -0.67065476    0.62606496  104.25796920
     atom   34 type  1   force =    -1.35032997   -1.17955216  103.76758546
     atom   35 type  1   force =     0.28534059   -3.74573601  101.65971486
     atom   36 type  1   force =     1.07508305   -0.94219109  104.09870940
     atom   37 type  2   force =     6.07327977    0.87430322   56.08812719
     atom   38 type  3   force =    -8.21361729   -1.49671039   88.22878523
     atom   39 type  4   force =     1.89122885    0.25932386   15.12068415
     The local contribution  to forces
     atom    1 type  1   force =     0.00220525   -0.00900610  111.29499485
     atom    2 type  1   force =    -0.00449886   -0.01041486  111.29691524
     atom    3 type  1   force =     0.00216781   -0.00118505  111.28549283
     atom    4 type  1   force =     0.00100603   -0.00139852  111.28672162
     atom    5 type  1   force =     0.00044526    0.00917044  111.29082873
     atom    6 type  1   force =    -0.00204619    0.00290090  111.29014805
     atom    7 type  1   force =     0.01255362    0.00076561  111.29027286
     atom    8 type  1   force =    -0.00176696    0.00481901  111.30760200
     atom    9 type  1   force =    -0.01075948    0.00422485  111.29500623
     atom   10 type  1   force =     0.05236218   -0.01634980   40.22846699
     atom   11 type  1   force =    -0.05948641   -0.01336235   40.22117371
     atom   12 type  1   force =     0.00768320   -0.00730029   40.11082631
     atom   13 type  1   force =    -0.00113500   -0.06449185   40.14248413
     atom   14 type  1   force =    -0.02144721   -0.00927217   40.09860835
     atom   15 type  1   force =     0.02254786   -0.01615490   40.10133946
     atom   16 type  1   force =     0.03565012    0.03011315   40.12035968
     atom   17 type  1   force =    -0.00557217    0.07332209   40.17864313
     atom   18 type  1   force =    -0.03091300    0.02441219   40.10663167
     atom   19 type  1   force =     0.25908264   -0.44785673  -31.15397270
     atom   20 type  1   force =    -0.27177290   -0.40960839  -31.19068241
     atom   21 type  1   force =     0.01277754   -0.10006288  -31.66924710
     atom   22 type  1   force =     0.02115124   -0.06028095  -31.69176225
     atom   23 type  1   force =     0.10323505    0.31254883  -31.46630821
     atom   24 type  1   force =    -0.12502675    0.27710486  -31.51556262
     atom   25 type  1   force =     0.42546366    0.10014847  -31.24550628
     atom   26 type  1   force =    -0.04101475    0.22512488  -30.42763026
     atom   27 type  1   force =    -0.37690664    0.10509872  -31.33965428
     atom   28 type  1   force =     3.62650222   -1.31213605  -97.68014495
     atom   29 type  1   force =    -4.17264663   -0.94881325  -98.04344130
     atom   30 type  1   force =     0.21339933   -0.19373974 -104.12822692
     atom   31 type  1   force =     0.00343940   -2.65774273 -103.32420656
     atom   32 type  1   force =    -0.65286735   -0.43318356 -104.39197173
     atom   33 type  1   force =     0.66634187   -0.61805851 -104.37386738
     atom   34 type  1   force =     1.32902209    1.15485223 -103.91022484
     atom   35 type  1   force =    -0.25863136    3.66733956 -101.84929763
     atom   36 type  1   force =    -1.06711607    0.93693802 -104.21443103
     atom   37 type  2   force =    -5.67005248   -0.79792615  -56.29045745
     atom   38 type  3   force =     6.10226126    1.13124765  -87.09535517
     atom   39 type  4   force =    -1.83610763   -0.25342177  -15.05514266
     The core correction contribution to forces
     atom    1 type  1   force =    -0.00018311   -0.00032669    0.01020900
     atom    2 type  1   force =    -0.00006505   -0.00029169    0.01050949
     atom    3 type  1   force =    -0.00003636    0.00002233    0.01001634
     atom    4 type  1   force =    -0.00010825   -0.00003369    0.00996686
     atom    5 type  1   force =     0.00003020    0.00029178    0.01031343
     atom    6 type  1   force =    -0.00010023   -0.00014559    0.01010752
     atom    7 type  1   force =     0.00046176    0.00003677    0.01051540
     atom    8 type  1   force =    -0.00010728    0.00011982    0.01022513
     atom    9 type  1   force =    -0.00018353    0.00023881    0.01044252
     atom   10 type  1   force =    -0.00003131   -0.00013096   -0.00150770
     atom   11 type  1   force =    -0.00002514    0.00000796   -0.00184781
     atom   12 type  1   force =     0.00008827    0.00016817   -0.00163122
     atom   13 type  1   force =     0.00003365   -0.00001773   -0.00186231
     atom   14 type  1   force =    -0.00004772   -0.00011371   -0.00164106
     atom   15 type  1   force =    -0.00006019   -0.00006002   -0.00191663
     atom   16 type  1   force =     0.00019450    0.00009612   -0.00189040
     atom   17 type  1   force =    -0.00001252    0.00013300   -0.00174517
     atom   18 type  1   force =    -0.00013343   -0.00002047   -0.00176573
     atom   19 type  1   force =    -0.00004657    0.00023423    0.00063988
     atom   20 type  1   force =    -0.00050364    0.00108885    0.00031656
     atom   21 type  1   force =     0.00024355   -0.00009337    0.00173828
     atom   22 type  1   force =     0.00025117   -0.00003337    0.00215925
     atom   23 type  1   force =    -0.00026182    0.00002183    0.00153572
     atom   24 type  1   force =    -0.00016060   -0.00027298    0.00194392
     atom   25 type  1   force =     0.00007991    0.00001806    0.00147199
     atom   26 type  1   force =    -0.00030892    0.00001914    0.00106151
     atom   27 type  1   force =     0.00119347   -0.00083025    0.00016900
     atom   28 type  1   force =     0.00991230   -0.00313753    0.00465776
     atom   29 type  1   force =    -0.00404649   -0.00139761   -0.00530041
     atom   30 type  1   force =    -0.00092407    0.00011873   -0.00958360
     atom   31 type  1   force =     0.00193555   -0.00412133   -0.00774167
     atom   32 type  1   force =    -0.00180581   -0.00191062   -0.00955370
     atom   33 type  1   force =     0.00000526   -0.00010789   -0.01061480
     atom   34 type  1   force =     0.00070983    0.00047060   -0.00903776
     atom   35 type  1   force =     0.00172173    0.00679405   -0.00482059
     atom   36 type  1   force =    -0.00259571    0.00238541   -0.00895236
     atom   37 type  2   force =     0.00455807    0.00124136   -0.00331123
     atom   38 type  3   force =    -0.01726986   -0.00306391    0.01033580
     atom   39 type  4   force =     0.00000000    0.00000000    0.00000000
     The Hubbard contrib.    to forces
     atom    1 type  1   force =     0.00000000    0.00000000    0.00000000
     atom    2 type  1   force =     0.00000000    0.00000000    0.00000000
     atom    3 type  1   force =     0.00000000    0.00000000    0.00000000
     atom    4 type  1   force =     0.00000000    0.00000000    0.00000000
     atom    5 type  1   force =     0.00000000    0.00000000    0.00000000
     atom    6 type  1   force =     0.00000000    0.00000000    0.00000000
     atom    7 type  1   force =     0.00000000    0.00000000    0.00000000
     atom    8 type  1   force =     0.00000000    0.00000000    0.00000000
     atom    9 type  1   force =     0.00000000    0.00000000    0.00000000
     atom   10 type  1   force =     0.00000000    0.00000000    0.00000000
     atom   11 type  1   force =     0.00000000    0.00000000    0.00000000
     atom   12 type  1   force =     0.00000000    0.00000000    0.00000000
     atom   13 type  1   force =     0.00000000    0.00000000    0.00000000
     atom   14 type  1   force =     0.00000000    0.00000000    0.00000000
     atom   15 type  1   force =     0.00000000    0.00000000    0.00000000
     atom   16 type  1   force =     0.00000000    0.00000000    0.00000000
     atom   17 type  1   force =     0.00000000    0.00000000    0.00000000
     atom   18 type  1   force =     0.00000000    0.00000000    0.00000000
     atom   19 type  1   force =     0.00000000    0.00000000    0.00000000
     atom   20 type  1   force =     0.00000000    0.00000000    0.00000000
     atom   21 type  1   force =     0.00000000    0.00000000    0.00000000
     atom   22 type  1   force =     0.00000000    0.00000000    0.00000000
     atom   23 type  1   force =     0.00000000    0.00000000    0.00000000
     atom   24 type  1   force =     0.00000000    0.00000000    0.00000000
     atom   25 type  1   force =     0.00000000    0.00000000    0.00000000
     atom   26 type  1   force =     0.00000000    0.00000000    0.00000000
     atom   27 type  1   force =     0.00000000    0.00000000    0.00000000
     atom   28 type  1   force =     0.00000000    0.00000000    0.00000000
     atom   29 type  1   force =     0.00000000    0.00000000    0.00000000
     atom   30 type  1   force =     0.00000000    0.00000000    0.00000000
     atom   31 type  1   force =     0.00000000    0.00000000    0.00000000
     atom   32 type  1   force =     0.00000000    0.00000000    0.00000000
     atom   33 type  1   force =     0.00000000    0.00000000    0.00000000
     atom   34 type  1   force =     0.00000000    0.00000000    0.00000000
     atom   35 type  1   force =     0.00000000    0.00000000    0.00000000
     atom   36 type  1   force =     0.00000000    0.00000000    0.00000000
     atom   37 type  2   force =     0.00000000    0.00000000    0.00000000
     atom   38 type  3   force =     0.00000000    0.00000000    0.00000000
     atom   39 type  4   force =     0.00000000    0.00000000    0.00000000
     The SCF correction term to forces
     atom    1 type  1   force =    -0.00000000   -0.00000000    0.00000000
     atom    2 type  1   force =     0.00000000    0.00000000    0.00000000
     atom    3 type  1   force =    -0.00000000   -0.00000000    0.00000000
     atom    4 type  1   force =     0.00000000    0.00000000    0.00000000
     atom    5 type  1   force =    -0.00000000    0.00000000    0.00000000
     atom    6 type  1   force =    -0.00000000    0.00000000    0.00000000
     atom    7 type  1   force =     0.00000000   -0.00000000    0.00000000
     atom    8 type  1   force =    -0.00000000   -0.00000000    0.00000000
     atom    9 type  1   force =     0.00000000    0.00000000    0.00000000
     atom   10 type  1   force =    -0.00000000   -0.00000000    0.00000000
     atom   11 type  1   force =    -0.00000000   -0.00000000    0.00000000
     atom   12 type  1   force =     0.00000000   -0.00000000    0.00000000
     atom   13 type  1   force =    -0.00000000    0.00000000    0.00000000
     atom   14 type  1   force =    -0.00000000    0.00000000    0.00000000
     atom   15 type  1   force =     0.00000000    0.00000000    0.00000000
     atom   16 type  1   force =    -0.00000000    0.00000000    0.00000000
     atom   17 type  1   force =    -0.00000000    0.00000000    0.00000000
     atom   18 type  1   force =     0.00000000   -0.00000000    0.00000000
     atom   19 type  1   force =     0.00000000    0.00000000   -0.00000000
     atom   20 type  1   force =    -0.00000000   -0.00000000    0.00000000
     atom   21 type  1   force =     0.00000000    0.00000000   -0.00000000
     atom   22 type  1   force =    -0.00000000    0.00000000    0.00000000
     atom   23 type  1   force =    -0.00000000    0.00000000   -0.00000000
     atom   24 type  1   force =     0.00000000    0.00000000    0.00000000
     atom   25 type  1   force =    -0.00000000   -0.00000000   -0.00000000
     atom   26 type  1   force =     0.00000000   -0.00000000   -0.00000000
     atom   27 type  1   force =    -0.00000000   -0.00000000    0.00000000
     atom   28 type  1   force =     0.00000000    0.00000000   -0.00000000
     atom   29 type  1   force =     0.00000000   -0.00000000   -0.00000000
     atom   30 type  1   force =    -0.00000000   -0.00000000   -0.00000000
     atom   31 type  1   force =     0.00000000    0.00000000   -0.00000000
     atom   32 type  1   force =    -0.00000000   -0.00000000   -0.00000000
     atom   33 type  1   force =     0.00000000    0.00000000   -0.00000000
     atom   34 type  1   force =    -0.00000000   -0.00000000   -0.00000000
     atom   35 type  1   force =     0.00000000   -0.00000000   -0.00000000
     atom   36 type  1   force =    -0.00000000   -0.00000000   -0.00000000
     atom   37 type  2   force =     0.00001531    0.00000280   -0.00001994
     atom   38 type  3   force =     0.00000535   -0.00000005   -0.00000173
     atom   39 type  4   force =     0.00000128    0.00000008   -0.00000238

     Total force =     0.011911     Total SCF correction =     0.000026

     Writing all to output data dir ./pwscf.save/

     init_run     :     16.10s CPU     16.56s WALL (       1 calls)
     electrons    :   1051.62s CPU   1070.40s WALL (       1 calls)
     forces       :      3.44s CPU      3.49s WALL (       1 calls)

     Called by init_run:
     wfcinit      :     13.00s CPU     13.35s WALL (       1 calls)
     potinit      :      1.99s CPU      2.08s WALL (       1 calls)
     hinit0       :      0.84s CPU      0.85s WALL (       1 calls)

     Called by electrons:
     c_bands      :    895.77s CPU    912.15s WALL (      59 calls)
     sum_band     :    101.52s CPU    102.95s WALL (      59 calls)
     v_of_rho     :      9.41s CPU      9.58s WALL (      60 calls)
     newd         :      9.43s CPU      9.52s WALL (      60 calls)
     PAW_pot      :     15.39s CPU     15.55s WALL (      60 calls)
     mix_rho      :     21.44s CPU     21.78s WALL (      59 calls)
     vdW_kernel   :      1.10s CPU      1.11s WALL (       1 calls)

     Called by c_bands:
     init_us_2    :     10.81s CPU     10.98s WALL (    3120 calls)
     init_us_2:cp :     10.79s CPU     10.97s WALL (    3120 calls)
     cegterg      :    864.99s CPU    879.62s WALL (    1534 calls)

     Called by *egterg:
     cdiaghg      :    234.43s CPU    236.75s WALL (    5237 calls)
     h_psi        :    413.11s CPU    423.11s WALL (    5263 calls)
     s_psi        :     43.44s CPU     44.15s WALL (    5263 calls)
     g_psi        :      1.09s CPU      1.12s WALL (    3703 calls)

     Called by h_psi:
     h_psi:calbec :     67.82s CPU     68.99s WALL (    5263 calls)
     vloc_psi     :    297.96s CPU    305.98s WALL (    5263 calls)
     add_vuspsi   :     44.59s CPU     45.17s WALL (    5263 calls)

     General routines
     calbec       :     95.62s CPU     97.09s WALL (    6901 calls)
     fft          :      7.74s CPU      7.87s WALL (    5417 calls)
     ffts         :     12.29s CPU     12.50s WALL (   27416 calls)
     fftw         :    334.08s CPU    342.44s WALL ( 1586112 calls)
     interpolate  :      0.37s CPU      0.37s WALL (     120 calls)

     Parallel routines

     PWSCF        :  18m 0.15s CPU  18m25.15s WALL


   This run was terminated on:   9:36:29  17Dec2025            

=------------------------------------------------------------------------------=
   JOB DONE.
=------------------------------------------------------------------------------=
