
     Program PWSCF v.7.1 starts on  7Nov2025 at 13:23:34 
        Git branch: heads/qe-7.1
        Last git commit: 48ba0178f8fede6d020eb786884699a9f063f55d-dirty
        Last git commit date: Fri Jan 27 14:22:33 2023 +0000
        Last git commit subject: Merge branch 'fix_hubbard' into 'develop'

     This program is part of the open-source Quantum ESPRESSO suite
     for quantum simulation of materials; please cite
         "P. Giannozzi et al., J. Phys.:Condens. Matter 21 395502 (2009);
         "P. Giannozzi et al., J. Phys.:Condens. Matter 29 465901 (2017);
         "P. Giannozzi et al., J. Chem. Phys. 152 154105 (2020);
          URL http://www.quantum-espresso.org", 
     in publications or presentations arising from this work. More details at
     http://www.quantum-espresso.org/quote

     Parallel version (MPI), running on    48 processors

     MPI processes distributed on     1 nodes
     271677 MiB available memory on the printing compute node when the environment starts

     Reading input from espresso.pwi
Warning: card &CELL ignored
Warning: card / ignored
Warning: card &FCP ignored
Warning: card / ignored
Warning: card &RISM ignored
Warning: card / ignored

     Current dimensions of program PWSCF are:
     Max number of different atomic species (ntypx) = 10
     Max number of k-points (npk) =  40000
     Max angular momentum in pseudopotentials (lmaxx) =  4
     file Pt.pbe-n-kjpaw_psl.1.0.0.UPF: wavefunction(s)  6S 5D renormalized
     file C.pbe-n-kjpaw_psl.1.0.0.UPF: wavefunction(s)  2S 2P renormalized
     file H.pbe-kjpaw_psl.1.0.0.UPF: wavefunction(s)  1S renormalized

     **************************************************************************
     Initializing libbeef V0.1.2 with the BEEF-vdW functional.
     Citation: Wellendorff et al., PRB 85, 235149 (2012).
     **************************************************************************


     IMPORTANT: XC functional enforced from input :
     Exchange-correlation= BEEF-VDW
                           (   1   4  43  14   2   0   0)
     Any further DFT definition will be discarded
     Please, verify this is what you really want


     R & G space division:  proc/nbgrp/npool/nimage =      48
     Subspace diagonalization in iterative solution of the eigenvalue problem:
     one sub-group per band group will be used
     custom distributed-memory algorithm (size of sub-group:  2*  2 procs)


     Parallelization info
     --------------------
     sticks:   dense  smooth     PW     G-vecs:    dense   smooth      PW
     Min         151      59     16                29407     7165    1028
     Max         152      60     17                29420     7176    1042
     Sum        7267    2839    769              1411785   344073   49691

     Using Slab Decomposition



     bravais-lattice index     =            0
     lattice parameter (alat)  =      16.0349  a.u.
     unit-cell volume          =   10068.6169 (a.u.)^3
     number of atoms/cell      =           38
     number of atomic types    =            3
     number of electrons       =       365.00
     number of Kohn-Sham states=          220
     kinetic-energy cutoff     =      40.0000  Ry
     charge density cutoff     =     410.0000  Ry
     scf convergence threshold =      1.0E-06
     mixing beta               =       0.7000
     number of iterations used =            8  local-TF  mixing
     Exchange-correlation= BEEF-VDW
                           (   1   4  43  14   2   0   0)

     celldm(1)=  16.034858  celldm(2)=   0.000000  celldm(3)=   0.000000
     celldm(4)=   0.000000  celldm(5)=   0.000000  celldm(6)=   0.000000

     crystal axes: (cart. coord. in units of alat)
               a(1) = (   1.000000   0.000000   0.000000 )  
               a(2) = (   0.500000   0.866025   0.000000 )  
               a(3) = (   0.000000   0.000000   2.819966 )  

     reciprocal axes: (cart. coord. in units 2 pi/alat)
               b(1) = (  1.000000 -0.577350  0.000000 )  
               b(2) = (  0.000000  1.154701  0.000000 )  
               b(3) = (  0.000000  0.000000  0.354614 )  


     PseudoPot. # 1 for Pt read from file:
     /users/kbadger1/espresso/pseudo/pslibrary.1.0.0/pbe/PSEUDOPOTENTIALS/Pt.pbe-n-kjpaw_psl.1.0.0.UPF
     MD5 check sum: 2e24a0b5bf98a4ed1a57fa81bca8c143
     Pseudo is Projector augmented-wave + core cor, Zval = 10.0
     Generated using 'atomic' code by A. Dal Corso  v.7.0
     Shape of augmentation charge: PSQ
     Using radial grid of 1277 points,  6 beta functions with: 
                l(1) =   0
                l(2) =   0
                l(3) =   1
                l(4) =   1
                l(5) =   2
                l(6) =   2
     Q(r) pseudized with 0 coefficients 


     PseudoPot. # 2 for C  read from file:
     /users/kbadger1/espresso/pseudo/pslibrary.1.0.0/pbe/PSEUDOPOTENTIALS/C.pbe-n-kjpaw_psl.1.0.0.UPF
     MD5 check sum: 6408e75cdba28732cea38a4db8498ce4
     Pseudo is Projector augmented-wave + core cor, Zval =  4.0
     Generated using 'atomic' code by A. Dal Corso  v.7.0
     Shape of augmentation charge: PSQ
     Using radial grid of 1073 points,  4 beta functions with: 
                l(1) =   0
                l(2) =   0
                l(3) =   1
                l(4) =   1
     Q(r) pseudized with 0 coefficients 


     PseudoPot. # 3 for H  read from file:
     /users/kbadger1/espresso/pseudo/pslibrary.1.0.0/pbe/PSEUDOPOTENTIALS/H.pbe-kjpaw_psl.1.0.0.UPF
     MD5 check sum: fe4c6fa958fa6d3815bf5d2419cbf1df
     Pseudo is Projector augmented-wave, Zval =  1.0
     Generated using 'atomic' code by A. Dal Corso  v.7.0
     Shape of augmentation charge: PSQ
     Using radial grid of  929 points,  2 beta functions with: 
                l(1) =   0
                l(2) =   0
     Q(r) pseudized with 0 coefficients 


     atomic species   valence    mass     pseudopotential
        Pt            10.00   195.08400     Pt( 1.00)
        C              4.00    12.01100     C ( 1.00)
        H              1.00     1.00800     H ( 1.00)

     No symmetry found



   Cartesian axes

     site n.     atom                  positions (alat units)
         1           Pt  tau(   1) = (   0.0000000   0.0000000   1.0017346  )
         2           Pt  tau(   2) = (   0.3333333   0.0000000   1.0017346  )
         3           Pt  tau(   3) = (   0.6666667   0.0000000   1.0017346  )
         4           Pt  tau(   4) = (   0.1666667   0.2886751   1.0017346  )
         5           Pt  tau(   5) = (   0.5000000   0.2886751   1.0017346  )
         6           Pt  tau(   6) = (   0.8333333   0.2886751   1.0017346  )
         7           Pt  tau(   7) = (   0.3333333   0.5773503   1.0017346  )
         8           Pt  tau(   8) = (   0.6666667   0.5773503   1.0017346  )
         9           Pt  tau(   9) = (   1.0000000   0.5773503   1.0017346  )
        10           Pt  tau(  10) = (   0.1666667   0.0962250   1.2739001  )
        11           Pt  tau(  11) = (   0.5000000   0.0962250   1.2739001  )
        12           Pt  tau(  12) = (   0.8333333   0.0962250   1.2739001  )
        13           Pt  tau(  13) = (   0.3333333   0.3849002   1.2739001  )
        14           Pt  tau(  14) = (   0.6666667   0.3849002   1.2739001  )
        15           Pt  tau(  15) = (   1.0000000   0.3849002   1.2739001  )
        16           Pt  tau(  16) = (   0.5000000   0.6735753   1.2739001  )
        17           Pt  tau(  17) = (   0.8333333   0.6735753   1.2739001  )
        18           Pt  tau(  18) = (   1.1666667   0.6735753   1.2739001  )
        19           Pt  tau(  19) = (   0.0003285   0.1953509   1.5454828  )
        20           Pt  tau(  20) = (   0.3330046   0.1953475   1.5454874  )
        21           Pt  tau(  21) = (   0.6666712   0.1955680   1.5426063  )
        22           Pt  tau(  22) = (   0.1666663   0.4872784   1.5416703  )
        23           Pt  tau(  23) = (   0.4996932   0.4848510   1.5429230  )
        24           Pt  tau(  24) = (   0.8336420   0.4848516   1.5429179  )
        25           Pt  tau(  25) = (   0.3351716   0.7750178   1.5463938  )
        26           Pt  tau(  26) = (   0.6666670   0.7742679   1.5482778  )
        27           Pt  tau(  27) = (   0.9981665   0.7750154   1.5463984  )
        28           Pt  tau(  28) = (  -0.0043047   0.0066142   1.8361068  )
        29           Pt  tau(  29) = (   0.3376389   0.0066113   1.8361099  )
        30           Pt  tau(  30) = (   0.6666715   0.0084914   1.8194408  )
        31           Pt  tau(  31) = (   0.1666660   0.3120033   1.8186833  )
        32           Pt  tau(  32) = (   0.5035658   0.2980733   1.8163178  )
        33           Pt  tau(  33) = (   0.8297712   0.2980753   1.8163141  )
        34           Pt  tau(  34) = (   0.3350563   0.5876960   1.8192221  )
        35           Pt  tau(  35) = (   0.6666662   0.5814529   1.8170252  )
        36           Pt  tau(  36) = (   0.9982742   0.5876933   1.8192247  )
        37           C   tau(  37) = (   0.1666689   0.1195439   1.9507600  )
        38           H   tau(  38) = (   0.1666764   0.1660766   2.0706382  )

     number of k points=    13  Marzari-Vanderbilt smearing, width (Ry)=  0.0010
                       cart. coord. in units 2pi/alat
        k(    1) = (   0.0000000   0.0000000   0.0000000), wk =   0.0800000
        k(    2) = (   0.0000000   0.2309401   0.0000000), wk =   0.1600000
        k(    3) = (   0.0000000   0.4618802   0.0000000), wk =   0.1600000
        k(    4) = (   0.2000000  -0.1154701   0.0000000), wk =   0.1600000
        k(    5) = (   0.2000000   0.1154701   0.0000000), wk =   0.1600000
        k(    6) = (   0.2000000   0.3464102   0.0000000), wk =   0.1600000
        k(    7) = (   0.2000000  -0.5773503   0.0000000), wk =   0.1600000
        k(    8) = (   0.2000000  -0.3464102   0.0000000), wk =   0.1600000
        k(    9) = (   0.4000000  -0.2309401   0.0000000), wk =   0.1600000
        k(   10) = (   0.4000000  -0.0000000   0.0000000), wk =   0.1600000
        k(   11) = (   0.4000000   0.2309401   0.0000000), wk =   0.1600000
        k(   12) = (   0.4000000  -0.6928203   0.0000000), wk =   0.1600000
        k(   13) = (   0.4000000  -0.4618802   0.0000000), wk =   0.1600000

     Dense  grid:  1411785 G-vectors     FFT dimensions: ( 108, 108, 300)

     Smooth grid:   344073 G-vectors     FFT dimensions: (  72,  72, 192)

     Estimated max dynamical RAM per process >     206.88 MB

     Estimated total dynamical RAM >       9.70 GB

     Initial potential from superposition of free atoms

     starting charge     364.9938, renormalised to     365.0000

     negative rho (up, down):  3.261E-03 0.000E+00


     %%%%%%%%%%%%%%%%%%%%%%%%%%%%%%%%%%%%%%%%%%%%%%%%%%%%%%%%%%%%%%%%%%%%%%%%
     %                                                                      %
     % You are using vdW-DF, which was implemented by the Thonhauser group. %
     % Please cite the following two papers that made this development      %
     % possible and the two reviews that describe the various versions:     %
     %                                                                      %
     %   T. Thonhauser et al., PRL 115, 136402 (2015).                      %
     %   T. Thonhauser et al., PRB 76, 125112 (2007).                       %
     %   K. Berland et al., Rep. Prog. Phys. 78, 066501 (2015).             %
     %   D.C. Langreth et al., J. Phys.: Condens. Matter 21, 084203 (2009). %
     %                                                                      %
     % If you are calculating stress with vdW-DF, please also cite:         %
     %                                                                      %
     %   R. Sabatini et al., J. Phys.: Condens. Matter 24, 424209 (2012).   %
     %                                                                      %
     %%%%%%%%%%%%%%%%%%%%%%%%%%%%%%%%%%%%%%%%%%%%%%%%%%%%%%%%%%%%%%%%%%%%%%%%

     %%%%%%%%%%%%%%%%%%%%%%%%%%%%%%%%%%%%%%%%%%%%%%%%%%%%%%%%%%%%%%%%%%%%%%%%
     %                                                                      %
     %  vdW-DF NEWS:                                                        %
     %                                                                      %
     %  * vdW-DF3 is now available. DOI: 10.1021/acs.jctc.0c00471           %
     %    use with input_dft = 'vdW-DF3-opt1' or 'vdW-DF3-opt2'             %
     %                                                                      %
     %  * Unscreened and range-separated hybrid vdW-DF-cx functionals       %
     %    DOI: 10.1063/1.4986522 and 10.1088/1361-648X/ac2ad2               %
     %    use with input_dft = 'vdW-DF-cx0'    and 'vdW-DF-ahcx'            %
     %  * Unscreened and range-separated hybrid vdW-DF2-b86r functionals    %
     %    DOI: 10.1063/1.4986522 and DOI: 10.1103/PhysRevX.12.041003        %
     %    use with input_dft = 'vdW-DF2-br0' and 'vdW-DF2-ahbr'             %
     %                                                                      %
     %%%%%%%%%%%%%%%%%%%%%%%%%%%%%%%%%%%%%%%%%%%%%%%%%%%%%%%%%%%%%%%%%%%%%%%%


     Starting wfcs are  329 randomized atomic wfcs
     Checking if some PAW data can be deallocated... 

     total cpu time spent up to now is       17.1 secs

     per-process dynamical memory:   211.7 Mb

     Self-consistent Calculation

     iteration #  1     ecut=    40.00 Ry     beta= 0.70
     Davidson diagonalization with overlap
     ethr =  1.00E-02,  avg # of iterations =  2.0

     Threshold (ethr) on eigenvalues was too large:
     Diagonalizing with lowered threshold

     Davidson diagonalization with overlap
     ethr =  5.23E-04,  avg # of iterations =  4.6

     negative rho (up, down):  1.033E-02 0.000E+00

     total cpu time spent up to now is       57.3 secs

     total energy              =  -27774.14557310 Ry
     estimated scf accuracy    <       2.17535210 Ry

     iteration #  2     ecut=    40.00 Ry     beta= 0.70
     Davidson diagonalization with overlap
     ethr =  5.96E-04,  avg # of iterations =  2.3

     negative rho (up, down):  7.768E-03 0.000E+00

     total cpu time spent up to now is       78.5 secs

     total energy              =  -27774.34433783 Ry
     estimated scf accuracy    <       0.74927443 Ry

     iteration #  3     ecut=    40.00 Ry     beta= 0.70
     Davidson diagonalization with overlap
     ethr =  2.05E-04,  avg # of iterations =  2.6

     negative rho (up, down):  4.412E-03 0.000E+00

     total cpu time spent up to now is      100.5 secs

     total energy              =  -27774.41092544 Ry
     estimated scf accuracy    <       0.18989998 Ry

     iteration #  4     ecut=    40.00 Ry     beta= 0.70
     Davidson diagonalization with overlap
     ethr =  5.20E-05,  avg # of iterations = 10.0

     negative rho (up, down):  1.608E-03 0.000E+00

     total cpu time spent up to now is      138.0 secs

     total energy              =  -27774.45673455 Ry
     estimated scf accuracy    <       0.06974209 Ry

     iteration #  5     ecut=    40.00 Ry     beta= 0.70
     Davidson diagonalization with overlap
     c_bands:  1 eigenvalues not converged
     ethr =  1.91E-05,  avg # of iterations =  5.5

     negative rho (up, down):  7.757E-04 0.000E+00

     total cpu time spent up to now is      163.6 secs

     total energy              =  -27774.46304485 Ry
     estimated scf accuracy    <       0.02907321 Ry

     iteration #  6     ecut=    40.00 Ry     beta= 0.70
     Davidson diagonalization with overlap
     ethr =  7.97E-06,  avg # of iterations =  7.5

     negative rho (up, down):  2.819E-04 0.000E+00

     total cpu time spent up to now is      189.9 secs

     total energy              =  -27774.46514780 Ry
     estimated scf accuracy    <       0.00552879 Ry

     iteration #  7     ecut=    40.00 Ry     beta= 0.70
     Davidson diagonalization with overlap
     c_bands:  1 eigenvalues not converged
     c_bands:  1 eigenvalues not converged
     ethr =  1.51E-06,  avg # of iterations = 13.3

     negative rho (up, down):  1.645E-04 0.000E+00

     total cpu time spent up to now is      227.2 secs

     total energy              =  -27774.46668050 Ry
     estimated scf accuracy    <       0.00223607 Ry

     iteration #  8     ecut=    40.00 Ry     beta= 0.70
     Davidson diagonalization with overlap
     ethr =  6.13E-07,  avg # of iterations =  3.0

     negative rho (up, down):  1.308E-04 0.000E+00

     total cpu time spent up to now is      251.9 secs

     total energy              =  -27774.46688471 Ry
     estimated scf accuracy    <       0.00058714 Ry

     iteration #  9     ecut=    40.00 Ry     beta= 0.70
     Davidson diagonalization with overlap
     ethr =  1.61E-07,  avg # of iterations =  4.0

     negative rho (up, down):  1.226E-04 0.000E+00

     total cpu time spent up to now is      277.6 secs

     total energy              =  -27774.46697047 Ry
     estimated scf accuracy    <       0.00045956 Ry

     iteration # 10     ecut=    40.00 Ry     beta= 0.70
     Davidson diagonalization with overlap
     ethr =  1.26E-07,  avg # of iterations =  2.1

     negative rho (up, down):  1.460E-04 0.000E+00

     total cpu time spent up to now is      290.6 secs

     total energy              =  -27774.46700933 Ry
     estimated scf accuracy    <       0.00030311 Ry

     iteration # 11     ecut=    40.00 Ry     beta= 0.70
     Davidson diagonalization with overlap
     ethr =  8.30E-08,  avg # of iterations =  2.0

     negative rho (up, down):  3.199E-04 0.000E+00

     total cpu time spent up to now is      312.0 secs

     total energy              =  -27774.46708116 Ry
     estimated scf accuracy    <       0.00021632 Ry

     iteration # 12     ecut=    40.00 Ry     beta= 0.70
     Davidson diagonalization with overlap
     ethr =  5.93E-08,  avg # of iterations =  5.0

     negative rho (up, down):  5.951E-04 0.000E+00

     total cpu time spent up to now is      325.9 secs

     total energy              =  -27774.46712747 Ry
     estimated scf accuracy    <       0.00011132 Ry

     iteration # 13     ecut=    40.00 Ry     beta= 0.70
     Davidson diagonalization with overlap
     c_bands:  1 eigenvalues not converged
     ethr =  3.05E-08,  avg # of iterations =  3.4

     negative rho (up, down):  1.262E-03 0.000E+00

     total cpu time spent up to now is      348.9 secs

     total energy              =  -27774.46717699 Ry
     estimated scf accuracy    <       0.00003913 Ry

     iteration # 14     ecut=    40.00 Ry     beta= 0.70
     Davidson diagonalization with overlap
     c_bands:  1 eigenvalues not converged
     ethr =  1.07E-08,  avg # of iterations =  7.5

     negative rho (up, down):  1.566E-03 0.000E+00

     total cpu time spent up to now is      375.2 secs

     total energy              =  -27774.46719536 Ry
     estimated scf accuracy    <       0.00002765 Ry

     iteration # 15     ecut=    40.00 Ry     beta= 0.70
     Davidson diagonalization with overlap
     ethr =  7.57E-09,  avg # of iterations =  2.0

     negative rho (up, down):  2.613E-03 0.000E+00

     total cpu time spent up to now is      387.6 secs

     total energy              =  -27774.46719813 Ry
     estimated scf accuracy    <       0.00001091 Ry

     iteration # 16     ecut=    40.00 Ry     beta= 0.70
     Davidson diagonalization with overlap
     ethr =  2.99E-09,  avg # of iterations =  4.2

     negative rho (up, down):  2.867E-03 0.000E+00

     total cpu time spent up to now is      412.9 secs

     total energy              =  -27774.46719917 Ry
     estimated scf accuracy    <       0.00000588 Ry

     iteration # 17     ecut=    40.00 Ry     beta= 0.70
     Davidson diagonalization with overlap
     ethr =  1.61E-09,  avg # of iterations =  2.0

     negative rho (up, down):  3.038E-03 0.000E+00

     total cpu time spent up to now is      434.9 secs

     total energy              =  -27774.46719905 Ry
     estimated scf accuracy    <       0.00000187 Ry

     iteration # 18     ecut=    40.00 Ry     beta= 0.70
     Davidson diagonalization with overlap
     ethr =  5.13E-10,  avg # of iterations =  4.4

     negative rho (up, down):  3.130E-03 0.000E+00

     total cpu time spent up to now is      463.0 secs

     End of self-consistent calculation

          k = 0.0000 0.0000 0.0000 ( 42913 PWs)   bands (ev):

    -9.8881  -6.0789  -4.9068  -4.4676  -3.7768  -3.7608  -3.7209  -3.6867
    -3.6701  -3.6544  -3.6505  -3.5019  -3.3751  -3.3335  -3.1379  -3.1324
    -3.1268  -3.0562  -2.9980  -2.9615  -2.6945  -2.6831  -2.6669  -2.5546
    -2.4977  -2.4965  -2.4571  -2.4540  -2.4404  -2.3529  -2.3513  -2.3310
    -2.2683  -2.2640  -2.2363  -2.1884  -2.1882  -2.1745  -2.1544  -2.1295
    -2.1125  -1.8033  -1.7568  -1.6773  -1.6201  -1.6016  -1.5892  -1.5541
    -1.5451  -1.5318  -1.5239  -1.4628  -1.4371  -1.3579  -1.3576  -1.3134
    -1.2418  -1.2263  -0.8834  -0.8673  -0.8120  -0.7992  -0.7988  -0.7539
    -0.7296  -0.6575  -0.6399  -0.6060  -0.5962  -0.5945  -0.5870  -0.5715
    -0.5574  -0.5443  -0.5424  -0.5142  -0.4965  -0.4923  -0.4896  -0.4636
    -0.4350  -0.4082  -0.3986  -0.3902  -0.3703  -0.3613  -0.1921  -0.1770
    -0.1728  -0.1485  -0.1297  -0.1287  -0.1091  -0.1056  -0.0748  -0.0741
    -0.0550   0.0345   0.0351   0.0760   0.0851   0.1161   0.1633   0.1748
     0.1926   0.2436   0.2488   0.2575   0.2955   0.3534   0.3724   0.6469
     0.6545   0.6700   0.7329   0.7390   0.7579   0.7715   0.7889   0.7997
     0.8795   0.8936   0.9416   0.9467   0.9509   0.9760   0.9886   1.0405
     1.0465   1.1147   1.1836   1.2072   1.2174   1.2812   1.2835   1.2896
     1.4450   1.4699   1.4842   1.4899   1.5324   1.5525   1.5681   1.5822
     1.6316   1.6415   1.6901   1.6956   1.7302   1.7355   1.7617   1.8379
     1.8627   1.9006   1.9047   1.9201   1.9340   1.9379   1.9398   1.9481
     1.9556   1.9725   1.9728   2.0259   2.0510   2.0513   2.0571   2.0763
     2.1277   2.1379   2.1410   2.1463   2.1594   2.1898   2.1965   2.2344
     2.2834   2.2855   2.2930   2.2976   2.3064   2.3330   2.3810   2.3812
     2.4165   2.4255   2.4511   2.4588   2.5123   2.5723   2.6134   2.6915
     2.7037   2.7099   2.7395   2.7424   2.7603   3.2274   3.2903   3.4220
     3.5973   3.6101   3.6231   3.6445   4.7268   4.7522   5.6460   5.9214
     5.9257   5.9413   6.3751   6.4448   7.1090   7.5299   7.5303   7.5648
     7.5883   7.6917   7.7124   7.7172

          k = 0.0000 0.2309 0.0000 ( 42996 PWs)   bands (ev):

    -9.8846  -5.9356  -4.8067  -4.4269  -4.1704  -3.8305  -3.8137  -3.5836
    -3.5427  -3.4918  -3.4546  -3.4397  -3.2933  -3.2831  -3.2219  -3.0932
    -3.0650  -3.0371  -2.9104  -2.8974  -2.7408  -2.6459  -2.6039  -2.6034
    -2.5358  -2.5238  -2.4987  -2.4354  -2.4266  -2.3675  -2.3605  -2.3500
    -2.3173  -2.3030  -2.2342  -2.2324  -2.1187  -2.1112  -2.0366  -2.0134
    -1.9829  -1.8272  -1.7936  -1.7420  -1.7061  -1.7012  -1.6759  -1.6444
    -1.5802  -1.5641  -1.4873  -1.4389  -1.4114  -1.3427  -1.3065  -1.2857
    -1.2474  -1.2168  -1.0616  -0.9787  -0.9639  -0.9461  -0.9164  -0.9028
    -0.8443  -0.7990  -0.7818  -0.7787  -0.7438  -0.7021  -0.6567  -0.6465
    -0.6187  -0.5981  -0.5753  -0.4957  -0.4884  -0.4701  -0.4164  -0.4105
    -0.4002  -0.3635  -0.3529  -0.3500  -0.3340  -0.2457  -0.2391  -0.2052
    -0.1820  -0.1666  -0.1531  -0.1481  -0.1215  -0.0777  -0.0614  -0.0596
    -0.0257  -0.0162   0.0167   0.0299   0.0325   0.0889   0.1072   0.1323
     0.1529   0.2061   0.2528   0.2622   0.2675   0.2992   0.2997   0.3282
     0.3284   0.4865   0.4880   0.5236   0.6453   0.7071   0.7310   0.7604
     0.7787   0.7901   0.7999   0.8436   0.9625   1.0193   1.0410   1.0573
     1.1020   1.1124   1.1245   1.1390   1.1864   1.1939   1.2194   1.2227
     1.3324   1.3697   1.3716   1.3940   1.4402   1.4880   1.5087   1.5648
     1.5680   1.6096   1.6099   1.6677   1.6925   1.7277   1.7403   1.7615
     1.7630   1.8229   1.8288   1.8951   1.8982   1.9340   1.9440   1.9645
     1.9826   2.0400   2.0616   2.1128   2.1226   2.1742   2.2293   2.2389
     2.2447   2.2729   2.2957   2.3044   2.3120   2.3648   2.3784   2.3792
     2.4123   2.4141   2.4773   2.4777   2.5276   2.5712   2.6001   2.6264
     2.6520   2.6652   2.6758   2.7051   2.7120   2.7330   2.7884   2.8148
     2.8660   2.9189   2.9811   3.0144   3.0336   3.1231   3.3044   3.4158
     3.7141   3.9980   4.2422   4.3260   4.6516   4.8430   5.4318   5.6958
     5.9110   6.2352   6.3924   6.5439   6.6897   6.7513   7.2986   7.3921
     7.4884   7.7037   7.8130   7.8195

          k = 0.0000 0.4619 0.0000 ( 43046 PWs)   bands (ev):

    -9.8790  -5.5241  -4.9159  -4.5934  -4.1831  -3.8608  -3.8570  -3.6988
    -3.4380  -3.3128  -3.2491  -3.2286  -3.1780  -3.1099  -3.0667  -3.0062
    -2.9081  -2.8767  -2.8562  -2.7689  -2.7585  -2.7420  -2.6983  -2.6797
    -2.6318  -2.6141  -2.6023  -2.5717  -2.5103  -2.4895  -2.3026  -2.2899
    -2.2679  -2.2433  -2.1660  -2.1368  -2.0679  -2.0624  -2.0120  -2.0054
    -1.9727  -1.8683  -1.8649  -1.7959  -1.7253  -1.6821  -1.6479  -1.6344
    -1.5653  -1.5610  -1.5336  -1.5073  -1.4961  -1.4729  -1.3647  -1.3343
    -1.3177  -1.2517  -1.1941  -1.1697  -1.1439  -1.1196  -1.0795  -1.0754
    -0.9586  -0.9287  -0.8826  -0.8588  -0.8344  -0.7853  -0.7642  -0.7538
    -0.6876  -0.6188  -0.5999  -0.5753  -0.5485  -0.5423  -0.5074  -0.4707
    -0.4582  -0.4247  -0.4024  -0.4011  -0.3873  -0.3590  -0.3550  -0.3290
    -0.3138  -0.2411  -0.2371  -0.2066  -0.1802  -0.1592  -0.1332  -0.1224
    -0.0595  -0.0112   0.0208   0.0220   0.0643   0.0831   0.0896   0.1225
     0.1621   0.1974   0.2264   0.2720   0.2738   0.3229   0.3713   0.4294
     0.4778   0.4882   0.5606   0.5756   0.5960   0.6175   0.6492   0.6815
     0.6924   0.7350   0.7517   0.7727   0.7929   0.8040   0.8294   0.8669
     0.8769   0.9339   0.9855   0.9942   1.0476   1.0823   1.1478   1.1523
     1.2375   1.2903   1.3027   1.3605   1.3788   1.4076   1.4913   1.4954
     1.5588   1.5737   1.6082   1.6170   1.6410   1.6688   1.6881   1.7040
     1.7240   1.7995   1.8086   1.8502   1.8803   1.9044   1.9444   1.9623
     2.0271   2.0675   2.1345   2.1365   2.1773   2.2382   2.2811   2.2853
     2.3260   2.3287   2.3554   2.3784   2.4382   2.4525   2.4647   2.5018
     2.5766   2.6037   2.6119   2.6228   2.6358   2.6666   2.6679   2.6919
     2.8186   2.8368   2.8734   2.8820   2.8874   2.9720   3.1118   3.2621
     3.3034   3.3942   3.6046   3.8771   3.9141   4.0660   4.1472   4.1998
     4.5609   4.6366   4.7778   4.8838   5.1672   5.2071   5.3129   5.4009
     5.4388   5.5978   5.6890   6.0825   6.1986   6.3576   6.5891   7.0114
     7.0592   7.4939   7.5690   7.7092

          k = 0.2000-0.1155 0.0000 ( 42996 PWs)   bands (ev):

    -9.8850  -5.9352  -4.7986  -4.4121  -4.2007  -3.8344  -3.7939  -3.5852
    -3.5507  -3.4947  -3.4657  -3.4246  -3.3327  -3.2708  -3.2219  -3.0796
    -3.0621  -3.0370  -2.9454  -2.8833  -2.7282  -2.6465  -2.6153  -2.5988
    -2.5302  -2.5280  -2.4970  -2.4457  -2.4246  -2.3806  -2.3583  -2.3362
    -2.3117  -2.3014  -2.2420  -2.2304  -2.1294  -2.1017  -2.0312  -1.9981
    -1.9810  -1.8311  -1.7722  -1.7436  -1.7099  -1.6921  -1.6711  -1.6471
    -1.5693  -1.5453  -1.5156  -1.4257  -1.4193  -1.3495  -1.3209  -1.2836
    -1.2433  -1.2076  -1.0395  -0.9704  -0.9584  -0.9318  -0.9068  -0.8683
    -0.8360  -0.8244  -0.8102  -0.7880  -0.7414  -0.7008  -0.6672  -0.6288
    -0.6225  -0.5986  -0.5663  -0.5314  -0.5117  -0.4927  -0.4139  -0.4003
    -0.3889  -0.3604  -0.3457  -0.3342  -0.2931  -0.2538  -0.2418  -0.2114
    -0.1877  -0.1689  -0.1594  -0.1515  -0.1200  -0.0998  -0.0540  -0.0409
    -0.0210  -0.0165   0.0008   0.0335   0.0513   0.0816   0.1074   0.1385
     0.1443   0.2076   0.2354   0.2439   0.2685   0.2944   0.3101   0.3271
     0.3337   0.4286   0.5105   0.5704   0.6575   0.6977   0.7259   0.7454
     0.7600   0.7792   0.8041   0.8601   0.9423   1.0181   1.0396   1.0518
     1.0941   1.1142   1.1246   1.1341   1.1833   1.1918   1.2117   1.2315
     1.3428   1.3625   1.3720   1.3862   1.4039   1.4856   1.5132   1.5547
     1.5646   1.5865   1.6214   1.6675   1.6875   1.7212   1.7375   1.7658
     1.7758   1.8242   1.8367   1.8955   1.9043   1.9355   1.9497   1.9672
     1.9891   2.0188   2.0845   2.1035   2.1175   2.1684   2.2044   2.2417
     2.2435   2.2674   2.2931   2.3028   2.3135   2.3687   2.3797   2.3847
     2.4074   2.4199   2.4608   2.4654   2.5379   2.5604   2.6071   2.6287
     2.6609   2.6739   2.6849   2.7164   2.7340   2.7510   2.7932   2.8187
     2.8637   2.9192   2.9916   3.0170   3.0490   3.1068   3.2965   3.4473
     3.7367   4.0099   4.2411   4.3054   4.6463   4.8293   5.4056   5.7318
     5.9454   6.2278   6.3827   6.5410   6.6988   6.7337   7.3173   7.3613
     7.4706   7.7034   7.7859   7.8308

          k = 0.2000 0.1155 0.0000 ( 42996 PWs)   bands (ev):

    -9.8850  -5.9352  -4.7986  -4.4121  -4.2007  -3.8344  -3.7939  -3.5852
    -3.5507  -3.4947  -3.4657  -3.4246  -3.3327  -3.2708  -3.2219  -3.0796
    -3.0621  -3.0369  -2.9454  -2.8833  -2.7282  -2.6465  -2.6153  -2.5988
    -2.5302  -2.5280  -2.4970  -2.4457  -2.4246  -2.3806  -2.3583  -2.3362
    -2.3117  -2.3014  -2.2420  -2.2304  -2.1294  -2.1017  -2.0312  -1.9981
    -1.9810  -1.8311  -1.7722  -1.7436  -1.7099  -1.6921  -1.6711  -1.6471
    -1.5694  -1.5452  -1.5156  -1.4256  -1.4193  -1.3495  -1.3209  -1.2836
    -1.2433  -1.2076  -1.0395  -0.9704  -0.9584  -0.9318  -0.9068  -0.8683
    -0.8360  -0.8244  -0.8102  -0.7880  -0.7414  -0.7008  -0.6672  -0.6288
    -0.6225  -0.5986  -0.5663  -0.5315  -0.5117  -0.4927  -0.4139  -0.4003
    -0.3889  -0.3604  -0.3457  -0.3342  -0.2931  -0.2538  -0.2419  -0.2114
    -0.1877  -0.1689  -0.1594  -0.1515  -0.1200  -0.0998  -0.0540  -0.0409
    -0.0209  -0.0165   0.0008   0.0335   0.0513   0.0816   0.1074   0.1385
     0.1443   0.2076   0.2354   0.2439   0.2685   0.2944   0.3101   0.3271
     0.3337   0.4286   0.5105   0.5704   0.6575   0.6977   0.7259   0.7454
     0.7599   0.7792   0.8041   0.8601   0.9423   1.0181   1.0397   1.0518
     1.0941   1.1142   1.1246   1.1341   1.1833   1.1918   1.2117   1.2315
     1.3428   1.3625   1.3720   1.3862   1.4039   1.4856   1.5132   1.5547
     1.5646   1.5865   1.6214   1.6675   1.6875   1.7212   1.7375   1.7658
     1.7758   1.8242   1.8367   1.8955   1.9043   1.9355   1.9497   1.9672
     1.9891   2.0188   2.0845   2.1034   2.1175   2.1684   2.2044   2.2417
     2.2435   2.2674   2.2931   2.3028   2.3135   2.3687   2.3797   2.3847
     2.4074   2.4199   2.4608   2.4654   2.5379   2.5604   2.6071   2.6287
     2.6609   2.6739   2.6849   2.7164   2.7340   2.7510   2.7932   2.8187
     2.8637   2.9192   2.9916   3.0170   3.0490   3.1068   3.2965   3.4473
     3.7367   4.0099   4.2411   4.3054   4.6463   4.8293   5.4056   5.7318
     5.9454   6.2277   6.3827   6.5411   6.6988   6.7337   7.3173   7.3613
     7.4706   7.7034   7.7858   7.8305

          k = 0.2000 0.3464 0.0000 ( 43046 PWs)   bands (ev):

    -9.8804  -5.6568  -4.6645  -4.4647  -4.4462  -4.2148  -3.5607  -3.4773
    -3.3632  -3.3526  -3.3339  -3.3013  -3.2722  -3.1999  -3.1826  -3.1146
    -3.0254  -2.9178  -2.7800  -2.7686  -2.7594  -2.7275  -2.6676  -2.6340
    -2.5666  -2.5591  -2.5157  -2.4624  -2.4404  -2.4284  -2.3898  -2.3517
    -2.3221  -2.2891  -2.2674  -2.2226  -2.1503  -2.1050  -2.0262  -1.9141
    -1.8857  -1.8194  -1.7908  -1.7593  -1.7352  -1.6997  -1.6821  -1.6292
    -1.5749  -1.5508  -1.5194  -1.4773  -1.4202  -1.3785  -1.3512  -1.3013
    -1.2817  -1.2425  -1.2118  -1.1839  -1.0763  -1.0705  -1.0173  -0.9931
    -0.9725  -0.9061  -0.8967  -0.8784  -0.8520  -0.8129  -0.7143  -0.6977
    -0.6656  -0.6509  -0.6294  -0.6100  -0.5557  -0.5316  -0.4835  -0.4614
    -0.4060  -0.3965  -0.3857  -0.3475  -0.3323  -0.3092  -0.2979  -0.2700
    -0.2625  -0.2343  -0.2076  -0.1704  -0.1232  -0.1086  -0.0821  -0.0699
    -0.0562  -0.0361  -0.0101   0.0201   0.0393   0.0520   0.0648   0.0780
     0.0933   0.1018   0.1285   0.2021   0.2216   0.2738   0.3356   0.3589
     0.3905   0.4013   0.4923   0.5375   0.5696   0.6173   0.6291   0.7017
     0.7452   0.7578   0.7793   0.8138   0.8305   0.8683   0.8983   0.9115
     0.9613   0.9771   1.0412   1.1123   1.1229   1.1478   1.1783   1.2105
     1.2734   1.2930   1.3310   1.3556   1.3661   1.4404   1.4530   1.4811
     1.5039   1.5306   1.5865   1.6115   1.6477   1.6888   1.7059   1.7182
     1.7261   1.7465   1.7638   1.7774   1.8120   1.8769   1.9204   2.0029
     2.0353   2.0854   2.1538   2.2464   2.2586   2.2752   2.2980   2.3173
     2.3708   2.4022   2.4207   2.4449   2.4664   2.4717   2.4885   2.5071
     2.5263   2.5457   2.5784   2.6129   2.6429   2.6495   2.6877   2.7041
     2.7564   2.8182   2.8721   2.9181   2.9308   2.9523   2.9958   3.0262
     3.0887   3.1482   3.3341   3.5823   3.6940   3.9006   3.9518   4.1813
     4.2191   4.3276   4.7177   4.8388   5.0375   5.1110   5.1909   5.3608
     5.4654   6.0974   6.2098   6.3987   6.4898   6.6868   6.9257   7.0956
     7.1610   7.1761   7.2860   7.5565

          k = 0.2000-0.5774 0.0000 ( 43014 PWs)   bands (ev):

    -9.8776  -5.1550  -5.1208  -4.5665  -4.4986  -3.9873  -3.7946  -3.4759
    -3.3283  -3.2962  -3.2088  -3.1408  -3.0762  -3.0585  -3.0222  -2.9408
    -2.9095  -2.8566  -2.8473  -2.8178  -2.8060  -2.7608  -2.7278  -2.6694
    -2.6320  -2.6122  -2.5877  -2.5790  -2.5182  -2.4902  -2.3792  -2.3324
    -2.3156  -2.2610  -2.2186  -2.1867  -2.1847  -2.0865  -2.0135  -1.9904
    -1.9245  -1.8931  -1.7991  -1.7765  -1.7416  -1.6801  -1.6619  -1.5856
    -1.5416  -1.4822  -1.4464  -1.4100  -1.3935  -1.3694  -1.3487  -1.3028
    -1.2906  -1.2278  -1.2250  -1.1982  -1.1781  -1.1400  -1.1216  -1.1117
    -1.0641  -1.0280  -0.9951  -0.9267  -0.9005  -0.8813  -0.7822  -0.7619
    -0.7246  -0.7159  -0.6919  -0.6795  -0.6351  -0.6218  -0.5592  -0.5362
    -0.5316  -0.4924  -0.4629  -0.4119  -0.3757  -0.3326  -0.3174  -0.2962
    -0.2870  -0.1946  -0.1839  -0.1728  -0.1403  -0.1064  -0.0937  -0.0553
    -0.0342  -0.0203   0.0054   0.0175   0.0288   0.0425   0.0847   0.0879
     0.1154   0.1304   0.1327   0.1567   0.1853   0.1888   0.2254   0.3859
     0.4163   0.4643   0.4774   0.5380   0.5939   0.6142   0.6450   0.6695
     0.6817   0.7191   0.7293   0.7680   0.7968   0.8081   0.8400   0.8816
     0.9454   0.9736   0.9964   1.0069   1.0639   1.0971   1.1768   1.1918
     1.2528   1.2658   1.3159   1.3414   1.3552   1.3897   1.4108   1.4236
     1.4537   1.4825   1.5379   1.5598   1.5798   1.5957   1.6308   1.6736
     1.7004   1.7186   1.7750   1.8357   1.9160   1.9416   2.0018   2.0626
     2.1041   2.1128   2.1700   2.1832   2.2449   2.2516   2.3075   2.3572
     2.3922   2.4160   2.4453   2.4706   2.4844   2.5240   2.5316   2.5889
     2.6080   2.6175   2.6326   2.6779   2.6943   2.6995   2.7609   2.7860
     2.8313   2.8771   2.8931   2.8979   2.9541   2.9783   3.0333   3.1373
     3.5487   3.8599   3.9375   4.0686   4.1472   4.2979   4.3672   4.3910
     4.5718   4.7849   4.8893   5.0848   5.1762   5.2044   5.5430   5.5642
     5.7341   5.8093   5.8906   5.9615   6.1016   6.2372   6.4155   6.4893
     6.7617   7.0495   7.1538   7.2400

          k = 0.2000-0.3464 0.0000 ( 43046 PWs)   bands (ev):

    -9.8804  -5.6568  -4.6645  -4.4647  -4.4462  -4.2148  -3.5607  -3.4773
    -3.3632  -3.3526  -3.3339  -3.3013  -3.2722  -3.1999  -3.1826  -3.1146
    -3.0254  -2.9178  -2.7800  -2.7686  -2.7594  -2.7275  -2.6676  -2.6340
    -2.5666  -2.5591  -2.5157  -2.4624  -2.4404  -2.4284  -2.3899  -2.3517
    -2.3222  -2.2891  -2.2674  -2.2226  -2.1503  -2.1049  -2.0262  -1.9141
    -1.8857  -1.8194  -1.7908  -1.7593  -1.7352  -1.6997  -1.6821  -1.6292
    -1.5749  -1.5508  -1.5194  -1.4773  -1.4203  -1.3785  -1.3512  -1.3013
    -1.2817  -1.2425  -1.2118  -1.1839  -1.0763  -1.0705  -1.0173  -0.9931
    -0.9725  -0.9061  -0.8967  -0.8784  -0.8520  -0.8129  -0.7143  -0.6976
    -0.6656  -0.6509  -0.6294  -0.6100  -0.5556  -0.5316  -0.4835  -0.4614
    -0.4060  -0.3965  -0.3857  -0.3475  -0.3323  -0.3092  -0.2979  -0.2699
    -0.2625  -0.2343  -0.2076  -0.1704  -0.1232  -0.1086  -0.0821  -0.0699
    -0.0562  -0.0361  -0.0102   0.0201   0.0393   0.0520   0.0648   0.0780
     0.0932   0.1018   0.1285   0.2021   0.2216   0.2738   0.3356   0.3589
     0.3905   0.4013   0.4923   0.5375   0.5696   0.6173   0.6291   0.7017
     0.7452   0.7578   0.7793   0.8138   0.8305   0.8683   0.8983   0.9115
     0.9613   0.9771   1.0412   1.1123   1.1229   1.1478   1.1783   1.2105
     1.2734   1.2930   1.3310   1.3556   1.3661   1.4404   1.4530   1.4811
     1.5039   1.5306   1.5865   1.6115   1.6477   1.6888   1.7059   1.7182
     1.7261   1.7465   1.7638   1.7774   1.8120   1.8769   1.9204   2.0029
     2.0353   2.0855   2.1538   2.2464   2.2586   2.2752   2.2980   2.3173
     2.3708   2.4022   2.4207   2.4449   2.4664   2.4717   2.4885   2.5071
     2.5263   2.5457   2.5783   2.6129   2.6429   2.6495   2.6877   2.7041
     2.7564   2.8182   2.8721   2.9181   2.9308   2.9523   2.9958   3.0262
     3.0887   3.1482   3.3340   3.5823   3.6940   3.9006   3.9518   4.1813
     4.2191   4.3276   4.7177   4.8388   5.0375   5.1110   5.1909   5.3608
     5.4654   6.0974   6.2098   6.3987   6.4898   6.6868   6.9257   7.0956
     7.1610   7.1761   7.2861   7.5569

          k = 0.4000-0.2309 0.0000 ( 43046 PWs)   bands (ev):

    -9.8798  -5.5219  -4.9018  -4.5799  -4.2008  -3.8622  -3.8449  -3.7146
    -3.4676  -3.3510  -3.2791  -3.2272  -3.1820  -3.0915  -3.0608  -3.0029
    -2.9002  -2.8869  -2.8577  -2.8027  -2.7598  -2.7396  -2.6884  -2.6767
    -2.6459  -2.6266  -2.5897  -2.5726  -2.5105  -2.4844  -2.2917  -2.2802
    -2.2567  -2.2456  -2.1674  -2.1318  -2.0469  -2.0250  -2.0105  -1.9896
    -1.9293  -1.8649  -1.8246  -1.7689  -1.7318  -1.6936  -1.6564  -1.6259
    -1.5948  -1.5672  -1.5301  -1.5152  -1.4892  -1.4672  -1.3585  -1.3309
    -1.3137  -1.2585  -1.2161  -1.1575  -1.1038  -1.0988  -1.0768  -1.0644
    -0.9434  -0.9156  -0.9094  -0.8714  -0.8419  -0.7910  -0.7696  -0.7521
    -0.6791  -0.6473  -0.6218  -0.5849  -0.5484  -0.5405  -0.4886  -0.4737
    -0.4468  -0.4252  -0.4015  -0.3818  -0.3721  -0.3562  -0.3504  -0.3263
    -0.3075  -0.2626  -0.2154  -0.2018  -0.1884  -0.1569  -0.1311  -0.0965
    -0.0667  -0.0384  -0.0055   0.0218   0.0486   0.0625   0.0778   0.1183
     0.1479   0.1823   0.2286   0.2716   0.2826   0.3091   0.3479   0.3907
     0.4452   0.5094   0.5500   0.5708   0.5858   0.6249   0.6716   0.6876
     0.7150   0.7308   0.7687   0.7882   0.7965   0.8253   0.8317   0.8399
     0.8673   0.9369   0.9770   0.9894   1.0345   1.0644   1.1263   1.1686
     1.2054   1.2640   1.2853   1.3492   1.3812   1.4270   1.4744   1.5060
     1.5536   1.5720   1.6067   1.6310   1.6443   1.6528   1.7020   1.7129
     1.7286   1.8017   1.8194   1.8530   1.8825   1.9006   1.9077   1.9602
     2.0237   2.0676   2.1074   2.1461   2.1794   2.2327   2.2808   2.2861
     2.3155   2.3260   2.3451   2.3830   2.4289   2.4411   2.4584   2.4927
     2.5776   2.5985   2.6144   2.6317   2.6384   2.6582   2.6946   2.7100
     2.8303   2.8687   2.8786   2.8913   2.9093   2.9800   3.1112   3.1909
     3.3056   3.4545   3.6163   3.8974   3.9053   4.0550   4.1697   4.2363
     4.5604   4.6359   4.7908   4.9308   5.1673   5.2187   5.3304   5.3809
     5.4185   5.6120   5.7135   6.1065   6.1712   6.3807   6.5588   6.9770
     7.0170   7.4912   7.5752   7.7037

          k = 0.4000-0.0000 0.0000 ( 43046 PWs)   bands (ev):

    -9.8809  -5.6554  -4.6360  -4.4694  -4.4541  -4.2255  -3.5754  -3.4874
    -3.3701  -3.3565  -3.3312  -3.3045  -3.2639  -3.2079  -3.1704  -3.1505
    -3.0109  -2.9171  -2.7966  -2.7628  -2.7592  -2.7287  -2.6707  -2.6544
    -2.5667  -2.5525  -2.5010  -2.4578  -2.4433  -2.4025  -2.3898  -2.3447
    -2.3245  -2.2895  -2.2786  -2.2306  -2.1763  -2.1059  -1.9409  -1.8973
    -1.8751  -1.8347  -1.8009  -1.7591  -1.7259  -1.7028  -1.6748  -1.6043
    -1.5801  -1.5697  -1.5198  -1.4616  -1.4138  -1.3955  -1.3492  -1.3048
    -1.2894  -1.2444  -1.2141  -1.1912  -1.0667  -1.0482  -1.0074  -0.9648
    -0.9285  -0.9182  -0.8954  -0.8723  -0.8388  -0.8069  -0.7187  -0.6926
    -0.6800  -0.6615  -0.6535  -0.6335  -0.5487  -0.5189  -0.4965  -0.4718
    -0.3954  -0.3746  -0.3684  -0.3548  -0.3312  -0.3188  -0.3011  -0.2715
    -0.2526  -0.2466  -0.2362  -0.1919  -0.1310  -0.1242  -0.0810  -0.0733
    -0.0570  -0.0213  -0.0064   0.0090   0.0333   0.0456   0.0658   0.0836
     0.0883   0.1182   0.1284   0.2185   0.2286   0.2795   0.3291   0.3497
     0.3693   0.4014   0.4804   0.5140   0.5749   0.6190   0.6341   0.7107
     0.7263   0.7418   0.7646   0.8165   0.8494   0.8666   0.8944   0.9037
     0.9629   1.0221   1.0414   1.0924   1.1102   1.1424   1.1707   1.2086
     1.2428   1.2902   1.3142   1.3482   1.3652   1.4390   1.4591   1.4620
     1.4898   1.5192   1.5944   1.6312   1.6476   1.6908   1.7027   1.7301
     1.7427   1.7485   1.7685   1.7904   1.8269   1.8758   1.9121   2.0064
     2.0232   2.0697   2.1435   2.2460   2.2538   2.2741   2.2973   2.3143
     2.3596   2.4114   2.4289   2.4362   2.4537   2.4700   2.4813   2.5021
     2.5166   2.5485   2.5890   2.6156   2.6345   2.6676   2.6858   2.7011
     2.7539   2.8385   2.8884   2.9291   2.9537   2.9694   3.0031   3.0199
     3.0874   3.1400   3.3403   3.5963   3.6717   3.8542   3.9780   4.2041
     4.2205   4.4047   4.7119   4.8244   5.0494   5.1230   5.1823   5.3565
     5.4633   6.0598   6.2744   6.3974   6.5203   6.6852   6.8837   7.0721
     7.1548   7.1749   7.2957   7.5675

          k = 0.4000 0.2309 0.0000 ( 43046 PWs)   bands (ev):

    -9.8798  -5.5219  -4.9018  -4.5799  -4.2008  -3.8622  -3.8449  -3.7146
    -3.4676  -3.3510  -3.2791  -3.2272  -3.1820  -3.0915  -3.0608  -3.0029
    -2.9002  -2.8869  -2.8577  -2.8027  -2.7598  -2.7396  -2.6884  -2.6767
    -2.6459  -2.6266  -2.5897  -2.5726  -2.5105  -2.4844  -2.2917  -2.2802
    -2.2567  -2.2456  -2.1674  -2.1318  -2.0469  -2.0250  -2.0105  -1.9896
    -1.9293  -1.8649  -1.8246  -1.7689  -1.7318  -1.6936  -1.6564  -1.6259
    -1.5948  -1.5672  -1.5301  -1.5152  -1.4892  -1.4672  -1.3585  -1.3309
    -1.3137  -1.2585  -1.2161  -1.1575  -1.1038  -1.0987  -1.0768  -1.0644
    -0.9434  -0.9156  -0.9094  -0.8714  -0.8419  -0.7910  -0.7696  -0.7521
    -0.6791  -0.6473  -0.6218  -0.5849  -0.5484  -0.5405  -0.4887  -0.4737
    -0.4468  -0.4252  -0.4016  -0.3818  -0.3721  -0.3562  -0.3504  -0.3263
    -0.3075  -0.2626  -0.2154  -0.2018  -0.1884  -0.1568  -0.1311  -0.0965
    -0.0667  -0.0384  -0.0054   0.0218   0.0486   0.0625   0.0778   0.1183
     0.1479   0.1823   0.2286   0.2716   0.2826   0.3091   0.3479   0.3907
     0.4452   0.5094   0.5501   0.5708   0.5858   0.6249   0.6716   0.6876
     0.7150   0.7308   0.7687   0.7882   0.7965   0.8253   0.8317   0.8399
     0.8673   0.9369   0.9770   0.9894   1.0345   1.0644   1.1263   1.1686
     1.2054   1.2640   1.2852   1.3492   1.3812   1.4270   1.4744   1.5060
     1.5536   1.5720   1.6067   1.6310   1.6443   1.6528   1.7020   1.7129
     1.7286   1.8017   1.8194   1.8530   1.8825   1.9006   1.9077   1.9602
     2.0237   2.0676   2.1074   2.1461   2.1794   2.2327   2.2808   2.2861
     2.3155   2.3260   2.3451   2.3830   2.4289   2.4411   2.4584   2.4927
     2.5776   2.5985   2.6144   2.6317   2.6384   2.6582   2.6946   2.7100
     2.8303   2.8687   2.8786   2.8913   2.9093   2.9800   3.1112   3.1909
     3.3056   3.4545   3.6163   3.8974   3.9053   4.0550   4.1697   4.2363
     4.5604   4.6359   4.7908   4.9308   5.1673   5.2187   5.3304   5.3809
     5.4185   5.6120   5.7135   6.1065   6.1712   6.3807   6.5588   6.9770
     7.0169   7.4912   7.5753   7.7037

          k = 0.4000-0.6928 0.0000 ( 43014 PWs)   bands (ev):

    -9.8781  -5.1509  -5.1156  -4.5976  -4.4507  -4.0005  -3.8145  -3.4681
    -3.3652  -3.3052  -3.2077  -3.1451  -3.0816  -3.0575  -3.0126  -2.9539
    -2.9106  -2.8502  -2.8465  -2.8237  -2.7820  -2.7564  -2.7444  -2.6912
    -2.6290  -2.6227  -2.6086  -2.5789  -2.5050  -2.4820  -2.3737  -2.3289
    -2.3035  -2.2507  -2.2128  -2.1841  -2.1682  -2.0517  -2.0102  -1.9861
    -1.9114  -1.8563  -1.8110  -1.7735  -1.7574  -1.6774  -1.6319  -1.6110
    -1.5539  -1.4942  -1.4530  -1.4389  -1.3990  -1.3526  -1.3135  -1.2968
    -1.2723  -1.2330  -1.2179  -1.1841  -1.1648  -1.1495  -1.1288  -1.0998
    -1.0607  -1.0501  -0.9803  -0.9345  -0.9027  -0.8672  -0.8069  -0.7505
    -0.7390  -0.7253  -0.6850  -0.6696  -0.6401  -0.6000  -0.5573  -0.5377
    -0.5229  -0.4915  -0.4663  -0.4346  -0.3594  -0.3277  -0.3147  -0.3074
    -0.2830  -0.2295  -0.1995  -0.1504  -0.1194  -0.1061  -0.0858  -0.0621
    -0.0494  -0.0334  -0.0104  -0.0068   0.0265   0.0536   0.0758   0.0997
     0.1120   0.1209   0.1352   0.1465   0.1762   0.2003   0.2379   0.3605
     0.4174   0.4584   0.4643   0.5276   0.5853   0.6320   0.6452   0.6713
     0.6872   0.7105   0.7362   0.7758   0.7835   0.8167   0.8512   0.8911
     0.9137   0.9825   0.9951   1.0151   1.0457   1.0765   1.1689   1.2149
     1.2408   1.2718   1.3142   1.3388   1.3713   1.3835   1.4168   1.4237
     1.4540   1.4705   1.5415   1.5600   1.5883   1.5960   1.6375   1.6537
     1.6962   1.7072   1.7658   1.8219   1.9191   1.9409   2.0002   2.0665
     2.1044   2.1208   2.1646   2.1831   2.2440   2.2597   2.3085   2.3466
     2.3820   2.4128   2.4427   2.4599   2.4766   2.5301   2.5426   2.5886
     2.6093   2.6148   2.6350   2.6718   2.6826   2.7024   2.7577   2.7808
     2.8362   2.8860   2.9041   2.9228   2.9613   3.0052   3.0275   3.1416
     3.5505   3.7874   3.9959   4.0682   4.1688   4.3216   4.3585   4.3710
     4.5877   4.7515   4.9236   5.1028   5.1937   5.2404   5.5380   5.5678
     5.7650   5.8042   5.9150   5.9605   6.0914   6.2166   6.4238   6.4567
     6.7745   7.0530   7.1313   7.1935

          k = 0.4000-0.4619 0.0000 ( 43014 PWs)   bands (ev):

    -9.8781  -5.1509  -5.1156  -4.5976  -4.4507  -4.0005  -3.8145  -3.4681
    -3.3652  -3.3052  -3.2077  -3.1451  -3.0816  -3.0575  -3.0126  -2.9538
    -2.9106  -2.8502  -2.8464  -2.8237  -2.7820  -2.7564  -2.7444  -2.6912
    -2.6290  -2.6227  -2.6086  -2.5789  -2.5050  -2.4820  -2.3737  -2.3289
    -2.3035  -2.2507  -2.2128  -2.1840  -2.1682  -2.0517  -2.0102  -1.9861
    -1.9114  -1.8563  -1.8110  -1.7735  -1.7574  -1.6774  -1.6319  -1.6110
    -1.5539  -1.4942  -1.4530  -1.4389  -1.3990  -1.3526  -1.3135  -1.2968
    -1.2724  -1.2330  -1.2179  -1.1841  -1.1648  -1.1495  -1.1289  -1.0998
    -1.0607  -1.0501  -0.9803  -0.9345  -0.9027  -0.8672  -0.8069  -0.7505
    -0.7390  -0.7253  -0.6850  -0.6696  -0.6401  -0.6000  -0.5573  -0.5376
    -0.5229  -0.4915  -0.4663  -0.4346  -0.3594  -0.3277  -0.3147  -0.3074
    -0.2830  -0.2295  -0.1995  -0.1504  -0.1194  -0.1061  -0.0858  -0.0621
    -0.0494  -0.0334  -0.0104  -0.0068   0.0265   0.0536   0.0758   0.0997
     0.1120   0.1209   0.1352   0.1465   0.1762   0.2002   0.2379   0.3605
     0.4174   0.4584   0.4643   0.5276   0.5853   0.6320   0.6452   0.6713
     0.6872   0.7105   0.7362   0.7758   0.7835   0.8167   0.8512   0.8911
     0.9137   0.9825   0.9950   1.0151   1.0457   1.0765   1.1689   1.2149
     1.2408   1.2718   1.3142   1.3388   1.3713   1.3835   1.4168   1.4238
     1.4540   1.4705   1.5415   1.5600   1.5883   1.5960   1.6374   1.6537
     1.6962   1.7072   1.7658   1.8219   1.9191   1.9409   2.0002   2.0665
     2.1044   2.1208   2.1646   2.1831   2.2440   2.2597   2.3085   2.3466
     2.3820   2.4128   2.4427   2.4598   2.4766   2.5301   2.5426   2.5887
     2.6093   2.6148   2.6350   2.6718   2.6826   2.7024   2.7577   2.7808
     2.8362   2.8860   2.9040   2.9228   2.9613   3.0052   3.0275   3.1416
     3.5505   3.7874   3.9958   4.0682   4.1688   4.3217   4.3585   4.3710
     4.5877   4.7515   4.9236   5.1028   5.1937   5.2404   5.5380   5.5678
     5.7650   5.8042   5.9150   5.9605   6.0915   6.2166   6.4238   6.4567
     6.7745   7.0530   7.1313   7.1935

     the Fermi energy is     2.6697 ev

!    total energy              =  -27774.46719868 Ry
     total all-electron energy =  -1326718.996713 Ry
     estimated scf accuracy    <       0.00000076 Ry
     smearing contrib. (-TS)   =      -0.00009914 Ry
     internal energy E=F+TS    =  -27774.46709954 Ry

     The total energy is F=E-TS. E is the sum of the following terms:
     one-electron contribution =  -20728.38753449 Ry
     hartree contribution      =   10674.93640128 Ry
     xc contribution           =    -895.58164079 Ry
     ewald contribution        =    8655.12917267 Ry
     one-center paw contrib.   =  -25480.56349821 Ry

     convergence has been achieved in  18 iterations

     negative rho (up, down):  3.130E-03 0.000E+00

     Forces acting on atoms (cartesian axes, Ry/au):

     atom    1 type  1   force =     0.00022718   -0.00049429   -0.00337826
     atom    2 type  1   force =    -0.00023520   -0.00050561   -0.00338303
     atom    3 type  1   force =     0.00000404   -0.00065824   -0.00551626
     atom    4 type  1   force =    -0.00001287   -0.00061596   -0.00484507
     atom    5 type  1   force =     0.00083693   -0.00062657   -0.00641709
     atom    6 type  1   force =    -0.00082429   -0.00062553   -0.00640419
     atom    7 type  1   force =     0.00001032   -0.00065471   -0.00692690
     atom    8 type  1   force =     0.00000894   -0.00165656   -0.00605734
     atom    9 type  1   force =    -0.00001834   -0.00066600   -0.00692783
     atom   10 type  1   force =    -0.00001780   -0.00017932    0.01196378
     atom   11 type  1   force =     0.00068613   -0.00090899    0.00452302
     atom   12 type  1   force =    -0.00066686   -0.00090337    0.00451294
     atom   13 type  1   force =    -0.00000237    0.00134826    0.00145142
     atom   14 type  1   force =     0.00001056    0.00049408    0.00200575
     atom   15 type  1   force =    -0.00000822    0.00133739    0.00143952
     atom   16 type  1   force =    -0.00080029    0.00269626    0.00505025
     atom   17 type  1   force =     0.00079554    0.00268480    0.00504144
     atom   18 type  1   force =     0.00000702    0.00520723   -0.00780803
     atom   19 type  1   force =    -0.00018986    0.00081683    0.00007101
     atom   20 type  1   force =     0.00018557    0.00083236    0.00007203
     atom   21 type  1   force =     0.00000071    0.00056281    0.00041390
     atom   22 type  1   force =     0.00000399    0.00127722   -0.00139789
     atom   23 type  1   force =     0.00037568    0.00077604    0.00033078
     atom   24 type  1   force =    -0.00038376    0.00076873    0.00034411
     atom   25 type  1   force =     0.00038827    0.00093225    0.00021211
     atom   26 type  1   force =    -0.00000791    0.00065057    0.00033887
     atom   27 type  1   force =    -0.00037985    0.00092654    0.00020746
     atom   28 type  1   force =     0.00102448    0.00186403    0.00075730
     atom   29 type  1   force =    -0.00101840    0.00185998    0.00075957
     atom   30 type  1   force =    -0.00000301    0.00086362   -0.00022696
     atom   31 type  1   force =     0.00000178   -0.00198709   -0.00022953
     atom   32 type  1   force =    -0.00024792    0.00116613    0.00030425
     atom   33 type  1   force =     0.00024613    0.00116527    0.00030209
     atom   34 type  1   force =    -0.00023843    0.00083292   -0.00049104
     atom   35 type  1   force =    -0.00000069    0.00098398    0.00095525
     atom   36 type  1   force =     0.00024925    0.00083419   -0.00048671
     atom   37 type  2   force =    -0.00000079    0.00341475    0.00259336
     atom   38 type  3   force =    -0.00000567   -0.02381399    0.01684591
     The non-local contrib.  to forces
     atom    1 type  1   force =     0.00016656    0.00024621   -0.01770987
     atom    2 type  1   force =    -0.00017392    0.00023642   -0.01771518
     atom    3 type  1   force =     0.00000417   -0.00008876   -0.02020371
     atom    4 type  1   force =    -0.00001234   -0.00030291   -0.01857082
     atom    5 type  1   force =     0.00113117   -0.00037957   -0.01911416
     atom    6 type  1   force =    -0.00111949   -0.00037823   -0.01910300
     atom    7 type  1   force =    -0.00160963    0.00126567   -0.02103304
     atom    8 type  1   force =     0.00000824   -0.00017539   -0.01835761
     atom    9 type  1   force =     0.00160345    0.00125540   -0.02103407
     atom   10 type  1   force =    -0.00002017    0.00122978    0.00172006
     atom   11 type  1   force =    -0.00006089    0.00292839   -0.00088600
     atom   12 type  1   force =     0.00008175    0.00293293   -0.00089078
     atom   13 type  1   force =     0.00128236   -0.00083397   -0.00159163
     atom   14 type  1   force =     0.00001203    0.00071273   -0.00266767
     atom   15 type  1   force =    -0.00129484   -0.00084516   -0.00159864
     atom   16 type  1   force =     0.00182169    0.00197455    0.00027038
     atom   17 type  1   force =    -0.00182729    0.00195943    0.00026106
     atom   18 type  1   force =     0.00000839    0.00385716    0.00290686
     atom   19 type  1   force =     0.00004718    0.00362306    0.01254600
     atom   20 type  1   force =    -0.00005813    0.00363745    0.01254777
     atom   21 type  1   force =     0.00000659    0.00408791    0.00657045
     atom   22 type  1   force =     0.00000140   -0.00066105    0.00534537
     atom   23 type  1   force =     0.00267660   -0.00154744    0.00640386
     atom   24 type  1   force =    -0.00268193   -0.00156166    0.00641722
     atom   25 type  1   force =    -0.00625555   -0.00176908   -0.00329927
     atom   26 type  1   force =    -0.00001121   -0.00025521    0.01231791
     atom   27 type  1   force =     0.00626562   -0.00177851   -0.00330425
     atom   28 type  1   force =     0.03639064    0.01699305   -0.03665953
     atom   29 type  1   force =    -0.03638911    0.01699156   -0.03664164
     atom   30 type  1   force =    -0.00000177   -0.00026337    0.01343115
     atom   31 type  1   force =     0.00000078   -0.05862165   -0.00006063
     atom   32 type  1   force =    -0.01717723   -0.00645092    0.01812825
     atom   33 type  1   force =     0.01717403   -0.00645672    0.01811467
     atom   34 type  1   force =    -0.00312176   -0.00509923    0.01607414
     atom   35 type  1   force =    -0.00000153    0.01211567    0.01784076
     atom   36 type  1   force =     0.00313490   -0.00509870    0.01607828
     atom   37 type  2   force =    -0.00000204    0.05101376   -0.09964105
     atom   38 type  3   force =    -0.00000517   -0.03079262   -0.07383950
     The ionic contribution  to forces
     atom    1 type  1   force =     0.00952029   -0.00541602  -93.91454566
     atom    2 type  1   force =    -0.00948895   -0.00538532  -93.91448668
     atom    3 type  1   force =    -0.00003124   -0.00904993  -93.93140406
     atom    4 type  1   force =     0.00004199   -0.01745224  -93.94068508
     atom    5 type  1   force =    -0.00758583   -0.00932979  -93.95449448
     atom    6 type  1   force =     0.00754397   -0.00932129  -93.95458027
     atom    7 type  1   force =     0.00316264    0.01583713  -93.94407059
     atom    8 type  1   force =    -0.00001424    0.02467011  -93.93661810
     atom    9 type  1   force =    -0.00314847    0.01588079  -93.94409558
     atom   10 type  1   force =     0.00024162   -0.09266439  -32.39469858
     atom   11 type  1   force =    -0.07603655   -0.08938864  -32.51691717
     atom   12 type  1   force =     0.07581117   -0.08949130  -32.51746403
     atom   13 type  1   force =    -0.01434772   -0.06965027  -32.57248308
     atom   14 type  1   force =    -0.00028965    0.05404622  -32.63921189
     atom   15 type  1   force =     0.01463403   -0.06949285  -32.57295836
     atom   16 type  1   force =     0.06120032    0.16795897  -32.42469489
     atom   17 type  1   force =    -0.06112768    0.16834141  -32.42467008
     atom   18 type  1   force =    -0.00004123    0.19207999  -32.45672911
     atom   19 type  1   force =     0.06631460   -0.19167237   29.64853350
     atom   20 type  1   force =    -0.06553558   -0.19145990   29.64934750
     atom   21 type  1   force =    -0.00081268   -0.15904126   28.99055448
     atom   22 type  1   force =     0.00036872    0.13805035   28.75141136
     atom   23 type  1   force =    -0.05479443    0.14498122   29.04950913
     atom   24 type  1   force =     0.05442140    0.14554450   29.04868686
     atom   25 type  1   force =     0.00160239    0.01604862   29.86031922
     atom   26 type  1   force =     0.00022635    0.12975608   30.30813115
     atom   27 type  1   force =    -0.00184597    0.01671190   29.86122796
     atom   28 type  1   force =    -2.97903086   -1.95797298   90.83522031
     atom   29 type  1   force =     2.97951128   -1.95785219   90.83547804
     atom   30 type  1   force =    -0.00050953   -0.13344749   91.27019044
     atom   31 type  1   force =     0.00031503    3.04927305   87.81868131
     atom   32 type  1   force =     0.33803116    0.22895189   90.75792787
     atom   33 type  1   force =    -0.33840657    0.22902197   90.75754446
     atom   34 type  1   force =    -0.03287423    0.09154845   91.34134504
     atom   35 type  1   force =    -0.00012351   -0.29944720   90.87248039
     atom   36 type  1   force =     0.03310547    0.09202680   91.34178909
     atom   37 type  2   force =    -0.00011720   -0.24289541   44.48105850
     atom   38 type  3   force =     0.00010969    0.67970140   12.47537110
     The local contribution  to forces
     atom    1 type  1   force =    -0.00945103    0.00466848   93.91206465
     atom    2 type  1   force =     0.00944480    0.00467421   93.91203480
     atom    3 type  1   force =     0.00000481    0.00797974   93.92917505
     atom    4 type  1   force =     0.00000139    0.01736312   93.93787436
     atom    5 type  1   force =     0.00682134    0.00909470   93.95052042
     atom    6 type  1   force =    -0.00682413    0.00908491   93.95057325
     atom    7 type  1   force =    -0.00193658   -0.01793159   93.94144448
     atom    8 type  1   force =    -0.00001144   -0.02602413   93.93220975
     atom    9 type  1   force =     0.00194695   -0.01793423   93.94148394
     atom   10 type  1   force =    -0.00016998    0.09139028   32.40537949
     atom   11 type  1   force =     0.07613527    0.08523253   32.52203157
     atom   12 type  1   force =    -0.07598311    0.08532213   32.52255256
     atom   13 type  1   force =     0.01239875    0.07180342   32.57507711
     atom   14 type  1   force =     0.00024266   -0.05394040   32.64315919
     atom   15 type  1   force =    -0.01263790    0.07170448   32.57555529
     atom   16 type  1   force =    -0.06393015   -0.16678992   32.42956881
     atom   17 type  1   force =     0.06388537   -0.16710407   32.42956894
     atom   18 type  1   force =     0.00001445   -0.19054459   32.44575814
     atom   19 type  1   force =    -0.06535346    0.18860997  -29.65841239
     atom   20 type  1   force =     0.06463997    0.18836862  -29.65926082
     atom   21 type  1   force =     0.00074660    0.15526208  -28.99555840
     atom   22 type  1   force =    -0.00036525   -0.13652112  -28.75619752
     atom   23 type  1   force =     0.05185417   -0.14233052  -29.05454559
     atom   24 type  1   force =    -0.05148412   -0.14283178  -29.05370841
     atom   25 type  1   force =     0.00537262   -0.01340893  -29.85495695
     atom   26 type  1   force =    -0.00018020   -0.12773998  -30.31782263
     atom   27 type  1   force =    -0.00517423   -0.01402779  -29.85588278
     atom   28 type  1   force =     2.92967795    1.93377768  -90.79282370
     atom   29 type  1   force =    -2.93013143    1.93365202  -90.79312758
     atom   30 type  1   force =     0.00048147    0.13470657  -91.26803550
     atom   31 type  1   force =    -0.00030535   -2.97885375  -87.81707268
     atom   32 type  1   force =    -0.32357907   -0.22237099  -90.75962437
     atom   33 type  1   force =     0.32394220   -0.22241701  -90.75920567
     atom   34 type  1   force =     0.03607103   -0.08555359  -91.34237798
     atom   35 type  1   force =     0.00013675    0.29084426  -90.87332902
     atom   36 type  1   force =    -0.03631561   -0.08601064  -91.34283229
     atom   37 type  2   force =     0.00012480    0.19627292  -44.38158295
     atom   38 type  3   force =    -0.00010946   -0.67272582  -12.38468910
     The core correction contribution to forces
     atom    1 type  1   force =    -0.00003798    0.00000022    0.01722354
     atom    2 type  1   force =     0.00003785    0.00000022    0.01722311
     atom    3 type  1   force =     0.00000024    0.00016608    0.01719969
     atom    4 type  1   force =     0.00000001    0.00011287    0.01713749
     atom    5 type  1   force =     0.00012290    0.00008410    0.01698409
     atom    6 type  1   force =    -0.00012299    0.00008370    0.01698391
     atom    7 type  1   force =     0.00007874    0.00000087    0.01719761
     atom    8 type  1   force =    -0.00000045   -0.00008948    0.01702680
     atom    9 type  1   force =    -0.00007825    0.00000083    0.01719779
     atom   10 type  1   force =    -0.00000034    0.00015605    0.00019097
     atom   11 type  1   force =     0.00023283    0.00021444    0.00063265
     atom   12 type  1   force =    -0.00023271    0.00021403    0.00063418
     atom   13 type  1   force =     0.00013816    0.00007281    0.00079257
     atom   14 type  1   force =     0.00000023   -0.00012863    0.00102065
     atom   15 type  1   force =    -0.00013835    0.00007259    0.00079366
     atom   16 type  1   force =    -0.00003986   -0.00045096    0.00031093
     atom   17 type  1   force =     0.00003939   -0.00045181    0.00031081
     atom   18 type  1   force =     0.00000032   -0.00069863    0.00042680
     atom   19 type  1   force =    -0.00061323    0.00029259   -0.00289502
     atom   20 type  1   force =     0.00061133    0.00029175   -0.00289400
     atom   21 type  1   force =     0.00000202    0.00021445   -0.00136920
     atom   22 type  1   force =    -0.00000067   -0.00000138   -0.00249008
     atom   23 type  1   force =     0.00031677   -0.00019941   -0.00138569
     atom   24 type  1   force =    -0.00031598   -0.00020083   -0.00138743
     atom   25 type  1   force =    -0.00002359   -0.00008096   -0.00216597
     atom   26 type  1   force =    -0.00000082   -0.00079150   -0.00251424
     atom   27 type  1   force =     0.00002450   -0.00008229   -0.00216484
     atom   28 type  1   force =     0.01406658    0.00897722   -0.00544902
     atom   29 type  1   force =    -0.01406913    0.00897755   -0.00544863
     atom   30 type  1   force =     0.00000194   -0.00020461   -0.01589466
     atom   31 type  1   force =    -0.00000076   -0.01374791   -0.00245486
     atom   32 type  1   force =     0.00218028    0.00101791   -0.01630561
     atom   33 type  1   force =    -0.00217943    0.00101750   -0.01630547
     atom   34 type  1   force =    -0.00027851   -0.00013536   -0.01578512
     atom   35 type  1   force =     0.00000012   -0.00223466   -0.01625601
     atom   36 type  1   force =     0.00027774   -0.00013702   -0.01578499
     atom   37 type  2   force =    -0.00000027   -0.00103027    0.00257382
     atom   38 type  3   force =     0.00000000    0.00000000    0.00000000
     The Hubbard contrib.    to forces
     atom    1 type  1   force =     0.00000000    0.00000000    0.00000000
     atom    2 type  1   force =     0.00000000    0.00000000    0.00000000
     atom    3 type  1   force =     0.00000000    0.00000000    0.00000000
     atom    4 type  1   force =     0.00000000    0.00000000    0.00000000
     atom    5 type  1   force =     0.00000000    0.00000000    0.00000000
     atom    6 type  1   force =     0.00000000    0.00000000    0.00000000
     atom    7 type  1   force =     0.00000000    0.00000000    0.00000000
     atom    8 type  1   force =     0.00000000    0.00000000    0.00000000
     atom    9 type  1   force =     0.00000000    0.00000000    0.00000000
     atom   10 type  1   force =     0.00000000    0.00000000    0.00000000
     atom   11 type  1   force =     0.00000000    0.00000000    0.00000000
     atom   12 type  1   force =     0.00000000    0.00000000    0.00000000
     atom   13 type  1   force =     0.00000000    0.00000000    0.00000000
     atom   14 type  1   force =     0.00000000    0.00000000    0.00000000
     atom   15 type  1   force =     0.00000000    0.00000000    0.00000000
     atom   16 type  1   force =     0.00000000    0.00000000    0.00000000
     atom   17 type  1   force =     0.00000000    0.00000000    0.00000000
     atom   18 type  1   force =     0.00000000    0.00000000    0.00000000
     atom   19 type  1   force =     0.00000000    0.00000000    0.00000000
     atom   20 type  1   force =     0.00000000    0.00000000    0.00000000
     atom   21 type  1   force =     0.00000000    0.00000000    0.00000000
     atom   22 type  1   force =     0.00000000    0.00000000    0.00000000
     atom   23 type  1   force =     0.00000000    0.00000000    0.00000000
     atom   24 type  1   force =     0.00000000    0.00000000    0.00000000
     atom   25 type  1   force =     0.00000000    0.00000000    0.00000000
     atom   26 type  1   force =     0.00000000    0.00000000    0.00000000
     atom   27 type  1   force =     0.00000000    0.00000000    0.00000000
     atom   28 type  1   force =     0.00000000    0.00000000    0.00000000
     atom   29 type  1   force =     0.00000000    0.00000000    0.00000000
     atom   30 type  1   force =     0.00000000    0.00000000    0.00000000
     atom   31 type  1   force =     0.00000000    0.00000000    0.00000000
     atom   32 type  1   force =     0.00000000    0.00000000    0.00000000
     atom   33 type  1   force =     0.00000000    0.00000000    0.00000000
     atom   34 type  1   force =     0.00000000    0.00000000    0.00000000
     atom   35 type  1   force =     0.00000000    0.00000000    0.00000000
     atom   36 type  1   force =     0.00000000    0.00000000    0.00000000
     atom   37 type  2   force =     0.00000000    0.00000000    0.00000000
     atom   38 type  3   force =     0.00000000    0.00000000    0.00000000
     The SCF correction term to forces
     atom    1 type  1   force =     0.00000000    0.00000000   -0.00000000
     atom    2 type  1   force =    -0.00000000   -0.00000000   -0.00000000
     atom    3 type  1   force =     0.00000000    0.00000000   -0.00000000
     atom    4 type  1   force =    -0.00000000   -0.00000000   -0.00000000
     atom    5 type  1   force =     0.00000000   -0.00000000   -0.00000000
     atom    6 type  1   force =    -0.00000000   -0.00000000   -0.00000000
     atom    7 type  1   force =     0.00000000    0.00000000   -0.00000000
     atom    8 type  1   force =     0.00000000   -0.00000000   -0.00000000
     atom    9 type  1   force =    -0.00000000    0.00000000   -0.00000000
     atom   10 type  1   force =    -0.00000000   -0.00000000   -0.00000000
     atom   11 type  1   force =     0.00000000    0.00000000   -0.00000000
     atom   12 type  1   force =    -0.00000000    0.00000000   -0.00000000
     atom   13 type  1   force =     0.00000000   -0.00000000   -0.00000000
     atom   14 type  1   force =     0.00000000   -0.00000000   -0.00000000
     atom   15 type  1   force =    -0.00000000   -0.00000000   -0.00000000
     atom   16 type  1   force =     0.00000000   -0.00000000   -0.00000000
     atom   17 type  1   force =    -0.00000000   -0.00000000   -0.00000000
     atom   18 type  1   force =     0.00000000    0.00000000   -0.00000000
     atom   19 type  1   force =    -0.00058498   -0.00004166    0.00029267
     atom   20 type  1   force =     0.00052794   -0.00001080    0.00032532
     atom   21 type  1   force =     0.00005816    0.00003439    0.00021031
     atom   22 type  1   force =    -0.00000024    0.00040518    0.00052672
     atom   23 type  1   force =     0.00032253   -0.00013304    0.00034282
     atom   24 type  1   force =    -0.00032317   -0.00018674    0.00032962
     atom   25 type  1   force =    -0.00030763    0.00013735    0.00030882
     atom   26 type  1   force =    -0.00004206   -0.00032405    0.00022043
     atom   27 type  1   force =     0.00035020    0.00009799    0.00032512
     atom   28 type  1   force =    -0.00007987    0.00008382    0.00046298
     atom   29 type  1   force =     0.00005996    0.00008580    0.00049313
     atom   30 type  1   force =     0.00002485    0.00006729    0.00007537
     atom   31 type  1   force =    -0.00000796   -0.00004207    0.00067108
     atom   32 type  1   force =     0.00029690    0.00001299    0.00017186
     atom   33 type  1   force =    -0.00028413   -0.00000570    0.00014786
     atom   34 type  1   force =    -0.00003498    0.00006741    0.00024663
     atom   35 type  1   force =    -0.00001255   -0.00029933    0.00021288
     atom   36 type  1   force =     0.00004671    0.00004851    0.00025694
     atom   37 type  2   force =    -0.00000610    0.00004850    0.00017879
     atom   38 type  3   force =    -0.00000076   -0.00000219   -0.00000284

     Total force =     0.030017     Total SCF correction =     0.001966

     Writing all to output data dir ./pwscf.save/

     init_run     :     14.34s CPU     14.72s WALL (       1 calls)
     electrons    :    436.41s CPU    446.24s WALL (       1 calls)
     forces       :      6.22s CPU      6.65s WALL (       1 calls)

     Called by init_run:
     wfcinit      :      5.85s CPU      6.03s WALL (       1 calls)
     potinit      :      3.25s CPU      3.37s WALL (       1 calls)
     hinit0       :      4.39s CPU      4.42s WALL (       1 calls)

     Called by electrons:
     c_bands      :    366.75s CPU    372.24s WALL (      19 calls)
     sum_band     :     37.45s CPU     38.54s WALL (      19 calls)
     v_of_rho     :     22.55s CPU     24.68s WALL (      19 calls)
     newd         :      3.17s CPU      3.91s WALL (      19 calls)
     PAW_pot      :      4.24s CPU      4.36s WALL (      19 calls)
     mix_rho      :      4.20s CPU      4.29s WALL (      19 calls)
     vdW_kernel   :      1.73s CPU      1.74s WALL (       1 calls)

     Called by c_bands:
     init_us_2    :      2.85s CPU      2.89s WALL (     520 calls)
     init_us_2:cp :      2.85s CPU      2.89s WALL (     520 calls)
     cegterg      :    357.25s CPU    362.39s WALL (     247 calls)

     Called by *egterg:
     cdiaghg      :     78.96s CPU     79.75s WALL (    1371 calls)
     h_psi        :    172.46s CPU    175.27s WALL (    1397 calls)
     s_psi        :     15.34s CPU     15.52s WALL (    1397 calls)
     g_psi        :      0.43s CPU      0.44s WALL (    1137 calls)

     Called by h_psi:
     h_psi:calbec :     26.86s CPU     27.59s WALL (    1397 calls)
     vloc_psi     :    128.54s CPU    130.37s WALL (    1397 calls)
     add_vuspsi   :     15.95s CPU     16.18s WALL (    1397 calls)

     General routines
     calbec       :     36.32s CPU     37.24s WALL (    1696 calls)
     fft          :     21.30s CPU     23.36s WALL (    1257 calls)
     ffts         :      2.33s CPU      2.35s WALL (    4669 calls)
     fftw         :    131.13s CPU    133.01s WALL (  317240 calls)
     interpolate  :      0.82s CPU      0.86s WALL (      19 calls)

     Parallel routines

     PWSCF        :   7m40.37s CPU   7m55.17s WALL


   This run was terminated on:  13:31:29   7Nov2025            

=------------------------------------------------------------------------------=
   JOB DONE.
=------------------------------------------------------------------------------=
