
     Program PWSCF v.7.1 starts on 17Dec2025 at  9:58:49 
        Git branch: heads/qe-7.1
        Last git commit: 48ba0178f8fede6d020eb786884699a9f063f55d-dirty
        Last git commit date: Fri Jan 27 14:22:33 2023 +0000
        Last git commit subject: Merge branch 'fix_hubbard' into 'develop'

     This program is part of the open-source Quantum ESPRESSO suite
     for quantum simulation of materials; please cite
         "P. Giannozzi et al., J. Phys.:Condens. Matter 21 395502 (2009);
         "P. Giannozzi et al., J. Phys.:Condens. Matter 29 465901 (2017);
         "P. Giannozzi et al., J. Chem. Phys. 152 154105 (2020);
          URL http://www.quantum-espresso.org", 
     in publications or presentations arising from this work. More details at
     http://www.quantum-espresso.org/quote

     Parallel version (MPI), running on    96 processors

     MPI processes distributed on     2 nodes
     206062 MiB available memory on the printing compute node when the environment starts

     Reading input from espresso.pwi
Warning: card &CELL ignored
Warning: card / ignored
Warning: card &FCP ignored
Warning: card / ignored
Warning: card &RISM ignored
Warning: card / ignored

     Current dimensions of program PWSCF are:
     Max number of different atomic species (ntypx) = 10
     Max number of k-points (npk) =  40000
     Max angular momentum in pseudopotentials (lmaxx) =  4
     file Co.pbe-n-kjpaw_psl.1.0.0.UPF: wavefunction(s)  4S 3D renormalized
     file C.pbe-n-kjpaw_psl.1.0.0.UPF: wavefunction(s)  2S 2P renormalized
     file O.pbe-nl-kjpaw_psl.1.0.0.UPF: wavefunction(s)  2S 2P renormalized
     file H.pbe-kjpaw_psl.1.0.0.UPF: wavefunction(s)  1S renormalized

     **************************************************************************
     Initializing libbeef V0.1.2 with the BEEF-vdW functional.
     Citation: Wellendorff et al., PRB 85, 235149 (2012).
     **************************************************************************


     IMPORTANT: XC functional enforced from input :
     Exchange-correlation= BEEF-VDW
                           (   1   4  43  14   2   0   0)
     Any further DFT definition will be discarded
     Please, verify this is what you really want


     R & G space division:  proc/nbgrp/npool/nimage =      96
     Subspace diagonalization in iterative solution of the eigenvalue problem:
     one sub-group per band group will be used
     custom distributed-memory algorithm (size of sub-group:  2*  2 procs)


     Parallelization info
     --------------------
     sticks:   dense  smooth     PW     G-vecs:    dense   smooth      PW
     Min          43      28      7                 7829     4248     595
     Max          44      29      8                 7845     4281     630
     Sum        4153    2773    757               752179   409445   59217

     Using Slab Decomposition



     bravais-lattice index     =            0
     lattice parameter (alat)  =      14.1729  a.u.
     unit-cell volume          =    8574.3059 (a.u.)^3
     number of atoms/cell      =           39
     number of atomic types    =            4
     number of electrons       =       335.00
     number of Kohn-Sham states=          202
     kinetic-energy cutoff     =      50.0000  Ry
     charge density cutoff     =     300.0000  Ry
     scf convergence threshold =      1.0E-08
     mixing beta               =       0.7000
     number of iterations used =            8  local-TF  mixing
     Exchange-correlation= BEEF-VDW
                           (   1   4  43  14   2   0   0)

     celldm(1)=  14.172946  celldm(2)=   0.000000  celldm(3)=   0.000000
     celldm(4)=   0.000000  celldm(5)=   0.000000  celldm(6)=   0.000000

     crystal axes: (cart. coord. in units of alat)
               a(1) = (   1.000000   0.000000   0.000000 )  
               a(2) = (   0.500000   0.866025   0.000000 )  
               a(3) = (   0.000000   0.000000   3.477667 )  

     reciprocal axes: (cart. coord. in units 2 pi/alat)
               b(1) = (  1.000000 -0.577350  0.000000 )  
               b(2) = (  0.000000  1.154701  0.000000 )  
               b(3) = (  0.000000  0.000000  0.287549 )  


     PseudoPot. # 1 for Co read from file:
     /users/kbadger1/espresso/pseudo/pslibrary.1.0.0/pbe/PSEUDOPOTENTIALS/Co.pbe-n-kjpaw_psl.1.0.0.UPF
     MD5 check sum: 88af6ec42553d4236c267fdfcb472151
     Pseudo is Projector augmented-wave + core cor, Zval =  9.0
     Generated using 'atomic' code by A. Dal Corso  v.7.0
     Shape of augmentation charge: PSQ
     Using radial grid of 1193 points,  6 beta functions with: 
                l(1) =   0
                l(2) =   0
                l(3) =   1
                l(4) =   1
                l(5) =   2
                l(6) =   2
     Q(r) pseudized with 0 coefficients 


     PseudoPot. # 2 for C  read from file:
     /users/kbadger1/espresso/pseudo/pslibrary.1.0.0/pbe/PSEUDOPOTENTIALS/C.pbe-n-kjpaw_psl.1.0.0.UPF
     MD5 check sum: 6408e75cdba28732cea38a4db8498ce4
     Pseudo is Projector augmented-wave + core cor, Zval =  4.0
     Generated using 'atomic' code by A. Dal Corso  v.7.0
     Shape of augmentation charge: PSQ
     Using radial grid of 1073 points,  4 beta functions with: 
                l(1) =   0
                l(2) =   0
                l(3) =   1
                l(4) =   1
     Q(r) pseudized with 0 coefficients 


     PseudoPot. # 3 for O  read from file:
     /users/kbadger1/espresso/pseudo/pslibrary.1.0.0/pbe/PSEUDOPOTENTIALS/O.pbe-nl-kjpaw_psl.1.0.0.UPF
     MD5 check sum: f0439fab3598ca4e468f064226030408
     Pseudo is Projector augmented-wave + core cor, Zval =  6.0
     Generated using 'atomic' code by A. Dal Corso  v.7.0
     Shape of augmentation charge: PSQ
     Using radial grid of 1095 points,  4 beta functions with: 
                l(1) =   0
                l(2) =   0
                l(3) =   1
                l(4) =   1
     Q(r) pseudized with 0 coefficients 


     PseudoPot. # 4 for H  read from file:
     /users/kbadger1/espresso/pseudo/pslibrary.1.0.0/pbe/PSEUDOPOTENTIALS/H.pbe-kjpaw_psl.1.0.0.UPF
     MD5 check sum: fe4c6fa958fa6d3815bf5d2419cbf1df
     Pseudo is Projector augmented-wave, Zval =  1.0
     Generated using 'atomic' code by A. Dal Corso  v.7.0
     Shape of augmentation charge: PSQ
     Using radial grid of  929 points,  2 beta functions with: 
                l(1) =   0
                l(2) =   0
     Q(r) pseudized with 0 coefficients 


     atomic species   valence    mass     pseudopotential
        Co             9.00    58.93319     Co( 1.00)
        C              4.00    12.00000     C ( 1.00)
        O              6.00    15.99491     O ( 1.00)
        H              1.00     1.00783     H ( 1.00)

     Starting magnetic structure 
     atomic species   magnetization
        Co           1.000
        C            1.000
        O            0.000
        H            0.000

     No symmetry found



   Cartesian axes

     site n.     atom                  positions (alat units)
         1           Co  tau(   1) = (   0.0000000   0.1924501   1.3333333  )
         2           Co  tau(   2) = (   0.3333333   0.1924501   1.3333333  )
         3           Co  tau(   3) = (   0.6666667   0.1924501   1.3333333  )
         4           Co  tau(   4) = (   0.1666667   0.4811252   1.3333333  )
         5           Co  tau(   5) = (   0.5000000   0.4811252   1.3333333  )
         6           Co  tau(   6) = (   0.8333333   0.4811252   1.3333333  )
         7           Co  tau(   7) = (   0.3333333   0.7698004   1.3333333  )
         8           Co  tau(   8) = (   0.6666667   0.7698004   1.3333333  )
         9           Co  tau(   9) = (   1.0000000   0.7698004   1.3333333  )
        10           Co  tau(  10) = (   0.0000000   0.0000000   1.6036667  )
        11           Co  tau(  11) = (   0.3333333   0.0000000   1.6036667  )
        12           Co  tau(  12) = (   0.6666667   0.0000000   1.6036667  )
        13           Co  tau(  13) = (   0.1666667   0.2886751   1.6036667  )
        14           Co  tau(  14) = (   0.5000000   0.2886751   1.6036667  )
        15           Co  tau(  15) = (   0.8333333   0.2886751   1.6036667  )
        16           Co  tau(  16) = (   0.3333333   0.5773503   1.6036667  )
        17           Co  tau(  17) = (   0.6666667   0.5773503   1.6036667  )
        18           Co  tau(  18) = (   1.0000000   0.5773503   1.6036667  )
        19           Co  tau(  19) = (   0.0000000   0.1924501   1.8740000  )
        20           Co  tau(  20) = (   0.3333333   0.1924501   1.8740000  )
        21           Co  tau(  21) = (   0.6666667   0.1924501   1.8740000  )
        22           Co  tau(  22) = (   0.1666667   0.4811252   1.8740000  )
        23           Co  tau(  23) = (   0.5000000   0.4811252   1.8740000  )
        24           Co  tau(  24) = (   0.8333333   0.4811252   1.8740000  )
        25           Co  tau(  25) = (   0.3333333   0.7698004   1.8740000  )
        26           Co  tau(  26) = (   0.6666667   0.7698004   1.8740000  )
        27           Co  tau(  27) = (   1.0000000   0.7698004   1.8740000  )
        28           Co  tau(  28) = (   0.0000000   0.0000000   2.1443333  )
        29           Co  tau(  29) = (   0.3333333   0.0000000   2.1443333  )
        30           Co  tau(  30) = (   0.6666667   0.0000000   2.1443333  )
        31           Co  tau(  31) = (   0.1666667   0.2886751   2.1443333  )
        32           Co  tau(  32) = (   0.5000000   0.2886751   2.1443333  )
        33           Co  tau(  33) = (   0.8333333   0.2886751   2.1443333  )
        34           Co  tau(  34) = (   0.3333333   0.5773503   2.1443333  )
        35           Co  tau(  35) = (   0.6666667   0.5773503   2.1443333  )
        36           Co  tau(  36) = (   1.0000000   0.5773503   2.1443333  )
        37           C   tau(  37) = (   0.4062129   0.2308892   2.3671714  )
        38           O   tau(  38) = (   0.2851692   0.1147118   2.3971773  )
        39           H   tau(  39) = (   0.4631799   0.2958398   2.4864268  )

     number of k points=    13  Marzari-Vanderbilt smearing, width (Ry)=  0.0010
                       cart. coord. in units 2pi/alat
        k(    1) = (   0.0000000   0.0000000   0.0000000), wk =   0.0400000
        k(    2) = (   0.0000000   0.2309401   0.0000000), wk =   0.0800000
        k(    3) = (   0.0000000   0.4618802   0.0000000), wk =   0.0800000
        k(    4) = (   0.2000000  -0.1154701   0.0000000), wk =   0.0800000
        k(    5) = (   0.2000000   0.1154701   0.0000000), wk =   0.0800000
        k(    6) = (   0.2000000   0.3464102   0.0000000), wk =   0.0800000
        k(    7) = (   0.2000000  -0.5773503   0.0000000), wk =   0.0800000
        k(    8) = (   0.2000000  -0.3464102   0.0000000), wk =   0.0800000
        k(    9) = (   0.4000000  -0.2309401   0.0000000), wk =   0.0800000
        k(   10) = (   0.4000000   0.0000000   0.0000000), wk =   0.0800000
        k(   11) = (   0.4000000   0.2309401   0.0000000), wk =   0.0800000
        k(   12) = (   0.4000000  -0.6928203   0.0000000), wk =   0.0800000
        k(   13) = (   0.4000000  -0.4618802   0.0000000), wk =   0.0800000

     Dense  grid:   752179 G-vectors     FFT dimensions: (  80,  80, 288)

     Smooth grid:   409445 G-vectors     FFT dimensions: (  64,  64, 225)

     Estimated max dynamical RAM per process >      99.02 MB

     Estimated total dynamical RAM >       9.28 GB
     Generating pointlists ...
     new r_m :   0.1025 (alat units)  1.4533 (a.u.) for type    1
     new r_m :   0.0607 (alat units)  0.8609 (a.u.) for type    2
     new r_m :   0.0703 (alat units)  0.9964 (a.u.) for type    3
     new r_m :   0.0607 (alat units)  0.8609 (a.u.) for type    4

     Initial potential from superposition of free atoms

     starting charge     334.9897, renormalised to     335.0000

     negative rho (up, down):  2.988E-03 4.697E-04


     %%%%%%%%%%%%%%%%%%%%%%%%%%%%%%%%%%%%%%%%%%%%%%%%%%%%%%%%%%%%%%%%%%%%%%%%
     %                                                                      %
     % You are using vdW-DF, which was implemented by the Thonhauser group. %
     % Please cite the following two papers that made this development      %
     % possible and the two reviews that describe the various versions:     %
     %                                                                      %
     %   T. Thonhauser et al., PRL 115, 136402 (2015).                      %
     %   T. Thonhauser et al., PRB 76, 125112 (2007).                       %
     %   K. Berland et al., Rep. Prog. Phys. 78, 066501 (2015).             %
     %   D.C. Langreth et al., J. Phys.: Condens. Matter 21, 084203 (2009). %
     %                                                                      %
     % If you are calculating stress with vdW-DF, please also cite:         %
     %                                                                      %
     %   R. Sabatini et al., J. Phys.: Condens. Matter 24, 424209 (2012).   %
     %   C.M. Frostenson et al., Electr. Struct. 4, 014001 (2022).          %
     %                                                                      %
     %%%%%%%%%%%%%%%%%%%%%%%%%%%%%%%%%%%%%%%%%%%%%%%%%%%%%%%%%%%%%%%%%%%%%%%%

     %%%%%%%%%%%%%%%%%%%%%%%%%%%%%%%%%%%%%%%%%%%%%%%%%%%%%%%%%%%%%%%%%%%%%%%%
     %                                                                      %
     %  vdW-DF NEWS:                                                        %
     %                                                                      %
     %  * vdW-DF3 is now available. DOI: 10.1021/acs.jctc.0c00471           %
     %    use with input_dft = 'vdW-DF3-opt1' or 'vdW-DF3-opt2'             %
     %                                                                      %
     %  * Unscreened and range-separated hybrid vdW-DF-cx functionals       %
     %    DOI: 10.1063/1.4986522 and 10.1088/1361-648X/ac2ad2               %
     %    use with input_dft = 'vdW-DF-cx0'    and 'vdW-DF-ahcx'            %
     %  * Unscreened and range-separated hybrid vdW-DF2-b86r functionals    %
     %    DOI: 10.1063/1.4986522 and DOI: 10.1103/PhysRevX.12.041003        %
     %    use with input_dft = 'vdW-DF2-br0' and 'vdW-DF2-ahbr'             %
     %                                                                      %
     %%%%%%%%%%%%%%%%%%%%%%%%%%%%%%%%%%%%%%%%%%%%%%%%%%%%%%%%%%%%%%%%%%%%%%%%


     Starting wfcs are  333 randomized atomic wfcs
     Checking if some PAW data can be deallocated... 

     total cpu time spent up to now is       17.1 secs

     per-process dynamical memory:   231.0 Mb

     Self-consistent Calculation

     iteration #  1     ecut=    50.00 Ry     beta= 0.70
     Davidson diagonalization with overlap
     ethr =  1.00E-02,  avg # of iterations =  2.0

     negative rho (up, down):  2.162E-05 3.322E-08

     total cpu time spent up to now is       39.2 secs

     total energy              =   -6053.06177742 Ry
     estimated scf accuracy    <      39.78456323 Ry

     total magnetization       =    69.00 Bohr mag/cell
     absolute magnetization    =    81.12 Bohr mag/cell

     iteration #  2     ecut=    50.00 Ry     beta= 0.70
     Davidson diagonalization with overlap
     ethr =  1.00E-02,  avg # of iterations =  1.0

     negative rho (up, down):  2.284E-06 1.849E-09

     total cpu time spent up to now is       52.7 secs

     total energy              =   -6052.43629093 Ry
     estimated scf accuracy    <      25.61305684 Ry

     total magnetization       =    69.00 Bohr mag/cell
     absolute magnetization    =    76.75 Bohr mag/cell

     iteration #  3     ecut=    50.00 Ry     beta= 0.70
     Davidson diagonalization with overlap
     ethr =  7.65E-03,  avg # of iterations =  1.0

     total cpu time spent up to now is       71.3 secs

     total energy              =   -6055.17569675 Ry
     estimated scf accuracy    <      84.02972092 Ry

     total magnetization       =    66.28 Bohr mag/cell
     absolute magnetization    =    73.32 Bohr mag/cell

     iteration #  4     ecut=    50.00 Ry     beta= 0.70
     Davidson diagonalization with overlap
     ethr =  7.65E-03,  avg # of iterations =  1.0

     total cpu time spent up to now is       84.8 secs

     total energy              =   -6056.35393733 Ry
     estimated scf accuracy    <       5.86243514 Ry

     total magnetization       =    60.76 Bohr mag/cell
     absolute magnetization    =    70.45 Bohr mag/cell

     iteration #  5     ecut=    50.00 Ry     beta= 0.70
     Davidson diagonalization with overlap
     ethr =  1.75E-03,  avg # of iterations =  1.2

     total cpu time spent up to now is      103.1 secs

     total energy              =   -6056.37293300 Ry
     estimated scf accuracy    <       3.36540285 Ry

     total magnetization       =    60.45 Bohr mag/cell
     absolute magnetization    =    69.74 Bohr mag/cell

     iteration #  6     ecut=    50.00 Ry     beta= 0.70
     Davidson diagonalization with overlap
     ethr =  1.00E-03,  avg # of iterations =  1.5

     total cpu time spent up to now is      117.1 secs

     total energy              =   -6056.48361492 Ry
     estimated scf accuracy    <       0.55104419 Ry

     total magnetization       =    60.44 Bohr mag/cell
     absolute magnetization    =    69.51 Bohr mag/cell

     iteration #  7     ecut=    50.00 Ry     beta= 0.70
     Davidson diagonalization with overlap
     ethr =  1.64E-04,  avg # of iterations =  5.9

     total cpu time spent up to now is      141.2 secs

     total energy              =   -6056.51746521 Ry
     estimated scf accuracy    <       0.81414755 Ry

     total magnetization       =    60.85 Bohr mag/cell
     absolute magnetization    =    69.38 Bohr mag/cell

     iteration #  8     ecut=    50.00 Ry     beta= 0.70
     Davidson diagonalization with overlap
     ethr =  1.64E-04,  avg # of iterations =  1.6

     total cpu time spent up to now is      159.8 secs

     total energy              =   -6056.53402471 Ry
     estimated scf accuracy    <       0.17565733 Ry

     total magnetization       =    60.95 Bohr mag/cell
     absolute magnetization    =    69.32 Bohr mag/cell

     iteration #  9     ecut=    50.00 Ry     beta= 0.70
     Davidson diagonalization with overlap
     c_bands:  2 eigenvalues not converged
     ethr =  5.24E-05,  avg # of iterations =  8.7

     total cpu time spent up to now is      181.7 secs

     total energy              =   -6056.54253745 Ry
     estimated scf accuracy    <       0.15437459 Ry

     total magnetization       =    61.32 Bohr mag/cell
     absolute magnetization    =    69.42 Bohr mag/cell

     iteration # 10     ecut=    50.00 Ry     beta= 0.70
     Davidson diagonalization with overlap
     ethr =  4.61E-05,  avg # of iterations =  2.2

     total cpu time spent up to now is      200.9 secs

     total energy              =   -6056.54321202 Ry
     estimated scf accuracy    <       0.16895757 Ry

     total magnetization       =    61.32 Bohr mag/cell
     absolute magnetization    =    69.25 Bohr mag/cell

     iteration # 11     ecut=    50.00 Ry     beta= 0.70
     Davidson diagonalization with overlap
     ethr =  4.61E-05,  avg # of iterations =  1.3

     total cpu time spent up to now is      218.9 secs

     total energy              =   -6056.53830550 Ry
     estimated scf accuracy    <       0.10338853 Ry

     total magnetization       =    61.32 Bohr mag/cell
     absolute magnetization    =    69.15 Bohr mag/cell

     iteration # 12     ecut=    50.00 Ry     beta= 0.70
     Davidson diagonalization with overlap
     ethr =  3.09E-05,  avg # of iterations =  2.7

     negative rho (up, down):  1.232E-06 0.000E+00

     total cpu time spent up to now is      234.4 secs

     total energy              =   -6056.53996643 Ry
     estimated scf accuracy    <       0.08767404 Ry

     total magnetization       =    61.33 Bohr mag/cell
     absolute magnetization    =    69.01 Bohr mag/cell

     iteration # 13     ecut=    50.00 Ry     beta= 0.70
     Davidson diagonalization with overlap
     ethr =  2.62E-05,  avg # of iterations =  2.1

     total cpu time spent up to now is      253.4 secs

     total energy              =   -6056.53757429 Ry
     estimated scf accuracy    <       0.09638123 Ry

     total magnetization       =    61.32 Bohr mag/cell
     absolute magnetization    =    68.95 Bohr mag/cell

     iteration # 14     ecut=    50.00 Ry     beta= 0.70
     Davidson diagonalization with overlap
     ethr =  2.62E-05,  avg # of iterations =  1.6

     negative rho (up, down):  7.999E-03 6.541E-03

     total cpu time spent up to now is      267.3 secs

     total energy              =   -6056.52985159 Ry
     estimated scf accuracy    <       0.06665964 Ry

     total magnetization       =    61.32 Bohr mag/cell
     absolute magnetization    =    68.97 Bohr mag/cell

     iteration # 15     ecut=    50.00 Ry     beta= 0.70
     Davidson diagonalization with overlap
     c_bands:  2 eigenvalues not converged
     c_bands:  4 eigenvalues not converged
     c_bands:  1 eigenvalues not converged
     ethr =  1.99E-05,  avg # of iterations =  3.9

     negative rho (up, down):  1.002E-02 8.527E-03

     total cpu time spent up to now is      288.0 secs

     total energy              =   -6056.52930038 Ry
     estimated scf accuracy    <       0.06495035 Ry

     total magnetization       =    61.32 Bohr mag/cell
     absolute magnetization    =    68.90 Bohr mag/cell

     iteration # 16     ecut=    50.00 Ry     beta= 0.70
     Davidson diagonalization with overlap
     ethr =  1.94E-05,  avg # of iterations =  1.5

     negative rho (up, down):  1.419E-02 1.258E-02

     total cpu time spent up to now is      302.5 secs

     total energy              =   -6056.52918669 Ry
     estimated scf accuracy    <       0.02428162 Ry

     total magnetization       =    61.32 Bohr mag/cell
     absolute magnetization    =    68.89 Bohr mag/cell

     iteration # 17     ecut=    50.00 Ry     beta= 0.70
     Davidson diagonalization with overlap
     c_bands:  2 eigenvalues not converged
     c_bands:  1 eigenvalues not converged
     c_bands:  2 eigenvalues not converged
     c_bands:  1 eigenvalues not converged
     c_bands:  3 eigenvalues not converged
     c_bands:  1 eigenvalues not converged
     ethr =  7.25E-06,  avg # of iterations =  7.7

     negative rho (up, down):  1.141E-02 1.003E-02

     total cpu time spent up to now is      327.1 secs

     total energy              =   -6056.52745644 Ry
     estimated scf accuracy    <       0.03550743 Ry

     total magnetization       =    61.32 Bohr mag/cell
     absolute magnetization    =    68.88 Bohr mag/cell

     iteration # 18     ecut=    50.00 Ry     beta= 0.70
     Davidson diagonalization with overlap
     c_bands:  2 eigenvalues not converged
     ethr =  7.25E-06,  avg # of iterations =  2.6

     negative rho (up, down):  1.652E-02 1.508E-02

     total cpu time spent up to now is      346.4 secs

     total energy              =   -6056.52661097 Ry
     estimated scf accuracy    <       0.01656401 Ry

     total magnetization       =    61.32 Bohr mag/cell
     absolute magnetization    =    68.88 Bohr mag/cell

     iteration # 19     ecut=    50.00 Ry     beta= 0.70
     Davidson diagonalization with overlap
     c_bands:  1 eigenvalues not converged
     ethr =  4.94E-06,  avg # of iterations =  2.6

     negative rho (up, down):  2.627E-02 2.478E-02

     total cpu time spent up to now is      362.4 secs

     total energy              =   -6056.52472239 Ry
     estimated scf accuracy    <       0.01636411 Ry

     total magnetization       =    61.32 Bohr mag/cell
     absolute magnetization    =    68.87 Bohr mag/cell

     iteration # 20     ecut=    50.00 Ry     beta= 0.70
     Davidson diagonalization with overlap
     ethr =  4.88E-06,  avg # of iterations =  1.8

     negative rho (up, down):  1.879E-02 1.779E-02

     total cpu time spent up to now is      381.1 secs

     total energy              =   -6056.52419002 Ry
     estimated scf accuracy    <       0.01486099 Ry

     total magnetization       =    61.32 Bohr mag/cell
     absolute magnetization    =    68.85 Bohr mag/cell

     iteration # 21     ecut=    50.00 Ry     beta= 0.70
     Davidson diagonalization with overlap
     ethr =  4.44E-06,  avg # of iterations =  2.7

     negative rho (up, down):  2.246E-02 2.146E-02

     total cpu time spent up to now is      400.8 secs

     total energy              =   -6056.52413581 Ry
     estimated scf accuracy    <       0.01983265 Ry

     total magnetization       =    61.32 Bohr mag/cell
     absolute magnetization    =    68.86 Bohr mag/cell

     iteration # 22     ecut=    50.00 Ry     beta= 0.70
     Davidson diagonalization with overlap
     ethr =  4.44E-06,  avg # of iterations =  1.1

     negative rho (up, down):  2.082E-02 1.989E-02

     total cpu time spent up to now is      413.9 secs

     total energy              =   -6056.52453753 Ry
     estimated scf accuracy    <       0.00276778 Ry

     total magnetization       =    61.32 Bohr mag/cell
     absolute magnetization    =    68.86 Bohr mag/cell

     iteration # 23     ecut=    50.00 Ry     beta= 0.70
     Davidson diagonalization with overlap
     c_bands:  1 eigenvalues not converged
     c_bands:  1 eigenvalues not converged
     c_bands:  2 eigenvalues not converged
     ethr =  8.26E-07,  avg # of iterations =  7.0

     negative rho (up, down):  1.285E-02 1.214E-02

     total cpu time spent up to now is      438.7 secs

     total energy              =   -6056.52438065 Ry
     estimated scf accuracy    <       0.00119073 Ry

     total magnetization       =    61.32 Bohr mag/cell
     absolute magnetization    =    68.86 Bohr mag/cell

     iteration # 24     ecut=    50.00 Ry     beta= 0.70
     Davidson diagonalization with overlap
     c_bands:  1 eigenvalues not converged
     ethr =  3.55E-07,  avg # of iterations =  4.3

     negative rho (up, down):  6.552E-03 5.831E-03

     total cpu time spent up to now is      460.7 secs

     total energy              =   -6056.52432959 Ry
     estimated scf accuracy    <       0.00231337 Ry

     total magnetization       =    61.32 Bohr mag/cell
     absolute magnetization    =    68.87 Bohr mag/cell

     iteration # 25     ecut=    50.00 Ry     beta= 0.70
     Davidson diagonalization with overlap
     ethr =  3.55E-07,  avg # of iterations =  1.8

     negative rho (up, down):  5.724E-03 4.999E-03

     total cpu time spent up to now is      475.0 secs

     total energy              =   -6056.52439133 Ry
     estimated scf accuracy    <       0.00083000 Ry

     total magnetization       =    61.32 Bohr mag/cell
     absolute magnetization    =    68.87 Bohr mag/cell

     iteration # 26     ecut=    50.00 Ry     beta= 0.70
     Davidson diagonalization with overlap
     ethr =  2.48E-07,  avg # of iterations =  1.6

     negative rho (up, down):  4.806E-03 4.030E-03

     total cpu time spent up to now is      495.0 secs

     total energy              =   -6056.52444950 Ry
     estimated scf accuracy    <       0.00048754 Ry

     total magnetization       =    61.32 Bohr mag/cell
     absolute magnetization    =    68.87 Bohr mag/cell

     iteration # 27     ecut=    50.00 Ry     beta= 0.70
     Davidson diagonalization with overlap
     ethr =  1.46E-07,  avg # of iterations =  2.5

     negative rho (up, down):  4.929E-03 4.099E-03

     total cpu time spent up to now is      509.8 secs

     total energy              =   -6056.52450954 Ry
     estimated scf accuracy    <       0.00079107 Ry

     total magnetization       =    61.32 Bohr mag/cell
     absolute magnetization    =    68.87 Bohr mag/cell

     iteration # 28     ecut=    50.00 Ry     beta= 0.70
     Davidson diagonalization with overlap
     ethr =  1.46E-07,  avg # of iterations =  1.2

     negative rho (up, down):  4.163E-03 3.219E-03

     total cpu time spent up to now is      528.1 secs

     total energy              =   -6056.52453331 Ry
     estimated scf accuracy    <       0.00012516 Ry

     total magnetization       =    61.32 Bohr mag/cell
     absolute magnetization    =    68.87 Bohr mag/cell

     iteration # 29     ecut=    50.00 Ry     beta= 0.70
     Davidson diagonalization with overlap
     ethr =  3.74E-08,  avg # of iterations =  5.5

     negative rho (up, down):  3.937E-03 2.929E-03

     total cpu time spent up to now is      552.2 secs

     total energy              =   -6056.52453280 Ry
     estimated scf accuracy    <       0.00015941 Ry

     total magnetization       =    61.32 Bohr mag/cell
     absolute magnetization    =    68.87 Bohr mag/cell

     iteration # 30     ecut=    50.00 Ry     beta= 0.70
     Davidson diagonalization with overlap
     ethr =  3.74E-08,  avg # of iterations =  1.6

     negative rho (up, down):  3.809E-03 2.786E-03

     total cpu time spent up to now is      566.1 secs

     total energy              =   -6056.52452591 Ry
     estimated scf accuracy    <       0.00011905 Ry

     total magnetization       =    61.32 Bohr mag/cell
     absolute magnetization    =    68.87 Bohr mag/cell

     iteration # 31     ecut=    50.00 Ry     beta= 0.70
     Davidson diagonalization with overlap
     ethr =  3.55E-08,  avg # of iterations =  1.1

     negative rho (up, down):  3.537E-03 2.483E-03

     total cpu time spent up to now is      584.1 secs

     total energy              =   -6056.52452010 Ry
     estimated scf accuracy    <       0.00005841 Ry

     total magnetization       =    61.32 Bohr mag/cell
     absolute magnetization    =    68.87 Bohr mag/cell

     iteration # 32     ecut=    50.00 Ry     beta= 0.70
     Davidson diagonalization with overlap
     ethr =  1.74E-08,  avg # of iterations =  1.7

     negative rho (up, down):  3.304E-03 2.226E-03

     total cpu time spent up to now is      598.3 secs

     total energy              =   -6056.52451231 Ry
     estimated scf accuracy    <       0.00013646 Ry

     total magnetization       =    61.32 Bohr mag/cell
     absolute magnetization    =    68.87 Bohr mag/cell

     iteration # 33     ecut=    50.00 Ry     beta= 0.70
     Davidson diagonalization with overlap
     ethr =  1.74E-08,  avg # of iterations =  1.3

     negative rho (up, down):  2.888E-03 1.797E-03

     total cpu time spent up to now is      617.5 secs

     total energy              =   -6056.52451378 Ry
     estimated scf accuracy    <       0.00006518 Ry

     total magnetization       =    61.32 Bohr mag/cell
     absolute magnetization    =    68.86 Bohr mag/cell

     iteration # 34     ecut=    50.00 Ry     beta= 0.70
     Davidson diagonalization with overlap
     ethr =  1.74E-08,  avg # of iterations =  1.4

     negative rho (up, down):  2.877E-03 1.827E-03

     total cpu time spent up to now is      631.1 secs

     total energy              =   -6056.52451592 Ry
     estimated scf accuracy    <       0.00003447 Ry

     total magnetization       =    61.32 Bohr mag/cell
     absolute magnetization    =    68.86 Bohr mag/cell

     iteration # 35     ecut=    50.00 Ry     beta= 0.70
     Davidson diagonalization with overlap
     ethr =  1.03E-08,  avg # of iterations =  1.4

     negative rho (up, down):  2.886E-03 1.813E-03

     total cpu time spent up to now is      649.8 secs

     total energy              =   -6056.52451487 Ry
     estimated scf accuracy    <       0.00002159 Ry

     total magnetization       =    61.32 Bohr mag/cell
     absolute magnetization    =    68.86 Bohr mag/cell

     iteration # 36     ecut=    50.00 Ry     beta= 0.70
     Davidson diagonalization with overlap
     ethr =  6.44E-09,  avg # of iterations =  1.7

     negative rho (up, down):  2.832E-03 1.742E-03

     total cpu time spent up to now is      669.9 secs

     total energy              =   -6056.52451392 Ry
     estimated scf accuracy    <       0.00003842 Ry

     total magnetization       =    61.32 Bohr mag/cell
     absolute magnetization    =    68.86 Bohr mag/cell

     iteration # 37     ecut=    50.00 Ry     beta= 0.70
     Davidson diagonalization with overlap
     ethr =  6.44E-09,  avg # of iterations =  1.7

     negative rho (up, down):  2.704E-03 1.620E-03

     total cpu time spent up to now is      683.8 secs

     total energy              =   -6056.52451473 Ry
     estimated scf accuracy    <       0.00002649 Ry

     total magnetization       =    61.32 Bohr mag/cell
     absolute magnetization    =    68.86 Bohr mag/cell

     iteration # 38     ecut=    50.00 Ry     beta= 0.70
     Davidson diagonalization with overlap
     ethr =  6.44E-09,  avg # of iterations =  1.1

     negative rho (up, down):  2.567E-03 1.485E-03

     total cpu time spent up to now is      701.6 secs

     total energy              =   -6056.52451484 Ry
     estimated scf accuracy    <       0.00000376 Ry

     total magnetization       =    61.32 Bohr mag/cell
     absolute magnetization    =    68.86 Bohr mag/cell

     iteration # 39     ecut=    50.00 Ry     beta= 0.70
     Davidson diagonalization with overlap
     ethr =  1.12E-09,  avg # of iterations =  5.9

     negative rho (up, down):  2.566E-03 1.470E-03

     total cpu time spent up to now is      720.5 secs

     total energy              =   -6056.52451503 Ry
     estimated scf accuracy    <       0.00001468 Ry

     total magnetization       =    61.32 Bohr mag/cell
     absolute magnetization    =    68.86 Bohr mag/cell

     iteration # 40     ecut=    50.00 Ry     beta= 0.70
     Davidson diagonalization with overlap
     ethr =  1.12E-09,  avg # of iterations =  1.5

     negative rho (up, down):  2.439E-03 1.343E-03

     total cpu time spent up to now is      739.5 secs

     total energy              =   -6056.52451494 Ry
     estimated scf accuracy    <       0.00000825 Ry

     total magnetization       =    61.32 Bohr mag/cell
     absolute magnetization    =    68.86 Bohr mag/cell

     iteration # 41     ecut=    50.00 Ry     beta= 0.70
     Davidson diagonalization with overlap
     ethr =  1.12E-09,  avg # of iterations =  1.1

     negative rho (up, down):  2.430E-03 1.333E-03

     total cpu time spent up to now is      752.9 secs

     total energy              =   -6056.52451530 Ry
     estimated scf accuracy    <       0.00000328 Ry

     total magnetization       =    61.32 Bohr mag/cell
     absolute magnetization    =    68.86 Bohr mag/cell

     iteration # 42     ecut=    50.00 Ry     beta= 0.70
     Davidson diagonalization with overlap
     ethr =  9.79E-10,  avg # of iterations =  1.0

     negative rho (up, down):  2.440E-03 1.338E-03

     total cpu time spent up to now is      770.8 secs

     total energy              =   -6056.52451530 Ry
     estimated scf accuracy    <       0.00000207 Ry

     total magnetization       =    61.32 Bohr mag/cell
     absolute magnetization    =    68.86 Bohr mag/cell

     iteration # 43     ecut=    50.00 Ry     beta= 0.70
     Davidson diagonalization with overlap
     ethr =  6.18E-10,  avg # of iterations =  1.6

     negative rho (up, down):  2.339E-03 1.234E-03

     total cpu time spent up to now is      790.0 secs

     total energy              =   -6056.52451519 Ry
     estimated scf accuracy    <       0.00000579 Ry

     total magnetization       =    61.32 Bohr mag/cell
     absolute magnetization    =    68.86 Bohr mag/cell

     iteration # 44     ecut=    50.00 Ry     beta= 0.70
     Davidson diagonalization with overlap
     ethr =  6.18E-10,  avg # of iterations =  1.2

     negative rho (up, down):  2.301E-03 1.196E-03

     total cpu time spent up to now is      803.3 secs

     total energy              =   -6056.52451531 Ry
     estimated scf accuracy    <       0.00000255 Ry

     total magnetization       =    61.32 Bohr mag/cell
     absolute magnetization    =    68.86 Bohr mag/cell

     iteration # 45     ecut=    50.00 Ry     beta= 0.70
     Davidson diagonalization with overlap
     ethr =  6.18E-10,  avg # of iterations =  1.0

     negative rho (up, down):  2.277E-03 1.172E-03

     total cpu time spent up to now is      821.2 secs

     total energy              =   -6056.52451532 Ry
     estimated scf accuracy    <       0.00000215 Ry

     total magnetization       =    61.32 Bohr mag/cell
     absolute magnetization    =    68.86 Bohr mag/cell

     iteration # 46     ecut=    50.00 Ry     beta= 0.70
     Davidson diagonalization with overlap
     ethr =  6.18E-10,  avg # of iterations =  1.0

     negative rho (up, down):  2.265E-03 1.159E-03

     total cpu time spent up to now is      834.6 secs

     total energy              =   -6056.52451530 Ry
     estimated scf accuracy    <       0.00000142 Ry

     total magnetization       =    61.32 Bohr mag/cell
     absolute magnetization    =    68.86 Bohr mag/cell

     iteration # 47     ecut=    50.00 Ry     beta= 0.70
     Davidson diagonalization with overlap
     ethr =  4.24E-10,  avg # of iterations =  1.3

     negative rho (up, down):  2.219E-03 1.115E-03

     total cpu time spent up to now is      852.9 secs

     total energy              =   -6056.52451522 Ry
     estimated scf accuracy    <       0.00000205 Ry

     total magnetization       =    61.32 Bohr mag/cell
     absolute magnetization    =    68.86 Bohr mag/cell

     iteration # 48     ecut=    50.00 Ry     beta= 0.70
     Davidson diagonalization with overlap
     ethr =  4.24E-10,  avg # of iterations =  1.1

     negative rho (up, down):  2.179E-03 1.077E-03

     total cpu time spent up to now is      866.2 secs

     total energy              =   -6056.52451520 Ry
     estimated scf accuracy    <       0.00000020 Ry

     total magnetization       =    61.32 Bohr mag/cell
     absolute magnetization    =    68.86 Bohr mag/cell

     iteration # 49     ecut=    50.00 Ry     beta= 0.70
     Davidson diagonalization with overlap
     ethr =  5.91E-11,  avg # of iterations =  4.9

     negative rho (up, down):  2.213E-03 1.110E-03

     total cpu time spent up to now is      888.4 secs

     total energy              =   -6056.52451529 Ry
     estimated scf accuracy    <       0.00000053 Ry

     total magnetization       =    61.32 Bohr mag/cell
     absolute magnetization    =    68.86 Bohr mag/cell

     iteration # 50     ecut=    50.00 Ry     beta= 0.70
     Davidson diagonalization with overlap
     ethr =  5.91E-11,  avg # of iterations =  1.2

     negative rho (up, down):  2.207E-03 1.104E-03

     total cpu time spent up to now is      901.9 secs

     total energy              =   -6056.52451530 Ry
     estimated scf accuracy    <       0.00000006 Ry

     total magnetization       =    61.32 Bohr mag/cell
     absolute magnetization    =    68.86 Bohr mag/cell

     iteration # 51     ecut=    50.00 Ry     beta= 0.70
     Davidson diagonalization with overlap
     ethr =  1.84E-11,  avg # of iterations =  2.3

     negative rho (up, down):  2.205E-03 1.103E-03

     total cpu time spent up to now is      921.9 secs

     total energy              =   -6056.52451530 Ry
     estimated scf accuracy    <       0.00000008 Ry

     total magnetization       =    61.32 Bohr mag/cell
     absolute magnetization    =    68.86 Bohr mag/cell

     iteration # 52     ecut=    50.00 Ry     beta= 0.70
     Davidson diagonalization with overlap
     ethr =  1.84E-11,  avg # of iterations =  1.2

     negative rho (up, down):  2.206E-03 1.104E-03

     total cpu time spent up to now is      940.2 secs

     total energy              =   -6056.52451531 Ry
     estimated scf accuracy    <       0.00000001 Ry

     total magnetization       =    61.32 Bohr mag/cell
     absolute magnetization    =    68.86 Bohr mag/cell

     iteration # 53     ecut=    50.00 Ry     beta= 0.70
     Davidson diagonalization with overlap
     ethr =  3.77E-12,  avg # of iterations =  6.5

     negative rho (up, down):  2.206E-03 1.105E-03

     total cpu time spent up to now is      958.9 secs

     total energy              =   -6056.52451532 Ry
     estimated scf accuracy    <       0.00000001 Ry

     total magnetization       =    61.32 Bohr mag/cell
     absolute magnetization    =    68.86 Bohr mag/cell

     iteration # 54     ecut=    50.00 Ry     beta= 0.70
     Davidson diagonalization with overlap
     ethr =  3.77E-12,  avg # of iterations =  2.0

     negative rho (up, down):  2.206E-03 1.105E-03

     total cpu time spent up to now is      978.8 secs

     total energy              =   -6056.52451532 Ry
     estimated scf accuracy    <       0.00000001 Ry

     total magnetization       =    61.32 Bohr mag/cell
     absolute magnetization    =    68.86 Bohr mag/cell

     iteration # 55     ecut=    50.00 Ry     beta= 0.70
     Davidson diagonalization with overlap
     ethr =  3.77E-12,  avg # of iterations =  1.8

     negative rho (up, down):  2.205E-03 1.104E-03

     total cpu time spent up to now is      993.1 secs

     total energy              =   -6056.52451532 Ry
     estimated scf accuracy    <       0.00000001 Ry

     total magnetization       =    61.32 Bohr mag/cell
     absolute magnetization    =    68.86 Bohr mag/cell

     iteration # 56     ecut=    50.00 Ry     beta= 0.70
     Davidson diagonalization with overlap
     ethr =  3.77E-12,  avg # of iterations =  1.2

     negative rho (up, down):  2.212E-03 1.111E-03

     Magnetic moment per site  (integrated on atomic sphere of radius R)
     atom   1 (R=0.103)  charge=  6.2248  magn=  1.7696
     atom   2 (R=0.103)  charge=  6.2246  magn=  1.7616
     atom   3 (R=0.103)  charge=  6.2250  magn=  1.7649
     atom   4 (R=0.103)  charge=  6.2249  magn=  1.7689
     atom   5 (R=0.103)  charge=  6.2252  magn=  1.7647
     atom   6 (R=0.103)  charge=  6.2245  magn=  1.7693
     atom   7 (R=0.103)  charge=  6.2253  magn=  1.7716
     atom   8 (R=0.103)  charge=  6.2245  magn=  1.7700
     atom   9 (R=0.103)  charge=  6.2247  magn=  1.7644
     atom  10 (R=0.103)  charge=  6.2303  magn=  1.6926
     atom  11 (R=0.103)  charge=  6.2306  magn=  1.7063
     atom  12 (R=0.103)  charge=  6.2302  magn=  1.6993
     atom  13 (R=0.103)  charge=  6.2308  magn=  1.7048
     atom  14 (R=0.103)  charge=  6.2314  magn=  1.6852
     atom  15 (R=0.103)  charge=  6.2311  magn=  1.6948
     atom  16 (R=0.103)  charge=  6.2305  magn=  1.6968
     atom  17 (R=0.103)  charge=  6.2313  magn=  1.7015
     atom  18 (R=0.103)  charge=  6.2312  magn=  1.6903
     atom  19 (R=0.103)  charge=  6.2297  magn=  1.6856
     atom  20 (R=0.103)  charge=  6.2264  magn=  1.7335
     atom  21 (R=0.103)  charge=  6.2322  magn=  1.6602
     atom  22 (R=0.103)  charge=  6.2311  magn=  1.6931
     atom  23 (R=0.103)  charge=  6.2326  magn=  1.6642
     atom  24 (R=0.103)  charge=  6.2297  magn=  1.7080
     atom  25 (R=0.103)  charge=  6.2305  magn=  1.6926
     atom  26 (R=0.103)  charge=  6.2292  magn=  1.6892
     atom  27 (R=0.103)  charge=  6.2314  magn=  1.6699
     atom  28 (R=0.103)  charge=  6.2304  magn=  1.7922
     atom  29 (R=0.103)  charge=  6.2325  magn=  1.6918
     atom  30 (R=0.103)  charge=  6.2256  magn=  1.7747
     atom  31 (R=0.103)  charge=  6.2362  magn=  1.7364
     atom  32 (R=0.103)  charge=  6.2530  magn=  1.1080
     atom  33 (R=0.103)  charge=  6.2234  magn=  1.7789
     atom  34 (R=0.103)  charge=  6.2254  magn=  1.7667
     atom  35 (R=0.103)  charge=  6.2253  magn=  1.7792
     atom  36 (R=0.103)  charge=  6.2232  magn=  1.7960
     atom  37 (R=0.061)  charge=  0.8392  magn= -0.0228
     atom  38 (R=0.070)  charge=  3.2661  magn=  0.0080
     atom  39 (R=0.061)  charge=  0.5066  magn= -0.0019

     total cpu time spent up to now is     1010.9 secs

     End of self-consistent calculation

 ------ SPIN UP ------------


          k = 0.0000 0.0000 0.0000 ( 51087 PWs)   bands (ev):

   -21.4039 -10.0004  -7.4658  -6.7154  -6.1754  -5.5851  -5.2734  -4.5703
    -4.5488  -4.5476  -4.5444  -4.5438  -4.5179  -4.4939  -4.1856  -4.0302
    -4.0163  -4.0155  -4.0086  -3.9758  -3.9571  -3.5167  -3.5037  -3.5018
    -3.4910  -3.4738  -3.4465  -3.3712  -3.3691  -3.3628  -3.3611  -3.3560
    -3.3261  -3.2945  -3.2917  -2.9878  -2.9800  -2.9768  -2.9755  -2.9349
    -2.9231  -2.9222  -2.9126  -2.9062  -2.9047  -2.9023  -2.8975  -2.7523
    -2.7465  -2.7072  -2.7013  -2.6838  -2.6729  -2.6680  -2.6585  -2.6437
    -2.6413  -2.6344  -2.6233  -2.5423  -2.5419  -2.5406  -2.5316  -2.5264
    -2.4634  -2.1536  -2.0357  -2.0065  -2.0056  -1.9984  -1.9955  -1.8939
    -1.8777  -1.8680  -1.8577  -1.8405  -1.8325  -1.8192  -1.8148  -1.8120
    -1.7796  -1.7673  -1.7637  -1.7282  -1.7202  -1.7161  -1.7019  -1.6903
    -1.6852  -1.6767  -1.6748  -1.6639  -1.6507  -1.6440  -1.6420  -1.6385
    -1.6366  -1.6306  -1.6282  -1.6251  -1.6215  -1.6196  -1.6149  -1.6146
    -1.6039  -1.5638  -1.5452  -1.5444  -1.5316  -1.4674  -1.4618  -1.4183
    -1.2627  -1.2016  -1.1837  -1.1755  -1.1737  -1.1732  -1.1515  -1.1308
    -1.1298  -1.1237  -1.0942  -1.0827  -1.0792  -0.9769  -0.9640  -0.9542
    -0.9291  -0.9246  -0.8315  -0.7782  -0.7625  -0.7582  -0.7480  -0.7194
    -0.7039  -0.6896  -0.6854  -0.6822  -0.6762  -0.6513  -0.6013  -0.5683
    -0.5082  -0.4451  -0.4362  -0.4347  -0.4183  -0.3902  -0.3749  -0.3720
    -0.3666  -0.3650  -0.3617  -0.3571  -0.3530  -0.3499  -0.3474  -0.3385
    -0.3262  -0.3249  -0.3055  -0.3008  -0.2921  -0.2892  -0.2882  -0.2752
    -0.2648  -0.2641  -0.2410  -0.2378  -0.2320  -0.2235  -0.2174  -0.2142
    -0.2122  -0.2088  -0.1675  -0.1546  -0.1400  -0.1357  -0.1336  -0.1263
    -0.1254  -0.1192  -0.1121  -0.0968  -0.0925  -0.0740  -0.0401  -0.0391
    -0.0375  -0.0314   0.0237   0.0273   0.0304   0.0393   0.0557   0.0853
     0.4631   0.9425

          k = 0.0000 0.2309 0.0000 ( 51134 PWs)   bands (ev):

   -21.4039 -10.0011  -7.3214  -6.6888  -6.0986  -5.5721  -5.3247  -5.2079
    -4.7968  -4.7780  -4.4285  -4.2967  -4.2094  -4.2042  -4.1421  -4.0901
    -4.0571  -4.0157  -3.9416  -3.8939  -3.8710  -3.6260  -3.5170  -3.5022
    -3.4330  -3.4079  -3.3826  -3.3727  -3.3715  -3.3642  -3.3479  -3.3292
    -3.3000  -3.2542  -3.2487  -3.2272  -3.2222  -3.0431  -3.0036  -2.9929
    -2.9465  -2.9431  -2.9370  -2.9273  -2.8627  -2.8176  -2.8080  -2.7803
    -2.7723  -2.7653  -2.7406  -2.7273  -2.6439  -2.6306  -2.6097  -2.5701
    -2.5647  -2.5425  -2.5290  -2.5191  -2.4910  -2.4770  -2.4621  -2.4502
    -2.3990  -2.2150  -2.1292  -2.1078  -2.0938  -2.0647  -2.0322  -1.9764
    -1.9693  -1.9592  -1.9494  -1.9363  -1.9260  -1.9083  -1.8828  -1.8502
    -1.8215  -1.8160  -1.8020  -1.7669  -1.7589  -1.7511  -1.7440  -1.7365
    -1.7235  -1.7170  -1.7125  -1.7101  -1.7038  -1.6768  -1.6468  -1.6318
    -1.6100  -1.5901  -1.5502  -1.5359  -1.5277  -1.5213  -1.5189  -1.5030
    -1.4945  -1.4872  -1.4727  -1.4700  -1.4678  -1.4485  -1.4322  -1.4167
    -1.3984  -1.3912  -1.3646  -1.3267  -1.2927  -1.2451  -1.2224  -1.2001
    -1.1905  -1.1847  -1.1698  -1.1626  -1.1529  -1.1294  -1.0502  -1.0090
    -0.9871  -0.9680  -0.9454  -0.9108  -0.8932  -0.8533  -0.8299  -0.8029
    -0.7897  -0.7397  -0.7171  -0.7032  -0.6731  -0.6640  -0.6416  -0.6305
    -0.6259  -0.6005  -0.5854  -0.5517  -0.5391  -0.5319  -0.5149  -0.5106
    -0.4740  -0.4523  -0.4341  -0.4328  -0.4115  -0.3961  -0.3701  -0.3647
    -0.3556  -0.3475  -0.3435  -0.3395  -0.3188  -0.3087  -0.2917  -0.2658
    -0.2457  -0.2285  -0.2231  -0.1951  -0.1830  -0.1589  -0.1387  -0.1181
    -0.1071  -0.0999  -0.0910  -0.0822  -0.0696  -0.0587  -0.0509  -0.0340
    -0.0141   0.0200   0.0353   0.0435   0.0624   0.0698   0.1078   0.1196
     0.1339   0.1722   0.4101   0.4180   0.4960   0.5809   0.6609   0.6974
     0.7370   0.8837

          k = 0.0000 0.4619 0.0000 ( 51204 PWs)   bands (ev):

   -21.4039 -10.0022  -6.9398  -6.6221  -6.1468  -5.9038  -5.4230  -5.2170
    -4.9385  -4.9104  -4.8044  -4.1053  -4.0555  -4.0407  -3.9993  -3.9632
    -3.8516  -3.8489  -3.8096  -3.7228  -3.7156  -3.7028  -3.6175  -3.5367
    -3.5286  -3.5253  -3.5194  -3.4699  -3.4317  -3.4145  -3.4042  -3.2538
    -3.2489  -3.2411  -3.2200  -3.2052  -3.1953  -3.1109  -3.0992  -3.0842
    -3.0741  -3.0659  -2.9627  -2.8749  -2.8705  -2.7871  -2.7690  -2.7413
    -2.7269  -2.6903  -2.6852  -2.6795  -2.6609  -2.6496  -2.5952  -2.5810
    -2.5555  -2.5247  -2.5148  -2.4121  -2.3785  -2.3689  -2.3397  -2.3098
    -2.2687  -2.2594  -2.2364  -2.2156  -2.1874  -2.1476  -2.0920  -2.0879
    -2.0844  -2.0765  -2.0669  -2.0520  -2.0452  -2.0275  -1.9942  -1.9708
    -1.9612  -1.9353  -1.9124  -1.8917  -1.8707  -1.8427  -1.7833  -1.7689
    -1.7639  -1.7444  -1.7316  -1.7158  -1.6847  -1.6620  -1.6547  -1.6417
    -1.6310  -1.6170  -1.6022  -1.5860  -1.5775  -1.5689  -1.5587  -1.5318
    -1.5203  -1.5036  -1.4583  -1.4450  -1.4061  -1.3773  -1.3610  -1.3480
    -1.3363  -1.3230  -1.2764  -1.2591  -1.2370  -1.2287  -1.2211  -1.2157
    -1.2028  -1.1975  -1.1915  -1.1828  -1.1708  -1.1662  -1.1463  -1.1366
    -1.1175  -1.0947  -1.0428  -1.0180  -0.9826  -0.9790  -0.9692  -0.9405
    -0.9142  -0.8808  -0.8633  -0.8487  -0.8279  -0.8001  -0.7810  -0.7329
    -0.7040  -0.6760  -0.6654  -0.6424  -0.6292  -0.6129  -0.5993  -0.5226
    -0.5027  -0.4618  -0.4453  -0.4390  -0.4301  -0.4239  -0.4124  -0.4058
    -0.3859  -0.3622  -0.3053  -0.2957  -0.2787  -0.2620  -0.2537  -0.2476
    -0.2390  -0.2274  -0.2189  -0.2050  -0.1838  -0.1644  -0.1046  -0.0840
    -0.0774  -0.0625  -0.0457  -0.0148   0.0160   0.0304   0.0473   0.0790
     0.0968   0.1364   0.1408   0.1598   0.1633   0.1693   0.1869   0.2012
     0.2672   0.2912   0.3873   0.9697   1.1713   1.3454   1.4066   1.4312
     1.6589   1.7932

          k = 0.2000-0.1155 0.0000 ( 51134 PWs)   bands (ev):

   -21.4039 -10.0004  -7.3223  -6.6887  -6.1036  -5.5862  -5.3229  -5.1860
    -4.7995  -4.7881  -4.4223  -4.2803  -4.2112  -4.2045  -4.1389  -4.0883
    -4.0674  -4.0241  -3.9329  -3.8987  -3.8742  -3.6244  -3.5195  -3.5002
    -3.4272  -3.4007  -3.3871  -3.3737  -3.3710  -3.3620  -3.3551  -3.3304
    -3.2994  -3.2555  -3.2487  -3.2293  -3.2223  -3.0321  -3.0009  -2.9958
    -2.9536  -2.9476  -2.9344  -2.9292  -2.8523  -2.8176  -2.8089  -2.7794
    -2.7672  -2.7658  -2.7483  -2.7258  -2.6411  -2.6326  -2.6073  -2.5733
    -2.5629  -2.5478  -2.5310  -2.5200  -2.4928  -2.4805  -2.4590  -2.4519
    -2.3930  -2.2250  -2.1269  -2.1087  -2.0905  -2.0622  -2.0313  -1.9741
    -1.9687  -1.9583  -1.9476  -1.9438  -1.9252  -1.9053  -1.8720  -1.8499
    -1.8292  -1.8195  -1.8061  -1.7653  -1.7629  -1.7539  -1.7478  -1.7365
    -1.7239  -1.7160  -1.7120  -1.7098  -1.6900  -1.6721  -1.6524  -1.6359
    -1.6132  -1.5877  -1.5520  -1.5370  -1.5241  -1.5193  -1.5134  -1.5095
    -1.4893  -1.4829  -1.4745  -1.4694  -1.4594  -1.4465  -1.4305  -1.4178
    -1.4002  -1.3929  -1.3553  -1.3166  -1.3000  -1.2595  -1.2313  -1.2010
    -1.1894  -1.1761  -1.1714  -1.1638  -1.1573  -1.1290  -1.0499  -1.0159
    -0.9994  -0.9810  -0.9416  -0.9115  -0.8961  -0.8457  -0.8304  -0.8133
    -0.7921  -0.7217  -0.7112  -0.6932  -0.6699  -0.6604  -0.6469  -0.6336
    -0.6269  -0.6018  -0.5985  -0.5517  -0.5374  -0.5301  -0.5157  -0.5110
    -0.4735  -0.4500  -0.4379  -0.4314  -0.4069  -0.3909  -0.3719  -0.3661
    -0.3561  -0.3477  -0.3420  -0.3374  -0.3148  -0.3101  -0.2935  -0.2794
    -0.2487  -0.2295  -0.2225  -0.1937  -0.1734  -0.1637  -0.1420  -0.1211
    -0.1114  -0.0976  -0.0888  -0.0824  -0.0637  -0.0564  -0.0532  -0.0211
    -0.0157   0.0217   0.0315   0.0429   0.0627   0.0696   0.1074   0.1170
     0.1281   0.1709   0.4053   0.4189   0.5209   0.5893   0.6580   0.6923
     0.7745   0.8687

          k = 0.2000 0.1155 0.0000 ( 51134 PWs)   bands (ev):

   -21.4039 -10.0015  -7.3205  -6.6890  -6.0939  -5.5638  -5.2981  -5.2587
    -4.7896  -4.7719  -4.4319  -4.3124  -4.2101  -4.2014  -4.1427  -4.0924
    -4.0376  -4.0183  -3.9488  -3.8851  -3.8720  -3.6280  -3.5117  -3.5071
    -3.4343  -3.4099  -3.3792  -3.3772  -3.3708  -3.3615  -3.3443  -3.3289
    -3.2946  -3.2561  -3.2509  -3.2243  -3.2221  -3.0365  -2.9982  -2.9933
    -2.9475  -2.9415  -2.9353  -2.9307  -2.8600  -2.8219  -2.8097  -2.7856
    -2.7707  -2.7674  -2.7454  -2.7323  -2.6450  -2.6330  -2.6100  -2.5723
    -2.5679  -2.5373  -2.5279  -2.5086  -2.4951  -2.4775  -2.4602  -2.4530
    -2.4037  -2.2085  -2.1257  -2.1093  -2.0869  -2.0672  -2.0401  -1.9708
    -1.9650  -1.9627  -1.9463  -1.9350  -1.9330  -1.9135  -1.8686  -1.8576
    -1.8384  -1.8193  -1.7930  -1.7737  -1.7596  -1.7564  -1.7499  -1.7337
    -1.7207  -1.7181  -1.7165  -1.7072  -1.6936  -1.6790  -1.6496  -1.6228
    -1.6037  -1.5827  -1.5687  -1.5401  -1.5240  -1.5185  -1.5113  -1.5061
    -1.4900  -1.4851  -1.4798  -1.4708  -1.4690  -1.4433  -1.4271  -1.4162
    -1.4019  -1.3973  -1.3802  -1.3342  -1.2990  -1.2331  -1.2126  -1.1984
    -1.1854  -1.1843  -1.1714  -1.1643  -1.1584  -1.1425  -1.0491  -1.0321
    -0.9815  -0.9645  -0.9249  -0.9122  -0.8839  -0.8656  -0.8299  -0.8152
    -0.7640  -0.7394  -0.7138  -0.6923  -0.6717  -0.6652  -0.6431  -0.6337
    -0.6220  -0.6059  -0.5828  -0.5372  -0.5301  -0.5223  -0.5116  -0.5061
    -0.4995  -0.4530  -0.4383  -0.4308  -0.4185  -0.3927  -0.3768  -0.3632
    -0.3587  -0.3508  -0.3432  -0.3344  -0.3134  -0.3107  -0.2819  -0.2703
    -0.2566  -0.2301  -0.2195  -0.2023  -0.1749  -0.1711  -0.1343  -0.1130
    -0.1069  -0.1025  -0.0926  -0.0832  -0.0628  -0.0559  -0.0505  -0.0292
    -0.0087   0.0274   0.0370   0.0413   0.0670   0.0693   0.1052   0.1128
     0.1527   0.1658   0.4073   0.4148   0.4959   0.5607   0.6567   0.6728
     0.7413   0.9147

          k = 0.2000 0.3464 0.0000 ( 51202 PWs)   bands (ev):

   -21.4039 -10.0028  -7.0501  -6.6467  -5.9803  -5.6520  -5.6312  -5.3809
    -5.2430  -4.5116  -4.4679  -4.2124  -4.2061  -4.1663  -3.9994  -3.9912
    -3.9012  -3.8971  -3.8837  -3.7612  -3.7404  -3.6289  -3.6123  -3.5473
    -3.5074  -3.4133  -3.4110  -3.3939  -3.3811  -3.3637  -3.3449  -3.3231
    -3.3117  -3.2873  -3.2728  -3.2392  -3.2014  -3.1569  -3.1523  -3.0509
    -3.0296  -2.9389  -2.9274  -2.9060  -2.8876  -2.8805  -2.7883  -2.7445
    -2.7352  -2.7016  -2.6967  -2.6814  -2.6473  -2.6264  -2.6197  -2.6087
    -2.5842  -2.4955  -2.4750  -2.4194  -2.4133  -2.4036  -2.3633  -2.3529
    -2.3380  -2.2343  -2.2073  -2.1511  -2.1369  -2.1125  -2.0990  -2.0692
    -2.0573  -2.0457  -2.0366  -2.0246  -2.0063  -1.9891  -1.9852  -1.9670
    -1.9582  -1.9179  -1.8787  -1.8626  -1.7949  -1.7835  -1.7760  -1.7562
    -1.7467  -1.7153  -1.6993  -1.6795  -1.6609  -1.6466  -1.6366  -1.6265
    -1.6206  -1.6119  -1.6022  -1.5899  -1.5834  -1.5754  -1.5553  -1.5331
    -1.5286  -1.5120  -1.4871  -1.4591  -1.4412  -1.4222  -1.4151  -1.3914
    -1.3825  -1.3641  -1.3516  -1.3195  -1.3049  -1.2830  -1.2690  -1.2318
    -1.2266  -1.2139  -1.2087  -1.1967  -1.1782  -1.1604  -1.1461  -1.1086
    -1.0753  -1.0504  -1.0322  -0.9936  -0.9661  -0.9207  -0.9040  -0.8529
    -0.8027  -0.7912  -0.7843  -0.7665  -0.7572  -0.7418  -0.7326  -0.7202
    -0.6960  -0.6851  -0.6512  -0.6370  -0.6182  -0.6002  -0.5894  -0.5772
    -0.5655  -0.5456  -0.5208  -0.4988  -0.4902  -0.4543  -0.3883  -0.3690
    -0.3316  -0.3151  -0.2971  -0.2860  -0.2774  -0.2561  -0.2490  -0.2383
    -0.2291  -0.2182  -0.1634  -0.1403  -0.1312  -0.1253  -0.0883  -0.0751
    -0.0600  -0.0555  -0.0455  -0.0396  -0.0229  -0.0148  -0.0073   0.0109
     0.0202   0.0642   0.1027   0.1144   0.1235   0.1605   0.1643   0.1851
     0.4842   0.5082   0.5665   0.6159   0.8437   0.8665   1.1714   1.3746
     1.4040   1.6131

          k = 0.2000-0.5774 0.0000 ( 51262 PWs)   bands (ev):

   -21.4039 -10.0024  -6.7948  -6.4033  -6.3449  -5.8970  -5.6953  -5.3401
    -5.0729  -4.9359  -4.5299  -4.1962  -3.9612  -3.9115  -3.8225  -3.7849
    -3.7788  -3.7535  -3.7460  -3.7261  -3.6771  -3.6667  -3.6652  -3.6599
    -3.5826  -3.5539  -3.5192  -3.5145  -3.4881  -3.4800  -3.3760  -3.3490
    -3.3327  -3.3298  -3.3003  -3.2585  -3.1880  -3.1627  -3.0740  -3.0365
    -3.0322  -2.9701  -2.9521  -2.9343  -2.9050  -2.8259  -2.8187  -2.8102
    -2.7510  -2.7375  -2.6610  -2.6320  -2.6104  -2.5944  -2.5460  -2.5338
    -2.4701  -2.4530  -2.4461  -2.4340  -2.4311  -2.4071  -2.3804  -2.3123
    -2.2616  -2.2369  -2.2313  -2.2224  -2.2024  -2.1637  -2.1371  -2.0956
    -2.0838  -2.0557  -2.0494  -2.0381  -2.0238  -2.0024  -1.9791  -1.9722
    -1.9570  -1.9445  -1.9274  -1.9063  -1.9040  -1.8689  -1.8345  -1.8264
    -1.7995  -1.7637  -1.7459  -1.7171  -1.6950  -1.6791  -1.6619  -1.6474
    -1.6286  -1.6205  -1.6135  -1.6008  -1.5941  -1.5797  -1.5553  -1.5340
    -1.5032  -1.4757  -1.4622  -1.4556  -1.4499  -1.4357  -1.4293  -1.4196
    -1.4131  -1.4036  -1.3846  -1.3647  -1.3446  -1.3184  -1.2964  -1.2763
    -1.2427  -1.2123  -1.1806  -1.1661  -1.1445  -1.1355  -1.1241  -1.0847
    -1.0605  -1.0534  -1.0436  -1.0123  -0.9617  -0.9219  -0.9017  -0.8913
    -0.8795  -0.8665  -0.8580  -0.8329  -0.8145  -0.7982  -0.7683  -0.7436
    -0.7241  -0.6987  -0.6898  -0.6838  -0.6516  -0.6254  -0.6148  -0.5976
    -0.5800  -0.5609  -0.5469  -0.5402  -0.5048  -0.4764  -0.4559  -0.3712
    -0.3235  -0.2940  -0.2844  -0.2724  -0.2648  -0.2609  -0.2495  -0.2327
    -0.2055  -0.1971  -0.1852  -0.1805  -0.1351  -0.1244  -0.0627  -0.0532
    -0.0466  -0.0270  -0.0166  -0.0040   0.0346   0.0424   0.0503   0.0534
     0.0726   0.1236   0.1409   0.1499   0.1624   0.1692   0.1968   0.2261
     0.3152   0.5397   0.6422   0.8866   1.3475   1.4595   1.4965   1.8238
     1.9187   1.9876

          k = 0.2000-0.3464 0.0000 ( 51202 PWs)   bands (ev):

   -21.4039 -10.0010  -7.0548  -6.6468  -5.9955  -5.6795  -5.6247  -5.3805
    -5.1987  -4.5383  -4.4347  -4.2154  -4.2109  -4.1600  -3.9965  -3.9927
    -3.9007  -3.8870  -3.8748  -3.7685  -3.7569  -3.6216  -3.6187  -3.5516
    -3.5074  -3.4213  -3.4097  -3.3851  -3.3803  -3.3554  -3.3489  -3.3314
    -3.3185  -3.2923  -3.2725  -3.2407  -3.2065  -3.1635  -3.1451  -3.0464
    -3.0300  -2.9385  -2.9340  -2.9060  -2.8937  -2.8625  -2.7769  -2.7410
    -2.7243  -2.7057  -2.6982  -2.6760  -2.6522  -2.6399  -2.6164  -2.5985
    -2.5919  -2.5032  -2.4717  -2.4202  -2.4138  -2.3869  -2.3715  -2.3481
    -2.3351  -2.2579  -2.2043  -2.1509  -2.1346  -2.1176  -2.0986  -2.0740
    -2.0618  -2.0412  -2.0275  -2.0203  -2.0130  -1.9947  -1.9786  -1.9766
    -1.9524  -1.9238  -1.8704  -1.8169  -1.7926  -1.7823  -1.7668  -1.7505
    -1.7397  -1.7193  -1.7057  -1.6844  -1.6647  -1.6539  -1.6384  -1.6273
    -1.6261  -1.6158  -1.6079  -1.5911  -1.5793  -1.5708  -1.5578  -1.5384
    -1.5272  -1.5125  -1.4917  -1.4602  -1.4420  -1.4209  -1.3981  -1.3901
    -1.3759  -1.3674  -1.3552  -1.3065  -1.2946  -1.2843  -1.2632  -1.2445
    -1.2297  -1.2181  -1.2082  -1.1926  -1.1819  -1.1680  -1.1452  -1.1032
    -1.0887  -1.0500  -1.0478  -1.0061  -0.9677  -0.9258  -0.9022  -0.8487
    -0.8081  -0.7907  -0.7825  -0.7697  -0.7604  -0.7475  -0.7352  -0.7189
    -0.7019  -0.6814  -0.6525  -0.6407  -0.6240  -0.6010  -0.5936  -0.5775
    -0.5678  -0.5460  -0.5108  -0.4985  -0.4921  -0.4563  -0.3995  -0.3410
    -0.3363  -0.3151  -0.2985  -0.2893  -0.2773  -0.2639  -0.2543  -0.2403
    -0.2239  -0.2114  -0.1536  -0.1469  -0.1358  -0.1322  -0.0892  -0.0701
    -0.0612  -0.0538  -0.0494  -0.0354  -0.0238  -0.0162  -0.0086   0.0042
     0.0255   0.0860   0.1072   0.1126   0.1226   0.1551   0.1688   0.1990
     0.4809   0.5077   0.5190   0.7235   0.7922   0.8655   1.1461   1.3798
     1.3991   1.6129

          k = 0.4000-0.2309 0.0000 ( 51204 PWs)   bands (ev):

   -21.4039 -10.0004  -6.9429  -6.6230  -6.1583  -5.9105  -5.4494  -5.1708
    -4.9370  -4.9274  -4.7808  -4.0947  -4.0677  -4.0433  -4.0087  -3.9550
    -3.8546  -3.8484  -3.8064  -3.7243  -3.7164  -3.7030  -3.6084  -3.5374
    -3.5293  -3.5261  -3.5207  -3.4671  -3.4257  -3.4093  -3.4042  -3.2660
    -3.2483  -3.2441  -3.2276  -3.2070  -3.1956  -3.1034  -3.0925  -3.0856
    -3.0729  -3.0658  -2.9516  -2.8884  -2.8635  -2.7859  -2.7661  -2.7446
    -2.7270  -2.6907  -2.6848  -2.6806  -2.6672  -2.6491  -2.5964  -2.5801
    -2.5488  -2.5294  -2.5109  -2.4057  -2.3779  -2.3731  -2.3343  -2.3082
    -2.2618  -2.2462  -2.2392  -2.2180  -2.2012  -2.1528  -2.1085  -2.0871
    -2.0844  -2.0792  -2.0759  -2.0550  -2.0434  -2.0247  -1.9887  -1.9667
    -1.9576  -1.9385  -1.9134  -1.9032  -1.8703  -1.8454  -1.7829  -1.7746
    -1.7657  -1.7369  -1.7288  -1.7088  -1.6846  -1.6606  -1.6515  -1.6424
    -1.6269  -1.6151  -1.5943  -1.5903  -1.5730  -1.5670  -1.5533  -1.5308
    -1.5264  -1.4944  -1.4826  -1.4598  -1.3990  -1.3770  -1.3554  -1.3466
    -1.3350  -1.3179  -1.2865  -1.2610  -1.2400  -1.2271  -1.2197  -1.2161
    -1.2059  -1.2021  -1.1872  -1.1799  -1.1703  -1.1613  -1.1502  -1.1393
    -1.1116  -1.0889  -1.0371  -1.0225  -0.9870  -0.9784  -0.9643  -0.9386
    -0.9119  -0.8891  -0.8669  -0.8517  -0.8319  -0.7990  -0.7769  -0.7361
    -0.7132  -0.6798  -0.6602  -0.6438  -0.6263  -0.6159  -0.6002  -0.5290
    -0.4933  -0.4656  -0.4498  -0.4339  -0.4312  -0.4240  -0.4156  -0.4093
    -0.3851  -0.3706  -0.3011  -0.2917  -0.2749  -0.2688  -0.2607  -0.2532
    -0.2416  -0.2284  -0.2185  -0.1996  -0.1790  -0.1571  -0.1076  -0.0833
    -0.0818  -0.0629  -0.0474  -0.0016   0.0159   0.0389   0.0480   0.0910
     0.0977   0.1358   0.1401   0.1610   0.1634   0.1709   0.1898   0.1991
     0.2673   0.2938   0.4168   0.9193   1.1967   1.3756   1.4068   1.4328
     1.6656   1.7749

          k = 0.4000 0.0000 0.0000 ( 51202 PWs)   bands (ev):

   -21.4039 -10.0016  -7.0525  -6.6467  -5.9890  -5.6716  -5.6242  -5.3810
    -5.2219  -4.5295  -4.4445  -4.2137  -4.2083  -4.1637  -3.9978  -3.9907
    -3.9009  -3.8914  -3.8792  -3.7616  -3.7519  -3.6277  -3.6132  -3.5489
    -3.5083  -3.4176  -3.4111  -3.3860  -3.3804  -3.3626  -3.3441  -3.3262
    -3.3138  -3.2882  -3.2753  -3.2384  -3.2022  -3.1585  -3.1511  -3.0419
    -3.0274  -2.9385  -2.9304  -2.9088  -2.8801  -2.8758  -2.7845  -2.7438
    -2.7348  -2.7037  -2.6969  -2.6831  -2.6494  -2.6341  -2.6202  -2.6086
    -2.5856  -2.5016  -2.4753  -2.4193  -2.4113  -2.3998  -2.3637  -2.3520
    -2.3388  -2.2496  -2.1996  -2.1501  -2.1333  -2.1131  -2.0989  -2.0696
    -2.0603  -2.0428  -2.0352  -2.0204  -2.0073  -1.9923  -1.9816  -1.9676
    -1.9604  -1.9205  -1.8765  -1.8503  -1.7936  -1.7912  -1.7805  -1.7534
    -1.7435  -1.7155  -1.6928  -1.6820  -1.6730  -1.6434  -1.6387  -1.6269
    -1.6206  -1.6063  -1.6048  -1.5904  -1.5837  -1.5747  -1.5488  -1.5338
    -1.5279  -1.5112  -1.4846  -1.4563  -1.4413  -1.4139  -1.4080  -1.3900
    -1.3837  -1.3699  -1.3476  -1.3226  -1.3032  -1.2874  -1.2706  -1.2445
    -1.2246  -1.2204  -1.2091  -1.1989  -1.1839  -1.1572  -1.1464  -1.1073
    -1.0802  -1.0522  -1.0366  -1.0115  -0.9638  -0.9139  -0.9016  -0.8592
    -0.8025  -0.7896  -0.7832  -0.7693  -0.7601  -0.7412  -0.7301  -0.7073
    -0.6965  -0.6875  -0.6515  -0.6359  -0.6187  -0.6039  -0.5890  -0.5747
    -0.5604  -0.5399  -0.5156  -0.5025  -0.4943  -0.4613  -0.4065  -0.3503
    -0.3316  -0.3144  -0.3008  -0.2868  -0.2769  -0.2652  -0.2498  -0.2427
    -0.2301  -0.2149  -0.1610  -0.1377  -0.1306  -0.1247  -0.0892  -0.0695
    -0.0617  -0.0538  -0.0457  -0.0292  -0.0229  -0.0143  -0.0061   0.0040
     0.0219   0.0724   0.1024   0.1130   0.1312   0.1606   0.1669   0.1842
     0.4775   0.5095   0.5392   0.6876   0.8300   0.8628   1.1496   1.3728
     1.4137   1.5886

          k = 0.4000 0.2309 0.0000 ( 51204 PWs)   bands (ev):

   -21.4039 -10.0033  -6.9370  -6.6218  -6.1344  -5.9012  -5.3886  -5.2789
    -4.9378  -4.8945  -4.8295  -4.1107  -4.0374  -4.0315  -4.0025  -3.9701
    -3.8524  -3.8456  -3.8075  -3.7206  -3.7089  -3.7055  -3.6278  -3.5325
    -3.5305  -3.5214  -3.5197  -3.4677  -3.4414  -3.4131  -3.4037  -3.2488
    -3.2471  -3.2310  -3.2158  -3.2014  -3.1910  -3.1072  -3.0889  -3.0806
    -3.0724  -3.0691  -2.9577  -2.8792  -2.8720  -2.7941  -2.7771  -2.7471
    -2.7361  -2.6961  -2.6904  -2.6792  -2.6607  -2.6498  -2.5871  -2.5829
    -2.5596  -2.5304  -2.5185  -2.4096  -2.3797  -2.3610  -2.3550  -2.3099
    -2.2699  -2.2525  -2.2413  -2.2277  -2.1638  -2.1396  -2.1257  -2.0924
    -2.0887  -2.0784  -2.0637  -2.0581  -2.0393  -2.0238  -2.0074  -1.9661
    -1.9514  -1.9337  -1.9117  -1.8764  -1.8696  -1.8444  -1.7914  -1.7749
    -1.7693  -1.7519  -1.7324  -1.7220  -1.6810  -1.6585  -1.6472  -1.6403
    -1.6321  -1.6155  -1.6037  -1.5850  -1.5754  -1.5627  -1.5508  -1.5402
    -1.5184  -1.5021  -1.4594  -1.4464  -1.3890  -1.3768  -1.3548  -1.3450
    -1.3364  -1.3246  -1.2914  -1.2576  -1.2398  -1.2294  -1.2186  -1.2171
    -1.2051  -1.2022  -1.1907  -1.1862  -1.1798  -1.1671  -1.1419  -1.1374
    -1.1273  -1.0996  -1.0403  -1.0116  -0.9825  -0.9784  -0.9584  -0.9475
    -0.9268  -0.8695  -0.8548  -0.8338  -0.8281  -0.7892  -0.7778  -0.7357
    -0.7146  -0.6694  -0.6440  -0.6420  -0.6202  -0.6154  -0.5749  -0.5608
    -0.4934  -0.4602  -0.4423  -0.4360  -0.4318  -0.4240  -0.4127  -0.4088
    -0.3954  -0.3594  -0.3133  -0.2889  -0.2761  -0.2688  -0.2651  -0.2527
    -0.2419  -0.2174  -0.2095  -0.1995  -0.1870  -0.1766  -0.1017  -0.0866
    -0.0760  -0.0693  -0.0400  -0.0156   0.0157   0.0306   0.0524   0.0764
     0.0969   0.1373   0.1385   0.1613   0.1638   0.1686   0.1867   0.2177
     0.2669   0.2853   0.3959   0.9776   1.2037   1.3357   1.3925   1.4107
     1.7046   1.7604

          k = 0.4000-0.6928 0.0000 ( 51262 PWs)   bands (ev):

   -21.4039 -10.0031  -6.7938  -6.3997  -6.3374  -5.9131  -5.6870  -5.2876
    -5.1378  -4.9537  -4.5060  -4.1950  -3.9601  -3.9171  -3.8237  -3.7867
    -3.7774  -3.7550  -3.7426  -3.7296  -3.6767  -3.6685  -3.6649  -3.6549
    -3.5805  -3.5587  -3.5159  -3.5106  -3.4857  -3.4838  -3.3774  -3.3501
    -3.3296  -3.3266  -3.2946  -3.2603  -3.1783  -3.1585  -3.0737  -3.0346
    -3.0325  -2.9686  -2.9551  -2.9325  -2.8994  -2.8349  -2.8243  -2.8062
    -2.7565  -2.7473  -2.6568  -2.6348  -2.6091  -2.5929  -2.5430  -2.5386
    -2.4716  -2.4529  -2.4449  -2.4365  -2.4311  -2.4162  -2.3900  -2.3158
    -2.2545  -2.2390  -2.2312  -2.2231  -2.1868  -2.1603  -2.1356  -2.1023
    -2.0855  -2.0542  -2.0485  -2.0395  -2.0348  -2.0018  -1.9848  -1.9691
    -1.9562  -1.9505  -1.9365  -1.9084  -1.9004  -1.8707  -1.8367  -1.8234
    -1.8046  -1.7633  -1.7337  -1.7287  -1.7090  -1.6635  -1.6595  -1.6464
    -1.6273  -1.6227  -1.6165  -1.5999  -1.5921  -1.5644  -1.5517  -1.5266
    -1.5044  -1.4750  -1.4604  -1.4546  -1.4379  -1.4359  -1.4326  -1.4203
    -1.4076  -1.3984  -1.3787  -1.3707  -1.3501  -1.3205  -1.2938  -1.2893
    -1.2557  -1.2148  -1.1797  -1.1577  -1.1516  -1.1399  -1.1299  -1.0842
    -1.0640  -1.0527  -1.0388  -1.0143  -0.9434  -0.9232  -0.9027  -0.8960
    -0.8858  -0.8704  -0.8464  -0.8364  -0.8118  -0.7861  -0.7667  -0.7536
    -0.7257  -0.7010  -0.6854  -0.6785  -0.6518  -0.6168  -0.6087  -0.5852
    -0.5737  -0.5667  -0.5526  -0.5386  -0.4916  -0.4825  -0.4669  -0.3773
    -0.3193  -0.2988  -0.2852  -0.2772  -0.2705  -0.2612  -0.2488  -0.2305
    -0.2129  -0.1952  -0.1825  -0.1767  -0.1411  -0.1178  -0.0638  -0.0498
    -0.0365  -0.0255  -0.0223   0.0003   0.0314   0.0413   0.0507   0.0564
     0.0738   0.1075   0.1428   0.1463   0.1611   0.1760   0.1936   0.2212
     0.3219   0.5389   0.6529   0.9227   1.3087   1.4551   1.4917   1.8273
     1.9276   1.9935

          k = 0.4000-0.4619 0.0000 ( 51262 PWs)   bands (ev):

   -21.4039 -10.0013  -6.7961  -6.4094  -6.3487  -5.8873  -5.6986  -5.3866
    -5.0015  -4.9370  -4.5531  -4.2001  -3.9602  -3.9061  -3.8076  -3.7840
    -3.7790  -3.7532  -3.7460  -3.7244  -3.6853  -3.6671  -3.6661  -3.6614
    -3.5800  -3.5544  -3.5170  -3.5159  -3.4882  -3.4788  -3.3794  -3.3456
    -3.3340  -3.3277  -3.3052  -3.2599  -3.1991  -3.1613  -3.0546  -3.0367
    -3.0311  -2.9823  -2.9517  -2.9277  -2.9057  -2.8256  -2.8190  -2.8142
    -2.7483  -2.7384  -2.6637  -2.6338  -2.6095  -2.5950  -2.5460  -2.5342
    -2.4614  -2.4540  -2.4451  -2.4361  -2.4272  -2.4038  -2.3773  -2.3109
    -2.2569  -2.2386  -2.2276  -2.2184  -2.2142  -2.1623  -2.1425  -2.1031
    -2.0928  -2.0571  -2.0512  -2.0377  -2.0146  -1.9989  -1.9781  -1.9693
    -1.9604  -1.9498  -1.9282  -1.9088  -1.9037  -1.8862  -1.8377  -1.8219
    -1.7956  -1.7662  -1.7390  -1.7144  -1.6989  -1.6744  -1.6616  -1.6408
    -1.6315  -1.6206  -1.6117  -1.6018  -1.5911  -1.5803  -1.5589  -1.5409
    -1.5048  -1.4774  -1.4619  -1.4573  -1.4406  -1.4335  -1.4285  -1.4204
    -1.4131  -1.4001  -1.3864  -1.3667  -1.3360  -1.3216  -1.2913  -1.2796
    -1.2354  -1.2102  -1.1908  -1.1666  -1.1412  -1.1322  -1.1244  -1.0933
    -1.0608  -1.0515  -1.0407  -1.0134  -0.9667  -0.9199  -0.9107  -0.8879
    -0.8774  -0.8719  -0.8597  -0.8329  -0.8145  -0.7982  -0.7688  -0.7411
    -0.7259  -0.7011  -0.6843  -0.6773  -0.6601  -0.6308  -0.6036  -0.5995
    -0.5815  -0.5602  -0.5507  -0.5403  -0.5046  -0.4732  -0.4610  -0.3792
    -0.3205  -0.2924  -0.2890  -0.2767  -0.2655  -0.2619  -0.2535  -0.2259
    -0.2126  -0.1956  -0.1848  -0.1759  -0.1317  -0.1261  -0.0624  -0.0569
    -0.0381  -0.0292  -0.0210  -0.0075   0.0380   0.0422   0.0485   0.0590
     0.0709   0.1391   0.1457   0.1577   0.1667   0.1719   0.1970   0.2297
     0.3221   0.5390   0.6176   0.8962   1.3676   1.4561   1.5131   1.7593
     1.9344   1.9931

 ------ SPIN DOWN ----------


          k = 0.0000 0.0000 0.0000 ( 51087 PWs)   bands (ev):

   -21.4000 -10.0851  -7.5935  -6.7279  -6.2250  -5.5795  -5.2634  -4.3739
    -4.3511  -4.3481  -4.3467  -4.3430  -4.3137  -4.2169  -3.4999  -3.4754
    -3.4751  -3.4712  -3.4434  -3.4208  -3.3178  -2.5616  -2.5297  -2.5244
    -2.5188  -2.4946  -2.4447  -2.0696  -2.0610  -2.0587  -2.0565  -2.0512
    -2.0357  -1.8840  -1.8565  -1.7870  -1.7749  -1.7742  -1.7623  -1.7077
    -1.6662  -1.6485  -1.6192  -1.5878  -1.5823  -1.5376  -1.5093  -1.5076
    -1.4993  -1.4812  -1.3058  -1.2514  -1.2441  -1.2390  -1.2359  -1.2270
    -1.2264  -1.2129  -1.2000  -1.1694  -1.1659  -1.1508  -1.1469  -1.1347
    -1.0974  -0.9922  -0.6152  -0.5840  -0.5710  -0.5615  -0.5452  -0.4239
    -0.3655  -0.2660  -0.2483  -0.2440  -0.2328  -0.2289  -0.2281  -0.1851
    -0.1750  -0.1716  -0.1584  -0.1504  -0.1491  -0.1439  -0.0946  -0.0609
    -0.0474  -0.0425  -0.0366  -0.0277  -0.0014   0.0102   0.0124   0.0172
     0.0182   0.0230   0.0427   0.0453   0.0488   0.0580   0.0974   0.1122
     0.1850   0.2031   0.2221   0.2579   0.2640   0.2741   0.2769   0.2774
     0.2796   0.2822   0.2829   0.3419   0.3517   0.3530   0.4026   0.4250
     0.4432   0.4580   0.4687   0.4931   0.5764   0.6638   0.6690   0.7166
     0.7494   0.7518   0.7603   0.7620   0.7985   0.9235   1.0649   1.0837
     1.1060   1.1097   1.2889   1.2992   1.3134   1.3184   1.3271   1.3292
     1.3368   1.4813   1.4827   1.4944   1.4969   1.5007   1.5216   1.5295
     1.5312   1.5586   1.5754   1.5863   1.6152   1.6320   1.6377   1.6463
     1.6504   1.6532   1.6544   1.6675   1.6984   1.7143   1.7421   1.7520
     1.7563   1.7676   1.7713   1.7739   1.7758   1.7825   1.7857   1.8224
     1.8300   1.8518   1.8565   1.8572   1.8714   1.8724   1.8758   1.9079
     1.9103   1.9158   1.9237   1.9265   1.9288   1.9394   1.9419   1.9481
     1.9516   1.9964   2.0029   2.0427   2.1502   2.1524   2.1601   2.1629
     2.1645   2.1685

          k = 0.0000 0.2309 0.0000 ( 51134 PWs)   bands (ev):

   -21.4000 -10.0858  -7.4463  -6.6974  -6.1447  -5.5865  -5.3310  -5.2129
    -4.7336  -4.7119  -4.2125  -4.0813  -3.8053  -3.7950  -3.7149  -3.6579
    -3.5085  -3.2563  -3.1410  -3.1062  -3.0269  -2.7586  -2.5533  -2.5121
    -2.4736  -2.4281  -2.3959  -2.1905  -2.1052  -2.0948  -2.0875  -2.0550
    -2.0435  -2.0144  -2.0004  -1.9671  -1.9542  -1.8503  -1.8152  -1.7409
    -1.7327  -1.7123  -1.6645  -1.5701  -1.5464  -1.5338  -1.4929  -1.4436
    -1.3931  -1.3800  -1.3277  -1.2915  -1.2823  -1.2590  -1.2379  -1.2346
    -1.2195  -1.1886  -1.1370  -1.1249  -1.0943  -1.0692  -1.0524  -1.0210
    -0.9801  -0.8973  -0.7008  -0.6264  -0.6135  -0.5880  -0.5652  -0.5275
    -0.4602  -0.4459  -0.3963  -0.3738  -0.2740  -0.2667  -0.2553  -0.2375
    -0.2300  -0.2136  -0.1996  -0.1827  -0.1717  -0.1554  -0.1262  -0.0720
    -0.0494  -0.0391  -0.0286  -0.0149   0.0055   0.0245   0.0308   0.0445
     0.0471   0.0554   0.0585   0.0659   0.0681   0.0772   0.1160   0.1280
     0.1458   0.1609   0.1684   0.1786   0.2031   0.2145   0.2331   0.2495
     0.2743   0.2914   0.3424   0.3619   0.3689   0.3919   0.4007   0.4192
     0.4677   0.5541   0.5961   0.6314   0.6375   0.6709   0.6913   0.7133
     0.7206   0.7373   0.7413   0.7459   0.7926   0.9738   1.0475   1.0712
     1.0756   1.0841   1.0956   1.1158   1.1357   1.1673   1.2320   1.2631
     1.2895   1.3074   1.3535   1.3604   1.3882   1.4108   1.4399   1.4603
     1.4979   1.5268   1.5384   1.5548   1.5648   1.5785   1.5998   1.6087
     1.6412   1.6750   1.6840   1.7111   1.7340   1.7426   1.7524   1.7909
     1.8002   1.8105   1.8167   1.8270   1.8393   1.8742   1.8987   1.9084
     1.9136   1.9241   1.9463   1.9623   1.9700   1.9809   1.9970   2.0088
     2.0193   2.0571   2.0612   2.0688   2.0837   2.0903   2.1004   2.1127
     2.1257   2.1506   2.1565   2.1703   2.2364   2.2551   2.2632   2.2847
     2.3390   2.3532

          k = 0.0000 0.4619 0.0000 ( 51204 PWs)   bands (ev):

   -21.4000 -10.0869  -7.0356  -6.6540  -6.2363  -5.9315  -5.4579  -5.2258
    -4.9508  -4.9138  -4.7921  -3.8708  -3.8336  -3.7268  -3.2519  -3.1845
    -3.1757  -3.0615  -2.9198  -2.8709  -2.7478  -2.7261  -2.5853  -2.5769
    -2.5325  -2.5043  -2.4599  -2.4270  -2.3511  -2.3315  -2.2930  -2.2630
    -2.2470  -2.0596  -2.0405  -1.9667  -1.9590  -1.8514  -1.8444  -1.8363
    -1.8229  -1.8104  -1.6853  -1.5586  -1.5227  -1.4971  -1.4806  -1.4376
    -1.3195  -1.3112  -1.2867  -1.2825  -1.2702  -1.2493  -1.2424  -1.2205
    -1.1902  -1.1249  -1.1197  -1.1120  -1.0863  -1.0467  -0.9453  -0.9162
    -0.8077  -0.7791  -0.7060  -0.6526  -0.6342  -0.6042  -0.5851  -0.5665
    -0.5553  -0.5294  -0.4950  -0.4680  -0.4508  -0.4089  -0.3776  -0.3679
    -0.3320  -0.3060  -0.2899  -0.2827  -0.2578  -0.2097  -0.1737  -0.1241
    -0.1002  -0.0813  -0.0487  -0.0234  -0.0148   0.0219   0.0363   0.0615
     0.0801   0.0985   0.1007   0.1174   0.1274   0.1361   0.1617   0.1776
     0.1868   0.2085   0.2209   0.2282   0.2371   0.2446   0.2546   0.2749
     0.2945   0.3095   0.3647   0.3912   0.4381   0.4454   0.4698   0.4924
     0.4946   0.5200   0.5293   0.5427   0.5999   0.6045   0.6111   0.6461
     0.6644   0.6749   0.7049   0.7145   0.7471   0.7535   0.8473   0.8923
     0.9368   0.9398   1.0291   1.0677   1.1303   1.1552   1.1701   1.1788
     1.1967   1.2043   1.2419   1.2754   1.2859   1.3590   1.4290   1.4523
     1.4684   1.4777   1.5242   1.5437   1.5759   1.5876   1.6096   1.6279
     1.6597   1.6712   1.7036   1.7393   1.7766   1.7888   1.8079   1.8249
     1.8318   1.8396   1.8466   1.8753   1.9005   1.9104   1.9194   1.9464
     1.9614   2.0039   2.0299   2.0519   2.0688   2.0935   2.0974   2.1105
     2.1150   2.1241   2.1516   2.1604   2.1714   2.1834   2.1897   2.1930
     2.2166   2.2398   2.3372   2.3974   2.4021   2.5214   2.6330   2.8367
     2.9292   2.9745

          k = 0.2000-0.1155 0.0000 ( 51134 PWs)   bands (ev):

   -21.4000 -10.0851  -7.4471  -6.6974  -6.1500  -5.6038  -5.3248  -5.1896
    -4.7377  -4.7231  -4.2018  -4.0612  -3.8055  -3.7960  -3.7264  -3.6753
    -3.5042  -3.2555  -3.1457  -3.1121  -3.0149  -2.7386  -2.5655  -2.5197
    -2.4621  -2.4367  -2.3992  -2.1835  -2.1058  -2.0962  -2.0854  -2.0568
    -2.0430  -2.0181  -2.0003  -1.9684  -1.9562  -1.8537  -1.8147  -1.7361
    -1.7320  -1.6935  -1.6471  -1.5876  -1.5431  -1.5332  -1.4977  -1.4308
    -1.4026  -1.3816  -1.3262  -1.3072  -1.2817  -1.2558  -1.2406  -1.2334
    -1.2160  -1.1985  -1.1415  -1.1236  -1.0935  -1.0662  -1.0552  -1.0197
    -0.9834  -0.8935  -0.7012  -0.6275  -0.6114  -0.5874  -0.5642  -0.5244
    -0.4650  -0.4462  -0.3964  -0.3787  -0.2848  -0.2634  -0.2576  -0.2394
    -0.2252  -0.2122  -0.1987  -0.1819  -0.1756  -0.1557  -0.1216  -0.0715
    -0.0458  -0.0396  -0.0241  -0.0161  -0.0007   0.0219   0.0309   0.0415
     0.0535   0.0563   0.0598   0.0674   0.0680   0.0747   0.1166   0.1246
     0.1470   0.1615   0.1729   0.1780   0.1991   0.2228   0.2312   0.2461
     0.2737   0.2808   0.3375   0.3460   0.3758   0.3912   0.4002   0.4187
     0.4733   0.5660   0.6165   0.6322   0.6396   0.6595   0.6905   0.7136
     0.7254   0.7346   0.7398   0.7468   0.7825   0.9691   1.0506   1.0727
     1.0770   1.0848   1.1005   1.1146   1.1355   1.1697   1.2416   1.2638
     1.2891   1.3128   1.3545   1.3614   1.3889   1.4089   1.4374   1.4592
     1.4991   1.5304   1.5447   1.5563   1.5643   1.5787   1.5998   1.6091
     1.6320   1.6628   1.7005   1.7133   1.7361   1.7404   1.7556   1.7766
     1.8022   1.8105   1.8183   1.8220   1.8416   1.8730   1.8983   1.9070
     1.9119   1.9292   1.9436   1.9614   1.9698   1.9820   1.9990   2.0071
     2.0201   2.0602   2.0612   2.0711   2.0850   2.0916   2.1015   2.1205
     2.1360   2.1505   2.1555   2.1715   2.2236   2.2552   2.2615   2.2907
     2.3296   2.3524

          k = 0.2000 0.1155 0.0000 ( 51134 PWs)   bands (ev):

   -21.4000 -10.0863  -7.4454  -6.6976  -6.1399  -5.5754  -5.3114  -5.2623
    -4.7190  -4.7084  -4.2175  -4.1051  -3.8020  -3.7967  -3.6869  -3.6541
    -3.5140  -3.2557  -3.1295  -3.1106  -3.0367  -2.7678  -2.5362  -2.5150
    -2.4754  -2.4217  -2.4020  -2.1876  -2.0955  -2.0888  -2.0849  -2.0537
    -2.0480  -2.0173  -2.0007  -1.9664  -1.9614  -1.8552  -1.8122  -1.7531
    -1.7312  -1.7205  -1.6418  -1.5993  -1.5559  -1.5341  -1.4809  -1.4209
    -1.3998  -1.3755  -1.3244  -1.3143  -1.2772  -1.2581  -1.2415  -1.2342
    -1.2249  -1.1765  -1.1561  -1.1209  -1.1000  -1.0613  -1.0499  -1.0169
    -0.9749  -0.8887  -0.7094  -0.6265  -0.6142  -0.5899  -0.5622  -0.5287
    -0.4779  -0.4372  -0.3934  -0.3793  -0.2917  -0.2595  -0.2528  -0.2508
    -0.2118  -0.2051  -0.1982  -0.1858  -0.1792  -0.1464  -0.1368  -0.0703
    -0.0501  -0.0397  -0.0255  -0.0177  -0.0103   0.0303   0.0360   0.0421
     0.0504   0.0542   0.0612   0.0668   0.0689   0.0786   0.1188   0.1247
     0.1465   0.1588   0.1757   0.1768   0.1814   0.2276   0.2377   0.2511
     0.2750   0.2844   0.3390   0.3741   0.3828   0.3863   0.3953   0.4185
     0.4563   0.5578   0.5970   0.6319   0.6385   0.6871   0.6950   0.7167
     0.7266   0.7349   0.7417   0.7495   0.7797   0.9691   1.0501   1.0620
     1.0749   1.0923   1.1069   1.1188   1.1391   1.2033   1.2406   1.2605
     1.2770   1.3050   1.3560   1.3625   1.3919   1.4101   1.4200   1.4398
     1.5047   1.5259   1.5506   1.5640   1.5769   1.5820   1.5972   1.6151
     1.6291   1.6663   1.6916   1.7069   1.7226   1.7468   1.7536   1.7804
     1.8036   1.8104   1.8196   1.8267   1.8385   1.8738   1.8973   1.9066
     1.9102   1.9212   1.9450   1.9593   1.9734   1.9828   1.9957   2.0106
     2.0197   2.0567   2.0608   2.0669   2.0851   2.0891   2.0971   2.1182
     2.1263   2.1530   2.1554   2.1679   2.2399   2.2529   2.2611   2.2851
     2.3315   2.3657

          k = 0.2000 0.3464 0.0000 ( 51202 PWs)   bands (ev):

   -21.4000 -10.0875  -7.1618  -6.6612  -6.0046  -5.7275  -5.7104  -5.4020
    -5.2431  -4.4594  -4.3885  -3.9959  -3.9803  -3.8804  -3.1649  -3.1550
    -3.1465  -3.1355  -3.0387  -2.9446  -2.8667  -2.8525  -2.8274  -2.4814
    -2.4170  -2.3958  -2.3831  -2.3123  -2.2996  -2.2789  -2.2083  -2.1888
    -2.1794  -2.1733  -2.1498  -2.0378  -1.9779  -1.8374  -1.8081  -1.8014
    -1.7576  -1.7319  -1.6755  -1.6593  -1.5964  -1.4860  -1.4741  -1.4147
    -1.3510  -1.3196  -1.2786  -1.2743  -1.2713  -1.2496  -1.2277  -1.2130
    -1.2034  -1.1920  -1.1326  -1.0903  -1.0662  -0.9685  -0.9306  -0.9028
    -0.8304  -0.8041  -0.7178  -0.6869  -0.6012  -0.5795  -0.5573  -0.5250
    -0.5144  -0.4899  -0.4778  -0.4580  -0.4181  -0.3933  -0.3619  -0.3507
[...]
     atom    8 type  1   force =    -0.00041924   -0.00559480   -0.09887549
     atom    9 type  1   force =     0.00046001    0.00331422   -0.10364815
     atom   10 type  1   force =     0.00046563    0.00071454   -0.01747386
     atom   11 type  1   force =     0.00055428    0.00118231   -0.00836571
     atom   12 type  1   force =     0.00037181    0.00191291   -0.01226929
     atom   13 type  1   force =     0.00038630   -0.00007587   -0.00911808
     atom   14 type  1   force =     0.00014003    0.00048181   -0.01194694
     atom   15 type  1   force =    -0.00072805    0.00095049   -0.01007700
     atom   16 type  1   force =     0.00177279   -0.00114218   -0.01242234
     atom   17 type  1   force =    -0.00030273   -0.00209202   -0.00954104
     atom   18 type  1   force =    -0.00090847   -0.00118276   -0.01462718
     atom   19 type  1   force =    -0.00259817    0.00127319    0.01015029
     atom   20 type  1   force =    -0.00600052    0.00132952   -0.00164769
     atom   21 type  1   force =     0.00563696   -0.00679974    0.01129446
     atom   22 type  1   force =     0.00048848    0.00121386    0.01363280
     atom   23 type  1   force =    -0.00142795    0.00929954    0.01072856
     atom   24 type  1   force =     0.00075576    0.00139813    0.01932010
     atom   25 type  1   force =     0.00106700    0.00093077    0.01912048
     atom   26 type  1   force =    -0.00606411   -0.00616924    0.00601045
     atom   27 type  1   force =     0.00812044   -0.00294689    0.00254481
     atom   28 type  1   force =     0.04056342    0.01408059    0.14838588
     atom   29 type  1   force =     0.00278340    0.06438466    0.12911085
     atom   30 type  1   force =    -0.01607244    0.00534438    0.12347000
     atom   31 type  1   force =     0.05928390   -0.07044253    0.19985054
     atom   32 type  1   force =    -0.00754033   -0.00479084    0.00119730
     atom   33 type  1   force =     0.00110125    0.00109039    0.10620265
     atom   34 type  1   force =     0.00025959   -0.00772366    0.11290501
     atom   35 type  1   force =     0.00022223    0.00525492    0.11530881
     atom   36 type  1   force =    -0.00373801    0.00052071    0.10187083
     atom   37 type  2   force =    -0.36008751   -0.28331292    0.19820030
     atom   38 type  3   force =     1.60437900    1.46265916   -1.00673666
     atom   39 type  4   force =    -0.03098100   -0.03460515   -0.06167927
     The ionic contribution  to forces
     atom    1 type  1   force =    -0.00847635    0.00108907 -111.21965714
     atom    2 type  1   force =    -0.00082188    0.00135141 -111.23833591
     atom    3 type  1   force =     0.00929821    0.00013069 -111.22128915
     atom    4 type  1   force =    -0.00441921    0.00725160 -111.21810174
     atom    5 type  1   force =     0.00320060    0.00750298 -111.22054982
     atom    6 type  1   force =     0.00121864   -0.00067423 -111.21177659
     atom    7 type  1   force =    -0.00041389   -0.00065646 -111.21157377
     atom    8 type  1   force =    -0.00486935   -0.00741644 -111.22206457
     atom    9 type  1   force =     0.00528323   -0.00857862 -111.22123785
     atom   10 type  1   force =    -0.05111783   -0.02332291  -40.16719910
     atom   11 type  1   force =     0.00002530   -0.06583579  -40.27089700
     atom   12 type  1   force =     0.05109343   -0.03209356  -40.16681975
     atom   13 type  1   force =    -0.06215078    0.04323043  -40.24674570
     atom   14 type  1   force =     0.05441878    0.03884691  -40.26317433
     atom   15 type  1   force =     0.00773949    0.01332671  -40.14023258
     atom   16 type  1   force =    -0.00751695    0.04982902  -40.15472353
     atom   17 type  1   force =     0.00918358   -0.00974299  -40.15026179
     atom   18 type  1   force =    -0.00167011   -0.01423808  -40.13576177
     atom   19 type  1   force =    -0.41760034    0.05738920   31.34196059
     atom   20 type  1   force =    -0.04934285    0.07674901   30.31560591
     atom   21 type  1   force =     0.46578825   -0.00041655   31.26125209
     atom   22 type  1   force =    -0.21447438    0.34839226   31.41907729
     atom   23 type  1   force =     0.15990590    0.37754902   31.29590913
     atom   24 type  1   force =     0.05532867   -0.02953423   31.68377951
     atom   25 type  1   force =    -0.02162810   -0.02860290   31.69282239
     atom   26 type  1   force =    -0.24297387   -0.37826087   31.21801804
     atom   27 type  1   force =     0.26412512   -0.42294770   31.26989808
     atom   28 type  1   force =    -2.07505469   -0.90549438  103.50892471
     atom   29 type  1   force =     0.37370277   -4.52561492   98.15824887
     atom   30 type  1   force =     1.88301091   -1.18872178  103.72338858
     atom   31 type  1   force =    -3.57842617    2.64380704  100.39647726
     atom   32 type  1   force =     3.74728443    2.56477083   98.20845145
     atom   33 type  1   force =     0.29486545    0.36117092  104.35032897
     atom   34 type  1   force =    -0.28775209    1.77298547  103.97255178
     atom   35 type  1   force =     0.25629922   -0.30882044  104.13796094
     atom   36 type  1   force =     0.01272304   -0.44799380  104.45292890
     atom   37 type  2   force =     4.48808211    4.35358818   56.75479075
     atom   38 type  3   force =    -6.29057915   -5.61075052   88.32388497
     atom   39 type  4   force =     1.17671087    1.29075642   15.19414192
     The local contribution  to forces
     atom    1 type  1   force =     0.01154785   -0.00439487  111.32467816
     atom    2 type  1   force =    -0.00019225   -0.00317537  111.34311261
     atom    3 type  1   force =    -0.01116728    0.00255315  111.32901395
     atom    4 type  1   force =     0.00165922   -0.00466806  111.32532087
     atom    5 type  1   force =    -0.00245264   -0.01141901  111.32888917
     atom    6 type  1   force =     0.00060575    0.00140091  111.31803863
     atom    7 type  1   force =     0.00022857    0.00057121  111.31923350
     atom    8 type  1   force =     0.00548678    0.01309696  111.32390464
     atom    9 type  1   force =    -0.00615503    0.00539583  111.32726032
     atom   10 type  1   force =     0.05123617    0.02295017   40.16192806
     atom   11 type  1   force =    -0.00145587    0.06382431   40.25897664
     atom   12 type  1   force =    -0.05052258    0.02999201   40.15867610
     atom   13 type  1   force =     0.06098649   -0.04404654   40.23538282
     atom   14 type  1   force =    -0.05382237   -0.03840659   40.25274759
     atom   15 type  1   force =    -0.00665744   -0.01472989   40.12949849
     atom   16 type  1   force =     0.00583329   -0.04817492   40.14601643
     atom   17 type  1   force =    -0.00882657    0.01203572   40.13854050
     atom   18 type  1   force =     0.00332605    0.01584044   40.12852073
     atom   19 type  1   force =     0.42005223   -0.05758018  -31.32886893
     atom   20 type  1   force =     0.05751347   -0.07785350  -30.29439165
     atom   21 type  1   force =    -0.47180760    0.00682197  -31.25438784
     atom   22 type  1   force =     0.21401635   -0.34932245  -31.41025475
     atom   23 type  1   force =    -0.15839179   -0.38625640  -31.28912463
     atom   24 type  1   force =    -0.05619846    0.02860317  -31.68014619
     atom   25 type  1   force =     0.02052199    0.02740841  -31.68620011
     atom   26 type  1   force =     0.25210083    0.38434538  -31.20054516
     atom   27 type  1   force =    -0.27301463    0.42661299  -31.25283120
     atom   28 type  1   force =     2.02431367    0.88673287 -103.66992707
     atom   29 type  1   force =    -0.38229322    4.43703241  -98.29504668
     atom   30 type  1   force =    -1.85823490    1.18102742 -103.85467459
     atom   31 type  1   force =     3.50649330   -2.56428880 -100.60176615
     atom   32 type  1   force =    -3.72942369   -2.55595680  -98.19574886
     atom   33 type  1   force =    -0.29638282   -0.36018890 -104.46463900
     atom   34 type  1   force =     0.28701289   -1.75651657 -104.09256218
     atom   35 type  1   force =    -0.25563772    0.30084894 -104.26443165
     atom   36 type  1   force =    -0.01006152    0.44540078 -104.56326205
     atom   37 type  2   force =    -4.12794611   -4.06827634  -56.95422405
     atom   38 type  3   force =     4.70020432    4.15902866  -87.32639270
     atom   39 type  4   force =    -1.14725622   -1.25421457  -15.13071486
     The core correction contribution to forces
     atom    1 type  1   force =     0.00029412   -0.00016207    0.01027835
     atom    2 type  1   force =    -0.00005970   -0.00008433    0.01008224
     atom    3 type  1   force =    -0.00021118    0.00011240    0.01052855
     atom    4 type  1   force =    -0.00016616   -0.00004582    0.01006879
     atom    5 type  1   force =     0.00007966   -0.00022399    0.01042276
     atom    6 type  1   force =    -0.00002917   -0.00012064    0.01002896
     atom    7 type  1   force =    -0.00001386   -0.00005515    0.00982870
     atom    8 type  1   force =     0.00013474    0.00040361    0.01038509
     atom    9 type  1   force =    -0.00028120   -0.00001532    0.01014606
     atom   10 type  1   force =     0.00016234    0.00010203   -0.00196118
     atom   11 type  1   force =    -0.00032549    0.00002841   -0.00163937
     atom   12 type  1   force =     0.00010675   -0.00004826   -0.00184672
     atom   13 type  1   force =    -0.00005711   -0.00016800   -0.00172240
     atom   14 type  1   force =     0.00005334    0.00008826   -0.00179689
     atom   15 type  1   force =    -0.00011897    0.00002862   -0.00167226
     atom   16 type  1   force =    -0.00005475    0.00000594   -0.00181092
     atom   17 type  1   force =     0.00008537   -0.00007923   -0.00165302
     atom   18 type  1   force =    -0.00004555   -0.00006074   -0.00196928
     atom   19 type  1   force =    -0.00012276   -0.00029426    0.00155845
     atom   20 type  1   force =    -0.00032915   -0.00022186    0.00113003
     atom   21 type  1   force =     0.00108316   -0.00116711    0.00006521
     atom   22 type  1   force =    -0.00027346    0.00013866    0.00158204
     atom   23 type  1   force =    -0.00015420    0.00151588    0.00016429
     atom   24 type  1   force =     0.00005055    0.00015735    0.00182483
     atom   25 type  1   force =     0.00034332    0.00029545    0.00209056
     atom   26 type  1   force =    -0.00008975    0.00007879    0.00157867
     atom   27 type  1   force =     0.00039001   -0.00021073    0.00075365
     atom   28 type  1   force =     0.00155123    0.00105155   -0.00823045
     atom   29 type  1   force =    -0.00075836    0.01119153    0.00370371
     atom   30 type  1   force =    -0.00234607    0.00327457   -0.00828781
     atom   31 type  1   force =     0.00889614   -0.00427771   -0.00177241
     atom   32 type  1   force =    -0.00492272   -0.00175023   -0.00535628
     atom   33 type  1   force =    -0.00207564   -0.00058808   -0.00948444
     atom   34 type  1   force =     0.00089006   -0.00435675   -0.00863263
     atom   35 type  1   force =    -0.00059708   -0.00113296   -0.00962565
     atom   36 type  1   force =     0.00005131   -0.00002859   -0.01086729
     atom   37 type  2   force =     0.00495864    0.00404997   -0.00291363
     atom   38 type  3   force =    -0.01325516   -0.01206346    0.00931211
     atom   39 type  4   force =     0.00000000    0.00000000    0.00000000
     The Hubbard contrib.    to forces
     atom    1 type  1   force =     0.00000000    0.00000000    0.00000000
     atom    2 type  1   force =     0.00000000    0.00000000    0.00000000
     atom    3 type  1   force =     0.00000000    0.00000000    0.00000000
     atom    4 type  1   force =     0.00000000    0.00000000    0.00000000
     atom    5 type  1   force =     0.00000000    0.00000000    0.00000000
     atom    6 type  1   force =     0.00000000    0.00000000    0.00000000
     atom    7 type  1   force =     0.00000000    0.00000000    0.00000000
     atom    8 type  1   force =     0.00000000    0.00000000    0.00000000
     atom    9 type  1   force =     0.00000000    0.00000000    0.00000000
     atom   10 type  1   force =     0.00000000    0.00000000    0.00000000
     atom   11 type  1   force =     0.00000000    0.00000000    0.00000000
     atom   12 type  1   force =     0.00000000    0.00000000    0.00000000
     atom   13 type  1   force =     0.00000000    0.00000000    0.00000000
     atom   14 type  1   force =     0.00000000    0.00000000    0.00000000
     atom   15 type  1   force =     0.00000000    0.00000000    0.00000000
     atom   16 type  1   force =     0.00000000    0.00000000    0.00000000
     atom   17 type  1   force =     0.00000000    0.00000000    0.00000000
     atom   18 type  1   force =     0.00000000    0.00000000    0.00000000
     atom   19 type  1   force =     0.00000000    0.00000000    0.00000000
     atom   20 type  1   force =     0.00000000    0.00000000    0.00000000
     atom   21 type  1   force =     0.00000000    0.00000000    0.00000000
     atom   22 type  1   force =     0.00000000    0.00000000    0.00000000
     atom   23 type  1   force =     0.00000000    0.00000000    0.00000000
     atom   24 type  1   force =     0.00000000    0.00000000    0.00000000
     atom   25 type  1   force =     0.00000000    0.00000000    0.00000000
     atom   26 type  1   force =     0.00000000    0.00000000    0.00000000
     atom   27 type  1   force =     0.00000000    0.00000000    0.00000000
     atom   28 type  1   force =     0.00000000    0.00000000    0.00000000
     atom   29 type  1   force =     0.00000000    0.00000000    0.00000000
     atom   30 type  1   force =     0.00000000    0.00000000    0.00000000
     atom   31 type  1   force =     0.00000000    0.00000000    0.00000000
     atom   32 type  1   force =     0.00000000    0.00000000    0.00000000
     atom   33 type  1   force =     0.00000000    0.00000000    0.00000000
     atom   34 type  1   force =     0.00000000    0.00000000    0.00000000
     atom   35 type  1   force =     0.00000000    0.00000000    0.00000000
     atom   36 type  1   force =     0.00000000    0.00000000    0.00000000
     atom   37 type  2   force =     0.00000000    0.00000000    0.00000000
     atom   38 type  3   force =     0.00000000    0.00000000    0.00000000
     atom   39 type  4   force =     0.00000000    0.00000000    0.00000000
     The SCF correction term to forces
     atom    1 type  1   force =    -0.00000000   -0.00000000    0.00000000
     atom    2 type  1   force =     0.00000000    0.00000000   -0.00000000
     atom    3 type  1   force =     0.00000000    0.00000000   -0.00000000
     atom    4 type  1   force =     0.00000000   -0.00000000   -0.00000000
     atom    5 type  1   force =     0.00000000   -0.00000000   -0.00000000
     atom    6 type  1   force =    -0.00000000   -0.00000000   -0.00000000
     atom    7 type  1   force =     0.00000000    0.00000000   -0.00000000
     atom    8 type  1   force =    -0.00000000   -0.00000000   -0.00000000
     atom    9 type  1   force =    -0.00000000    0.00000000   -0.00000000
     atom   10 type  1   force =     0.00000000    0.00000000    0.00000000
     atom   11 type  1   force =    -0.00000000   -0.00000000    0.00000000
     atom   12 type  1   force =     0.00000000    0.00000000    0.00000000
     atom   13 type  1   force =    -0.00000000   -0.00000000    0.00000000
     atom   14 type  1   force =     0.00000000    0.00000000    0.00000000
     atom   15 type  1   force =     0.00000000   -0.00000000    0.00000000
     atom   16 type  1   force =     0.00000000    0.00000000    0.00000000
     atom   17 type  1   force =    -0.00000000    0.00000000    0.00000000
     atom   18 type  1   force =    -0.00000000   -0.00000000    0.00000000
     atom   19 type  1   force =     0.00000000   -0.00000000    0.00000000
     atom   20 type  1   force =    -0.00000000   -0.00000000    0.00000000
     atom   21 type  1   force =     0.00000000   -0.00000000    0.00000000
     atom   22 type  1   force =     0.00000000   -0.00000000    0.00000000
     atom   23 type  1   force =    -0.00000000    0.00000000    0.00000000
     atom   24 type  1   force =     0.00000000   -0.00000000    0.00000000
     atom   25 type  1   force =    -0.00000000   -0.00000000    0.00000000
     atom   26 type  1   force =    -0.00000000    0.00000000    0.00000000
     atom   27 type  1   force =     0.00000000    0.00000000    0.00000000
     atom   28 type  1   force =    -0.00000000    0.00000000    0.00000000
     atom   29 type  1   force =     0.00000000    0.00000000    0.00000000
     atom   30 type  1   force =    -0.00000000   -0.00000000    0.00000000
     atom   31 type  1   force =     0.00000000    0.00000000    0.00000000
     atom   32 type  1   force =    -0.00000000   -0.00000000    0.00000000
     atom   33 type  1   force =     0.00000000   -0.00000000    0.00000000
     atom   34 type  1   force =    -0.00000000   -0.00000000    0.00000000
     atom   35 type  1   force =    -0.00000000   -0.00000000    0.00000000
     atom   36 type  1   force =     0.00000000    0.00000000    0.00000000
     atom   37 type  2   force =    -0.00000244    0.00000187    0.00000501
     atom   38 type  3   force =     0.00000216    0.00000652    0.00000782
     atom   39 type  4   force =    -0.00000050   -0.00000003    0.00000062

     Total force =     0.009458     Total SCF correction =     0.000012

     Writing all to output data dir ./pwscf.save/

     init_run     :     12.69s CPU     16.82s WALL (       1 calls)
     electrons    :    977.92s CPU    993.93s WALL (       1 calls)
     forces       :      3.43s CPU      3.54s WALL (       1 calls)

     Called by init_run:
     wfcinit      :      9.59s CPU      9.96s WALL (       1 calls)
     potinit      :      1.99s CPU      3.66s WALL (       1 calls)
     hinit0       :      0.84s CPU      0.85s WALL (       1 calls)

     Called by electrons:
     c_bands      :    812.49s CPU    825.70s WALL (      56 calls)
     sum_band     :    116.43s CPU    117.96s WALL (      56 calls)
     v_of_rho     :      9.72s CPU     10.19s WALL (      57 calls)
     newd         :      3.10s CPU      5.23s WALL (      57 calls)
     PAW_pot      :     14.45s CPU     14.60s WALL (      57 calls)
     mix_rho      :     23.06s CPU     23.49s WALL (      56 calls)
     vdW_kernel   :      1.10s CPU      1.11s WALL (       1 calls)

     Called by c_bands:
     init_us_2    :      9.72s CPU      9.89s WALL (    2964 calls)
     init_us_2:cp :      9.70s CPU      9.88s WALL (    2964 calls)
     cegterg      :    785.72s CPU    798.15s WALL (    1456 calls)

     Called by *egterg:
     cdiaghg      :    215.90s CPU    219.04s WALL (    4898 calls)
     h_psi        :    388.78s CPU    395.13s WALL (    4924 calls)
     s_psi        :     41.12s CPU     42.14s WALL (    4924 calls)
     g_psi        :      1.01s CPU      1.04s WALL (    3442 calls)

     Called by h_psi:
     h_psi:calbec :     61.08s CPU     62.44s WALL (    4924 calls)
     vloc_psi     :    282.53s CPU    286.46s WALL (    4924 calls)
     add_vuspsi   :     42.48s CPU     43.50s WALL (    4924 calls)

     General routines
     calbec       :     91.46s CPU     93.19s WALL (    6484 calls)
     fft          :      6.30s CPU      6.98s WALL (    5150 calls)
     ffts         :     12.63s CPU     14.25s WALL (   24703 calls)
     fftw         :    334.86s CPU    339.37s WALL ( 1505862 calls)
     interpolate  :      0.41s CPU      2.00s WALL (     114 calls)

     Parallel routines

     PWSCF        :  16m40.72s CPU  17m10.05s WALL


   This run was terminated on:  10:15:59  17Dec2025            

=------------------------------------------------------------------------------=
   JOB DONE.
=------------------------------------------------------------------------------=
