
     Program PWSCF v.7.1 starts on 21Nov2025 at 13: 5: 4 
        Git branch: heads/qe-7.1
        Last git commit: 48ba0178f8fede6d020eb786884699a9f063f55d-dirty
        Last git commit date: Fri Jan 27 14:22:33 2023 +0000
        Last git commit subject: Merge branch 'fix_hubbard' into 'develop'

     This program is part of the open-source Quantum ESPRESSO suite
     for quantum simulation of materials; please cite
         "P. Giannozzi et al., J. Phys.:Condens. Matter 21 395502 (2009);
         "P. Giannozzi et al., J. Phys.:Condens. Matter 29 465901 (2017);
         "P. Giannozzi et al., J. Chem. Phys. 152 154105 (2020);
          URL http://www.quantum-espresso.org", 
     in publications or presentations arising from this work. More details at
     http://www.quantum-espresso.org/quote

     Parallel version (MPI), running on    96 processors

     MPI processes distributed on     2 nodes
     55751 MiB available memory on the printing compute node when the environment starts

     Reading input from espresso.pwi
Warning: card &CELL ignored
Warning: card / ignored
Warning: card &FCP ignored
Warning: card / ignored
Warning: card &RISM ignored
Warning: card / ignored

     Current dimensions of program PWSCF are:
     Max number of different atomic species (ntypx) = 10
     Max number of k-points (npk) =  40000
     Max angular momentum in pseudopotentials (lmaxx) =  4
     file Co.pbe-n-kjpaw_psl.1.0.0.UPF: wavefunction(s)  4S 3D renormalized
     file C.pbe-n-kjpaw_psl.1.0.0.UPF: wavefunction(s)  2S 2P renormalized
     file O.pbe-nl-kjpaw_psl.1.0.0.UPF: wavefunction(s)  2S 2P renormalized
     file H.pbe-kjpaw_psl.1.0.0.UPF: wavefunction(s)  1S renormalized

     **************************************************************************
     Initializing libbeef V0.1.2 with the BEEF-vdW functional.
     Citation: Wellendorff et al., PRB 85, 235149 (2012).
     **************************************************************************


     IMPORTANT: XC functional enforced from input :
     Exchange-correlation= BEEF-VDW
                           (   1   4  43  14   2   0   0)
     Any further DFT definition will be discarded
     Please, verify this is what you really want


     R & G space division:  proc/nbgrp/npool/nimage =      96
     Subspace diagonalization in iterative solution of the eigenvalue problem:
     one sub-group per band group will be used
     custom distributed-memory algorithm (size of sub-group:  2*  2 procs)


     Parallelization info
     --------------------
     sticks:   dense  smooth     PW     G-vecs:    dense   smooth      PW
     Min          43      23      6                 7829     3049     440
     Max          44      24      7                 7845     3068     465
     Sum        4153    2221    613               752179   293251   42993

     Using Slab Decomposition



     bravais-lattice index     =            0
     lattice parameter (alat)  =      14.1729  a.u.
     unit-cell volume          =    8574.3059 (a.u.)^3
     number of atoms/cell      =           39
     number of atomic types    =            4
     number of electrons       =       335.00
     number of Kohn-Sham states=          202
     kinetic-energy cutoff     =      40.0000  Ry
     charge density cutoff     =     300.0000  Ry
     scf convergence threshold =      1.0E-06
     mixing beta               =       0.7000
     number of iterations used =            8  local-TF  mixing
     Exchange-correlation= BEEF-VDW
                           (   1   4  43  14   2   0   0)

     celldm(1)=  14.172946  celldm(2)=   0.000000  celldm(3)=   0.000000
     celldm(4)=   0.000000  celldm(5)=   0.000000  celldm(6)=   0.000000

     crystal axes: (cart. coord. in units of alat)
               a(1) = (   1.000000   0.000000   0.000000 )  
               a(2) = (   0.500000   0.866025   0.000000 )  
               a(3) = (   0.000000   0.000000   3.477667 )  

     reciprocal axes: (cart. coord. in units 2 pi/alat)
               b(1) = (  1.000000 -0.577350  0.000000 )  
               b(2) = (  0.000000  1.154701  0.000000 )  
               b(3) = (  0.000000  0.000000  0.287549 )  


     PseudoPot. # 1 for Co read from file:
     /users/kbadger1/espresso/pseudo/pslibrary.1.0.0/pbe/PSEUDOPOTENTIALS/Co.pbe-n-kjpaw_psl.1.0.0.UPF
     MD5 check sum: 88af6ec42553d4236c267fdfcb472151
     Pseudo is Projector augmented-wave + core cor, Zval =  9.0
     Generated using 'atomic' code by A. Dal Corso  v.7.0
     Shape of augmentation charge: PSQ
     Using radial grid of 1193 points,  6 beta functions with: 
                l(1) =   0
                l(2) =   0
                l(3) =   1
                l(4) =   1
                l(5) =   2
                l(6) =   2
     Q(r) pseudized with 0 coefficients 


     PseudoPot. # 2 for C  read from file:
     /users/kbadger1/espresso/pseudo/pslibrary.1.0.0/pbe/PSEUDOPOTENTIALS/C.pbe-n-kjpaw_psl.1.0.0.UPF
     MD5 check sum: 6408e75cdba28732cea38a4db8498ce4
     Pseudo is Projector augmented-wave + core cor, Zval =  4.0
     Generated using 'atomic' code by A. Dal Corso  v.7.0
     Shape of augmentation charge: PSQ
     Using radial grid of 1073 points,  4 beta functions with: 
                l(1) =   0
                l(2) =   0
                l(3) =   1
                l(4) =   1
     Q(r) pseudized with 0 coefficients 


     PseudoPot. # 3 for O  read from file:
     /users/kbadger1/espresso/pseudo/pslibrary.1.0.0/pbe/PSEUDOPOTENTIALS/O.pbe-nl-kjpaw_psl.1.0.0.UPF
     MD5 check sum: f0439fab3598ca4e468f064226030408
     Pseudo is Projector augmented-wave + core cor, Zval =  6.0
     Generated using 'atomic' code by A. Dal Corso  v.7.0
     Shape of augmentation charge: PSQ
     Using radial grid of 1095 points,  4 beta functions with: 
                l(1) =   0
                l(2) =   0
                l(3) =   1
                l(4) =   1
     Q(r) pseudized with 0 coefficients 


     PseudoPot. # 4 for H  read from file:
     /users/kbadger1/espresso/pseudo/pslibrary.1.0.0/pbe/PSEUDOPOTENTIALS/H.pbe-kjpaw_psl.1.0.0.UPF
     MD5 check sum: fe4c6fa958fa6d3815bf5d2419cbf1df
     Pseudo is Projector augmented-wave, Zval =  1.0
     Generated using 'atomic' code by A. Dal Corso  v.7.0
     Shape of augmentation charge: PSQ
     Using radial grid of  929 points,  2 beta functions with: 
                l(1) =   0
                l(2) =   0
     Q(r) pseudized with 0 coefficients 


     atomic species   valence    mass     pseudopotential
        Co             9.00    58.93319     Co( 1.00)
        C              4.00    12.00000     C ( 1.00)
        O              6.00    15.99491     O ( 1.00)
        H              1.00     1.00783     H ( 1.00)

     Starting magnetic structure 
     atomic species   magnetization
        Co           1.000
        C            1.000
        O            0.000
        H            0.000

     No symmetry found



   Cartesian axes

     site n.     atom                  positions (alat units)
         1           Co  tau(   1) = (   0.0000000   0.1924501   1.3333333  )
         2           Co  tau(   2) = (   0.3333333   0.1924501   1.3333333  )
         3           Co  tau(   3) = (   0.6666667   0.1924501   1.3333333  )
         4           Co  tau(   4) = (   0.1666667   0.4811252   1.3333333  )
         5           Co  tau(   5) = (   0.5000000   0.4811252   1.3333333  )
         6           Co  tau(   6) = (   0.8333333   0.4811252   1.3333333  )
         7           Co  tau(   7) = (   0.3333333   0.7698004   1.3333333  )
         8           Co  tau(   8) = (   0.6666667   0.7698004   1.3333333  )
         9           Co  tau(   9) = (   1.0000000   0.7698004   1.3333333  )
        10           Co  tau(  10) = (   0.0000000   0.0000000   1.6036667  )
        11           Co  tau(  11) = (   0.3333333   0.0000000   1.6036667  )
        12           Co  tau(  12) = (   0.6666667   0.0000000   1.6036667  )
        13           Co  tau(  13) = (   0.1666667   0.2886751   1.6036667  )
        14           Co  tau(  14) = (   0.5000000   0.2886751   1.6036667  )
        15           Co  tau(  15) = (   0.8333333   0.2886751   1.6036667  )
        16           Co  tau(  16) = (   0.3333333   0.5773503   1.6036667  )
        17           Co  tau(  17) = (   0.6666667   0.5773503   1.6036667  )
        18           Co  tau(  18) = (   1.0000000   0.5773503   1.6036667  )
        19           Co  tau(  19) = (   0.0000000   0.1924501   1.8740000  )
        20           Co  tau(  20) = (   0.3333333   0.1924501   1.8740000  )
        21           Co  tau(  21) = (   0.6666667   0.1924501   1.8740000  )
        22           Co  tau(  22) = (   0.1666667   0.4811252   1.8740000  )
        23           Co  tau(  23) = (   0.5000000   0.4811252   1.8740000  )
        24           Co  tau(  24) = (   0.8333333   0.4811252   1.8740000  )
        25           Co  tau(  25) = (   0.3333333   0.7698004   1.8740000  )
        26           Co  tau(  26) = (   0.6666667   0.7698004   1.8740000  )
        27           Co  tau(  27) = (   1.0000000   0.7698004   1.8740000  )
        28           Co  tau(  28) = (   0.0000000   0.0000000   2.1443333  )
        29           Co  tau(  29) = (   0.3333333   0.0000000   2.1443333  )
        30           Co  tau(  30) = (   0.6666667   0.0000000   2.1443333  )
        31           Co  tau(  31) = (   0.1666667   0.2886751   2.1443333  )
        32           Co  tau(  32) = (   0.5000000   0.2886751   2.1443333  )
        33           Co  tau(  33) = (   0.8333333   0.2886751   2.1443333  )
        34           Co  tau(  34) = (   0.3333333   0.5773503   2.1443333  )
        35           Co  tau(  35) = (   0.6666667   0.5773503   2.1443333  )
        36           Co  tau(  36) = (   1.0000000   0.5773503   2.1443333  )
        37           C   tau(  37) = (   0.3711000   0.2128067   2.3462789  )
        38           O   tau(  38) = (   0.2311626   0.1439561   2.4118212  )
        39           H   tau(  39) = (   0.4753013   0.2647144   2.4379275  )

     number of k points=    13  Marzari-Vanderbilt smearing, width (Ry)=  0.0010
                       cart. coord. in units 2pi/alat
        k(    1) = (   0.0000000   0.0000000   0.0000000), wk =   0.0400000
        k(    2) = (   0.0000000   0.2309401   0.0000000), wk =   0.0800000
        k(    3) = (   0.0000000   0.4618802   0.0000000), wk =   0.0800000
        k(    4) = (   0.2000000  -0.1154701   0.0000000), wk =   0.0800000
        k(    5) = (   0.2000000   0.1154701   0.0000000), wk =   0.0800000
        k(    6) = (   0.2000000   0.3464102   0.0000000), wk =   0.0800000
        k(    7) = (   0.2000000  -0.5773503   0.0000000), wk =   0.0800000
        k(    8) = (   0.2000000  -0.3464102   0.0000000), wk =   0.0800000
        k(    9) = (   0.4000000  -0.2309401   0.0000000), wk =   0.0800000
        k(   10) = (   0.4000000   0.0000000   0.0000000), wk =   0.0800000
        k(   11) = (   0.4000000   0.2309401   0.0000000), wk =   0.0800000
        k(   12) = (   0.4000000  -0.6928203   0.0000000), wk =   0.0800000
        k(   13) = (   0.4000000  -0.4618802   0.0000000), wk =   0.0800000

     Dense  grid:   752179 G-vectors     FFT dimensions: (  80,  80, 288)

     Smooth grid:   293251 G-vectors     FFT dimensions: (  60,  60, 200)

     Estimated max dynamical RAM per process >      84.82 MB

     Estimated total dynamical RAM >       7.95 GB
     Generating pointlists ...
     new r_m :   0.1037 (alat units)  1.4692 (a.u.) for type    1
     new r_m :   0.0611 (alat units)  0.8662 (a.u.) for type    2
     new r_m :   0.0698 (alat units)  0.9890 (a.u.) for type    3
     new r_m :   0.0611 (alat units)  0.8662 (a.u.) for type    4

     Initial potential from superposition of free atoms

     starting charge     334.9897, renormalised to     335.0000

     negative rho (up, down):  3.038E-03 4.717E-04


     %%%%%%%%%%%%%%%%%%%%%%%%%%%%%%%%%%%%%%%%%%%%%%%%%%%%%%%%%%%%%%%%%%%%%%%%
     %                                                                      %
     % You are using vdW-DF, which was implemented by the Thonhauser group. %
     % Please cite the following two papers that made this development      %
     % possible and the two reviews that describe the various versions:     %
     %                                                                      %
     %   T. Thonhauser et al., PRL 115, 136402 (2015).                      %
     %   T. Thonhauser et al., PRB 76, 125112 (2007).                       %
     %   K. Berland et al., Rep. Prog. Phys. 78, 066501 (2015).             %
     %   D.C. Langreth et al., J. Phys.: Condens. Matter 21, 084203 (2009). %
     %                                                                      %
     % If you are calculating stress with vdW-DF, please also cite:         %
     %                                                                      %
     %   R. Sabatini et al., J. Phys.: Condens. Matter 24, 424209 (2012).   %
     %   C.M. Frostenson et al., Electr. Struct. 4, 014001 (2022).          %
     %                                                                      %
     %%%%%%%%%%%%%%%%%%%%%%%%%%%%%%%%%%%%%%%%%%%%%%%%%%%%%%%%%%%%%%%%%%%%%%%%

     %%%%%%%%%%%%%%%%%%%%%%%%%%%%%%%%%%%%%%%%%%%%%%%%%%%%%%%%%%%%%%%%%%%%%%%%
     %                                                                      %
     %  vdW-DF NEWS:                                                        %
     %                                                                      %
     %  * vdW-DF3 is now available. DOI: 10.1021/acs.jctc.0c00471           %
     %    use with input_dft = 'vdW-DF3-opt1' or 'vdW-DF3-opt2'             %
     %                                                                      %
     %  * Unscreened and range-separated hybrid vdW-DF-cx functionals       %
     %    DOI: 10.1063/1.4986522 and 10.1088/1361-648X/ac2ad2               %
     %    use with input_dft = 'vdW-DF-cx0'    and 'vdW-DF-ahcx'            %
     %  * Unscreened and range-separated hybrid vdW-DF2-b86r functionals    %
     %    DOI: 10.1063/1.4986522 and DOI: 10.1103/PhysRevX.12.041003        %
     %    use with input_dft = 'vdW-DF2-br0' and 'vdW-DF2-ahbr'             %
     %                                                                      %
     %%%%%%%%%%%%%%%%%%%%%%%%%%%%%%%%%%%%%%%%%%%%%%%%%%%%%%%%%%%%%%%%%%%%%%%%


     Starting wfcs are  333 randomized atomic wfcs
     Checking if some PAW data can be deallocated... 

     total cpu time spent up to now is       11.5 secs

     per-process dynamical memory:   212.4 Mb

     Self-consistent Calculation

     iteration #  1     ecut=    40.00 Ry     beta= 0.70
     Davidson diagonalization with overlap
     ethr =  1.00E-02,  avg # of iterations =  2.0

     negative rho (up, down):  5.042E-05 9.654E-07

     total cpu time spent up to now is       26.8 secs

     total energy              =   -6052.98094949 Ry
     estimated scf accuracy    <      39.68968358 Ry

     total magnetization       =    69.00 Bohr mag/cell
     absolute magnetization    =    81.27 Bohr mag/cell

     iteration #  2     ecut=    40.00 Ry     beta= 0.70
     Davidson diagonalization with overlap
     ethr =  1.00E-02,  avg # of iterations =  1.0

     negative rho (up, down):  2.004E-05 5.419E-07

     total cpu time spent up to now is       38.5 secs

     total energy              =   -6052.44497786 Ry
     estimated scf accuracy    <      24.47695448 Ry

     total magnetization       =    68.80 Bohr mag/cell
     absolute magnetization    =    76.82 Bohr mag/cell

     iteration #  3     ecut=    40.00 Ry     beta= 0.70
     Davidson diagonalization with overlap
     ethr =  7.31E-03,  avg # of iterations =  1.0

     negative rho (up, down):  1.077E-06 1.584E-06

     total cpu time spent up to now is       50.5 secs

     total energy              =   -6055.04122032 Ry
     estimated scf accuracy    <      85.87457949 Ry

     total magnetization       =    66.07 Bohr mag/cell
     absolute magnetization    =    73.19 Bohr mag/cell

     iteration #  4     ecut=    40.00 Ry     beta= 0.70
     Davidson diagonalization with overlap
     ethr =  7.31E-03,  avg # of iterations =  1.0

     negative rho (up, down):  9.185E-07 4.004E-07

     total cpu time spent up to now is       62.6 secs

     total energy              =   -6056.20188219 Ry
     estimated scf accuracy    <       5.77330313 Ry

     total magnetization       =    60.70 Bohr mag/cell
     absolute magnetization    =    70.54 Bohr mag/cell

     iteration #  5     ecut=    40.00 Ry     beta= 0.70
     Davidson diagonalization with overlap
     ethr =  1.72E-03,  avg # of iterations =  1.4

     negative rho (up, down):  9.462E-07 3.956E-07

     total cpu time spent up to now is       74.4 secs

     total energy              =   -6056.24906078 Ry
     estimated scf accuracy    <       1.86262952 Ry

     total magnetization       =    60.55 Bohr mag/cell
     absolute magnetization    =    69.83 Bohr mag/cell

     iteration #  6     ecut=    40.00 Ry     beta= 0.70
     Davidson diagonalization with overlap
     ethr =  5.56E-04,  avg # of iterations =  1.7

     negative rho (up, down):  8.737E-07 4.418E-07

     total cpu time spent up to now is       87.4 secs

     total energy              =   -6056.35587870 Ry
     estimated scf accuracy    <       0.67320225 Ry

     total magnetization       =    60.21 Bohr mag/cell
     absolute magnetization    =    69.43 Bohr mag/cell

     iteration #  7     ecut=    40.00 Ry     beta= 0.70
     Davidson diagonalization with overlap
     ethr =  2.01E-04,  avg # of iterations =  4.2

     negative rho (up, down):  7.199E-07 3.800E-07

     total cpu time spent up to now is      101.7 secs

     total energy              =   -6056.38952915 Ry
     estimated scf accuracy    <       0.70433562 Ry

     total magnetization       =    60.20 Bohr mag/cell
     absolute magnetization    =    69.16 Bohr mag/cell

     iteration #  8     ecut=    40.00 Ry     beta= 0.70
     Davidson diagonalization with overlap
     ethr =  2.01E-04,  avg # of iterations =  1.8

     negative rho (up, down):  1.610E-07 8.434E-08

     total cpu time spent up to now is      114.5 secs

     total energy              =   -6056.38992453 Ry
     estimated scf accuracy    <       0.14317372 Ry

     total magnetization       =    60.58 Bohr mag/cell
     absolute magnetization    =    69.27 Bohr mag/cell

     iteration #  9     ecut=    40.00 Ry     beta= 0.70
     Davidson diagonalization with overlap
     c_bands:  1 eigenvalues not converged
     ethr =  4.27E-05,  avg # of iterations = 12.3

     negative rho (up, down):  1.430E-07 5.454E-08

     total cpu time spent up to now is      143.1 secs

     total energy              =   -6056.42134008 Ry
     estimated scf accuracy    <       0.24389638 Ry

     total magnetization       =    61.24 Bohr mag/cell
     absolute magnetization    =    69.12 Bohr mag/cell

     iteration # 10     ecut=    40.00 Ry     beta= 0.70
     Davidson diagonalization with overlap
     ethr =  4.27E-05,  avg # of iterations =  1.2

     negative rho (up, down):  7.994E-08 3.959E-08

     total cpu time spent up to now is      154.7 secs

     total energy              =   -6056.42623012 Ry
     estimated scf accuracy    <       0.17774293 Ry

     total magnetization       =    61.24 Bohr mag/cell
     absolute magnetization    =    69.05 Bohr mag/cell

     iteration # 11     ecut=    40.00 Ry     beta= 0.70
     Davidson diagonalization with overlap
     ethr =  4.27E-05,  avg # of iterations =  1.1

     negative rho (up, down):  2.303E-08 5.244E-09

     total cpu time spent up to now is      166.2 secs

     total energy              =   -6056.41794252 Ry
     estimated scf accuracy    <       0.09479415 Ry

     total magnetization       =    61.24 Bohr mag/cell
     absolute magnetization    =    68.95 Bohr mag/cell

     iteration # 12     ecut=    40.00 Ry     beta= 0.70
     Davidson diagonalization with overlap
     ethr =  2.83E-05,  avg # of iterations =  2.0

     negative rho (up, down):  5.203E-06 3.996E-07

     total cpu time spent up to now is      179.5 secs

     total energy              =   -6056.41991845 Ry
     estimated scf accuracy    <       0.10292303 Ry

     total magnetization       =    61.26 Bohr mag/cell
     absolute magnetization    =    68.74 Bohr mag/cell

     iteration # 13     ecut=    40.00 Ry     beta= 0.70
     Davidson diagonalization with overlap
     ethr =  2.83E-05,  avg # of iterations =  1.5

     negative rho (up, down):  1.370E-08 1.663E-09

     total cpu time spent up to now is      191.3 secs

     total energy              =   -6056.41796077 Ry
     estimated scf accuracy    <       0.09937121 Ry

     total magnetization       =    61.25 Bohr mag/cell
     absolute magnetization    =    68.67 Bohr mag/cell

     iteration # 14     ecut=    40.00 Ry     beta= 0.70
     Davidson diagonalization with overlap
     ethr =  2.83E-05,  avg # of iterations =  1.3

     negative rho (up, down):  3.874E-07 1.789E-08

     total cpu time spent up to now is      202.9 secs

     total energy              =   -6056.41703474 Ry
     estimated scf accuracy    <       0.08063643 Ry

     total magnetization       =    61.24 Bohr mag/cell
     absolute magnetization    =    68.71 Bohr mag/cell

     iteration # 15     ecut=    40.00 Ry     beta= 0.70
     Davidson diagonalization with overlap
     ethr =  2.41E-05,  avg # of iterations =  1.0

     negative rho (up, down):  1.309E-04 1.255E-05

     total cpu time spent up to now is      214.2 secs

     total energy              =   -6056.41408035 Ry
     estimated scf accuracy    <       0.09331197 Ry

     total magnetization       =    61.24 Bohr mag/cell
     absolute magnetization    =    68.69 Bohr mag/cell

     iteration # 16     ecut=    40.00 Ry     beta= 0.70
     Davidson diagonalization with overlap
     ethr =  2.41E-05,  avg # of iterations =  1.1

     negative rho (up, down):  1.761E-03 9.101E-04

     total cpu time spent up to now is      225.7 secs

     total energy              =   -6056.41179186 Ry
     estimated scf accuracy    <       0.06609203 Ry

     total magnetization       =    61.24 Bohr mag/cell
     absolute magnetization    =    68.72 Bohr mag/cell

     iteration # 17     ecut=    40.00 Ry     beta= 0.70
     Davidson diagonalization with overlap
     ethr =  1.97E-05,  avg # of iterations =  1.8

     negative rho (up, down):  1.524E-02 1.316E-02

     total cpu time spent up to now is      238.1 secs

     total energy              =   -6056.40901188 Ry
     estimated scf accuracy    <       0.05036590 Ry

     total magnetization       =    61.24 Bohr mag/cell
     absolute magnetization    =    68.73 Bohr mag/cell

     iteration # 18     ecut=    40.00 Ry     beta= 0.70
     Davidson diagonalization with overlap
     ethr =  1.50E-05,  avg # of iterations =  1.2

     negative rho (up, down):  3.881E-03 2.746E-03

     total cpu time spent up to now is      249.4 secs

     total energy              =   -6056.41076101 Ry
     estimated scf accuracy    <       0.06599682 Ry

     total magnetization       =    61.24 Bohr mag/cell
     absolute magnetization    =    68.68 Bohr mag/cell

     iteration # 19     ecut=    40.00 Ry     beta= 0.70
     Davidson diagonalization with overlap
     ethr =  1.50E-05,  avg # of iterations =  1.0

     negative rho (up, down):  3.422E-03 2.542E-03

     total cpu time spent up to now is      260.9 secs

     total energy              =   -6056.41066777 Ry
     estimated scf accuracy    <       0.03395491 Ry

     total magnetization       =    61.24 Bohr mag/cell
     absolute magnetization    =    68.69 Bohr mag/cell

     iteration # 20     ecut=    40.00 Ry     beta= 0.70
     Davidson diagonalization with overlap
     ethr =  1.01E-05,  avg # of iterations =  1.0

     negative rho (up, down):  8.783E-03 7.727E-03

     total cpu time spent up to now is      272.3 secs

     total energy              =   -6056.40933392 Ry
     estimated scf accuracy    <       0.04286159 Ry

     total magnetization       =    61.24 Bohr mag/cell
     absolute magnetization    =    68.69 Bohr mag/cell

     iteration # 21     ecut=    40.00 Ry     beta= 0.70
     Davidson diagonalization with overlap
     ethr =  1.01E-05,  avg # of iterations =  1.0

     negative rho (up, down):  9.311E-03 8.320E-03

     total cpu time spent up to now is      283.6 secs

     total energy              =   -6056.40973065 Ry
     estimated scf accuracy    <       0.02425567 Ry

     total magnetization       =    61.24 Bohr mag/cell
     absolute magnetization    =    68.69 Bohr mag/cell

     iteration # 22     ecut=    40.00 Ry     beta= 0.70
     Davidson diagonalization with overlap
     ethr =  7.24E-06,  avg # of iterations =  1.0

     negative rho (up, down):  2.903E-02 2.809E-02

     total cpu time spent up to now is      295.7 secs

     total energy              =   -6056.40934343 Ry
     estimated scf accuracy    <       0.01217738 Ry

     total magnetization       =    61.24 Bohr mag/cell
     absolute magnetization    =    68.70 Bohr mag/cell

     iteration # 23     ecut=    40.00 Ry     beta= 0.70
     Davidson diagonalization with overlap
     ethr =  3.64E-06,  avg # of iterations =  2.0

     negative rho (up, down):  1.248E-02 1.186E-02

     total cpu time spent up to now is      308.0 secs

     total energy              =   -6056.40821330 Ry
     estimated scf accuracy    <       0.01856294 Ry

     total magnetization       =    61.24 Bohr mag/cell
     absolute magnetization    =    68.70 Bohr mag/cell

     iteration # 24     ecut=    40.00 Ry     beta= 0.70
     Davidson diagonalization with overlap
     ethr =  3.64E-06,  avg # of iterations =  1.0

     negative rho (up, down):  1.150E-02 1.086E-02

     total cpu time spent up to now is      319.5 secs

     total energy              =   -6056.40902614 Ry
     estimated scf accuracy    <       0.01236322 Ry

     total magnetization       =    61.24 Bohr mag/cell
     absolute magnetization    =    68.71 Bohr mag/cell

     iteration # 25     ecut=    40.00 Ry     beta= 0.70
     Davidson diagonalization with overlap
     ethr =  3.64E-06,  avg # of iterations =  1.1

     negative rho (up, down):  7.134E-03 6.485E-03

     total cpu time spent up to now is      331.0 secs

     total energy              =   -6056.40899953 Ry
     estimated scf accuracy    <       0.00491460 Ry

     total magnetization       =    61.24 Bohr mag/cell
     absolute magnetization    =    68.72 Bohr mag/cell

     iteration # 26     ecut=    40.00 Ry     beta= 0.70
     Davidson diagonalization with overlap
     ethr =  1.47E-06,  avg # of iterations =  1.3

     negative rho (up, down):  1.116E-02 1.060E-02

     total cpu time spent up to now is      342.6 secs

     total energy              =   -6056.40949388 Ry
     estimated scf accuracy    <       0.00622333 Ry

     total magnetization       =    61.24 Bohr mag/cell
     absolute magnetization    =    68.72 Bohr mag/cell

     iteration # 27     ecut=    40.00 Ry     beta= 0.70
     Davidson diagonalization with overlap
     ethr =  1.47E-06,  avg # of iterations =  1.3

     negative rho (up, down):  6.260E-03 5.640E-03

     total cpu time spent up to now is      354.9 secs

     total energy              =   -6056.40943185 Ry
     estimated scf accuracy    <       0.00086850 Ry

     total magnetization       =    61.24 Bohr mag/cell
     absolute magnetization    =    68.73 Bohr mag/cell

     iteration # 28     ecut=    40.00 Ry     beta= 0.70
     Davidson diagonalization with overlap
     ethr =  2.59E-07,  avg # of iterations =  2.7

     negative rho (up, down):  6.862E-03 6.228E-03

     total cpu time spent up to now is      367.7 secs

     total energy              =   -6056.40961389 Ry
     estimated scf accuracy    <       0.00276048 Ry

     total magnetization       =    61.24 Bohr mag/cell
     absolute magnetization    =    68.73 Bohr mag/cell

     iteration # 29     ecut=    40.00 Ry     beta= 0.70
     Davidson diagonalization with overlap
     ethr =  2.59E-07,  avg # of iterations =  1.8

     negative rho (up, down):  5.933E-03 5.204E-03

     total cpu time spent up to now is      380.0 secs

     total energy              =   -6056.40974036 Ry
     estimated scf accuracy    <       0.00034263 Ry

     total magnetization       =    61.24 Bohr mag/cell
     absolute magnetization    =    68.73 Bohr mag/cell

     iteration # 30     ecut=    40.00 Ry     beta= 0.70
     Davidson diagonalization with overlap
     ethr =  1.02E-07,  avg # of iterations =  3.3

     negative rho (up, down):  4.568E-03 3.723E-03

     total cpu time spent up to now is      393.6 secs

     total energy              =   -6056.40971742 Ry
     estimated scf accuracy    <       0.00089009 Ry

     total magnetization       =    61.24 Bohr mag/cell
     absolute magnetization    =    68.73 Bohr mag/cell

     iteration # 31     ecut=    40.00 Ry     beta= 0.70
     Davidson diagonalization with overlap
     ethr =  1.02E-07,  avg # of iterations =  1.2

     negative rho (up, down):  4.452E-03 3.627E-03

     total cpu time spent up to now is      405.3 secs

     total energy              =   -6056.40972741 Ry
     estimated scf accuracy    <       0.00013475 Ry

     total magnetization       =    61.24 Bohr mag/cell
     absolute magnetization    =    68.73 Bohr mag/cell

     iteration # 32     ecut=    40.00 Ry     beta= 0.70
     Davidson diagonalization with overlap
     ethr =  4.02E-08,  avg # of iterations =  2.0

     negative rho (up, down):  2.944E-03 2.042E-03

     total cpu time spent up to now is      418.5 secs

     total energy              =   -6056.40969306 Ry
     estimated scf accuracy    <       0.00012269 Ry

     total magnetization       =    61.24 Bohr mag/cell
     absolute magnetization    =    68.73 Bohr mag/cell

     iteration # 33     ecut=    40.00 Ry     beta= 0.70
     Davidson diagonalization with overlap
     ethr =  3.66E-08,  avg # of iterations =  1.6

     negative rho (up, down):  3.186E-03 2.165E-03

     total cpu time spent up to now is      430.4 secs

     total energy              =   -6056.40973876 Ry
     estimated scf accuracy    <       0.00004339 Ry

     total magnetization       =    61.24 Bohr mag/cell
     absolute magnetization    =    68.73 Bohr mag/cell

     iteration # 34     ecut=    40.00 Ry     beta= 0.70
     Davidson diagonalization with overlap
     ethr =  1.30E-08,  avg # of iterations =  5.2

     negative rho (up, down):  2.636E-03 1.521E-03

     total cpu time spent up to now is      445.3 secs

     total energy              =   -6056.40974770 Ry
     estimated scf accuracy    <       0.00004089 Ry

     total magnetization       =    61.24 Bohr mag/cell
     absolute magnetization    =    68.73 Bohr mag/cell

     iteration # 35     ecut=    40.00 Ry     beta= 0.70
     Davidson diagonalization with overlap
     ethr =  1.22E-08,  avg # of iterations =  2.1

     negative rho (up, down):  2.722E-03 1.628E-03

     total cpu time spent up to now is      457.8 secs

     total energy              =   -6056.40974233 Ry
     estimated scf accuracy    <       0.00002972 Ry

     total magnetization       =    61.24 Bohr mag/cell
     absolute magnetization    =    68.73 Bohr mag/cell

     iteration # 36     ecut=    40.00 Ry     beta= 0.70
     Davidson diagonalization with overlap
     ethr =  8.87E-09,  avg # of iterations =  1.8

     negative rho (up, down):  2.529E-03 1.412E-03

     total cpu time spent up to now is      470.2 secs

     total energy              =   -6056.40974754 Ry
     estimated scf accuracy    <       0.00006903 Ry

     total magnetization       =    61.24 Bohr mag/cell
     absolute magnetization    =    68.73 Bohr mag/cell

     iteration # 37     ecut=    40.00 Ry     beta= 0.70
     Davidson diagonalization with overlap
     ethr =  8.87E-09,  avg # of iterations =  1.8

     negative rho (up, down):  2.501E-03 1.384E-03

     total cpu time spent up to now is      483.2 secs

     total energy              =   -6056.40974837 Ry
     estimated scf accuracy    <       0.00005598 Ry

     total magnetization       =    61.24 Bohr mag/cell
     absolute magnetization    =    68.73 Bohr mag/cell

     iteration # 38     ecut=    40.00 Ry     beta= 0.70
     Davidson diagonalization with overlap
     ethr =  8.87E-09,  avg # of iterations =  1.2

     negative rho (up, down):  2.402E-03 1.329E-03

     total cpu time spent up to now is      494.7 secs

     total energy              =   -6056.40975066 Ry
     estimated scf accuracy    <       0.00002785 Ry

     total magnetization       =    61.24 Bohr mag/cell
     absolute magnetization    =    68.73 Bohr mag/cell

     iteration # 39     ecut=    40.00 Ry     beta= 0.70
     Davidson diagonalization with overlap
     ethr =  8.31E-09,  avg # of iterations =  1.8

     negative rho (up, down):  2.402E-03 1.335E-03

     total cpu time spent up to now is      507.3 secs

     total energy              =   -6056.40975186 Ry
     estimated scf accuracy    <       0.00000274 Ry

     total magnetization       =    61.24 Bohr mag/cell
     absolute magnetization    =    68.73 Bohr mag/cell

     iteration # 40     ecut=    40.00 Ry     beta= 0.70
     Davidson diagonalization with overlap
     c_bands:  1 eigenvalues not converged
     ethr =  8.19E-10,  avg # of iterations =  8.3

     negative rho (up, down):  2.398E-03 1.330E-03

     total cpu time spent up to now is      525.7 secs

     total energy              =   -6056.40975208 Ry
     estimated scf accuracy    <       0.00000182 Ry

     total magnetization       =    61.24 Bohr mag/cell
     absolute magnetization    =    68.73 Bohr mag/cell

     iteration # 41     ecut=    40.00 Ry     beta= 0.70
     Davidson diagonalization with overlap
     ethr =  5.44E-10,  avg # of iterations =  1.9

     negative rho (up, down):  2.377E-03 1.287E-03

     total cpu time spent up to now is      538.7 secs

     total energy              =   -6056.40975253 Ry
     estimated scf accuracy    <       0.00000139 Ry

     total magnetization       =    61.24 Bohr mag/cell
     absolute magnetization    =    68.73 Bohr mag/cell

     iteration # 42     ecut=    40.00 Ry     beta= 0.70
     Davidson diagonalization with overlap
     ethr =  4.16E-10,  avg # of iterations =  2.0

     negative rho (up, down):  2.362E-03 1.281E-03

     total cpu time spent up to now is      551.2 secs

     total energy              =   -6056.40975235 Ry
     estimated scf accuracy    <       0.00000181 Ry

     total magnetization       =    61.24 Bohr mag/cell
     absolute magnetization    =    68.73 Bohr mag/cell

     iteration # 43     ecut=    40.00 Ry     beta= 0.70
     Davidson diagonalization with overlap
     ethr =  4.16E-10,  avg # of iterations =  1.3

     negative rho (up, down):  2.229E-03 1.128E-03

     Magnetic moment per site  (integrated on atomic sphere of radius R)
     atom   1 (R=0.104)  charge=  6.2702  magn=  1.7721
     atom   2 (R=0.104)  charge=  6.2716  magn=  1.7624
     atom   3 (R=0.104)  charge=  6.2712  magn=  1.7677
     atom   4 (R=0.104)  charge=  6.2707  magn=  1.7685
     atom   5 (R=0.104)  charge=  6.2711  magn=  1.7682
     atom   6 (R=0.104)  charge=  6.2704  magn=  1.7751
     atom   7 (R=0.104)  charge=  6.2707  magn=  1.7759
     atom   8 (R=0.104)  charge=  6.2703  magn=  1.7716
     atom   9 (R=0.104)  charge=  6.2708  magn=  1.7692
     atom  10 (R=0.104)  charge=  6.2775  magn=  1.6937
     atom  11 (R=0.104)  charge=  6.2781  magn=  1.6987
     atom  12 (R=0.104)  charge=  6.2776  magn=  1.6973
     atom  13 (R=0.104)  charge=  6.2781  magn=  1.6994
     atom  14 (R=0.104)  charge=  6.2784  magn=  1.6878
     atom  15 (R=0.104)  charge=  6.2783  magn=  1.7004
     atom  16 (R=0.104)  charge=  6.2776  magn=  1.6973
     atom  17 (R=0.104)  charge=  6.2783  magn=  1.6994
     atom  18 (R=0.104)  charge=  6.2776  magn=  1.6948
     atom  19 (R=0.104)  charge=  6.2752  magn=  1.7021
     atom  20 (R=0.104)  charge=  6.2744  magn=  1.7324
     atom  21 (R=0.104)  charge=  6.2772  magn=  1.6902
     atom  22 (R=0.104)  charge=  6.2785  magn=  1.6900
     atom  23 (R=0.104)  charge=  6.2771  magn=  1.6904
     atom  24 (R=0.104)  charge=  6.2766  magn=  1.7046
     atom  25 (R=0.104)  charge=  6.2774  magn=  1.7005
     atom  26 (R=0.104)  charge=  6.2753  magn=  1.7016
     atom  27 (R=0.104)  charge=  6.2784  magn=  1.6932
     atom  28 (R=0.104)  charge=  6.2757  magn=  1.7907
     atom  29 (R=0.104)  charge=  6.2872  magn=  1.6471
     atom  30 (R=0.104)  charge=  6.2720  magn=  1.7739
     atom  31 (R=0.104)  charge=  6.2859  magn=  1.6598
     atom  32 (R=0.104)  charge=  6.3045  magn=  1.2265
     atom  33 (R=0.104)  charge=  6.2729  magn=  1.7594
     atom  34 (R=0.104)  charge=  6.2713  magn=  1.7768
     atom  35 (R=0.104)  charge=  6.2721  magn=  1.7595
     atom  36 (R=0.104)  charge=  6.2679  magn=  1.7983
     atom  37 (R=0.061)  charge=  0.8609  magn= -0.0209
     atom  38 (R=0.070)  charge=  3.2219  magn=  0.0312
     atom  39 (R=0.061)  charge=  0.5030  magn=  0.0075

     total cpu time spent up to now is      562.7 secs

     End of self-consistent calculation

 ------ SPIN UP ------------


          k = 0.0000 0.0000 0.0000 ( 36693 PWs)   bands (ev):

   -21.5838 -10.5259  -7.5091  -6.9721  -6.3020  -5.6989  -5.4615  -4.5927
    -4.5737  -4.5717  -4.5700  -4.5632  -4.5354  -4.5135  -4.1986  -4.0461
    -4.0374  -4.0327  -4.0244  -3.9850  -3.9817  -3.5403  -3.5167  -3.5111
    -3.5083  -3.4884  -3.4636  -3.3930  -3.3866  -3.3827  -3.3802  -3.3711
    -3.3566  -3.3096  -3.3039  -3.0139  -2.9982  -2.9926  -2.9896  -2.9842
    -2.9587  -2.9324  -2.9254  -2.9216  -2.9165  -2.9146  -2.9117  -2.7663
    -2.7655  -2.7470  -2.7233  -2.6938  -2.6866  -2.6846  -2.6726  -2.6543
    -2.6516  -2.6496  -2.6489  -2.5612  -2.5555  -2.5518  -2.5481  -2.5424
    -2.4881  -2.2838  -2.0397  -2.0164  -2.0160  -2.0107  -2.0106  -1.9365
    -1.9044  -1.8747  -1.8730  -1.8629  -1.8477  -1.8415  -1.8325  -1.8312
    -1.8260  -1.7772  -1.7770  -1.7322  -1.7278  -1.7224  -1.7098  -1.7011
    -1.6951  -1.6890  -1.6869  -1.6836  -1.6677  -1.6577  -1.6541  -1.6482
    -1.6473  -1.6405  -1.6402  -1.6353  -1.6330  -1.6312  -1.6302  -1.6257
    -1.6215  -1.5855  -1.5773  -1.5619  -1.5558  -1.4809  -1.4770  -1.4485
    -1.2705  -1.2356  -1.1860  -1.1846  -1.1781  -1.1749  -1.1685  -1.1602
    -1.1470  -1.1435  -1.1170  -1.1029  -1.0966  -0.9791  -0.9691  -0.9671
    -0.9417  -0.9314  -0.8271  -0.7990  -0.7751  -0.7693  -0.7613  -0.7389
    -0.6992  -0.6898  -0.6883  -0.6873  -0.6859  -0.6627  -0.5763  -0.5718
    -0.4575  -0.4419  -0.4410  -0.4409  -0.4268  -0.4113  -0.3837  -0.3816
    -0.3770  -0.3739  -0.3674  -0.3660  -0.3621  -0.3578  -0.3536  -0.3520
    -0.3468  -0.3430  -0.3348  -0.3230  -0.3051  -0.3023  -0.2971  -0.2890
    -0.2777  -0.2730  -0.2586  -0.2499  -0.2467  -0.2307  -0.2229  -0.2206
    -0.2186  -0.2085  -0.1933  -0.1774  -0.1689  -0.1499  -0.1454  -0.1411
    -0.1359  -0.1333  -0.1283  -0.1268  -0.1166  -0.1110  -0.0586  -0.0580
    -0.0450  -0.0443   0.0158   0.0188   0.0234   0.0274   0.0297   0.0460
     0.4214   1.1037

          k = 0.0000 0.2309 0.0000 ( 36641 PWs)   bands (ev):

   -21.5838 -10.5255  -7.3755  -6.9464  -6.2358  -5.6832  -5.4620  -5.2616
    -4.8214  -4.8125  -4.4411  -4.3068  -4.2289  -4.2274  -4.1600  -4.1056
    -4.0777  -4.0372  -3.9573  -3.9081  -3.8941  -3.6421  -3.5284  -3.5176
    -3.4534  -3.4291  -3.3989  -3.3911  -3.3876  -3.3783  -3.3687  -3.3505
    -3.3204  -3.2769  -3.2692  -3.2395  -3.2369  -3.0697  -3.0229  -3.0114
    -2.9820  -2.9575  -2.9525  -2.9431  -2.8829  -2.8479  -2.8221  -2.7982
    -2.7876  -2.7801  -2.7656  -2.7434  -2.6505  -2.6477  -2.6248  -2.5985
    -2.5786  -2.5685  -2.5438  -2.5334  -2.5212  -2.4921  -2.4761  -2.4667
    -2.4122  -2.3064  -2.1549  -2.1213  -2.1091  -2.0829  -2.0486  -1.9977
    -1.9781  -1.9719  -1.9657  -1.9585  -1.9399  -1.9294  -1.9083  -1.8743
    -1.8426  -1.8345  -1.8181  -1.7813  -1.7719  -1.7668  -1.7568  -1.7437
    -1.7397  -1.7269  -1.7238  -1.7229  -1.7108  -1.6993  -1.6733  -1.6487
    -1.6313  -1.6072  -1.5808  -1.5484  -1.5405  -1.5340  -1.5271  -1.5176
    -1.5047  -1.4999  -1.4933  -1.4826  -1.4807  -1.4574  -1.4432  -1.4302
    -1.4182  -1.4113  -1.3707  -1.3357  -1.3254  -1.2564  -1.2159  -1.2077
    -1.1993  -1.1894  -1.1780  -1.1778  -1.1751  -1.1558  -1.0750  -1.0378
    -1.0060  -0.9920  -0.9266  -0.9198  -0.8958  -0.8507  -0.8260  -0.8240
    -0.7807  -0.7437  -0.7165  -0.7008  -0.6805  -0.6772  -0.6438  -0.6356
    -0.6203  -0.6049  -0.5876  -0.5553  -0.5476  -0.5323  -0.5263  -0.5211
    -0.4633  -0.4497  -0.4435  -0.4362  -0.4208  -0.3980  -0.3789  -0.3729
    -0.3712  -0.3620  -0.3543  -0.3445  -0.3213  -0.3143  -0.3087  -0.2846
    -0.2581  -0.2441  -0.2347  -0.2114  -0.1964  -0.1843  -0.1505  -0.1311
    -0.1211  -0.1162  -0.1057  -0.1002  -0.0865  -0.0744  -0.0640  -0.0598
    -0.0255   0.0125   0.0170   0.0287   0.0524   0.0554   0.0883   0.0944
     0.1077   0.1495   0.3809   0.3957   0.4884   0.5664   0.6353   0.6506
     0.7557   0.8677

          k = 0.0000 0.4619 0.0000 ( 36606 PWs)   bands (ev):

   -21.5838 -10.5249  -7.1020  -6.7826  -6.2376  -6.0295  -5.5551  -5.2901
    -4.9626  -4.9503  -4.8252  -4.1180  -4.0800  -4.0608  -4.0242  -3.9793
    -3.8704  -3.8679  -3.8230  -3.7419  -3.7316  -3.7208  -3.6245  -3.5518
    -3.5467  -3.5419  -3.5369  -3.4840  -3.4598  -3.4272  -3.4215  -3.2773
    -3.2659  -3.2604  -3.2479  -3.2213  -3.2140  -3.1360  -3.1133  -3.1029
    -3.0874  -3.0860  -2.9756  -2.9282  -2.8778  -2.8122  -2.7819  -2.7632
    -2.7436  -2.7080  -2.7009  -2.6962  -2.6927  -2.6619  -2.6189  -2.6010
    -2.5737  -2.5474  -2.5300  -2.4525  -2.3960  -2.3878  -2.3672  -2.3289
    -2.2822  -2.2661  -2.2569  -2.2378  -2.2168  -2.1587  -2.1339  -2.1023
    -2.0994  -2.0957  -2.0834  -2.0692  -2.0579  -2.0470  -2.0045  -1.9946
    -1.9726  -1.9545  -1.9254  -1.9140  -1.8842  -1.8629  -1.8108  -1.7895
    -1.7724  -1.7633  -1.7422  -1.7235  -1.6958  -1.6735  -1.6626  -1.6555
    -1.6468  -1.6350  -1.6193  -1.5973  -1.5929  -1.5766  -1.5663  -1.5449
    -1.5350  -1.5203  -1.4720  -1.4593  -1.4230  -1.3900  -1.3732  -1.3616
    -1.3555  -1.3322  -1.2974  -1.2583  -1.2531  -1.2370  -1.2288  -1.2225
    -1.2130  -1.2082  -1.1953  -1.1932  -1.1838  -1.1787  -1.1691  -1.1540
    -1.1397  -1.1210  -1.0492  -1.0206  -0.9994  -0.9898  -0.9676  -0.9551
    -0.9367  -0.8779  -0.8701  -0.8469  -0.8362  -0.7900  -0.7769  -0.7249
    -0.7167  -0.6821  -0.6619  -0.6458  -0.6338  -0.6201  -0.5924  -0.5361
    -0.4888  -0.4675  -0.4518  -0.4411  -0.4389  -0.4300  -0.4283  -0.4117
    -0.3975  -0.3816  -0.3295  -0.2965  -0.2824  -0.2760  -0.2683  -0.2630
    -0.2547  -0.2358  -0.2244  -0.2159  -0.2030  -0.1840  -0.1152  -0.0947
    -0.0874  -0.0835  -0.0575  -0.0095   0.0058   0.0128   0.0417   0.0607
     0.0805   0.1246   0.1263   0.1487   0.1522   0.1552   0.1658   0.1787
     0.2571   0.2707   0.3506   0.9537   1.1627   1.3042   1.3773   1.4125
     1.5810   1.7438

          k = 0.2000-0.1155 0.0000 ( 36641 PWs)   bands (ev):

   -21.5838 -10.5256  -7.3754  -6.9464  -6.2345  -5.6786  -5.4636  -5.2668
    -4.8211  -4.8100  -4.4432  -4.3099  -4.2290  -4.2268  -4.1606  -4.1055
    -4.0750  -4.0361  -3.9596  -3.9073  -3.8927  -3.6439  -3.5271  -3.5173
    -3.4568  -3.4295  -3.3983  -3.3908  -3.3885  -3.3784  -3.3660  -3.3508
    -3.3201  -3.2769  -3.2688  -3.2395  -3.2367  -3.0706  -3.0251  -3.0109
    -2.9823  -2.9567  -2.9529  -2.9432  -2.8839  -2.8495  -2.8219  -2.7972
    -2.7869  -2.7802  -2.7646  -2.7442  -2.6527  -2.6478  -2.6265  -2.5951
    -2.5795  -2.5678  -2.5430  -2.5325  -2.5185  -2.4916  -2.4753  -2.4656
    -2.4142  -2.3073  -2.1545  -2.1221  -2.1095  -2.0826  -2.0491  -1.9986
    -1.9784  -1.9708  -1.9650  -1.9578  -1.9402  -1.9304  -1.9100  -1.8732
    -1.8417  -1.8336  -1.8172  -1.7806  -1.7704  -1.7662  -1.7564  -1.7442
    -1.7401  -1.7275  -1.7244  -1.7230  -1.7110  -1.7002  -1.6730  -1.6498
    -1.6314  -1.6098  -1.5777  -1.5482  -1.5413  -1.5335  -1.5277  -1.5174
    -1.5062  -1.4991  -1.4921  -1.4826  -1.4807  -1.4580  -1.4439  -1.4295
    -1.4181  -1.4112  -1.3722  -1.3386  -1.3239  -1.2537  -1.2147  -1.2078
    -1.1985  -1.1905  -1.1778  -1.1768  -1.1752  -1.1566  -1.0786  -1.0337
    -1.0019  -0.9908  -0.9269  -0.9202  -0.8960  -0.8520  -0.8261  -0.8228
    -0.7802  -0.7472  -0.7199  -0.7021  -0.6807  -0.6773  -0.6407  -0.6351
    -0.6213  -0.6058  -0.5855  -0.5556  -0.5487  -0.5312  -0.5266  -0.5209
    -0.4632  -0.4484  -0.4436  -0.4357  -0.4219  -0.4022  -0.3777  -0.3724
    -0.3697  -0.3625  -0.3543  -0.3455  -0.3224  -0.3124  -0.3100  -0.2834
    -0.2582  -0.2433  -0.2343  -0.2114  -0.1983  -0.1835  -0.1505  -0.1301
    -0.1212  -0.1153  -0.1072  -0.1011  -0.0873  -0.0742  -0.0638  -0.0597
    -0.0248   0.0126   0.0173   0.0287   0.0526   0.0551   0.0885   0.0951
     0.1082   0.1500   0.3822   0.3963   0.4841   0.5684   0.6305   0.6551
     0.7493   0.8617

          k = 0.2000 0.1155 0.0000 ( 36641 PWs)   bands (ev):

   -21.5838 -10.5261  -7.3750  -6.9466  -6.2268  -5.6546  -5.4669  -5.3083
    -4.8153  -4.7986  -4.4485  -4.3313  -4.2326  -4.2227  -4.1613  -4.1116
    -4.0540  -4.0305  -3.9645  -3.9037  -3.8922  -3.6385  -3.5365  -3.5217
    -3.4421  -3.4242  -3.3951  -3.3928  -3.3886  -3.3841  -3.3608  -3.3554
    -3.3160  -3.2752  -3.2738  -3.2392  -3.2360  -3.0631  -3.0136  -3.0113
    -2.9878  -2.9687  -2.9523  -2.9509  -2.8822  -2.8472  -2.8392  -2.8006
    -2.7867  -2.7819  -2.7627  -2.7545  -2.6518  -2.6495  -2.6421  -2.6060
    -2.5846  -2.5528  -2.5442  -2.5252  -2.5102  -2.4831  -2.4732  -2.4704
    -2.4212  -2.2926  -2.1614  -2.1289  -2.1110  -2.0798  -2.0422  -1.9891
    -1.9810  -1.9744  -1.9645  -1.9559  -1.9463  -1.9253  -1.8937  -1.8774
    -1.8516  -1.8276  -1.8069  -1.7879  -1.7679  -1.7675  -1.7583  -1.7367
    -1.7352  -1.7300  -1.7296  -1.7218  -1.7064  -1.6955  -1.6718  -1.6626
    -1.6231  -1.5994  -1.5708  -1.5456  -1.5385  -1.5313  -1.5259  -1.5163
    -1.5069  -1.5028  -1.4974  -1.4821  -1.4813  -1.4613  -1.4430  -1.4309
    -1.4178  -1.4135  -1.3874  -1.3465  -1.3230  -1.2383  -1.2096  -1.2078
    -1.2049  -1.1937  -1.1880  -1.1792  -1.1732  -1.1716  -1.0569  -1.0246
    -0.9911  -0.9849  -0.9258  -0.9216  -0.8923  -0.8544  -0.8321  -0.8248
    -0.7663  -0.7425  -0.7281  -0.7050  -0.6887  -0.6785  -0.6442  -0.6402
    -0.6156  -0.6081  -0.5882  -0.5489  -0.5404  -0.5320  -0.5261  -0.5154
    -0.4722  -0.4510  -0.4454  -0.4343  -0.4267  -0.3888  -0.3857  -0.3730
    -0.3675  -0.3581  -0.3558  -0.3351  -0.3216  -0.3208  -0.3050  -0.2847
    -0.2524  -0.2426  -0.2213  -0.2186  -0.2023  -0.1864  -0.1438  -0.1340
    -0.1223  -0.1185  -0.1144  -0.0986  -0.0763  -0.0751  -0.0631  -0.0601
    -0.0251   0.0122   0.0189   0.0274   0.0551   0.0553   0.0875   0.1022
     0.1158   0.1443   0.3648   0.3912   0.4427   0.5569   0.6208   0.6519
     0.7297   0.8656

          k = 0.2000 0.3464 0.0000 ( 36608 PWs)   bands (ev):

   -21.5838 -10.5258  -7.1620  -6.8585  -6.1436  -5.7170  -5.6526  -5.4526
    -5.3813  -4.5447  -4.4819  -4.2383  -4.2286  -4.1789  -4.0157  -4.0085
    -3.9164  -3.9127  -3.8968  -3.7815  -3.7630  -3.6425  -3.6292  -3.5664
    -3.5225  -3.4362  -3.4288  -3.4073  -3.3971  -3.3766  -3.3626  -3.3447
    -3.3261  -3.3053  -3.2969  -3.2574  -3.2181  -3.1825  -3.1705  -3.0801
    -3.0504  -2.9727  -2.9506  -2.9198  -2.9039  -2.8948  -2.8120  -2.7911
    -2.7469  -2.7193  -2.7133  -2.7087  -2.6679  -2.6498  -2.6322  -2.6283
    -2.6111  -2.5385  -2.4885  -2.4356  -2.4290  -2.4110  -2.3971  -2.3717
    -2.3557  -2.2582  -2.2237  -2.1748  -2.1637  -2.1243  -2.1046  -2.0895
    -2.0715  -2.0663  -2.0522  -2.0417  -2.0197  -2.0025  -2.0007  -1.9912
    -1.9754  -1.9315  -1.8902  -1.8700  -1.8075  -1.8040  -1.7971  -1.7668
    -1.7589  -1.7306  -1.7212  -1.6954  -1.6831  -1.6629  -1.6513  -1.6428
    -1.6316  -1.6241  -1.6123  -1.6032  -1.5933  -1.5853  -1.5661  -1.5483
    -1.5412  -1.5269  -1.4899  -1.4720  -1.4544  -1.4272  -1.4100  -1.4059
    -1.3896  -1.3811  -1.3573  -1.3313  -1.3053  -1.3024  -1.2772  -1.2458
    -1.2350  -1.2276  -1.2257  -1.2101  -1.1919  -1.1746  -1.1636  -1.1244
    -1.0858  -1.0607  -1.0512  -1.0138  -0.9471  -0.9302  -0.9115  -0.8423
    -0.8052  -0.8006  -0.7893  -0.7792  -0.7688  -0.7592  -0.7431  -0.7330
    -0.7086  -0.6917  -0.6669  -0.6382  -0.6241  -0.6114  -0.5976  -0.5828
    -0.5597  -0.5490  -0.5198  -0.5053  -0.4995  -0.4562  -0.4030  -0.3530
    -0.3374  -0.3144  -0.3061  -0.2860  -0.2820  -0.2698  -0.2649  -0.2568
    -0.2469  -0.2394  -0.1758  -0.1586  -0.1505  -0.1373  -0.0991  -0.0858
    -0.0708  -0.0662  -0.0596  -0.0438  -0.0358  -0.0260  -0.0172  -0.0068
     0.0073   0.0123   0.0921   0.0977   0.1058   0.1510   0.1528   0.1616
     0.4677   0.4924   0.5558   0.6224   0.8002   0.8251   1.0772   1.3116
     1.3943   1.5354

          k = 0.2000-0.5774 0.0000 ( 36660 PWs)   bands (ev):

   -21.5838 -10.5251  -7.0521  -6.4527  -6.4294  -6.0320  -5.7431  -5.5096
    -5.0816  -4.9779  -4.5728  -4.2222  -3.9763  -3.9293  -3.8377  -3.7998
    -3.7960  -3.7712  -3.7631  -3.7366  -3.7001  -3.6880  -3.6840  -3.6762
    -3.5980  -3.5711  -3.5340  -3.5284  -3.5034  -3.4977  -3.4012  -3.3779
    -3.3486  -3.3394  -3.3194  -3.2820  -3.2146  -3.1822  -3.0878  -3.0555
    -3.0498  -3.0032  -2.9710  -2.9473  -2.9220  -2.8459  -2.8380  -2.8295
    -2.7638  -2.7559  -2.6912  -2.6613  -2.6354  -2.6121  -2.5722  -2.5551
    -2.5091  -2.4700  -2.4602  -2.4520  -2.4434  -2.4253  -2.4018  -2.3375
    -2.2937  -2.2586  -2.2439  -2.2334  -2.2260  -2.1728  -2.1519  -2.1279
    -2.1003  -2.0753  -2.0655  -2.0527  -2.0379  -2.0222  -1.9926  -1.9859
    -1.9738  -1.9624  -1.9504  -1.9218  -1.9179  -1.9111  -1.8465  -1.8403
    -1.8145  -1.7839  -1.7559  -1.7403  -1.7043  -1.6920  -1.6779  -1.6532
    -1.6450  -1.6322  -1.6262  -1.6171  -1.6057  -1.5923  -1.5700  -1.5508
    -1.5023  -1.4880  -1.4725  -1.4679  -1.4521  -1.4467  -1.4402  -1.4325
    -1.4258  -1.4161  -1.3989  -1.3744  -1.3463  -1.3210  -1.3080  -1.2843
    -1.2304  -1.2164  -1.1928  -1.1785  -1.1645  -1.1491  -1.1400  -1.1029
    -1.0748  -1.0658  -1.0539  -1.0063  -0.9673  -0.9315  -0.9223  -0.8947
    -0.8872  -0.8759  -0.8624  -0.8400  -0.8144  -0.8058  -0.7806  -0.7480
    -0.7303  -0.7135  -0.6985  -0.6795  -0.6640  -0.6339  -0.6127  -0.6046
    -0.5877  -0.5720  -0.5633  -0.5520  -0.5121  -0.4796  -0.4688  -0.3739
    -0.3043  -0.3009  -0.2946  -0.2860  -0.2792  -0.2694  -0.2670  -0.2410
    -0.2149  -0.2057  -0.1969  -0.1873  -0.1667  -0.1396  -0.0719  -0.0674
    -0.0557  -0.0421  -0.0254  -0.0181   0.0237   0.0361   0.0381   0.0483
     0.0567   0.1275   0.1329   0.1424   0.1547   0.1570   0.1830   0.2073
     0.2739   0.5041   0.5732   0.8386   1.3250   1.4282   1.5432   1.7170
     1.9056   1.9668

          k = 0.2000-0.3464 0.0000 ( 36608 PWs)   bands (ev):

   -21.5838 -10.5250  -7.1607  -6.8639  -6.1517  -5.7421  -5.6554  -5.4572
    -5.3289  -4.5657  -4.4603  -4.2380  -4.2298  -4.1738  -4.0146  -4.0097
    -3.9217  -3.9039  -3.8904  -3.7807  -3.7730  -3.6415  -3.6315  -3.5669
    -3.5247  -3.4571  -3.4284  -3.4129  -3.3864  -3.3740  -3.3648  -3.3587
    -3.3292  -3.3087  -3.2996  -3.2585  -3.2187  -3.1764  -3.1669  -3.0694
    -3.0616  -2.9515  -2.9420  -2.9320  -2.9108  -2.8881  -2.7922  -2.7483
    -2.7414  -2.7275  -2.7162  -2.7049  -2.6658  -2.6547  -2.6347  -2.6243
    -2.6082  -2.5076  -2.4867  -2.4664  -2.4323  -2.4072  -2.3867  -2.3762
    -2.3477  -2.2971  -2.2432  -2.1766  -2.1515  -2.1249  -2.1231  -2.0906
    -2.0772  -2.0627  -2.0511  -2.0365  -2.0178  -2.0119  -1.9991  -1.9923
    -1.9761  -1.9326  -1.8867  -1.8623  -1.8157  -1.7974  -1.7812  -1.7714
    -1.7605  -1.7347  -1.7185  -1.6959  -1.6920  -1.6659  -1.6476  -1.6437
    -1.6334  -1.6254  -1.6219  -1.6016  -1.5934  -1.5853  -1.5641  -1.5555
    -1.5407  -1.5332  -1.5089  -1.4657  -1.4543  -1.4324  -1.4086  -1.4073
    -1.3875  -1.3806  -1.3730  -1.3221  -1.3082  -1.2996  -1.2797  -1.2619
    -1.2298  -1.2276  -1.2243  -1.2041  -1.1951  -1.1783  -1.1631  -1.1181
    -1.0939  -1.0609  -1.0563  -1.0076  -0.9523  -0.9365  -0.9115  -0.8142
    -0.8002  -0.7984  -0.7878  -0.7805  -0.7712  -0.7614  -0.7443  -0.7234
    -0.7077  -0.6850  -0.6713  -0.6413  -0.6357  -0.6072  -0.6016  -0.5856
    -0.5575  -0.5398  -0.5243  -0.5053  -0.5005  -0.4645  -0.3889  -0.3490
    -0.3326  -0.3206  -0.3065  -0.2953  -0.2865  -0.2694  -0.2636  -0.2604
    -0.2452  -0.2384  -0.1677  -0.1593  -0.1467  -0.1402  -0.0987  -0.0795
    -0.0734  -0.0681  -0.0639  -0.0392  -0.0368  -0.0290  -0.0182  -0.0089
     0.0139   0.0252   0.0916   0.0952   0.1064   0.1473   0.1529   0.1699
     0.4471   0.4931   0.5316   0.6588   0.7392   0.8337   1.1821   1.3517
     1.3598   1.5820

          k = 0.4000-0.2309 0.0000 ( 36606 PWs)   bands (ev):

   -21.5838 -10.5253  -7.1023  -6.7814  -6.2333  -6.0284  -5.5488  -5.3017
    -4.9630  -4.9466  -4.8303  -4.1197  -4.0769  -4.0595  -4.0243  -3.9814
    -3.8700  -3.8680  -3.8238  -3.7416  -3.7316  -3.7211  -3.6267  -3.5516
    -3.5450  -3.5429  -3.5366  -3.4849  -3.4632  -3.4276  -3.4214  -3.2742
    -3.2659  -3.2582  -3.2473  -3.2207  -3.2141  -3.1374  -3.1158  -3.1025
    -3.0880  -3.0860  -2.9779  -2.9267  -2.8792  -2.8124  -2.7828  -2.7638
    -2.7436  -2.7098  -2.7014  -2.6951  -2.6920  -2.6632  -2.6162  -2.6007
    -2.5739  -2.5455  -2.5308  -2.4510  -2.3953  -2.3882  -2.3663  -2.3302
    -2.2840  -2.2673  -2.2564  -2.2376  -2.2143  -2.1586  -2.1252  -2.1028
    -2.0993  -2.0955  -2.0825  -2.0701  -2.0573  -2.0473  -2.0061  -1.9940
    -1.9739  -1.9526  -1.9250  -1.9131  -1.8846  -1.8615  -1.8114  -1.7867
    -1.7721  -1.7629  -1.7439  -1.7244  -1.6956  -1.6765  -1.6627  -1.6554
    -1.6478  -1.6353  -1.6200  -1.5983  -1.5927  -1.5766  -1.5670  -1.5442
    -1.5361  -1.5207  -1.4715  -1.4562  -1.4249  -1.3892  -1.3753  -1.3629
    -1.3532  -1.3328  -1.2950  -1.2583  -1.2526  -1.2355  -1.2291  -1.2224
    -1.2122  -1.2062  -1.1964  -1.1938  -1.1839  -1.1812  -1.1686  -1.1540
    -1.1406  -1.1210  -1.0512  -1.0206  -0.9988  -0.9889  -0.9679  -0.9571
    -0.9357  -0.8743  -0.8701  -0.8467  -0.8363  -0.7907  -0.7772  -0.7242
    -0.7155  -0.6845  -0.6614  -0.6470  -0.6352  -0.6200  -0.5931  -0.5364
    -0.4895  -0.4679  -0.4500  -0.4419  -0.4384  -0.4306  -0.4264  -0.4117
    -0.3946  -0.3803  -0.3306  -0.2972  -0.2825  -0.2752  -0.2680  -0.2632
    -0.2530  -0.2364  -0.2251  -0.2157  -0.2028  -0.1867  -0.1151  -0.0946
    -0.0871  -0.0830  -0.0571  -0.0132   0.0064   0.0122   0.0420   0.0589
     0.0806   0.1247   0.1269   0.1487   0.1517   0.1553   0.1672   0.1784
     0.2573   0.2708   0.3420   0.9684   1.1414   1.3021   1.3770   1.4126
     1.5786   1.7470

          k = 0.4000 0.0000 0.0000 ( 36608 PWs)   bands (ev):

   -21.5838 -10.5260  -7.1621  -6.8578  -6.1415  -5.7098  -5.6546  -5.4521
    -5.3890  -4.5415  -4.4869  -4.2378  -4.2270  -4.1800  -4.0157  -4.0090
    -3.9170  -3.9138  -3.8977  -3.7809  -3.7601  -3.6430  -3.6300  -3.5655
    -3.5225  -3.4357  -3.4283  -3.4106  -3.3971  -3.3763  -3.3637  -3.3432
    -3.3257  -3.3056  -3.2944  -3.2578  -3.2178  -3.1836  -3.1704  -3.0825
    -3.0501  -2.9726  -2.9502  -2.9195  -2.9042  -2.8953  -2.8172  -2.7912
    -2.7469  -2.7180  -2.7128  -2.7089  -2.6671  -2.6495  -2.6315  -2.6276
    -2.6118  -2.5367  -2.4885  -2.4347  -2.4268  -2.4117  -2.3948  -2.3711
    -2.3571  -2.2538  -2.2283  -2.1756  -2.1655  -2.1247  -2.1027  -2.0913
    -2.0713  -2.0652  -2.0519  -2.0415  -2.0189  -2.0038  -2.0003  -1.9916
    -1.9750  -1.9308  -1.8902  -1.8724  -1.8072  -1.8010  -1.7961  -1.7670
    -1.7600  -1.7319  -1.7206  -1.6965  -1.6846  -1.6630  -1.6512  -1.6428
    -1.6316  -1.6246  -1.6116  -1.6028  -1.5943  -1.5848  -1.5667  -1.5485
    -1.5414  -1.5264  -1.4882  -1.4714  -1.4541  -1.4276  -1.4106  -1.4056
    -1.3887  -1.3800  -1.3535  -1.3325  -1.3065  -1.3014  -1.2776  -1.2421
    -1.2349  -1.2280  -1.2257  -1.2103  -1.1920  -1.1752  -1.1631  -1.1253
    -1.0856  -1.0597  -1.0514  -1.0110  -0.9495  -0.9318  -0.9109  -0.8417
    -0.8084  -0.8003  -0.7893  -0.7802  -0.7678  -0.7592  -0.7449  -0.7351
    -0.7072  -0.6927  -0.6663  -0.6382  -0.6238  -0.6121  -0.5983  -0.5827
    -0.5603  -0.5491  -0.5197  -0.5054  -0.4978  -0.4552  -0.4032  -0.3531
    -0.3379  -0.3139  -0.3060  -0.2865  -0.2815  -0.2691  -0.2631  -0.2575
    -0.2461  -0.2405  -0.1751  -0.1583  -0.1509  -0.1370  -0.0991  -0.0867
    -0.0707  -0.0665  -0.0611  -0.0457  -0.0360  -0.0261  -0.0187  -0.0035
     0.0035   0.0146   0.0924   0.0978   0.1051   0.1516   0.1525   0.1610
     0.4679   0.4924   0.5615   0.6082   0.8042   0.8248   1.0799   1.3143
     1.3890   1.5404

          k = 0.4000 0.2309 0.0000 ( 36606 PWs)   bands (ev):

   -21.5838 -10.5265  -7.1069  -6.7731  -6.1986  -6.0349  -5.4785  -5.4178
    -4.9608  -4.9238  -4.8675  -4.1335  -4.0554  -4.0495  -4.0163  -3.9860
    -3.8716  -3.8633  -3.8258  -3.7350  -3.7294  -3.7257  -3.6415  -3.5512
    -3.5490  -3.5372  -3.5341  -3.4868  -3.4510  -3.4260  -3.4137  -3.2763
    -3.2689  -3.2445  -3.2405  -3.2150  -3.2132  -3.1434  -3.1024  -3.1007
    -3.0904  -3.0872  -2.9886  -2.9423  -2.9045  -2.8251  -2.8026  -2.7613
    -2.7513  -2.7082  -2.7070  -2.6942  -2.6914  -2.6750  -2.6080  -2.6042
    -2.5779  -2.5660  -2.5354  -2.4418  -2.3913  -2.3866  -2.3777  -2.3215
    -2.2760  -2.2640  -2.2564  -2.2406  -2.1821  -2.1721  -2.1406  -2.1049
    -2.0969  -2.0917  -2.0821  -2.0690  -2.0515  -2.0507  -2.0204  -1.9773
    -1.9723  -1.9457  -1.9229  -1.8946  -1.8779  -1.8553  -1.8047  -1.7976
    -1.7762  -1.7694  -1.7458  -1.7298  -1.6865  -1.6683  -1.6631  -1.6553
    -1.6429  -1.6225  -1.6172  -1.5919  -1.5910  -1.5790  -1.5543  -1.5402
    -1.5305  -1.5213  -1.4730  -1.4372  -1.4097  -1.3939  -1.3778  -1.3615
    -1.3342  -1.3322  -1.2961  -1.2574  -1.2447  -1.2384  -1.2284  -1.2259
    -1.2135  -1.2118  -1.1988  -1.1957  -1.1945  -1.1860  -1.1653  -1.1521
    -1.1386  -1.1040  -1.0595  -1.0234  -0.9976  -0.9799  -0.9656  -0.9408
    -0.9363  -0.8979  -0.8694  -0.8452  -0.8438  -0.7874  -0.7840  -0.7442
    -0.7192  -0.6813  -0.6566  -0.6425  -0.6324  -0.6153  -0.5771  -0.5686
    -0.4911  -0.4772  -0.4519  -0.4428  -0.4391  -0.4259  -0.4208  -0.4156
    -0.3981  -0.3657  -0.3431  -0.2904  -0.2884  -0.2709  -0.2688  -0.2622
    -0.2580  -0.2219  -0.2195  -0.2098  -0.2072  -0.1931  -0.1093  -0.0939
    -0.0923  -0.0844  -0.0564  -0.0246   0.0061   0.0097   0.0474   0.0508
     0.0798   0.1252   0.1274   0.1507   0.1522   0.1549   0.1790   0.1942
     0.2516   0.2682   0.3179   0.9522   1.1478   1.2435   1.3667   1.3910
     1.6273   1.7477

          k = 0.4000-0.6928 0.0000 ( 36660 PWs)   bands (ev):

   -21.5838 -10.5261  -7.0563  -6.4366  -6.4071  -6.0621  -5.7490  -5.4293
    -5.1825  -4.9980  -4.5309  -4.2181  -3.9779  -3.9325  -3.8552  -3.8021
    -3.7938  -3.7761  -3.7598  -3.7448  -3.6931  -3.6873  -3.6813  -3.6713
    -3.6022  -3.5716  -3.5339  -3.5240  -3.5059  -3.4999  -3.3845  -3.3555
    -3.3460  -3.3374  -3.3082  -3.2781  -3.2398  -3.1768  -3.1063  -3.0508
    -3.0497  -3.0054  -2.9736  -2.9507  -2.9182  -2.8476  -2.8444  -2.8284
    -2.7823  -2.7636  -2.7005  -2.6624  -2.6386  -2.6225  -2.5803  -2.5529
    -2.5050  -2.4704  -2.4648  -2.4524  -2.4447  -2.4314  -2.4072  -2.3281
    -2.2670  -2.2515  -2.2466  -2.2376  -2.2090  -2.1776  -2.1626  -2.1291
    -2.0998  -2.0761  -2.0627  -2.0536  -2.0409  -2.0167  -1.9950  -1.9835
    -1.9787  -1.9600  -1.9556  -1.9204  -1.9186  -1.8707  -1.8457  -1.8396
    -1.8345  -1.7959  -1.7497  -1.7382  -1.7127  -1.6791  -1.6591  -1.6566
    -1.6366  -1.6353  -1.6266  -1.6151  -1.6054  -1.5774  -1.5683  -1.5280
    -1.4894  -1.4840  -1.4753  -1.4593  -1.4506  -1.4452  -1.4395  -1.4325
    -1.4208  -1.4110  -1.3951  -1.3784  -1.3554  -1.3274  -1.3081  -1.2969
    -1.2376  -1.2299  -1.1885  -1.1712  -1.1688  -1.1544  -1.1431  -1.1152
    -1.0766  -1.0674  -1.0569  -0.9967  -0.9529  -0.9336  -0.9186  -0.9061
    -0.8844  -0.8751  -0.8555  -0.8426  -0.8184  -0.8017  -0.7691  -0.7570
    -0.7380  -0.7076  -0.6925  -0.6874  -0.6679  -0.6223  -0.6121  -0.5952
    -0.5893  -0.5818  -0.5618  -0.5550  -0.5073  -0.4860  -0.4670  -0.3827
    -0.3132  -0.2976  -0.2965  -0.2859  -0.2784  -0.2667  -0.2591  -0.2499
    -0.2105  -0.2079  -0.1970  -0.1895  -0.1686  -0.1356  -0.0718  -0.0673
    -0.0633  -0.0404  -0.0210  -0.0156   0.0209   0.0326   0.0427   0.0500
     0.0556   0.1185   0.1320   0.1347   0.1524   0.1597   0.1779   0.2046
     0.2499   0.5238   0.5948   0.8804   1.2430   1.4294   1.5073   1.7748
     1.8528   1.9195

          k = 0.4000-0.4619 0.0000 ( 36660 PWs)   bands (ev):

   -21.5838 -10.5254  -7.0524  -6.4512  -6.4266  -6.0337  -5.7457  -5.4989
    -5.0965  -4.9770  -4.5681  -4.2215  -3.9764  -3.9310  -3.8412  -3.8004
    -3.7959  -3.7710  -3.7622  -3.7368  -3.6990  -3.6879  -3.6843  -3.6762
    -3.5983  -3.5711  -3.5345  -3.5275  -3.5033  -3.4978  -3.4028  -3.3774
    -3.3489  -3.3399  -3.3186  -3.2812  -3.2107  -3.1822  -3.0923  -3.0567
    -3.0499  -3.0022  -2.9702  -2.9481  -2.9220  -2.8465  -2.8382  -2.8288
    -2.7638  -2.7556  -2.6939  -2.6615  -2.6342  -2.6129  -2.5699  -2.5555
    -2.5089  -2.4694  -2.4604  -2.4520  -2.4436  -2.4255  -2.4013  -2.3387
    -2.2917  -2.2594  -2.2443  -2.2340  -2.2256  -2.1726  -2.1507  -2.1236
    -2.0979  -2.0776  -2.0654  -2.0530  -2.0394  -2.0220  -1.9924  -1.9868
    -1.9733  -1.9624  -1.9501  -1.9197  -1.9178  -1.9071  -1.8461  -1.8407
    -1.8137  -1.7859  -1.7560  -1.7429  -1.7052  -1.6927  -1.6772  -1.6542
    -1.6434  -1.6328  -1.6267  -1.6168  -1.6071  -1.5940  -1.5694  -1.5485
    -1.5020  -1.4875  -1.4729  -1.4676  -1.4527  -1.4466  -1.4401  -1.4331
    -1.4255  -1.4165  -1.3996  -1.3739  -1.3473  -1.3210  -1.3083  -1.2827
    -1.2304  -1.2174  -1.1940  -1.1763  -1.1644  -1.1487  -1.1393  -1.1049
    -1.0754  -1.0654  -1.0546  -1.0052  -0.9693  -0.9315  -0.9185  -0.8944
    -0.8870  -0.8762  -0.8630  -0.8399  -0.8148  -0.8057  -0.7813  -0.7490
    -0.7296  -0.7131  -0.6982  -0.6808  -0.6634  -0.6329  -0.6130  -0.6049
    -0.5870  -0.5733  -0.5637  -0.5519  -0.5118  -0.4804  -0.4673  -0.3745
    -0.3039  -0.2996  -0.2941  -0.2834  -0.2818  -0.2697  -0.2648  -0.2437
    -0.2137  -0.2062  -0.1976  -0.1884  -0.1655  -0.1395  -0.0720  -0.0670
    -0.0573  -0.0417  -0.0250  -0.0178   0.0237   0.0359   0.0384   0.0481
     0.0576   0.1264   0.1326   0.1407   0.1545   0.1570   0.1828   0.2071
     0.2657   0.5064   0.5782   0.8345   1.3243   1.4292   1.5367   1.7349
     1.8918   1.9663

 ------ SPIN DOWN ----------


          k = 0.0000 0.0000 0.0000 ( 36693 PWs)   bands (ev):

   -21.5314 -10.5659  -7.6201  -6.9133  -6.3265  -5.6790  -5.4436  -4.3956
    -4.3740  -4.3721  -4.3674  -4.3613  -4.3297  -4.2314  -3.5127  -3.4977
    -3.4944  -3.4843  -3.4639  -3.4355  -3.3262  -2.5987  -2.5465  -2.5458
    -2.5378  -2.5171  -2.4662  -2.1698  -2.0861  -2.0779  -2.0728  -2.0683
    -2.0540  -1.8974  -1.8758  -1.8321  -1.7970  -1.7840  -1.7803  -1.7747
    -1.6935  -1.6907  -1.6421  -1.6397  -1.6257  -1.5471  -1.5282  -1.5263
    -1.4959  -1.4530  -1.3449  -1.2784  -1.2652  -1.2608  -1.2485  -1.2404
    -1.2386  -1.2327  -1.2143  -1.1951  -1.1847  -1.1658  -1.1602  -1.1535
    -1.1324  -1.0371  -0.7811  -0.6028  -0.6025  -0.5817  -0.5785  -0.4431
    -0.3880  -0.2969  -0.2732  -0.2610  -0.2538  -0.2529  -0.2390  -0.2191
    -0.1960  -0.1867  -0.1697  -0.1665  -0.1620  -0.1602  -0.1021  -0.0947
    -0.0852  -0.0596  -0.0541  -0.0437  -0.0231  -0.0096  -0.0066  -0.0003
     0.0015   0.0029   0.0263   0.0286   0.0302   0.0327   0.0819   0.1016
     0.1643   0.1854   0.1926   0.2364   0.2424   0.2538   0.2548   0.2602
     0.2625   0.2673   0.2681   0.3003   0.3381   0.3389   0.4008   0.4039
     0.4269   0.4402   0.4452   0.4543   0.6382   0.6447   0.6832   0.6939
     0.7283   0.7401   0.7436   0.7462   0.8361   1.0201   1.0335   1.0810
     1.0845   1.2214   1.2657   1.2854   1.3027   1.3076   1.3130   1.3199
     1.3696   1.4635   1.4675   1.4722   1.4822   1.4842   1.5034   1.5085
     1.5271   1.5390   1.5646   1.5691   1.5943   1.6044   1.6116   1.6293
     1.6310   1.6342   1.6403   1.6534   1.6734   1.7010   1.7166   1.7297
     1.7350   1.7497   1.7546   1.7564   1.7631   1.7658   1.7712   1.8018
     1.8178   1.8361   1.8379   1.8400   1.8532   1.8545   1.8613   1.8724
     1.8954   1.9004   1.9079   1.9092   1.9137   1.9178   1.9248   1.9257
     1.9353   1.9410   1.9873   1.9882   2.1336   2.1369   2.1419   2.1460
     2.1483   2.1494

          k = 0.0000 0.2309 0.0000 ( 36641 PWs)   bands (ev):

   -21.5314 -10.5655  -7.4773  -6.8917  -6.2503  -5.6899  -5.4486  -5.2711
    -4.7560  -4.7432  -4.2246  -4.0828  -3.8236  -3.8169  -3.7350  -3.6896
    -3.5277  -3.2666  -3.1509  -3.1311  -3.0388  -2.7697  -2.5867  -2.5361
    -2.5004  -2.4473  -2.4215  -2.2373  -2.1357  -2.1148  -2.1067  -2.0927
    -2.0621  -2.0263  -2.0186  -2.0024  -1.9758  -1.8820  -1.8377  -1.8019
    -1.7539  -1.7448  -1.7004  -1.5901  -1.5580  -1.5543  -1.5361  -1.4654
    -1.4034  -1.3883  -1.3476  -1.3154  -1.2967  -1.2763  -1.2562  -1.2482
    -1.2376  -1.2269  -1.1692  -1.1286  -1.1185  -1.0953  -1.0787  -1.0461
    -1.0013  -0.9260  -0.8071  -0.6477  -0.6340  -0.6197  -0.5990  -0.5413
    -0.4831  -0.4666  -0.4193  -0.4092  -0.3017  -0.2925  -0.2756  -0.2580
    -0.2404  -0.2302  -0.2149  -0.2051  -0.1944  -0.1821  -0.1470  -0.0960
    -0.0761  -0.0531  -0.0475  -0.0444  -0.0190   0.0043   0.0126   0.0224
     0.0301   0.0389   0.0459   0.0530   0.0543   0.0571   0.0928   0.1058
     0.1341   0.1417   0.1543   0.1576   0.1838   0.2005   0.2120   0.2286
     0.2601   0.2629   0.3172   0.3299   0.3597   0.3742   0.3771   0.4048
     0.5201   0.5372   0.5995   0.6145   0.6269   0.6587   0.6711   0.6939
     0.7037   0.7204   0.7224   0.7258   0.9427   0.9830   1.0340   1.0481
     1.0573   1.0682   1.0934   1.0967   1.1391   1.1757   1.2117   1.2437
     1.2751   1.3149   1.3337   1.3475   1.3756   1.3873   1.4196   1.4653
     1.4824   1.5069   1.5221   1.5373   1.5476   1.5627   1.5891   1.5962
     1.6222   1.6506   1.6748   1.6837   1.7154   1.7246   1.7389   1.7567
     1.7852   1.7893   1.8011   1.8051   1.8224   1.8348   1.8810   1.8889
     1.8964   1.9025   1.9352   1.9424   1.9533   1.9693   1.9842   1.9905
     2.0050   2.0385   2.0442   2.0474   2.0724   2.0777   2.0823   2.0991
     2.1094   2.1343   2.1361   2.1470   2.2192   2.2361   2.2406   2.2747
     2.3146   2.3376

          k = 0.0000 0.4619 0.0000 ( 36606 PWs)   bands (ev):

   -21.5314 -10.5649  -7.1084  -6.8159  -6.3005  -6.0443  -5.5736  -5.2995
    -4.9699  -4.9519  -4.8084  -3.8856  -3.8611  -3.7468  -3.2542  -3.2018
    -3.1990  -3.0816  -2.9276  -2.8812  -2.7569  -2.7471  -2.6072  -2.5984
    -2.5780  -2.5291  -2.4850  -2.4479  -2.3640  -2.3511  -2.3255  -2.2796
    -2.2710  -2.0888  -2.0614  -2.0131  -1.9764  -1.9211  -1.8690  -1.8579
    -1.8455  -1.8232  -1.7323  -1.5831  -1.5504  -1.5211  -1.4981  -1.4683
    -1.3460  -1.3280  -1.3107  -1.2988  -1.2926  -1.2658  -1.2604  -1.2419
    -1.2137  -1.1569  -1.1406  -1.1320  -1.1056  -1.0833  -0.9786  -0.9100
    -0.8622  -0.7955  -0.7666  -0.6783  -0.6582  -0.6286  -0.6011  -0.5864
    -0.5692  -0.5549  -0.5170  -0.4920  -0.4668  -0.4282  -0.3975  -0.3759
    -0.3530  -0.3273  -0.3057  -0.2981  -0.2676  -0.2545  -0.1942  -0.1446
    -0.1126  -0.1079  -0.0747  -0.0419  -0.0273  -0.0003   0.0076   0.0339
     0.0609   0.0729   0.0887   0.1006   0.1066   0.1123   0.1304   0.1552
     0.1668   0.1939   0.2008   0.2121   0.2174   0.2233   0.2380   0.2641
     0.2718   0.2922   0.3404   0.4081   0.4165   0.4232   0.4580   0.4752
     0.4774   0.5001   0.5112   0.5693   0.5841   0.5892   0.6090   0.6351
     0.6531   0.6732   0.6877   0.7043   0.7305   0.8161   0.8630   0.8930
     0.9077   0.9401   1.0074   1.0704   1.1136   1.1329   1.1544   1.1598
     1.1794   1.2084   1.2270   1.2577   1.2645   1.3579   1.4097   1.4381
     1.4539   1.4839   1.5025   1.5285   1.5573   1.5703   1.5950   1.6113
     1.6388   1.6507   1.6856   1.7245   1.7556   1.7665   1.7799   1.8075
     1.8108   1.8231   1.8453   1.8673   1.8774   1.8949   1.9059   1.9351
     1.9459   1.9817   2.0015   2.0364   2.0574   2.0739   2.0819   2.0927
     2.0983   2.1164   2.1338   2.1373   2.1438   2.1682   2.1720   2.1754
     2.1816   2.2237   2.3103   2.3894   2.4116   2.5023   2.5791   2.8347
     2.8717   2.9359

          k = 0.2000-0.1155 0.0000 ( 36641 PWs)   bands (ev):

   -21.5314 -10.5656  -7.4772  -6.8917  -6.2489  -5.6848  -5.4507  -5.2771
    -4.7548  -4.7409  -4.2282  -4.0858  -3.8234  -3.8165  -3.7322  -3.6864
    -3.5288  -3.2666  -3.1498  -3.1293  -3.0424  -2.7753  -2.5825  -2.5346
    -2.5045  -2.4447  -2.4205  -2.2402  -2.1347  -2.1144  -2.1080  -2.0920
    -2.0625  -2.0250  -2.0187  -2.0025  -1.9745  -1.8823  -1.8386  -1.8049
    -1.7528  -1.7461  -1.7006  -1.5898  -1.5586  -1.5533  -1.5334  -1.4697
    -1.4015  -1.3878  -1.3480  -1.3132  -1.2959  -1.2758  -1.2558  -1.2488
    -1.2388  -1.2235  -1.1668  -1.1280  -1.1168  -1.0972  -1.0789  -1.0462
    -1.0022  -0.9289  -0.8054  -0.6472  -0.6347  -0.6200  -0.5983  -0.5416
    -0.4842  -0.4654  -0.4193  -0.4089  -0.3016  -0.2918  -0.2752  -0.2577
    -0.2398  -0.2309  -0.2155  -0.2059  -0.1940  -0.1813  -0.1471  -0.0960
    -0.0779  -0.0529  -0.0481  -0.0432  -0.0190   0.0053   0.0123   0.0224
     0.0291   0.0390   0.0459   0.0528   0.0539   0.0576   0.0925   0.1062
     0.1341   0.1418   0.1536   0.1575   0.1846   0.1992   0.2122   0.2295
     0.2607   0.2642   0.3175   0.3337   0.3591   0.3743   0.3772   0.4048
     0.5211   0.5368   0.5920   0.6149   0.6224   0.6600   0.6717   0.6929
     0.7033   0.7203   0.7230   0.7255   0.9441   0.9809   1.0341   1.0462
     1.0570   1.0684   1.0931   1.0974   1.1357   1.1760   1.2131   1.2439
     1.2740   1.3157   1.3336   1.3495   1.3740   1.3879   1.4199   1.4668
     1.4762   1.5112   1.5223   1.5356   1.5472   1.5636   1.5897   1.5959
     1.6246   1.6563   1.6690   1.6868   1.7169   1.7244   1.7389   1.7588
     1.7820   1.7888   1.8020   1.8061   1.8186   1.8372   1.8812   1.8890
     1.8965   1.9014   1.9357   1.9426   1.9529   1.9693   1.9834   1.9901
     2.0044   2.0387   2.0438   2.0473   2.0721   2.0776   2.0817   2.0976
     2.1083   2.1343   2.1376   2.1468   2.2210   2.2360   2.2404   2.2699
     2.3163   2.3383

          k = 0.2000 0.1155 0.0000 ( 36641 PWs)   bands (ev):

   -21.5314 -10.5661  -7.4764  -6.8926  -6.2405  -5.6572  -5.4528  -5.3271
    -4.7408  -4.7320  -4.2360  -4.1172  -3.8240  -3.8196  -3.7007  -3.6753
    -3.5319  -3.2658  -3.1477  -3.1332  -3.0442  -2.7847  -2.5571  -2.5500
    -2.4898  -2.4416  -2.4363  -2.2055  -2.1676  -2.1099  -2.1083  -2.0912
    -2.0716  -2.0257  -2.0185  -1.9953  -1.9829  -1.8796  -1.8363  -1.8211
    -1.7517  -1.7462  -1.6864  -1.6519  -1.5602  -1.5544  -1.4944  -1.4400
    -1.4227  -1.3794  -1.3534  -1.3323  -1.2910  -1.2651  -1.2607  -1.2497
    -1.2431  -1.1905  -1.1840  -1.1338  -1.1179  -1.0889  -1.0753  -1.0481
    -0.9934  -0.9040  -0.8299  -0.6435  -0.6380  -0.6038  -0.5954  -0.5466
    -0.5065  -0.4523  -0.4251  -0.4085  -0.3123  -0.2823  -0.2770  -0.2583
    -0.2301  -0.2291  -0.2182  -0.2004  -0.1964  -0.1795  -0.1511  -0.1044
    -0.0684  -0.0527  -0.0444  -0.0434  -0.0234   0.0093   0.0138   0.0270
     0.0315   0.0382   0.0392   0.0494   0.0520   0.0598   0.0954   0.1011
     0.1384   0.1403   0.1592   0.1600   0.1764   0.2083   0.2148   0.2279
     0.2558   0.2669   0.3218   0.3436   0.3620   0.3663   0.3757   0.4054
     0.5374   0.5434   0.5651   0.6125   0.6186   0.6698   0.6741   0.6891
     0.6935   0.7123   0.7236   0.7279   0.9041   0.9918   1.0254   1.0496
     1.0540   1.0626   1.0889   1.1028   1.1203   1.1912   1.2201   1.2504
     1.2782   1.3151   1.3285   1.3665   1.3796   1.3951   1.4153   1.4207
     1.4812   1.5161   1.5331   1.5428   1.5604   1.5742   1.5906   1.6021
     1.6182   1.6560   1.6655   1.6945   1.6984   1.7338   1.7383   1.7699
     1.7823   1.7876   1.7977   1.8085   1.8185   1.8301   1.8784   1.8832
     1.8945   1.8958   1.9375   1.9406   1.9562   1.9737   1.9782   1.9911
     2.0073   2.0424   2.0461   2.0473   2.0723   2.0733   2.0797   2.1044
     2.1068   2.1354   2.1360   2.1469   2.2244   2.2320   2.2439   2.2759
     2.3137   2.3299

          k = 0.2000 0.3464 0.0000 ( 36608 PWs)   bands (ev):

   -21.5314 -10.5657  -7.2132  -6.8487  -6.1322  -5.7818  -5.7258  -5.4657
    -5.3810  -4.4904  -4.3962  -4.0191  -4.0023  -3.8886  -3.1886  -3.1736
    -3.1689  -3.1583  -3.0545  -2.9724  -2.8726  -2.8598  -2.8305  -2.4985
    -2.4573  -2.4169  -2.4063  -2.3492  -2.3190  -2.3008  -2.2393  -2.2103
    -2.1992  -2.1915  -2.1667  -2.0549  -2.0272  -1.9420  -1.8247  -1.8159
    -1.7778  -1.7594  -1.6931  -1.6814  -1.6177  -1.5281  -1.4939  -1.4646
    -1.3619  -1.3347  -1.2980  -1.2942  -1.2896  -1.2708  -1.2521  -1.2307
    -1.2204  -1.2015  -1.1618  -1.1111  -1.0690  -1.0092  -0.9560  -0.9115
    -0.8565  -0.8206  -0.8017  -0.7143  -0.6187  -0.5993  -0.5842  -0.5518
    -0.5341  -0.5060  -0.5004  -0.4788  -0.4320  -0.4130  -0.3921  -0.3738
    -0.3632  -0.3404  -0.3274  -0.3069  -0.2542  -0.2078  -0.1554  -0.1376
    -0.1275  -0.1073  -0.0738  -0.0535  -0.0371  -0.0225  -0.0137  -0.0022
     0.0154   0.0417   0.0459   0.0623   0.0735   0.0891   0.1183   0.1411
     0.1507   0.1565   0.1735   0.1843   0.1957   0.2008   0.2194   0.2286
     0.2810   0.3185   0.3217   0.3442   0.4420   0.4590   0.4770   0.4947
     0.5162   0.5340   0.5615   0.5994   0.6203   0.6352   0.6518   0.6594
     0.6644   0.6780   0.7309   0.7600   0.7981   0.8503   0.9518   0.9642
     1.0309   1.0568   1.0825   1.1052   1.1152   1.1281   1.1449   1.1524
     1.1748   1.1882   1.2002   1.2200   1.2544   1.3381   1.3471   1.3655
     1.3959   1.4134   1.4326   1.4524   1.4794   1.5138   1.5433   1.5522
     1.6077   1.6658   1.7400   1.7619   1.7734   1.7943   1.8082   1.8159
     1.8292   1.8396   1.8591   1.8633   1.8809   1.9300   1.9433   1.9514
     1.9610   1.9869   2.0017   2.0071   2.0261   2.0451   2.0527   2.0778
     2.0826   2.0941   2.0986   2.1178   2.1258   2.1574   2.1759   2.1940
     2.2167   2.2287   2.3245   2.3488   2.3638   2.4610   2.4975   2.6060
     2.7600   2.8138

          k = 0.2000-0.5774 0.0000 ( 36660 PWs)   bands (ev):

   -21.5314 -10.5651  -6.9913  -6.5558  -6.5102  -6.0265  -5.8125  -5.5250
    -5.1112  -4.9847  -4.5320  -4.0711  -3.5411  -3.3939  -3.2065  -3.1986
    -3.1805  -2.9852  -2.9451  -2.7979  -2.7875  -2.7805  -2.6546  -2.6418
    -2.6370  -2.6081  -2.5992  -2.5809  -2.4337  -2.3156  -2.2591  -2.2392
    -2.2209  -2.2037  -2.1669  -2.1612  -2.0822  -2.0399  -1.8549  -1.8194
    -1.7246  -1.7018  -1.6966  -1.6227  -1.5909  -1.5362  -1.4660  -1.4516
    -1.4187  -1.4053  -1.3941  -1.2894  -1.2381  -1.2356  -1.2204  -1.2058
    -1.1668  -1.1057  -1.0706  -1.0611  -1.0046  -0.9876  -0.9751  -0.9068
    -0.8738  -0.8117  -0.7142  -0.6790  -0.6705  -0.6307  -0.6051  -0.5961
    -0.5534  -0.5322  -0.5107  -0.4808  -0.4374  -0.4291  -0.3922  -0.3784
    -0.3591  -0.3425  -0.3295  -0.3158  -0.3099  -0.3005  -0.2702  -0.2470
    -0.2374  -0.2087  -0.1824  -0.1603  -0.1160  -0.0880  -0.0574  -0.0148
     0.0057   0.0375   0.0540   0.0761   0.0859   0.1080   0.1175   0.1370
     0.1701   0.1994   0.2165   0.2321   0.2461   0.2615   0.3211   0.3473
     0.3730   0.3911   0.3965   0.4093   0.4165   0.4589   0.4818   0.5064
     0.5140   0.5376   0.5768   0.6017   0.6219   0.6308   0.6609   0.6749
     0.6914   0.6981   0.7206   0.7426   0.7596   0.7737   0.7788   0.8205
     0.8844   0.9456   1.0144   1.0458   1.0653   1.0720   1.1023   1.1185
     1.1269   1.1494   1.1601   1.2464   1.2692   1.2977   1.3238   1.3340
     1.3691   1.3751   1.4032   1.4536   1.4664   1.4902   1.5188   1.5753
     1.5967   1.6907   1.7282   1.7520   1.7951   1.8120   1.8367   1.8558
     1.8666   1.8730   1.8903   1.9110   1.9342   1.9483   1.9641   1.9740
     1.9804   2.0200   2.0438   2.0486   2.0562   2.0609   2.0647   2.0720
     2.0785   2.1249   2.1363   2.1566   2.1632   2.1735   2.1823   2.1954
     2.2144   2.2744   2.3598   2.5169   2.6915   2.7706   2.9458   3.0487
     3.0760   3.1025

          k = 0.2000-0.3464 0.0000 ( 36608 PWs)   bands (ev):

   -21.5314 -10.5650  -7.2141  -6.8506  -6.1430  -5.8026  -5.7287  -5.4706
    -5.3288  -4.5142  -4.3723  -4.0144  -4.0074  -3.8813  -3.1871  -3.1740
    -3.1715  -3.1620  -3.0506  -2.9960  -2.8845  -2.8495  -2.8265  -2.5042
    -2.4667  -2.4213  -2.4070  -2.3391  -2.3166  -2.2941  -2.2618  -2.2103
    -2.2062  -2.1908  -2.1707  -2.0518  -2.0069  -1.8703  -1.8255  -1.8113
    -1.7848  -1.7733  -1.7099  -1.6860  -1.6035  -1.5242  -1.5021  -1.4518
    -1.3647  -1.3343  -1.3000  -1.2968  -1.2907  -1.2714  -1.2605  -1.2333
    -1.2278  -1.1961  -1.1510  -1.1167  -1.0864  -1.0314  -0.9661  -0.9268
    -0.8639  -0.8226  -0.7701  -0.7115  -0.6248  -0.5991  -0.5861  -0.5572
    -0.5346  -0.5130  -0.4817  -0.4587  -0.4367  -0.3997  -0.3908  -0.3769
    -0.3646  -0.3386  -0.3225  -0.3000  -0.2596  -0.2142  -0.1773  -0.1526
    -0.1335  -0.1179  -0.0642  -0.0622  -0.0389  -0.0299  -0.0082   0.0027
     0.0117   0.0382   0.0445   0.0649   0.0820   0.0956   0.1133   0.1358
     0.1442   0.1515   0.1686   0.1918   0.1966   0.2124   0.2135   0.2257
     0.2748   0.3155   0.3311   0.3395   0.4517   0.4663   0.4701   0.5088
     0.5134   0.5607   0.5841   0.6126   0.6300   0.6367   0.6483   0.6576
     0.6615   0.6664   0.7012   0.7716   0.7961   0.8889   0.9292   0.9697
     1.0122   1.0448   1.0999   1.1110   1.1144   1.1301   1.1457   1.1597
     1.1672   1.1923   1.1999   1.2146   1.2510   1.3143   1.3520   1.3757
     1.4003   1.4177   1.4321   1.4432   1.4780   1.5095   1.5379   1.5724
     1.6125   1.6714   1.7208   1.7596   1.7783   1.7834   1.8049   1.8166
     1.8229   1.8381   1.8653   1.8708   1.8810   1.9374   1.9445   1.9465
     1.9609   1.9900   1.9998   2.0047   2.0255   2.0467   2.0566   2.0765
     2.0847   2.0928   2.0989   2.1181   2.1275   2.1366   2.1736   2.2055
     2.2238   2.2330   2.2864   2.3472   2.3857   2.4770   2.5028   2.6367
     2.7273   2.8198

          k = 0.4000-0.2309 0.0000 ( 36606 PWs)   bands (ev):

   -21.5314 -10.5653  -7.1085  -6.8152  -6.2965  -6.0423  -5.5669  -5.3127
    -4.9709  -4.9475  -4.8135  -3.8871  -3.8568  -3.7465  -3.2579  -3.2018
    -3.1986  -3.0821  -2.9288  -2.8837  -2.7550  -2.7464  -2.6059  -2.5988
    -2.5764  -2.5278  -2.4890  -2.4490  -2.3615  -2.3514  -2.3303  -2.2794
    -2.2699  -2.0852  -2.0619  -2.0135  -1.9766  -1.9222  -1.8703  -1.8578
    -1.8445  -1.8262  -1.7331  -1.5831  -1.5517  -1.5224  -1.4987  -1.4669
    -1.3387  -1.3280  -1.3104  -1.2981  -1.2917  -1.2641  -1.2596  -1.2428
    -1.2112  -1.1541  -1.1404  -1.1322  -1.1053  -1.0828  -0.9754  -0.9148
    -0.8616  -0.7960  -0.7608  -0.6797  -0.6589  -0.6280  -0.6028  -0.5860
    -0.5698  -0.5536  -0.5170  -0.4913  -0.4700  -0.4281  -0.3967  -0.3766
    -0.3541  -0.3266  -0.3054  -0.2991  -0.2684  -0.2558  -0.1937  -0.1428
    -0.1140  -0.1086  -0.0718  -0.0449  -0.0288  -0.0004   0.0094   0.0355
     0.0607   0.0739   0.0888   0.0997   0.1067   0.1122   0.1323   0.1553
     0.1674   0.1943   0.2021   0.2122   0.2170   0.2238   0.2373   0.2645
     0.2716   0.2922   0.3410   0.4093   0.4161   0.4233   0.4560   0.4750
     0.4773   0.5002   0.5120   0.5679   0.5841   0.5894   0.6074   0.6350
[...]
     atom    8 type  1   force =     0.00004021   -0.00415151   -0.10144355
     atom    9 type  1   force =     0.00080777    0.00281694   -0.10563748
     atom   10 type  1   force =     0.00181973    0.00100857   -0.01196863
     atom   11 type  1   force =    -0.00084594   -0.00061591   -0.00912577
     atom   12 type  1   force =    -0.00088380    0.00193681   -0.01100342
     atom   13 type  1   force =    -0.00077546   -0.00049774   -0.00877571
     atom   14 type  1   force =     0.00119757    0.00044705   -0.01017050
     atom   15 type  1   force =    -0.00083913    0.00008618   -0.01012920
     atom   16 type  1   force =     0.00115964   -0.00154878   -0.01121920
     atom   17 type  1   force =    -0.00004117   -0.00047875   -0.01009946
     atom   18 type  1   force =    -0.00049886   -0.00013993   -0.01411149
     atom   19 type  1   force =    -0.00493836   -0.00113315    0.00521017
     atom   20 type  1   force =     0.00077170   -0.00060648    0.00504005
     atom   21 type  1   force =     0.00300276   -0.00470423    0.01041041
     atom   22 type  1   force =     0.00244241    0.00455520    0.00791499
     atom   23 type  1   force =    -0.00281065    0.00445755    0.01112654
     atom   24 type  1   force =     0.00034459   -0.00017146    0.01931337
     atom   25 type  1   force =     0.00172814    0.00101296    0.01871487
     atom   26 type  1   force =    -0.00290265   -0.00317073    0.00600448
     atom   27 type  1   force =     0.00411441    0.00070810    0.01029659
     atom   28 type  1   force =     0.04272537    0.02701773    0.15490268
     atom   29 type  1   force =    -0.04641259    0.07031507    0.18498472
     atom   30 type  1   force =    -0.01081799    0.00506323    0.11525089
     atom   31 type  1   force =     0.04417428   -0.06916635    0.18448304
     atom   32 type  1   force =     0.01158015    0.00012753    0.12842219
     atom   33 type  1   force =    -0.00059856   -0.00166981    0.11762141
     atom   34 type  1   force =    -0.00226493   -0.01095060    0.11473327
     atom   35 type  1   force =    -0.00070250    0.00006861    0.11473071
     atom   36 type  1   force =     0.00059600   -0.00004944    0.10059003
     atom   37 type  2   force =    -0.30541867   -0.15663677    0.17687059
     atom   38 type  3   force =     1.92675019    0.96096440   -1.34686726
     atom   39 type  4   force =    -0.05289437   -0.02631601   -0.04615431
     The ionic contribution  to forces
     atom    1 type  1   force =    -0.00958067    0.00071820 -111.23892082
     atom    2 type  1   force =     0.00126893    0.00049494 -111.25563915
     atom    3 type  1   force =     0.00831171   -0.00011116 -111.23638770
     atom    4 type  1   force =    -0.00433820    0.00889546 -111.23617988
     atom    5 type  1   force =     0.00426238    0.00740440 -111.23633136
     atom    6 type  1   force =     0.00007585    0.00031200 -111.22773077
     atom    7 type  1   force =    -0.00133716   -0.00080559 -111.22792525
     atom    8 type  1   force =    -0.00396211   -0.00880534 -111.23845299
     atom    9 type  1   force =     0.00529927   -0.00810291 -111.23577146
     atom   10 type  1   force =    -0.05427323   -0.03285261  -40.19326937
     atom   11 type  1   force =     0.01082910   -0.07353031  -40.28149091
     atom   12 type  1   force =     0.04344272   -0.03122359  -40.17185252
     atom   13 type  1   force =    -0.05693827    0.04492446  -40.28509073
     atom   14 type  1   force =     0.06330391    0.03606388  -40.27249521
     atom   15 type  1   force =    -0.00635846    0.01606664  -40.16026097
     atom   16 type  1   force =    -0.00403074    0.05446282  -40.17261801
     atom   17 type  1   force =     0.01116689   -0.01177332  -40.15774197
     atom   18 type  1   force =    -0.00713836   -0.00213534  -40.14974331
     atom   19 type  1   force =    -0.48137180    0.04081066   31.18924100
     atom   20 type  1   force =     0.06571757    0.02474830   30.24762003
     atom   21 type  1   force =     0.41429612   -0.00972968   31.31796144
     atom   22 type  1   force =    -0.21086639    0.43353613   31.33296771
     atom   23 type  1   force =     0.20741754    0.37054207   31.32100738
     atom   24 type  1   force =     0.00397461    0.01467521   31.69035978
     atom   25 type  1   force =    -0.06332430   -0.03847464   31.68177539
     atom   26 type  1   force =    -0.19358342   -0.44267937   31.21428048
     atom   27 type  1   force =     0.25674683   -0.39400354   31.35223794
     atom   28 type  1   force =    -2.27270978   -1.38820017  103.09302512
     atom   29 type  1   force =     0.84930428   -4.76933522   99.26396601
     atom   30 type  1   force =     1.50069891   -1.07823530  104.02610527
     atom   31 type  1   force =    -3.64530041    3.15094684   98.91061894
     atom   32 type  1   force =     4.25116856    2.45891975   98.99239722
     atom   33 type  1   force =    -0.24856681    0.46404196  104.26673241
     atom   34 type  1   force =    -0.13502797    1.87575273  104.01914263
     atom   35 type  1   force =     0.29504693   -0.36980467  104.32818179
     atom   36 type  1   force =    -0.16953350   -0.02486502  104.51263447
     atom   37 type  2   force =     5.06018723    2.44803807   55.80750360
     atom   38 type  3   force =    -7.35096094   -3.68791862   89.12747948
     atom   39 type  4   force =     1.86668318    0.92123191   15.28266431
     The local contribution  to forces
     atom    1 type  1   force =     0.01409729   -0.00243390  111.34234904
     atom    2 type  1   force =    -0.00414334   -0.00195266  111.35959562
     atom    3 type  1   force =    -0.00997453    0.00197047  111.34450414
     atom    4 type  1   force =     0.00161411   -0.00844100  111.34339705
     atom    5 type  1   force =    -0.00348416   -0.00928445  111.34425939
     atom    6 type  1   force =     0.00166978    0.00093773  111.33216316
     atom    7 type  1   force =     0.00104863    0.00045666  111.33377685
     atom    8 type  1   force =     0.00450415    0.01326909  111.34271933
     atom    9 type  1   force =    -0.00641236    0.00538880  111.34336535
     atom   10 type  1   force =     0.05293674    0.03214324   40.18450428
     atom   11 type  1   force =    -0.01144862    0.07445728   40.27093316
     atom   12 type  1   force =    -0.04195204    0.02940923   40.16421224
     atom   13 type  1   force =     0.05715036   -0.04578141   40.27448407
     atom   14 type  1   force =    -0.06340465   -0.03593665   40.26042073
     atom   15 type  1   force =     0.00703517   -0.01660855   40.15012933
     atom   16 type  1   force =     0.00320886   -0.05243384   40.16539138
     atom   17 type  1   force =    -0.01164257    0.01234521   40.14776586
     atom   18 type  1   force =     0.00786422    0.00232645   40.14300700
     atom   19 type  1   force =     0.48559187   -0.03787084  -31.17244358
     atom   20 type  1   force =    -0.06712375   -0.02432336  -30.23400964
     atom   21 type  1   force =    -0.41394003    0.01233866  -31.30894976
     atom   22 type  1   force =     0.20763092   -0.43804438  -31.32052628
     atom   23 type  1   force =    -0.20483808   -0.37181159  -31.31207640
     atom   24 type  1   force =    -0.00308645   -0.01384686  -31.68614958
     atom   25 type  1   force =     0.06175255    0.03769119  -31.67450247
     atom   26 type  1   force =     0.19687496    0.44427990  -31.19868865
     atom   27 type  1   force =    -0.26105050    0.39257370  -31.34141834
     atom   28 type  1   force =     2.22017851    1.35555579 -103.25821333
     atom   29 type  1   force =    -0.79713930    4.67646152  -99.45404768
     atom   30 type  1   force =    -1.48047023    1.06586869 -104.15056717
     atom   31 type  1   force =     3.58231606   -3.06622919  -99.10057759
     atom   32 type  1   force =    -4.24975324   -2.45025957  -99.12554956
     atom   33 type  1   force =     0.24862494   -0.45937658 -104.39801423
     atom   34 type  1   force =     0.13659749   -1.85363411 -104.14268892
     atom   35 type  1   force =    -0.29198055    0.36794519 -104.45584580
     atom   36 type  1   force =     0.16595775    0.02363884 -104.62247163
     atom   37 type  2   force =    -4.75830843   -2.29296662  -55.99068153
     atom   38 type  3   force =     5.43990403    2.73440410  -87.79415379
     atom   39 type  4   force =    -1.81257091   -0.89413842  -15.22623153
     The core correction contribution to forces
     atom    1 type  1   force =     0.00041616   -0.00005342    0.01032971
     atom    2 type  1   force =    -0.00040418   -0.00021718    0.01000762
     atom    3 type  1   force =    -0.00003901    0.00013178    0.01044699
     atom    4 type  1   force =    -0.00022605   -0.00001278    0.01030509
     atom    5 type  1   force =     0.00006851   -0.00009296    0.01050179
     atom    6 type  1   force =    -0.00002529    0.00001082    0.01002019
     atom    7 type  1   force =    -0.00012946   -0.00008052    0.01035180
     atom    8 type  1   force =     0.00011740    0.00034406    0.01031569
     atom    9 type  1   force =    -0.00015041   -0.00018557    0.01024642
     atom   10 type  1   force =    -0.00013572   -0.00009853   -0.00210437
     atom   11 type  1   force =    -0.00011779    0.00012967   -0.00168200
     atom   12 type  1   force =     0.00037167    0.00001877   -0.00198402
     atom   13 type  1   force =     0.00001102   -0.00020839   -0.00165252
     atom   14 type  1   force =     0.00020443    0.00013469   -0.00208146
     atom   15 type  1   force =    -0.00000177    0.00002127   -0.00162548
     atom   16 type  1   force =     0.00020621    0.00033066   -0.00200740
     atom   17 type  1   force =    -0.00000604   -0.00004607   -0.00159170
     atom   18 type  1   force =    -0.00017665   -0.00009087   -0.00182692
     atom   19 type  1   force =    -0.00064994   -0.00036103    0.00137963
     atom   20 type  1   force =     0.00004397    0.00011633    0.00216778
     atom   21 type  1   force =     0.00020509   -0.00018148    0.00119095
     atom   22 type  1   force =    -0.00030322    0.00005458    0.00122288
     atom   23 type  1   force =    -0.00007495    0.00028878    0.00128073
     atom   24 type  1   force =    -0.00003211   -0.00003477    0.00206669
     atom   25 type  1   force =     0.00042413    0.00023965    0.00189238
     atom   26 type  1   force =    -0.00064847   -0.00033859    0.00144895
     atom   27 type  1   force =    -0.00015784   -0.00030360    0.00134187
     atom   28 type  1   force =     0.00266675    0.00146124   -0.00721347
     atom   29 type  1   force =    -0.00038434    0.01349552    0.00140155
     atom   30 type  1   force =    -0.00338876    0.00328686   -0.00898593
     atom   31 type  1   force =     0.01185469   -0.00768318    0.00258804
     atom   32 type  1   force =    -0.01048877   -0.00680564    0.00820152
     atom   33 type  1   force =    -0.00069248   -0.00031801   -0.00960339
     atom   34 type  1   force =     0.00121754   -0.00435267   -0.00906858
     atom   35 type  1   force =    -0.00082650   -0.00054281   -0.00966178
     atom   36 type  1   force =    -0.00002330    0.00003747   -0.01078375
     atom   37 type  2   force =     0.00297925    0.00166888   -0.00189072
     atom   38 type  3   force =    -0.01608265   -0.00802753    0.01204833
     atom   39 type  4   force =     0.00000000    0.00000000    0.00000000
     The Hubbard contrib.    to forces
     atom    1 type  1   force =     0.00000000    0.00000000    0.00000000
     atom    2 type  1   force =     0.00000000    0.00000000    0.00000000
     atom    3 type  1   force =     0.00000000    0.00000000    0.00000000
     atom    4 type  1   force =     0.00000000    0.00000000    0.00000000
     atom    5 type  1   force =     0.00000000    0.00000000    0.00000000
     atom    6 type  1   force =     0.00000000    0.00000000    0.00000000
     atom    7 type  1   force =     0.00000000    0.00000000    0.00000000
     atom    8 type  1   force =     0.00000000    0.00000000    0.00000000
     atom    9 type  1   force =     0.00000000    0.00000000    0.00000000
     atom   10 type  1   force =     0.00000000    0.00000000    0.00000000
     atom   11 type  1   force =     0.00000000    0.00000000    0.00000000
     atom   12 type  1   force =     0.00000000    0.00000000    0.00000000
     atom   13 type  1   force =     0.00000000    0.00000000    0.00000000
     atom   14 type  1   force =     0.00000000    0.00000000    0.00000000
     atom   15 type  1   force =     0.00000000    0.00000000    0.00000000
     atom   16 type  1   force =     0.00000000    0.00000000    0.00000000
     atom   17 type  1   force =     0.00000000    0.00000000    0.00000000
     atom   18 type  1   force =     0.00000000    0.00000000    0.00000000
     atom   19 type  1   force =     0.00000000    0.00000000    0.00000000
     atom   20 type  1   force =     0.00000000    0.00000000    0.00000000
     atom   21 type  1   force =     0.00000000    0.00000000    0.00000000
     atom   22 type  1   force =     0.00000000    0.00000000    0.00000000
     atom   23 type  1   force =     0.00000000    0.00000000    0.00000000
     atom   24 type  1   force =     0.00000000    0.00000000    0.00000000
     atom   25 type  1   force =     0.00000000    0.00000000    0.00000000
     atom   26 type  1   force =     0.00000000    0.00000000    0.00000000
     atom   27 type  1   force =     0.00000000    0.00000000    0.00000000
     atom   28 type  1   force =     0.00000000    0.00000000    0.00000000
     atom   29 type  1   force =     0.00000000    0.00000000    0.00000000
     atom   30 type  1   force =     0.00000000    0.00000000    0.00000000
     atom   31 type  1   force =     0.00000000    0.00000000    0.00000000
     atom   32 type  1   force =     0.00000000    0.00000000    0.00000000
     atom   33 type  1   force =     0.00000000    0.00000000    0.00000000
     atom   34 type  1   force =     0.00000000    0.00000000    0.00000000
     atom   35 type  1   force =     0.00000000    0.00000000    0.00000000
     atom   36 type  1   force =     0.00000000    0.00000000    0.00000000
     atom   37 type  2   force =     0.00000000    0.00000000    0.00000000
     atom   38 type  3   force =     0.00000000    0.00000000    0.00000000
     atom   39 type  4   force =     0.00000000    0.00000000    0.00000000
     The SCF correction term to forces
     atom    1 type  1   force =     0.00000000    0.00000000   -0.00000000
     atom    2 type  1   force =     0.00000000    0.00000000    0.00000000
     atom    3 type  1   force =    -0.00000000   -0.00000000    0.00000000
     atom    4 type  1   force =    -0.00000000    0.00000000   -0.00000000
     atom    5 type  1   force =    -0.00000000   -0.00000000   -0.00000000
     atom    6 type  1   force =     0.00000000    0.00000000   -0.00000000
     atom    7 type  1   force =    -0.00000000   -0.00000000   -0.00000000
     atom    8 type  1   force =     0.00000000   -0.00000000   -0.00000000
     atom    9 type  1   force =     0.00000000   -0.00000000   -0.00000000
     atom   10 type  1   force =    -0.00000000    0.00000000   -0.00000000
     atom   11 type  1   force =     0.00000000    0.00000000   -0.00000000
     atom   12 type  1   force =    -0.00000000    0.00000000   -0.00000000
     atom   13 type  1   force =     0.00000000    0.00000000   -0.00000000
     atom   14 type  1   force =     0.00000000   -0.00000000   -0.00000000
     atom   15 type  1   force =    -0.00000000    0.00000000   -0.00000000
     atom   16 type  1   force =    -0.00000000   -0.00000000   -0.00000000
     atom   17 type  1   force =     0.00000000   -0.00000000   -0.00000000
     atom   18 type  1   force =     0.00000000   -0.00000000   -0.00000000
     atom   19 type  1   force =     0.00000000   -0.00000000   -0.00000000
     atom   20 type  1   force =     0.00000000   -0.00000000   -0.00000000
     atom   21 type  1   force =    -0.00000000    0.00000000   -0.00000000
     atom   22 type  1   force =    -0.00000000   -0.00000000   -0.00000000
     atom   23 type  1   force =     0.00000000   -0.00000000   -0.00000000
     atom   24 type  1   force =     0.00000000    0.00000000   -0.00000000
     atom   25 type  1   force =    -0.00000000    0.00000000   -0.00000000
     atom   26 type  1   force =     0.00000000    0.00000000   -0.00000000
     atom   27 type  1   force =    -0.00000000    0.00000000   -0.00000000
     atom   28 type  1   force =     0.00000000   -0.00000000   -0.00000000
     atom   29 type  1   force =    -0.00000000   -0.00000000   -0.00000000
     atom   30 type  1   force =    -0.00000000   -0.00000000   -0.00000000
     atom   31 type  1   force =     0.00000000   -0.00000000   -0.00000000
     atom   32 type  1   force =    -0.00000000    0.00000000   -0.00000000
     atom   33 type  1   force =     0.00000000    0.00000000   -0.00000000
     atom   34 type  1   force =     0.00000000    0.00000000   -0.00000000
     atom   35 type  1   force =    -0.00000000    0.00000000   -0.00000000
     atom   36 type  1   force =     0.00000000    0.00000000   -0.00000000
     atom   37 type  2   force =    -0.00001886   -0.00001078   -0.00015178
     atom   38 type  3   force =     0.00003759   -0.00002338   -0.00022300
     atom   39 type  4   force =    -0.00000761    0.00000168   -0.00002971

     Total force =     0.013441     Total SCF correction =     0.000276

     Writing all to output data dir ./pwscf.save/

     init_run     :     10.74s CPU     11.14s WALL (       1 calls)
     electrons    :    541.11s CPU    551.40s WALL (       1 calls)
     forces       :      3.16s CPU      3.20s WALL (       1 calls)

     Called by init_run:
     wfcinit      :      7.50s CPU      7.79s WALL (       1 calls)
     potinit      :      2.15s CPU      2.23s WALL (       1 calls)
     hinit0       :      0.84s CPU      0.86s WALL (       1 calls)

     Called by electrons:
     c_bands      :    455.95s CPU    464.02s WALL (      43 calls)
     sum_band     :     57.99s CPU     59.07s WALL (      43 calls)
     v_of_rho     :      6.92s CPU      7.45s WALL (      44 calls)
     newd         :      2.30s CPU      2.53s WALL (      44 calls)
     PAW_pot      :     11.08s CPU     11.18s WALL (      44 calls)
     mix_rho      :      8.21s CPU      8.35s WALL (      43 calls)
     vdW_kernel   :      1.08s CPU      1.09s WALL (       1 calls)

     Called by c_bands:
     init_us_2    :      5.43s CPU      5.53s WALL (    2288 calls)
     init_us_2:cp :      5.42s CPU      5.53s WALL (    2288 calls)
     cegterg      :    441.79s CPU    449.41s WALL (    1118 calls)

     Called by *egterg:
     cdiaghg      :    162.02s CPU    163.91s WALL (    3442 calls)
     h_psi        :    199.88s CPU    203.91s WALL (    3468 calls)
     s_psi        :     23.48s CPU     24.17s WALL (    3468 calls)
     g_psi        :      0.48s CPU      0.51s WALL (    2324 calls)

     Called by h_psi:
     h_psi:calbec :     30.89s CPU     31.77s WALL (    3468 calls)
     vloc_psi     :    143.20s CPU    145.85s WALL (    3468 calls)
     add_vuspsi   :     24.63s CPU     25.12s WALL (    3468 calls)

     General routines
     calbec       :     46.37s CPU     47.42s WALL (    4690 calls)
     fft          :      4.08s CPU      4.33s WALL (    3993 calls)
     ffts         :      5.16s CPU      5.26s WALL (   14608 calls)
     fftw         :    162.90s CPU    166.04s WALL ( 1161980 calls)
     interpolate  :      0.48s CPU      0.49s WALL (      88 calls)

     Parallel routines

     PWSCF        :   9m19.44s CPU   9m34.51s WALL


   This run was terminated on:  13:14:38  21Nov2025            

=------------------------------------------------------------------------------=
   JOB DONE.
=------------------------------------------------------------------------------=
