
     Program PWSCF v.7.1 starts on 14Dec2025 at  9:41: 9 
        Git branch: heads/qe-7.1
        Last git commit: 48ba0178f8fede6d020eb786884699a9f063f55d-dirty
        Last git commit date: Fri Jan 27 14:22:33 2023 +0000
        Last git commit subject: Merge branch 'fix_hubbard' into 'develop'

     This program is part of the open-source Quantum ESPRESSO suite
     for quantum simulation of materials; please cite
         "P. Giannozzi et al., J. Phys.:Condens. Matter 21 395502 (2009);
         "P. Giannozzi et al., J. Phys.:Condens. Matter 29 465901 (2017);
         "P. Giannozzi et al., J. Chem. Phys. 152 154105 (2020);
          URL http://www.quantum-espresso.org", 
     in publications or presentations arising from this work. More details at
     http://www.quantum-espresso.org/quote

     Parallel version (MPI), running on    96 processors

     MPI processes distributed on     2 nodes
     72470 MiB available memory on the printing compute node when the environment starts

     Reading input from espresso.pwi
Warning: card &CELL ignored
Warning: card / ignored
Warning: card &FCP ignored
Warning: card / ignored
Warning: card &RISM ignored
Warning: card / ignored

     Current dimensions of program PWSCF are:
     Max number of different atomic species (ntypx) = 10
     Max number of k-points (npk) =  40000
     Max angular momentum in pseudopotentials (lmaxx) =  4
     file Co.pbe-n-kjpaw_psl.1.0.0.UPF: wavefunction(s)  4S 3D renormalized
     file C.pbe-n-kjpaw_psl.1.0.0.UPF: wavefunction(s)  2S 2P renormalized
     file O.pbe-nl-kjpaw_psl.1.0.0.UPF: wavefunction(s)  2S 2P renormalized
     file H.pbe-kjpaw_psl.1.0.0.UPF: wavefunction(s)  1S renormalized

     **************************************************************************
     Initializing libbeef V0.1.2 with the BEEF-vdW functional.
     Citation: Wellendorff et al., PRB 85, 235149 (2012).
     **************************************************************************


     IMPORTANT: XC functional enforced from input :
     Exchange-correlation= BEEF-VDW
                           (   1   4  43  14   2   0   0)
     Any further DFT definition will be discarded
     Please, verify this is what you really want


     R & G space division:  proc/nbgrp/npool/nimage =      96
     Subspace diagonalization in iterative solution of the eigenvalue problem:
     one sub-group per band group will be used
     custom distributed-memory algorithm (size of sub-group:  2*  2 procs)


     Parallelization info
     --------------------
     sticks:   dense  smooth     PW     G-vecs:    dense   smooth      PW
     Min          43      28      7                 7829     4248     595
     Max          44      29      8                 7845     4281     630
     Sum        4153    2773    757               752179   409445   59217

     Using Slab Decomposition



     bravais-lattice index     =            0
     lattice parameter (alat)  =      14.1729  a.u.
     unit-cell volume          =    8574.3059 (a.u.)^3
     number of atoms/cell      =           39
     number of atomic types    =            4
     number of electrons       =       335.00
     number of Kohn-Sham states=          202
     kinetic-energy cutoff     =      50.0000  Ry
     charge density cutoff     =     300.0000  Ry
     scf convergence threshold =      1.0E-08
     mixing beta               =       0.7000
     number of iterations used =            8  local-TF  mixing
     Exchange-correlation= BEEF-VDW
                           (   1   4  43  14   2   0   0)

     celldm(1)=  14.172946  celldm(2)=   0.000000  celldm(3)=   0.000000
     celldm(4)=   0.000000  celldm(5)=   0.000000  celldm(6)=   0.000000

     crystal axes: (cart. coord. in units of alat)
               a(1) = (   1.000000   0.000000   0.000000 )  
               a(2) = (   0.500000   0.866025   0.000000 )  
               a(3) = (   0.000000   0.000000   3.477667 )  

     reciprocal axes: (cart. coord. in units 2 pi/alat)
               b(1) = (  1.000000 -0.577350  0.000000 )  
               b(2) = (  0.000000  1.154701  0.000000 )  
               b(3) = (  0.000000  0.000000  0.287549 )  


     PseudoPot. # 1 for Co read from file:
     /users/kbadger1/espresso/pseudo/pslibrary.1.0.0/pbe/PSEUDOPOTENTIALS/Co.pbe-n-kjpaw_psl.1.0.0.UPF
     MD5 check sum: 88af6ec42553d4236c267fdfcb472151
     Pseudo is Projector augmented-wave + core cor, Zval =  9.0
     Generated using 'atomic' code by A. Dal Corso  v.7.0
     Shape of augmentation charge: PSQ
     Using radial grid of 1193 points,  6 beta functions with: 
                l(1) =   0
                l(2) =   0
                l(3) =   1
                l(4) =   1
                l(5) =   2
                l(6) =   2
     Q(r) pseudized with 0 coefficients 


     PseudoPot. # 2 for C  read from file:
     /users/kbadger1/espresso/pseudo/pslibrary.1.0.0/pbe/PSEUDOPOTENTIALS/C.pbe-n-kjpaw_psl.1.0.0.UPF
     MD5 check sum: 6408e75cdba28732cea38a4db8498ce4
     Pseudo is Projector augmented-wave + core cor, Zval =  4.0
     Generated using 'atomic' code by A. Dal Corso  v.7.0
     Shape of augmentation charge: PSQ
     Using radial grid of 1073 points,  4 beta functions with: 
                l(1) =   0
                l(2) =   0
                l(3) =   1
                l(4) =   1
     Q(r) pseudized with 0 coefficients 


     PseudoPot. # 3 for O  read from file:
     /users/kbadger1/espresso/pseudo/pslibrary.1.0.0/pbe/PSEUDOPOTENTIALS/O.pbe-nl-kjpaw_psl.1.0.0.UPF
     MD5 check sum: f0439fab3598ca4e468f064226030408
     Pseudo is Projector augmented-wave + core cor, Zval =  6.0
     Generated using 'atomic' code by A. Dal Corso  v.7.0
     Shape of augmentation charge: PSQ
     Using radial grid of 1095 points,  4 beta functions with: 
                l(1) =   0
                l(2) =   0
                l(3) =   1
                l(4) =   1
     Q(r) pseudized with 0 coefficients 


     PseudoPot. # 4 for H  read from file:
     /users/kbadger1/espresso/pseudo/pslibrary.1.0.0/pbe/PSEUDOPOTENTIALS/H.pbe-kjpaw_psl.1.0.0.UPF
     MD5 check sum: fe4c6fa958fa6d3815bf5d2419cbf1df
     Pseudo is Projector augmented-wave, Zval =  1.0
     Generated using 'atomic' code by A. Dal Corso  v.7.0
     Shape of augmentation charge: PSQ
     Using radial grid of  929 points,  2 beta functions with: 
                l(1) =   0
                l(2) =   0
     Q(r) pseudized with 0 coefficients 


     atomic species   valence    mass     pseudopotential
        Co             9.00    58.93319     Co( 1.00)
        C              4.00    12.00000     C ( 1.00)
        O              6.00    15.99491     O ( 1.00)
        H              1.00     1.00783     H ( 1.00)

     Starting magnetic structure 
     atomic species   magnetization
        Co           1.000
        C            1.000
        O            0.000
        H            0.000

     No symmetry found



   Cartesian axes

     site n.     atom                  positions (alat units)
         1           Co  tau(   1) = (   0.0000000   0.1924501   1.3333333  )
         2           Co  tau(   2) = (   0.3333333   0.1924501   1.3333333  )
         3           Co  tau(   3) = (   0.6666667   0.1924501   1.3333333  )
         4           Co  tau(   4) = (   0.1666667   0.4811252   1.3333333  )
         5           Co  tau(   5) = (   0.5000000   0.4811252   1.3333333  )
         6           Co  tau(   6) = (   0.8333333   0.4811252   1.3333333  )
         7           Co  tau(   7) = (   0.3333333   0.7698004   1.3333333  )
         8           Co  tau(   8) = (   0.6666667   0.7698004   1.3333333  )
         9           Co  tau(   9) = (   1.0000000   0.7698004   1.3333333  )
        10           Co  tau(  10) = (   0.0000000   0.0000000   1.6036667  )
        11           Co  tau(  11) = (   0.3333333   0.0000000   1.6036667  )
        12           Co  tau(  12) = (   0.6666667   0.0000000   1.6036667  )
        13           Co  tau(  13) = (   0.1666667   0.2886751   1.6036667  )
        14           Co  tau(  14) = (   0.5000000   0.2886751   1.6036667  )
        15           Co  tau(  15) = (   0.8333333   0.2886751   1.6036667  )
        16           Co  tau(  16) = (   0.3333333   0.5773503   1.6036667  )
        17           Co  tau(  17) = (   0.6666667   0.5773503   1.6036667  )
        18           Co  tau(  18) = (   1.0000000   0.5773503   1.6036667  )
        19           Co  tau(  19) = (   0.0000000   0.1924501   1.8740000  )
        20           Co  tau(  20) = (   0.3333333   0.1924501   1.8740000  )
        21           Co  tau(  21) = (   0.6666667   0.1924501   1.8740000  )
        22           Co  tau(  22) = (   0.1666667   0.4811252   1.8740000  )
        23           Co  tau(  23) = (   0.5000000   0.4811252   1.8740000  )
        24           Co  tau(  24) = (   0.8333333   0.4811252   1.8740000  )
        25           Co  tau(  25) = (   0.3333333   0.7698004   1.8740000  )
        26           Co  tau(  26) = (   0.6666667   0.7698004   1.8740000  )
        27           Co  tau(  27) = (   1.0000000   0.7698004   1.8740000  )
        28           Co  tau(  28) = (   0.0000000   0.0000000   2.1443333  )
        29           Co  tau(  29) = (   0.3333333   0.0000000   2.1443333  )
        30           Co  tau(  30) = (   0.6666667   0.0000000   2.1443333  )
        31           Co  tau(  31) = (   0.1666667   0.2886751   2.1443333  )
        32           Co  tau(  32) = (   0.5000000   0.2886751   2.1443333  )
        33           Co  tau(  33) = (   0.8333333   0.2886751   2.1443333  )
        34           Co  tau(  34) = (   0.3333333   0.5773503   2.1443333  )
        35           Co  tau(  35) = (   0.6666667   0.5773503   2.1443333  )
        36           Co  tau(  36) = (   1.0000000   0.5773503   2.1443333  )
        37           C   tau(  37) = (   0.3379212   0.1960724   2.3227170  )
        38           O   tau(  38) = (   0.3092203   0.1805791   2.4788871  )
        39           H   tau(  39) = (   0.6001716   0.3439987   2.3144178  )

     number of k points=    13  Marzari-Vanderbilt smearing, width (Ry)=  0.0010
                       cart. coord. in units 2pi/alat
        k(    1) = (   0.0000000   0.0000000   0.0000000), wk =   0.0400000
        k(    2) = (   0.0000000   0.2309401   0.0000000), wk =   0.0800000
        k(    3) = (   0.0000000   0.4618802   0.0000000), wk =   0.0800000
        k(    4) = (   0.2000000  -0.1154701   0.0000000), wk =   0.0800000
        k(    5) = (   0.2000000   0.1154701   0.0000000), wk =   0.0800000
        k(    6) = (   0.2000000   0.3464102   0.0000000), wk =   0.0800000
        k(    7) = (   0.2000000  -0.5773503   0.0000000), wk =   0.0800000
        k(    8) = (   0.2000000  -0.3464102   0.0000000), wk =   0.0800000
        k(    9) = (   0.4000000  -0.2309401   0.0000000), wk =   0.0800000
        k(   10) = (   0.4000000   0.0000000   0.0000000), wk =   0.0800000
        k(   11) = (   0.4000000   0.2309401   0.0000000), wk =   0.0800000
        k(   12) = (   0.4000000  -0.6928203   0.0000000), wk =   0.0800000
        k(   13) = (   0.4000000  -0.4618802   0.0000000), wk =   0.0800000

     Dense  grid:   752179 G-vectors     FFT dimensions: (  80,  80, 288)

     Smooth grid:   409445 G-vectors     FFT dimensions: (  64,  64, 225)

     Estimated max dynamical RAM per process >      99.02 MB

     Estimated total dynamical RAM >       9.28 GB
     Generating pointlists ...
     new r_m :   0.0846 (alat units)  1.1985 (a.u.) for type    1
     new r_m :   0.0658 (alat units)  0.9327 (a.u.) for type    2
     new r_m :   0.0658 (alat units)  0.9327 (a.u.) for type    3
     new r_m :   0.0846 (alat units)  1.1985 (a.u.) for type    4

     Initial potential from superposition of free atoms

     starting charge     334.9897, renormalised to     335.0000

     negative rho (up, down):  3.063E-03 4.577E-04


     %%%%%%%%%%%%%%%%%%%%%%%%%%%%%%%%%%%%%%%%%%%%%%%%%%%%%%%%%%%%%%%%%%%%%%%%
     %                                                                      %
     % You are using vdW-DF, which was implemented by the Thonhauser group. %
     % Please cite the following two papers that made this development      %
     % possible and the two reviews that describe the various versions:     %
     %                                                                      %
     %   T. Thonhauser et al., PRL 115, 136402 (2015).                      %
     %   T. Thonhauser et al., PRB 76, 125112 (2007).                       %
     %   K. Berland et al., Rep. Prog. Phys. 78, 066501 (2015).             %
     %   D.C. Langreth et al., J. Phys.: Condens. Matter 21, 084203 (2009). %
     %                                                                      %
     % If you are calculating stress with vdW-DF, please also cite:         %
     %                                                                      %
     %   R. Sabatini et al., J. Phys.: Condens. Matter 24, 424209 (2012).   %
     %   C.M. Frostenson et al., Electr. Struct. 4, 014001 (2022).          %
     %                                                                      %
     %%%%%%%%%%%%%%%%%%%%%%%%%%%%%%%%%%%%%%%%%%%%%%%%%%%%%%%%%%%%%%%%%%%%%%%%

     %%%%%%%%%%%%%%%%%%%%%%%%%%%%%%%%%%%%%%%%%%%%%%%%%%%%%%%%%%%%%%%%%%%%%%%%
     %                                                                      %
     %  vdW-DF NEWS:                                                        %
     %                                                                      %
     %  * vdW-DF3 is now available. DOI: 10.1021/acs.jctc.0c00471           %
     %    use with input_dft = 'vdW-DF3-opt1' or 'vdW-DF3-opt2'             %
     %                                                                      %
     %  * Unscreened and range-separated hybrid vdW-DF-cx functionals       %
     %    DOI: 10.1063/1.4986522 and 10.1088/1361-648X/ac2ad2               %
     %    use with input_dft = 'vdW-DF-cx0'    and 'vdW-DF-ahcx'            %
     %  * Unscreened and range-separated hybrid vdW-DF2-b86r functionals    %
     %    DOI: 10.1063/1.4986522 and DOI: 10.1103/PhysRevX.12.041003        %
     %    use with input_dft = 'vdW-DF2-br0' and 'vdW-DF2-ahbr'             %
     %                                                                      %
     %%%%%%%%%%%%%%%%%%%%%%%%%%%%%%%%%%%%%%%%%%%%%%%%%%%%%%%%%%%%%%%%%%%%%%%%


     Starting wfcs are  333 randomized atomic wfcs
     Checking if some PAW data can be deallocated... 

     total cpu time spent up to now is       12.2 secs

     per-process dynamical memory:   231.0 Mb

     Self-consistent Calculation

     iteration #  1     ecut=    50.00 Ry     beta= 0.70
     Davidson diagonalization with overlap
     ethr =  1.00E-02,  avg # of iterations =  2.0

     negative rho (up, down):  3.366E-05 1.089E-07

     total cpu time spent up to now is       36.4 secs

     total energy              =   -6053.08170715 Ry
     estimated scf accuracy    <      39.16021783 Ry

     total magnetization       =    69.00 Bohr mag/cell
     absolute magnetization    =    81.27 Bohr mag/cell

     iteration #  2     ecut=    50.00 Ry     beta= 0.70
     Davidson diagonalization with overlap
     ethr =  1.00E-02,  avg # of iterations =  1.0

     negative rho (up, down):  5.364E-06 6.493E-08

     total cpu time spent up to now is       50.1 secs

     total energy              =   -6052.54741993 Ry
     estimated scf accuracy    <      25.10543640 Ry

     total magnetization       =    68.84 Bohr mag/cell
     absolute magnetization    =    76.74 Bohr mag/cell

     iteration #  3     ecut=    50.00 Ry     beta= 0.70
     Davidson diagonalization with overlap
     ethr =  7.49E-03,  avg # of iterations =  1.0

     negative rho (up, down):  6.455E-08 1.287E-09

     total cpu time spent up to now is       69.2 secs

     total energy              =   -6055.15955438 Ry
     estimated scf accuracy    <      82.75901155 Ry

     total magnetization       =    66.12 Bohr mag/cell
     absolute magnetization    =    73.45 Bohr mag/cell

     iteration #  4     ecut=    50.00 Ry     beta= 0.70
     Davidson diagonalization with overlap
     ethr =  7.49E-03,  avg # of iterations =  1.0

     negative rho (up, down):  1.125E-08 0.000E+00

     total cpu time spent up to now is       86.8 secs

     total energy              =   -6056.39670403 Ry
     estimated scf accuracy    <       5.22933670 Ry

     total magnetization       =    60.21 Bohr mag/cell
     absolute magnetization    =    70.02 Bohr mag/cell

     iteration #  5     ecut=    50.00 Ry     beta= 0.70
     Davidson diagonalization with overlap
     ethr =  1.56E-03,  avg # of iterations =  1.2

     total cpu time spent up to now is      101.5 secs

     total energy              =   -6056.41430064 Ry
     estimated scf accuracy    <       2.48617490 Ry

     total magnetization       =    59.89 Bohr mag/cell
     absolute magnetization    =    69.36 Bohr mag/cell

     iteration #  6     ecut=    50.00 Ry     beta= 0.70
     Davidson diagonalization with overlap
     ethr =  7.42E-04,  avg # of iterations =  1.7

     total cpu time spent up to now is      120.0 secs

     total energy              =   -6056.52576424 Ry
     estimated scf accuracy    <       0.60875627 Ry

     total magnetization       =    59.56 Bohr mag/cell
     absolute magnetization    =    68.74 Bohr mag/cell

     iteration #  7     ecut=    50.00 Ry     beta= 0.70
     Davidson diagonalization with overlap
     ethr =  1.82E-04,  avg # of iterations =  5.5

     total cpu time spent up to now is      139.6 secs

     total energy              =   -6056.56889311 Ry
     estimated scf accuracy    <       0.67672245 Ry

     total magnetization       =    59.64 Bohr mag/cell
     absolute magnetization    =    68.52 Bohr mag/cell

     iteration #  8     ecut=    50.00 Ry     beta= 0.70
     Davidson diagonalization with overlap
     ethr =  1.82E-04,  avg # of iterations =  1.6

     total cpu time spent up to now is      157.2 secs

     total energy              =   -6056.58449664 Ry
     estimated scf accuracy    <       0.14005398 Ry

     total magnetization       =    59.67 Bohr mag/cell
     absolute magnetization    =    68.37 Bohr mag/cell

     iteration #  9     ecut=    50.00 Ry     beta= 0.70
     Davidson diagonalization with overlap
     c_bands:  3 eigenvalues not converged
     c_bands:  1 eigenvalues not converged
     c_bands:  3 eigenvalues not converged
     ethr =  4.18E-05,  avg # of iterations = 10.3

     total cpu time spent up to now is      188.0 secs

     total energy              =   -6056.58912765 Ry
     estimated scf accuracy    <       0.17899136 Ry

     total magnetization       =    60.13 Bohr mag/cell
     absolute magnetization    =    68.35 Bohr mag/cell

     iteration # 10     ecut=    50.00 Ry     beta= 0.70
     Davidson diagonalization with overlap
     ethr =  4.18E-05,  avg # of iterations =  2.8

     total cpu time spent up to now is      208.6 secs

     total energy              =   -6056.59299265 Ry
     estimated scf accuracy    <       0.15460008 Ry

     total magnetization       =    60.21 Bohr mag/cell
     absolute magnetization    =    68.26 Bohr mag/cell

     iteration # 11     ecut=    50.00 Ry     beta= 0.70
     Davidson diagonalization with overlap
     ethr =  4.18E-05,  avg # of iterations =  1.3

     total cpu time spent up to now is      221.7 secs

     total energy              =   -6056.59042086 Ry
     estimated scf accuracy    <       0.12768650 Ry

     total magnetization       =    60.13 Bohr mag/cell
     absolute magnetization    =    68.05 Bohr mag/cell

     iteration # 12     ecut=    50.00 Ry     beta= 0.70
     Davidson diagonalization with overlap
     ethr =  3.81E-05,  avg # of iterations =  1.5

     negative rho (up, down):  1.079E-07 0.000E+00

     total cpu time spent up to now is      239.4 secs

     total energy              =   -6056.59368872 Ry
     estimated scf accuracy    <       0.07287308 Ry

     total magnetization       =    60.12 Bohr mag/cell
     absolute magnetization    =    67.93 Bohr mag/cell

     iteration # 13     ecut=    50.00 Ry     beta= 0.70
     Davidson diagonalization with overlap
     ethr =  2.18E-05,  avg # of iterations =  1.5

     total cpu time spent up to now is      252.6 secs

     total energy              =   -6056.59270630 Ry
     estimated scf accuracy    <       0.08252243 Ry

     total magnetization       =    60.12 Bohr mag/cell
     absolute magnetization    =    67.89 Bohr mag/cell

     iteration # 14     ecut=    50.00 Ry     beta= 0.70
     Davidson diagonalization with overlap
     ethr =  2.18E-05,  avg # of iterations =  1.7

     total cpu time spent up to now is      272.0 secs

     total energy              =   -6056.58826712 Ry
     estimated scf accuracy    <       0.08194633 Ry

     total magnetization       =    60.12 Bohr mag/cell
     absolute magnetization    =    67.93 Bohr mag/cell

     iteration # 15     ecut=    50.00 Ry     beta= 0.70
     Davidson diagonalization with overlap
     ethr =  2.18E-05,  avg # of iterations =  1.8

     negative rho (up, down):  4.011E-03 3.066E-03

     total cpu time spent up to now is      286.3 secs

     total energy              =   -6056.58402894 Ry
     estimated scf accuracy    <       0.13412391 Ry

     total magnetization       =    60.13 Bohr mag/cell
     absolute magnetization    =    67.90 Bohr mag/cell

     iteration # 16     ecut=    50.00 Ry     beta= 0.70
     Davidson diagonalization with overlap
     ethr =  2.18E-05,  avg # of iterations =  1.4

     negative rho (up, down):  1.520E-02 1.376E-02

     total cpu time spent up to now is      305.6 secs

     total energy              =   -6056.58384815 Ry
     estimated scf accuracy    <       0.03763477 Ry

     total magnetization       =    60.12 Bohr mag/cell
     absolute magnetization    =    67.83 Bohr mag/cell

     iteration # 17     ecut=    50.00 Ry     beta= 0.70
     Davidson diagonalization with overlap
     c_bands:  4 eigenvalues not converged
     c_bands:  2 eigenvalues not converged
     c_bands:  3 eigenvalues not converged
     ethr =  1.12E-05,  avg # of iterations =  4.4

     negative rho (up, down):  2.645E-02 2.480E-02

     total cpu time spent up to now is      326.4 secs

     total energy              =   -6056.58188671 Ry
     estimated scf accuracy    <       0.06410349 Ry

     total magnetization       =    60.12 Bohr mag/cell
     absolute magnetization    =    67.80 Bohr mag/cell

     iteration # 18     ecut=    50.00 Ry     beta= 0.70
     Davidson diagonalization with overlap
     ethr =  1.12E-05,  avg # of iterations =  2.5

     negative rho (up, down):  9.409E-03 8.322E-03

     total cpu time spent up to now is      342.7 secs

     total energy              =   -6056.58319042 Ry
     estimated scf accuracy    <       0.09132930 Ry

     total magnetization       =    60.12 Bohr mag/cell
     absolute magnetization    =    67.74 Bohr mag/cell

     iteration # 19     ecut=    50.00 Ry     beta= 0.70
     Davidson diagonalization with overlap
     ethr =  1.12E-05,  avg # of iterations =  1.2

     negative rho (up, down):  2.378E-02 2.220E-02

     total cpu time spent up to now is      360.3 secs

     total energy              =   -6056.58367777 Ry
     estimated scf accuracy    <       0.01671759 Ry

     total magnetization       =    60.12 Bohr mag/cell
     absolute magnetization    =    67.77 Bohr mag/cell

     iteration # 20     ecut=    50.00 Ry     beta= 0.70
     Davidson diagonalization with overlap
     c_bands:  4 eigenvalues not converged
     c_bands:  4 eigenvalues not converged
     ethr =  4.99E-06,  avg # of iterations =  4.2

     negative rho (up, down):  2.023E-02 1.873E-02

     total cpu time spent up to now is      378.5 secs

     total energy              =   -6056.58284856 Ry
     estimated scf accuracy    <       0.01634441 Ry

     total magnetization       =    60.12 Bohr mag/cell
     absolute magnetization    =    67.74 Bohr mag/cell

     iteration # 21     ecut=    50.00 Ry     beta= 0.70
     Davidson diagonalization with overlap
     ethr =  4.88E-06,  avg # of iterations =  1.5

     negative rho (up, down):  1.634E-02 1.500E-02

     total cpu time spent up to now is      396.2 secs

     total energy              =   -6056.58264640 Ry
     estimated scf accuracy    <       0.01493452 Ry

     total magnetization       =    60.12 Bohr mag/cell
     absolute magnetization    =    67.75 Bohr mag/cell

     iteration # 22     ecut=    50.00 Ry     beta= 0.70
     Davidson diagonalization with overlap
     ethr =  4.46E-06,  avg # of iterations =  1.3

     negative rho (up, down):  2.647E-02 2.502E-02

     total cpu time spent up to now is      415.7 secs

     total energy              =   -6056.58197584 Ry
     estimated scf accuracy    <       0.01318127 Ry

     total magnetization       =    60.12 Bohr mag/cell
     absolute magnetization    =    67.75 Bohr mag/cell

     iteration # 23     ecut=    50.00 Ry     beta= 0.70
     Davidson diagonalization with overlap
     ethr =  3.93E-06,  avg # of iterations =  1.5

     negative rho (up, down):  1.995E-02 1.881E-02

     total cpu time spent up to now is      429.7 secs

     total energy              =   -6056.58180736 Ry
     estimated scf accuracy    <       0.00646556 Ry

     total magnetization       =    60.12 Bohr mag/cell
     absolute magnetization    =    67.74 Bohr mag/cell

     iteration # 24     ecut=    50.00 Ry     beta= 0.70
     Davidson diagonalization with overlap
     c_bands:  2 eigenvalues not converged
     ethr =  1.93E-06,  avg # of iterations =  3.5

     negative rho (up, down):  1.623E-02 1.521E-02

     total cpu time spent up to now is      451.4 secs

     total energy              =   -6056.58176235 Ry
     estimated scf accuracy    <       0.00242078 Ry

     total magnetization       =    60.12 Bohr mag/cell
     absolute magnetization    =    67.75 Bohr mag/cell

     iteration # 25     ecut=    50.00 Ry     beta= 0.70
     Davidson diagonalization with overlap
     c_bands:  1 eigenvalues not converged
     ethr =  7.23E-07,  avg # of iterations =  3.7

     negative rho (up, down):  1.119E-02 1.038E-02

     total cpu time spent up to now is      467.0 secs

     total energy              =   -6056.58179539 Ry
     estimated scf accuracy    <       0.00146084 Ry

     total magnetization       =    60.12 Bohr mag/cell
     absolute magnetization    =    67.75 Bohr mag/cell

     iteration # 26     ecut=    50.00 Ry     beta= 0.70
     Davidson diagonalization with overlap
     ethr =  4.36E-07,  avg # of iterations =  1.9

     negative rho (up, down):  8.860E-03 8.149E-03

     total cpu time spent up to now is      487.3 secs

     total energy              =   -6056.58193059 Ry
     estimated scf accuracy    <       0.00125759 Ry

     total magnetization       =    60.12 Bohr mag/cell
     absolute magnetization    =    67.76 Bohr mag/cell

     iteration # 27     ecut=    50.00 Ry     beta= 0.70
     Davidson diagonalization with overlap
     ethr =  3.75E-07,  avg # of iterations =  1.4

     negative rho (up, down):  5.215E-03 4.470E-03

     total cpu time spent up to now is      504.8 secs

     total energy              =   -6056.58188045 Ry
     estimated scf accuracy    <       0.00037504 Ry

     total magnetization       =    60.12 Bohr mag/cell
     absolute magnetization    =    67.76 Bohr mag/cell

     iteration # 28     ecut=    50.00 Ry     beta= 0.70
     Davidson diagonalization with overlap
     ethr =  1.12E-07,  avg # of iterations =  4.7

     negative rho (up, down):  3.308E-03 2.353E-03

     total cpu time spent up to now is      522.2 secs

     total energy              =   -6056.58201229 Ry
     estimated scf accuracy    <       0.00051030 Ry

     total magnetization       =    60.12 Bohr mag/cell
     absolute magnetization    =    67.76 Bohr mag/cell

     iteration # 29     ecut=    50.00 Ry     beta= 0.70
     Davidson diagonalization with overlap
     ethr =  1.12E-07,  avg # of iterations =  1.9

     negative rho (up, down):  3.517E-03 2.515E-03

     total cpu time spent up to now is      542.6 secs

     total energy              =   -6056.58204176 Ry
     estimated scf accuracy    <       0.00082268 Ry

     total magnetization       =    60.12 Bohr mag/cell
     absolute magnetization    =    67.76 Bohr mag/cell

     iteration # 30     ecut=    50.00 Ry     beta= 0.70
     Davidson diagonalization with overlap
     ethr =  1.12E-07,  avg # of iterations =  1.0

     negative rho (up, down):  3.285E-03 2.205E-03

     total cpu time spent up to now is      555.9 secs

     total energy              =   -6056.58207243 Ry
     estimated scf accuracy    <       0.00008983 Ry

     total magnetization       =    60.12 Bohr mag/cell
     absolute magnetization    =    67.76 Bohr mag/cell

     iteration # 31     ecut=    50.00 Ry     beta= 0.70
     Davidson diagonalization with overlap
     c_bands:  2 eigenvalues not converged
     ethr =  2.68E-08,  avg # of iterations =  4.3

     negative rho (up, down):  3.214E-03 2.124E-03

     total cpu time spent up to now is      578.8 secs

     total energy              =   -6056.58207482 Ry
     estimated scf accuracy    <       0.00006330 Ry

     total magnetization       =    60.12 Bohr mag/cell
     absolute magnetization    =    67.76 Bohr mag/cell

     iteration # 32     ecut=    50.00 Ry     beta= 0.70
     Davidson diagonalization with overlap
     ethr =  1.89E-08,  avg # of iterations =  1.7

     negative rho (up, down):  2.965E-03 1.844E-03

     total cpu time spent up to now is      597.6 secs

     total energy              =   -6056.58207028 Ry
     estimated scf accuracy    <       0.00003407 Ry

     total magnetization       =    60.12 Bohr mag/cell
     absolute magnetization    =    67.76 Bohr mag/cell

     iteration # 33     ecut=    50.00 Ry     beta= 0.70
     Davidson diagonalization with overlap
     ethr =  1.02E-08,  avg # of iterations =  2.6

     negative rho (up, down):  2.978E-03 1.881E-03

     total cpu time spent up to now is      614.7 secs

     total energy              =   -6056.58207784 Ry
     estimated scf accuracy    <       0.00007483 Ry

     total magnetization       =    60.12 Bohr mag/cell
     absolute magnetization    =    67.75 Bohr mag/cell

     iteration # 34     ecut=    50.00 Ry     beta= 0.70
     Davidson diagonalization with overlap
     ethr =  1.02E-08,  avg # of iterations =  1.7

     negative rho (up, down):  3.062E-03 1.985E-03

     total cpu time spent up to now is      633.2 secs

     total energy              =   -6056.58208046 Ry
     estimated scf accuracy    <       0.00003585 Ry

     total magnetization       =    60.12 Bohr mag/cell
     absolute magnetization    =    67.75 Bohr mag/cell

     iteration # 35     ecut=    50.00 Ry     beta= 0.70
     Davidson diagonalization with overlap
     ethr =  1.02E-08,  avg # of iterations =  1.2

     negative rho (up, down):  3.067E-03 2.021E-03

     total cpu time spent up to now is      648.2 secs

     total energy              =   -6056.58208212 Ry
     estimated scf accuracy    <       0.00003297 Ry

     total magnetization       =    60.12 Bohr mag/cell
     absolute magnetization    =    67.75 Bohr mag/cell

     iteration # 36     ecut=    50.00 Ry     beta= 0.70
     Davidson diagonalization with overlap
     ethr =  9.84E-09,  avg # of iterations =  1.5

     negative rho (up, down):  3.083E-03 2.099E-03

     total cpu time spent up to now is      666.6 secs

     total energy              =   -6056.58208474 Ry
     estimated scf accuracy    <       0.00002044 Ry

     total magnetization       =    60.12 Bohr mag/cell
     absolute magnetization    =    67.75 Bohr mag/cell

     iteration # 37     ecut=    50.00 Ry     beta= 0.70
     Davidson diagonalization with overlap
     ethr =  6.10E-09,  avg # of iterations =  2.1

     negative rho (up, down):  3.010E-03 2.022E-03

     total cpu time spent up to now is      686.8 secs

     total energy              =   -6056.58208408 Ry
     estimated scf accuracy    <       0.00001077 Ry

     total magnetization       =    60.12 Bohr mag/cell
     absolute magnetization    =    67.75 Bohr mag/cell

     iteration # 38     ecut=    50.00 Ry     beta= 0.70
     Davidson diagonalization with overlap
     ethr =  3.22E-09,  avg # of iterations =  2.8

     negative rho (up, down):  2.861E-03 1.823E-03

     total cpu time spent up to now is      701.9 secs

     total energy              =   -6056.58208187 Ry
     estimated scf accuracy    <       0.00000610 Ry

     total magnetization       =    60.12 Bohr mag/cell
     absolute magnetization    =    67.75 Bohr mag/cell

     iteration # 39     ecut=    50.00 Ry     beta= 0.70
     Davidson diagonalization with overlap
     ethr =  1.82E-09,  avg # of iterations =  2.2

     negative rho (up, down):  2.826E-03 1.795E-03

     total cpu time spent up to now is      723.0 secs

     total energy              =   -6056.58208166 Ry
     estimated scf accuracy    <       0.00000839 Ry

     total magnetization       =    60.12 Bohr mag/cell
     absolute magnetization    =    67.75 Bohr mag/cell

     iteration # 40     ecut=    50.00 Ry     beta= 0.70
     Davidson diagonalization with overlap
     ethr =  1.82E-09,  avg # of iterations =  1.3

     negative rho (up, down):  2.686E-03 1.617E-03

     total cpu time spent up to now is      736.6 secs

     total energy              =   -6056.58208110 Ry
     estimated scf accuracy    <       0.00000513 Ry

     total magnetization       =    60.12 Bohr mag/cell
     absolute magnetization    =    67.75 Bohr mag/cell

     iteration # 41     ecut=    50.00 Ry     beta= 0.70
     Davidson diagonalization with overlap
     ethr =  1.53E-09,  avg # of iterations =  1.7

     negative rho (up, down):  2.484E-03 1.398E-03

     total cpu time spent up to now is      756.2 secs

     total energy              =   -6056.58208066 Ry
     estimated scf accuracy    <       0.00000875 Ry

     total magnetization       =    60.12 Bohr mag/cell
     absolute magnetization    =    67.75 Bohr mag/cell

     iteration # 42     ecut=    50.00 Ry     beta= 0.70
     Davidson diagonalization with overlap
     ethr =  1.53E-09,  avg # of iterations =  1.7

     negative rho (up, down):  2.348E-03 1.255E-03

     total cpu time spent up to now is      770.2 secs

     total energy              =   -6056.58208073 Ry
     estimated scf accuracy    <       0.00000428 Ry

     total magnetization       =    60.12 Bohr mag/cell
     absolute magnetization    =    67.75 Bohr mag/cell

     iteration # 43     ecut=    50.00 Ry     beta= 0.70
     Davidson diagonalization with overlap
     ethr =  1.28E-09,  avg # of iterations =  1.4

     negative rho (up, down):  2.314E-03 1.225E-03

     total cpu time spent up to now is      788.5 secs

     total energy              =   -6056.58208088 Ry
     estimated scf accuracy    <       0.00000067 Ry

     total magnetization       =    60.12 Bohr mag/cell
     absolute magnetization    =    67.75 Bohr mag/cell

     iteration # 44     ecut=    50.00 Ry     beta= 0.70
     Davidson diagonalization with overlap
     c_bands:  1 eigenvalues not converged
     ethr =  2.01E-10,  avg # of iterations =  7.4

     negative rho (up, down):  2.295E-03 1.205E-03

     total cpu time spent up to now is      816.8 secs

     total energy              =   -6056.58208092 Ry
     estimated scf accuracy    <       0.00000213 Ry

     total magnetization       =    60.12 Bohr mag/cell
     absolute magnetization    =    67.75 Bohr mag/cell

     iteration # 45     ecut=    50.00 Ry     beta= 0.70
     Davidson diagonalization with overlap
     ethr =  2.01E-10,  avg # of iterations =  1.6

     negative rho (up, down):  2.288E-03 1.198E-03

     total cpu time spent up to now is      834.5 secs

     total energy              =   -6056.58208100 Ry
     estimated scf accuracy    <       0.00000018 Ry

     total magnetization       =    60.12 Bohr mag/cell
     absolute magnetization    =    67.75 Bohr mag/cell

     iteration # 46     ecut=    50.00 Ry     beta= 0.70
     Davidson diagonalization with overlap
     ethr =  5.28E-11,  avg # of iterations =  3.3

     negative rho (up, down):  2.279E-03 1.191E-03

     total cpu time spent up to now is      852.6 secs

     total energy              =   -6056.58208101 Ry
     estimated scf accuracy    <       0.00000009 Ry

     total magnetization       =    60.12 Bohr mag/cell
     absolute magnetization    =    67.75 Bohr mag/cell

     iteration # 47     ecut=    50.00 Ry     beta= 0.70
     Davidson diagonalization with overlap
     ethr =  2.64E-11,  avg # of iterations =  4.2

     negative rho (up, down):  2.275E-03 1.186E-03

     total cpu time spent up to now is      873.2 secs

     total energy              =   -6056.58208101 Ry
     estimated scf accuracy    <       0.00000013 Ry

     total magnetization       =    60.12 Bohr mag/cell
     absolute magnetization    =    67.75 Bohr mag/cell

     iteration # 48     ecut=    50.00 Ry     beta= 0.70
     Davidson diagonalization with overlap
     ethr =  2.64E-11,  avg # of iterations =  1.5

     negative rho (up, down):  2.265E-03 1.177E-03

     total cpu time spent up to now is      889.0 secs

     total energy              =   -6056.58208100 Ry
     estimated scf accuracy    <       0.00000006 Ry

     total magnetization       =    60.12 Bohr mag/cell
     absolute magnetization    =    67.75 Bohr mag/cell

     iteration # 49     ecut=    50.00 Ry     beta= 0.70
     Davidson diagonalization with overlap
     ethr =  1.87E-11,  avg # of iterations =  1.8

     negative rho (up, down):  2.265E-03 1.177E-03

     total cpu time spent up to now is      908.0 secs

     total energy              =   -6056.58208101 Ry
     estimated scf accuracy    <       0.00000006 Ry

     total magnetization       =    60.12 Bohr mag/cell
     absolute magnetization    =    67.75 Bohr mag/cell

     iteration # 50     ecut=    50.00 Ry     beta= 0.70
     Davidson diagonalization with overlap
     ethr =  1.77E-11,  avg # of iterations =  1.1

     negative rho (up, down):  2.264E-03 1.176E-03

     total cpu time spent up to now is      927.4 secs

     total energy              =   -6056.58208101 Ry
     estimated scf accuracy    <       0.00000002 Ry

     total magnetization       =    60.12 Bohr mag/cell
     absolute magnetization    =    67.75 Bohr mag/cell

     iteration # 51     ecut=    50.00 Ry     beta= 0.70
     Davidson diagonalization with overlap
     ethr =  5.85E-12,  avg # of iterations =  3.2

     negative rho (up, down):  2.258E-03 1.170E-03

     total cpu time spent up to now is      944.7 secs

     total energy              =   -6056.58208100 Ry
     estimated scf accuracy    <       0.00000002 Ry

     total magnetization       =    60.12 Bohr mag/cell
     absolute magnetization    =    67.75 Bohr mag/cell

     iteration # 52     ecut=    50.00 Ry     beta= 0.70
     Davidson diagonalization with overlap
     ethr =  4.74E-12,  avg # of iterations =  1.8

     negative rho (up, down):  2.258E-03 1.170E-03

     total cpu time spent up to now is      964.1 secs

     total energy              =   -6056.58208100 Ry
     estimated scf accuracy    <       0.00000001 Ry

     total magnetization       =    60.12 Bohr mag/cell
     absolute magnetization    =    67.75 Bohr mag/cell

     iteration # 53     ecut=    50.00 Ry     beta= 0.70
     Davidson diagonalization with overlap
     ethr =  3.29E-12,  avg # of iterations =  1.3

     negative rho (up, down):  2.253E-03 1.166E-03

     Magnetic moment per site  (integrated on atomic sphere of radius R)
     atom   1 (R=0.085)  charge=  5.3701  magn=  1.5864
     atom   2 (R=0.085)  charge=  5.3743  magn=  1.5624
     atom   3 (R=0.085)  charge=  5.3723  magn=  1.5812
     atom   4 (R=0.085)  charge=  5.3721  magn=  1.5833
     atom   5 (R=0.085)  charge=  5.3723  magn=  1.5812
     atom   6 (R=0.085)  charge=  5.3721  magn=  1.5851
     atom   7 (R=0.085)  charge=  5.3700  magn=  1.5902
     atom   8 (R=0.085)  charge=  5.3701  magn=  1.5864
     atom   9 (R=0.085)  charge=  5.3721  magn=  1.5832
     atom  10 (R=0.085)  charge=  5.3629  magn=  1.5219
     atom  11 (R=0.085)  charge=  5.3653  magn=  1.5228
     atom  12 (R=0.085)  charge=  5.3648  magn=  1.5293
     atom  13 (R=0.085)  charge=  5.3653  magn=  1.5228
     atom  14 (R=0.085)  charge=  5.3660  magn=  1.5171
     atom  15 (R=0.085)  charge=  5.3651  magn=  1.5325
     atom  16 (R=0.085)  charge=  5.3648  magn=  1.5293
     atom  17 (R=0.085)  charge=  5.3650  magn=  1.5325
     atom  18 (R=0.085)  charge=  5.3657  magn=  1.5273
     atom  19 (R=0.085)  charge=  5.3642  magn=  1.5008
     atom  20 (R=0.085)  charge=  5.3641  magn=  1.5131
     atom  21 (R=0.085)  charge=  5.3650  magn=  1.5143
     atom  22 (R=0.085)  charge=  5.3655  magn=  1.5169
     atom  23 (R=0.085)  charge=  5.3650  magn=  1.5137
     atom  24 (R=0.085)  charge=  5.3645  magn=  1.5454
     atom  25 (R=0.085)  charge=  5.3639  magn=  1.5232
     atom  26 (R=0.085)  charge=  5.3642  magn=  1.5011
     atom  27 (R=0.085)  charge=  5.3655  magn=  1.5171
     atom  28 (R=0.085)  charge=  5.3689  magn=  1.6137
     atom  29 (R=0.085)  charge=  5.3792  magn=  1.3140
     atom  30 (R=0.085)  charge=  5.3722  magn=  1.6173
     atom  31 (R=0.085)  charge=  5.3794  magn=  1.3077
     atom  32 (R=0.085)  charge=  5.3733  magn=  0.8074
     atom  33 (R=0.085)  charge=  5.3711  magn=  1.5700
     atom  34 (R=0.085)  charge=  5.3722  magn=  1.6172
     atom  35 (R=0.085)  charge=  5.3711  magn=  1.5722
     atom  36 (R=0.085)  charge=  5.3707  magn=  1.5914
     atom  37 (R=0.066)  charge=  1.0594  magn= -0.0230
     atom  38 (R=0.066)  charge=  2.9457  magn= -0.0379
     atom  39 (R=0.085)  charge=  0.7175  magn= -0.0166

     total cpu time spent up to now is      979.2 secs

     End of self-consistent calculation

 ------ SPIN UP ------------


          k = 0.0000 0.0000 0.0000 ( 51087 PWs)   bands (ev):

   -21.7964  -9.3139  -7.6458  -6.4120  -5.7841  -5.6289  -5.4205  -4.8662
    -4.8249  -4.8201  -4.8151  -4.7868  -4.7732  -4.7643  -4.4839  -4.3000
    -4.2854  -4.2829  -4.2642  -4.2320  -4.2277  -3.9363  -3.7670  -3.7637
    -3.7593  -3.7376  -3.7110  -3.6824  -3.6355  -3.6348  -3.6290  -3.6205
    -3.5931  -3.5538  -3.5479  -3.4269  -3.2515  -3.2463  -3.2432  -3.2373
    -3.1835  -3.1811  -3.1711  -3.1677  -3.1625  -3.1537  -3.1504  -3.1072
    -3.0159  -3.0133  -2.9469  -2.9403  -2.9347  -2.9270  -2.9253  -2.9183
    -2.9093  -2.9004  -2.8896  -2.8738  -2.8094  -2.7958  -2.7945  -2.7898
    -2.7162  -2.6142  -2.3053  -2.2646  -2.2628  -2.2601  -2.2557  -2.1647
    -2.1348  -2.1294  -2.1133  -2.1010  -2.0930  -2.0900  -2.0826  -2.0758
    -2.0353  -2.0353  -1.9839  -1.9807  -1.9789  -1.9769  -1.9620  -1.9566
    -1.9466  -1.9415  -1.9395  -1.9368  -1.9260  -1.9107  -1.9057  -1.8975
    -1.8944  -1.8944  -1.8901  -1.8875  -1.8852  -1.8845  -1.8827  -1.8677
    -1.8541  -1.8320  -1.8264  -1.8084  -1.8023  -1.7341  -1.7314  -1.6245
    -1.5437  -1.4492  -1.4401  -1.4395  -1.4373  -1.4148  -1.4022  -1.3965
    -1.3943  -1.3816  -1.3813  -1.3459  -1.3391  -1.2165  -1.2099  -1.2004
    -1.1811  -1.1709  -1.0920  -1.0476  -1.0278  -1.0062  -0.9658  -0.9602
    -0.9575  -0.9429  -0.9387  -0.9359  -0.9315  -0.8837  -0.8192  -0.8013
    -0.7100  -0.7044  -0.6989  -0.6911  -0.6730  -0.6568  -0.6463  -0.6358
    -0.6343  -0.6308  -0.6286  -0.6256  -0.6208  -0.6079  -0.6075  -0.5987
    -0.5964  -0.5897  -0.5770  -0.5620  -0.5606  -0.5497  -0.5452  -0.5382
    -0.5264  -0.5203  -0.5131  -0.4994  -0.4951  -0.4944  -0.4881  -0.4825
    -0.4728  -0.4672  -0.4500  -0.4296  -0.4129  -0.3999  -0.3963  -0.3896
    -0.3807  -0.3741  -0.3595  -0.3568  -0.3447  -0.3140  -0.3098  -0.3091
    -0.2917  -0.2897  -0.2335  -0.2312  -0.2292  -0.2120  -0.1790  -0.1566
     0.4828   0.8148

          k = 0.0000 0.2309 0.0000 ( 51134 PWs)   bands (ev):

   -21.7964  -9.3041  -7.5036  -6.3092  -5.8139  -5.6538  -5.5388  -5.3616
    -5.0536  -5.0290  -4.7353  -4.5795  -4.4782  -4.4695  -4.4102  -4.3894
    -4.3109  -4.2805  -4.2091  -4.1544  -4.1420  -3.9384  -3.8678  -3.7656
    -3.7558  -3.6904  -3.6494  -3.6393  -3.6338  -3.6280  -3.6175  -3.5951
    -3.5772  -3.5294  -3.5089  -3.4854  -3.4787  -3.3955  -3.2738  -3.2592
    -3.2523  -3.2053  -3.2011  -3.1873  -3.1665  -3.1043  -3.0701  -3.0588
    -3.0336  -3.0292  -3.0208  -2.9925  -2.9628  -2.8993  -2.8911  -2.8619
    -2.8215  -2.8197  -2.7959  -2.7914  -2.7607  -2.7288  -2.7265  -2.7056
    -2.6847  -2.5964  -2.3827  -2.3765  -2.3515  -2.3434  -2.3205  -2.2395
    -2.2293  -2.2131  -2.2078  -2.1974  -2.1911  -2.1784  -2.1561  -2.1034
    -2.0971  -2.0796  -2.0608  -2.0259  -2.0249  -2.0142  -2.0047  -1.9949
    -1.9885  -1.9854  -1.9748  -1.9661  -1.9548  -1.9389  -1.9116  -1.8809
    -1.8702  -1.8549  -1.8023  -1.7947  -1.7871  -1.7804  -1.7720  -1.7645
    -1.7572  -1.7512  -1.7423  -1.7379  -1.7232  -1.7050  -1.6927  -1.6848
    -1.6681  -1.6521  -1.6277  -1.5734  -1.5582  -1.4891  -1.4657  -1.4615
    -1.4491  -1.4383  -1.4284  -1.4264  -1.3974  -1.3804  -1.3358  -1.2657
    -1.2385  -1.2128  -1.1741  -1.1641  -1.1457  -1.1033  -1.0827  -1.0637
    -1.0355  -0.9800  -0.9704  -0.9615  -0.9321  -0.9259  -0.8914  -0.8800
    -0.8566  -0.8471  -0.8311  -0.8078  -0.7983  -0.7859  -0.7777  -0.7656
    -0.7149  -0.7063  -0.6992  -0.6934  -0.6718  -0.6596  -0.6351  -0.6249
    -0.6215  -0.6152  -0.6079  -0.5970  -0.5740  -0.5678  -0.5524  -0.5449
    -0.5093  -0.4869  -0.4763  -0.4456  -0.4359  -0.4156  -0.3995  -0.3806
    -0.3685  -0.3572  -0.3548  -0.3442  -0.3307  -0.3204  -0.3127  -0.2716
    -0.2416  -0.2336  -0.2296  -0.2075  -0.1973  -0.1743  -0.1631  -0.1434
    -0.0798  -0.0003   0.1297   0.1491   0.2202   0.2956   0.4113   0.4331
     0.4630   0.8036

          k = 0.0000 0.4619 0.0000 ( 51204 PWs)   bands (ev):

   -21.7964  -9.2885  -7.0849  -6.4304  -6.0609  -5.7642  -5.5824  -5.3735
    -5.1897  -5.1403  -5.0377  -4.4791  -4.3180  -4.3029  -4.2695  -4.2341
    -4.1517  -4.1138  -4.1016  -4.0069  -3.9803  -3.9758  -3.9492  -3.8085
    -3.7999  -3.7905  -3.7820  -3.7666  -3.7084  -3.6763  -3.6631  -3.5604
    -3.5124  -3.5000  -3.4843  -3.4661  -3.4508  -3.4111  -3.3559  -3.3473
    -3.3366  -3.3253  -3.2743  -3.2159  -3.1231  -3.1018  -3.0303  -3.0217
    -2.9976  -2.9746  -2.9551  -2.9413  -2.9282  -2.9146  -2.8991  -2.8457
    -2.8402  -2.8130  -2.7753  -2.7602  -2.6447  -2.6313  -2.6065  -2.5820
    -2.5454  -2.5245  -2.4963  -2.4871  -2.4636  -2.4115  -2.3575  -2.3541
    -2.3484  -2.3375  -2.3279  -2.3091  -2.2915  -2.2847  -2.2678  -2.2409
    -2.2220  -2.1865  -2.1697  -2.1548  -2.1197  -2.1097  -2.0661  -2.0308
    -2.0186  -2.0067  -1.9873  -1.9739  -1.9605  -1.9219  -1.9062  -1.9027
    -1.8923  -1.8763  -1.8690  -1.8494  -1.8328  -1.8269  -1.8213  -1.7935
    -1.7815  -1.7548  -1.7203  -1.7096  -1.6470  -1.6320  -1.6174  -1.5947
    -1.5924  -1.5700  -1.5477  -1.5177  -1.5056  -1.4844  -1.4804  -1.4712
    -1.4682  -1.4607  -1.4480  -1.4422  -1.4360  -1.4238  -1.4080  -1.4008
    -1.3900  -1.3572  -1.2919  -1.2698  -1.2582  -1.2401  -1.2168  -1.2029
    -1.1745  -1.1187  -1.0996  -1.0911  -1.0590  -1.0432  -1.0152  -0.9663
    -0.9626  -0.9326  -0.9258  -0.9046  -0.8871  -0.8549  -0.8339  -0.7723
    -0.7545  -0.7243  -0.7157  -0.7013  -0.6977  -0.6904  -0.6777  -0.6738
    -0.6526  -0.6360  -0.5517  -0.5420  -0.5355  -0.5298  -0.5203  -0.4974
    -0.4872  -0.4788  -0.4622  -0.4582  -0.4302  -0.4131  -0.3663  -0.3512
    -0.3378  -0.3206  -0.2966  -0.2528  -0.2471  -0.2200  -0.2106  -0.1755
    -0.1345  -0.1297  -0.1255  -0.1097  -0.1037  -0.0996  -0.0881  -0.0259
     0.0028   0.0542   0.4793   0.6209   0.9369   1.1010   1.1329   1.3122
     1.4769   1.5263

          k = 0.2000-0.1155 0.0000 ( 51134 PWs)   bands (ev):

   -21.7964  -9.3041  -7.5037  -6.3094  -5.8151  -5.6538  -5.5367  -5.3627
    -5.0537  -5.0289  -4.7356  -4.5780  -4.4785  -4.4694  -4.4106  -4.3892
    -4.3121  -4.2806  -4.2083  -4.1557  -4.1420  -3.9353  -3.8699  -3.7650
    -3.7552  -3.6904  -3.6497  -3.6395  -3.6339  -3.6281  -3.6181  -3.5953
    -3.5764  -3.5300  -3.5089  -3.4854  -3.4787  -3.3961  -3.2741  -3.2593
    -3.2526  -3.2053  -3.2011  -3.1872  -3.1663  -3.1048  -3.0701  -3.0586
    -3.0336  -3.0290  -3.0208  -2.9925  -2.9622  -2.8994  -2.8912  -2.8622
    -2.8212  -2.8195  -2.7959  -2.7915  -2.7605  -2.7290  -2.7265  -2.7055
    -2.6841  -2.5968  -2.3827  -2.3765  -2.3517  -2.3431  -2.3203  -2.2395
    -2.2294  -2.2131  -2.2078  -2.1977  -2.1909  -2.1783  -2.1553  -2.1034
    -2.0973  -2.0797  -2.0609  -2.0259  -2.0251  -2.0147  -2.0044  -1.9949
    -1.9886  -1.9855  -1.9748  -1.9660  -1.9545  -1.9390  -1.9112  -1.8809
    -1.8702  -1.8547  -1.8024  -1.7947  -1.7872  -1.7803  -1.7720  -1.7645
    -1.7572  -1.7514  -1.7423  -1.7379  -1.7232  -1.7051  -1.6926  -1.6847
    -1.6683  -1.6522  -1.6277  -1.5738  -1.5587  -1.4896  -1.4657  -1.4614
    -1.4489  -1.4385  -1.4284  -1.4263  -1.3980  -1.3796  -1.3344  -1.2660
    -1.2381  -1.2128  -1.1741  -1.1641  -1.1454  -1.1036  -1.0828  -1.0639
    -1.0345  -0.9805  -0.9708  -0.9619  -0.9324  -0.9261  -0.8916  -0.8803
    -0.8567  -0.8470  -0.8304  -0.8076  -0.7984  -0.7863  -0.7778  -0.7651
    -0.7150  -0.7063  -0.6992  -0.6934  -0.6715  -0.6591  -0.6351  -0.6248
    -0.6214  -0.6151  -0.6077  -0.5970  -0.5742  -0.5680  -0.5524  -0.5450
    -0.5091  -0.4865  -0.4759  -0.4455  -0.4360  -0.4162  -0.3992  -0.3807
    -0.3686  -0.3571  -0.3542  -0.3444  -0.3306  -0.3204  -0.3128  -0.2711
    -0.2415  -0.2332  -0.2296  -0.2075  -0.1973  -0.1747  -0.1631  -0.1433
    -0.0802  -0.0005   0.1295   0.1492   0.2185   0.2953   0.4107   0.4332
     0.4636   0.8028

          k = 0.2000 0.1155 0.0000 ( 51134 PWs)   bands (ev):

   -21.7964  -9.3033  -7.5044  -6.3130  -5.8436  -5.6417  -5.4531  -5.4334
    -5.0509  -5.0265  -4.7430  -4.5497  -4.4803  -4.4677  -4.4232  -4.3740
    -4.3187  -4.2986  -4.2059  -4.1629  -4.1423  -3.9158  -3.8738  -3.7693
    -3.7486  -3.6850  -3.6433  -3.6408  -3.6356  -3.6330  -3.6144  -3.6093
    -3.5478  -3.5379  -3.5243  -3.4843  -3.4821  -3.4049  -3.2789  -3.2606
    -3.2518  -3.2060  -3.2039  -3.1878  -3.1657  -3.0974  -3.0724  -3.0530
    -3.0307  -3.0282  -3.0198  -3.0010  -2.9618  -2.9021  -2.8918  -2.8612
    -2.8296  -2.8044  -2.7947  -2.7880  -2.7681  -2.7273  -2.7249  -2.7177
    -2.6544  -2.6047  -2.3838  -2.3755  -2.3478  -2.3411  -2.3230  -2.2391
    -2.2310  -2.2234  -2.2029  -2.1978  -2.1951  -2.1796  -2.1350  -2.1044
    -2.0985  -2.0831  -2.0454  -2.0251  -2.0218  -2.0203  -2.0079  -1.9945
    -1.9872  -1.9850  -1.9782  -1.9650  -1.9470  -1.9366  -1.9231  -1.8783
    -1.8763  -1.8430  -1.8068  -1.7960  -1.7905  -1.7808  -1.7740  -1.7716
    -1.7538  -1.7503  -1.7445  -1.7382  -1.7306  -1.7137  -1.6884  -1.6851
    -1.6673  -1.6650  -1.6182  -1.5756  -1.5652  -1.5051  -1.4684  -1.4551
    -1.4483  -1.4403  -1.4265  -1.4257  -1.4016  -1.3564  -1.2861  -1.2821
    -1.2376  -1.2313  -1.1713  -1.1704  -1.1378  -1.1223  -1.0868  -1.0822
    -1.0114  -0.9839  -0.9786  -0.9506  -0.9383  -0.9324  -0.8932  -0.8853
    -0.8678  -0.8457  -0.8254  -0.8047  -0.8036  -0.7902  -0.7847  -0.7622
    -0.7083  -0.7016  -0.6976  -0.6874  -0.6759  -0.6498  -0.6347  -0.6257
    -0.6225  -0.6091  -0.6080  -0.5934  -0.5801  -0.5671  -0.5647  -0.5502
    -0.5004  -0.4770  -0.4605  -0.4577  -0.4346  -0.4294  -0.3951  -0.3820
    -0.3749  -0.3588  -0.3517  -0.3335  -0.3295  -0.3194  -0.3129  -0.2641
    -0.2313  -0.2291  -0.2271  -0.2051  -0.1986  -0.1504  -0.1451  -0.1416
    -0.0791  -0.0318   0.1217   0.1499   0.1918   0.2887   0.4129   0.4255
     0.4550   0.7589

          k = 0.2000 0.3464 0.0000 ( 51202 PWs)   bands (ev):

   -21.7964  -9.2905  -7.2241  -6.1486  -6.0153  -5.9219  -5.6530  -5.4901
    -5.3769  -4.7859  -4.7087  -4.4974  -4.4811  -4.4659  -4.2793  -4.2587
    -4.2002  -4.1602  -4.1549  -4.0429  -4.0242  -3.9149  -3.8827  -3.8469
    -3.8125  -3.7630  -3.6775  -3.6628  -3.6318  -3.6245  -3.6080  -3.5983
    -3.5745  -3.5688  -3.5286  -3.5054  -3.4614  -3.4347  -3.4254  -3.3641
    -3.2845  -3.2376  -3.2040  -3.1722  -3.1562  -3.1436  -3.0806  -3.0424
    -3.0078  -2.9769  -2.9672  -2.9581  -2.9315  -2.9062  -2.8911  -2.8744
    -2.8526  -2.8243  -2.7506  -2.6933  -2.6757  -2.6579  -2.6464  -2.6167
    -2.5949  -2.5461  -2.4933  -2.4252  -2.4016  -2.3807  -2.3599  -2.3337
    -2.3170  -2.3093  -2.3049  -2.2838  -2.2588  -2.2505  -2.2417  -2.2336
    -2.2182  -2.1772  -2.1558  -2.1012  -2.0587  -2.0487  -2.0315  -2.0118
    -1.9943  -1.9808  -1.9521  -1.9469  -1.9358  -1.9065  -1.8994  -1.8892
    -1.8800  -1.8767  -1.8672  -1.8454  -1.8411  -1.8301  -1.8128  -1.8084
    -1.7833  -1.7597  -1.7357  -1.7117  -1.7063  -1.6719  -1.6603  -1.6573
    -1.6440  -1.6259  -1.6009  -1.5715  -1.5561  -1.5483  -1.5228  -1.4988
    -1.4932  -1.4791  -1.4649  -1.4442  -1.4342  -1.4253  -1.4110  -1.3675
    -1.3396  -1.3259  -1.3060  -1.2327  -1.1986  -1.1752  -1.1605  -1.0898
    -1.0578  -1.0448  -1.0343  -1.0270  -1.0199  -1.0100  -0.9872  -0.9839
    -0.9602  -0.9419  -0.9247  -0.8831  -0.8682  -0.8543  -0.8426  -0.8337
    -0.8099  -0.7871  -0.7684  -0.7650  -0.7500  -0.7419  -0.6244  -0.6022
    -0.5823  -0.5651  -0.5554  -0.5509  -0.5311  -0.5215  -0.5105  -0.5020
    -0.4753  -0.4458  -0.4250  -0.4130  -0.3953  -0.3834  -0.3411  -0.3339
    -0.3253  -0.3226  -0.3141  -0.2926  -0.2799  -0.2732  -0.2621  -0.2453
    -0.2350  -0.1662  -0.1524  -0.1490  -0.1044  -0.0970  -0.0595   0.0537
     0.2138   0.2406   0.2878   0.4268   0.5518   0.6496   0.9850   1.1326
     1.2482   1.4281

          k = 0.2000-0.5774 0.0000 ( 51262 PWs)   bands (ev):

   -21.7964  -9.2835  -6.7023  -6.6606  -6.0922  -5.9360  -5.7078  -5.5105
    -5.2239  -5.1593  -4.7782  -4.4634  -4.3267  -4.2166  -4.1786  -4.0594
    -4.0422  -4.0297  -4.0160  -4.0034  -3.9453  -3.9369  -3.9291  -3.9259
    -3.8939  -3.8418  -3.7834  -3.7719  -3.7552  -3.7459  -3.6818  -3.6050
    -3.5959  -3.5820  -3.5647  -3.5152  -3.4613  -3.4222  -3.3440  -3.3050
    -3.3001  -3.2648  -3.2133  -3.2005  -3.1737  -3.1311  -3.0893  -3.0835
    -3.0446  -3.0185  -2.9744  -2.9230  -2.8893  -2.8613  -2.8504  -2.8031
    -2.7879  -2.7247  -2.7168  -2.7048  -2.6942  -2.6761  -2.6572  -2.6143
    -2.5453  -2.5062  -2.4958  -2.4826  -2.4566  -2.4214  -2.4054  -2.3584
    -2.3541  -2.3136  -2.3003  -2.2975  -2.2860  -2.2658  -2.2472  -2.2372
    -2.2204  -2.2086  -2.1956  -2.1721  -2.1653  -2.1286  -2.0938  -2.0817
    -2.0682  -2.0406  -1.9930  -1.9714  -1.9537  -1.9335  -1.9183  -1.9120
    -1.8900  -1.8791  -1.8679  -1.8631  -1.8450  -1.8233  -1.8193  -1.7875
    -1.7612  -1.7369  -1.7291  -1.7185  -1.7061  -1.6982  -1.6871  -1.6755
    -1.6712  -1.6652  -1.6408  -1.6130  -1.5804  -1.5686  -1.5596  -1.5251
    -1.4795  -1.4720  -1.4477  -1.4234  -1.4109  -1.4010  -1.3933  -1.3596
    -1.3290  -1.3179  -1.2882  -1.2422  -1.1965  -1.1808  -1.1688  -1.1496
    -1.1267  -1.1241  -1.1125  -1.0845  -1.0629  -1.0503  -1.0335  -1.0149
    -0.9708  -0.9589  -0.9464  -0.9294  -0.9161  -0.8765  -0.8593  -0.8472
    -0.8406  -0.8125  -0.8069  -0.7896  -0.7738  -0.7591  -0.7207  -0.5821
    -0.5629  -0.5523  -0.5404  -0.5356  -0.5245  -0.5188  -0.4990  -0.4844
    -0.4660  -0.4562  -0.4449  -0.4338  -0.3892  -0.3431  -0.3222  -0.3121
    -0.2942  -0.2921  -0.2679  -0.2596  -0.2324  -0.2186  -0.2131  -0.1978
    -0.1858  -0.1308  -0.1252  -0.1148  -0.1039  -0.0858  -0.0705  -0.0207
     0.1617   0.2694   0.5222   0.9024   1.0569   1.1782   1.2804   1.5405
     1.6830   1.7340

          k = 0.2000-0.3464 0.0000 ( 51202 PWs)   bands (ev):

   -21.7964  -9.2917  -7.2218  -6.1505  -5.9709  -5.9373  -5.6539  -5.5468
    -5.3483  -4.7825  -4.6918  -4.5308  -4.4793  -4.4634  -4.2660  -4.2598
    -4.2108  -4.1592  -4.1555  -4.0287  -4.0027  -3.9507  -3.8863  -3.8618
    -3.8154  -3.7586  -3.6763  -3.6534  -3.6439  -3.6248  -3.6116  -3.5900
    -3.5753  -3.5690  -3.5184  -3.4998  -3.4653  -3.4321  -3.4130  -3.3634
    -3.2856  -3.2311  -3.2026  -3.1793  -3.1547  -3.1372  -3.0832  -3.0447
    -3.0007  -2.9870  -2.9664  -2.9483  -2.9378  -2.9094  -2.8807  -2.8656
    -2.8629  -2.8255  -2.7389  -2.7224  -2.6786  -2.6661  -2.6347  -2.6239
    -2.5979  -2.5482  -2.4895  -2.4244  -2.3996  -2.3805  -2.3596  -2.3305
    -2.3164  -2.3092  -2.3042  -2.2822  -2.2555  -2.2545  -2.2406  -2.2251
    -2.2218  -2.1797  -2.1568  -2.1357  -2.0609  -2.0468  -2.0283  -2.0075
    -1.9989  -1.9780  -1.9702  -1.9459  -1.9218  -1.9105  -1.9003  -1.8943
    -1.8817  -1.8769  -1.8681  -1.8490  -1.8349  -1.8321  -1.8137  -1.7976
    -1.7820  -1.7722  -1.7502  -1.7096  -1.7084  -1.6785  -1.6630  -1.6517
    -1.6435  -1.6202  -1.5869  -1.5726  -1.5570  -1.5330  -1.5114  -1.5038
    -1.4795  -1.4764  -1.4711  -1.4494  -1.4376  -1.4191  -1.4105  -1.3600
    -1.3429  -1.3067  -1.2900  -1.2355  -1.1912  -1.1721  -1.1627  -1.0747
    -1.0659  -1.0509  -1.0322  -1.0281  -1.0198  -1.0111  -0.9938  -0.9682
    -0.9640  -0.9517  -0.9278  -0.8810  -0.8732  -0.8570  -0.8371  -0.8319
    -0.8087  -0.7839  -0.7771  -0.7631  -0.7532  -0.7418  -0.6187  -0.6108
    -0.5945  -0.5669  -0.5603  -0.5427  -0.5288  -0.5186  -0.5157  -0.4967
    -0.4757  -0.4493  -0.4215  -0.4057  -0.3964  -0.3864  -0.3489  -0.3315
    -0.3269  -0.3221  -0.3164  -0.2911  -0.2787  -0.2702  -0.2645  -0.2492
    -0.2441  -0.1701  -0.1521  -0.1480  -0.1059  -0.1004  -0.0789   0.0701
     0.1866   0.2374   0.2674   0.4875   0.5167   0.6585   1.0328   1.1398
     1.2530   1.4060

          k = 0.4000-0.2309 0.0000 ( 51204 PWs)   bands (ev):

   -21.7964  -9.2884  -7.0851  -6.4307  -6.0611  -5.7673  -5.5779  -5.3747
    -5.1896  -5.1399  -5.0377  -4.4791  -4.3194  -4.3030  -4.2693  -4.2336
    -4.1517  -4.1137  -4.1021  -4.0062  -3.9801  -3.9756  -3.9471  -3.8087
    -3.8000  -3.7902  -3.7820  -3.7663  -3.7076  -3.6764  -3.6629  -3.5636
    -3.5125  -3.5004  -3.4843  -3.4662  -3.4506  -3.4119  -3.3560  -3.3473
    -3.3367  -3.3255  -3.2760  -3.2160  -3.1230  -3.1016  -3.0301  -3.0214
    -2.9975  -2.9741  -2.9550  -2.9412  -2.9283  -2.9144  -2.8991  -2.8458
    -2.8404  -2.8133  -2.7746  -2.7593  -2.6448  -2.6309  -2.6061  -2.5819
    -2.5455  -2.5244  -2.4963  -2.4871  -2.4635  -2.4116  -2.3575  -2.3541
    -2.3484  -2.3372  -2.3278  -2.3091  -2.2914  -2.2847  -2.2682  -2.2405
    -2.2218  -2.1867  -2.1699  -2.1547  -2.1194  -2.1100  -2.0666  -2.0311
    -2.0187  -2.0068  -1.9877  -1.9730  -1.9604  -1.9219  -1.9058  -1.9028
    -1.8923  -1.8760  -1.8691  -1.8494  -1.8330  -1.8270  -1.8218  -1.7932
    -1.7812  -1.7547  -1.7202  -1.7098  -1.6474  -1.6321  -1.6173  -1.5939
    -1.5924  -1.5699  -1.5478  -1.5175  -1.5056  -1.4844  -1.4805  -1.4713
    -1.4679  -1.4605  -1.4479  -1.4423  -1.4358  -1.4240  -1.4078  -1.4003
    -1.3898  -1.3574  -1.2926  -1.2694  -1.2581  -1.2405  -1.2171  -1.2025
    -1.1742  -1.1192  -1.0996  -1.0914  -1.0588  -1.0431  -1.0154  -0.9672
    -0.9633  -0.9326  -0.9263  -0.9048  -0.8871  -0.8542  -0.8332  -0.7734
    -0.7550  -0.7242  -0.7153  -0.7011  -0.6977  -0.6902  -0.6776  -0.6734
    -0.6523  -0.6361  -0.5517  -0.5417  -0.5355  -0.5300  -0.5202  -0.4972
    -0.4868  -0.4782  -0.4621  -0.4583  -0.4304  -0.4129  -0.3661  -0.3513
    -0.3377  -0.3207  -0.2958  -0.2528  -0.2471  -0.2199  -0.2105  -0.1755
    -0.1343  -0.1297  -0.1254  -0.1095  -0.1038  -0.0996  -0.0880  -0.0259
     0.0028   0.0538   0.4778   0.6208   0.9368   1.1002   1.1327   1.3089
     1.4778   1.5262

          k = 0.4000 0.0000 0.0000 ( 51202 PWs)   bands (ev):

   -21.7964  -9.2904  -7.2242  -6.1485  -6.0166  -5.9215  -5.6532  -5.4875
    -5.3785  -4.7845  -4.7096  -4.4969  -4.4812  -4.4664  -4.2794  -4.2588
    -4.2000  -4.1600  -4.1550  -4.0445  -4.0245  -3.9118  -3.8831  -3.8460
    -3.8123  -3.7633  -3.6775  -3.6634  -3.6313  -3.6247  -3.6083  -3.5980
    -3.5746  -3.5686  -3.5291  -3.5060  -3.4613  -3.4350  -3.4261  -3.3647
    -3.2847  -3.2386  -3.2040  -3.1717  -3.1562  -3.1437  -3.0807  -3.0425
    -3.0079  -2.9766  -2.9669  -2.9583  -2.9315  -2.9065  -2.8903  -2.8747
    -2.8531  -2.8238  -2.7507  -2.6923  -2.6757  -2.6576  -2.6460  -2.6167
    -2.5952  -2.5460  -2.4934  -2.4252  -2.4011  -2.3807  -2.3600  -2.3339
    -2.3169  -2.3093  -2.3050  -2.2838  -2.2589  -2.2506  -2.2420  -2.2337
    -2.2172  -2.1771  -2.1561  -2.1011  -2.0587  -2.0486  -2.0318  -2.0118
    -1.9945  -1.9812  -1.9514  -1.9468  -1.9360  -1.9065  -1.8994  -1.8891
    -1.8796  -1.8765  -1.8675  -1.8453  -1.8412  -1.8301  -1.8131  -1.8085
    -1.7831  -1.7592  -1.7349  -1.7119  -1.7062  -1.6722  -1.6601  -1.6570
    -1.6440  -1.6255  -1.6012  -1.5719  -1.5560  -1.5485  -1.5226  -1.4990
    -1.4932  -1.4791  -1.4649  -1.4441  -1.4345  -1.4255  -1.4115  -1.3677
    -1.3395  -1.3261  -1.3068  -1.2319  -1.1986  -1.1750  -1.1607  -1.0902
    -1.0576  -1.0448  -1.0345  -1.0273  -1.0199  -1.0099  -0.9874  -0.9845
    -0.9601  -0.9416  -0.9247  -0.8831  -0.8678  -0.8540  -0.8424  -0.8336
    -0.8094  -0.7872  -0.7685  -0.7656  -0.7505  -0.7417  -0.6245  -0.6022
    -0.5820  -0.5650  -0.5555  -0.5510  -0.5308  -0.5213  -0.5105  -0.5020
    -0.4756  -0.4454  -0.4254  -0.4129  -0.3952  -0.3831  -0.3408  -0.3336
    -0.3253  -0.3227  -0.3140  -0.2927  -0.2800  -0.2733  -0.2620  -0.2451
    -0.2349  -0.1660  -0.1524  -0.1490  -0.1045  -0.0971  -0.0594   0.0536
     0.2151   0.2406   0.2882   0.4253   0.5528   0.6494   0.9816   1.1330
     1.2475   1.4276

          k = 0.4000 0.2309 0.0000 ( 51204 PWs)   bands (ev):

   -21.7964  -9.2864  -7.0886  -6.4373  -6.0708  -5.8124  -5.4594  -5.4356
    -5.1888  -5.1334  -5.0296  -4.4944  -4.3368  -4.2919  -4.2826  -4.2328
    -4.1423  -4.1118  -4.1107  -3.9953  -3.9788  -3.9769  -3.8822  -3.8156
    -3.7986  -3.7843  -3.7818  -3.7650  -3.6788  -3.6740  -3.6667  -3.6284
    -3.5153  -3.5103  -3.4946  -3.4642  -3.4625  -3.4148  -3.3581  -3.3495
    -3.3391  -3.3249  -3.2825  -3.2006  -3.1244  -3.0862  -3.0305  -3.0063
    -3.0013  -2.9701  -2.9578  -2.9539  -2.9417  -2.9146  -2.8788  -2.8497
    -2.8420  -2.8180  -2.7815  -2.7342  -2.6354  -2.6191  -2.6183  -2.5801
    -2.5487  -2.5154  -2.4988  -2.4916  -2.4813  -2.4104  -2.3641  -2.3543
    -2.3492  -2.3376  -2.3250  -2.3081  -2.2907  -2.2864  -2.2671  -2.2253
    -2.2079  -2.1892  -2.1796  -2.1629  -2.1145  -2.1034  -2.0489  -2.0443
    -2.0182  -2.0137  -1.9908  -1.9791  -1.9508  -1.9174  -1.9067  -1.9053
    -1.8847  -1.8732  -1.8634  -1.8452  -1.8423  -1.8288  -1.8272  -1.7956
    -1.7779  -1.7501  -1.7206  -1.7187  -1.6562  -1.6373  -1.6165  -1.5945
    -1.5712  -1.5667  -1.5408  -1.5073  -1.5065  -1.4912  -1.4776  -1.4754
    -1.4673  -1.4641  -1.4460  -1.4437  -1.4295  -1.4288  -1.4216  -1.3933
    -1.3723  -1.3583  -1.3270  -1.2667  -1.2521  -1.2426  -1.2197  -1.1999
    -1.1751  -1.1197  -1.1163  -1.0977  -1.0871  -1.0347  -1.0322  -0.9955
    -0.9669  -0.9327  -0.9181  -0.9144  -0.8836  -0.8481  -0.8152  -0.7889
    -0.7253  -0.7236  -0.7171  -0.7047  -0.6950  -0.6851  -0.6806  -0.6608
    -0.6503  -0.6456  -0.5487  -0.5440  -0.5277  -0.5259  -0.5149  -0.5012
    -0.4843  -0.4748  -0.4661  -0.4485  -0.4398  -0.4072  -0.3620  -0.3434
    -0.3426  -0.3218  -0.2790  -0.2496  -0.2449  -0.2124  -0.2086  -0.1745
    -0.1336  -0.1264  -0.1229  -0.1062  -0.0986  -0.0967  -0.0717  -0.0451
     0.0028   0.0538   0.4238   0.7634   0.8613   1.0367   1.1370   1.2031
     1.4906   1.5435

          k = 0.4000-0.6928 0.0000 ( 51262 PWs)   bands (ev):

   -21.7964  -9.2822  -6.7161  -6.6550  -6.0894  -5.9035  -5.8062  -5.4229
    -5.2000  -5.1847  -4.8000  -4.4656  -4.3510  -4.2034  -4.1768  -4.0472
    -4.0423  -4.0206  -4.0112  -3.9847  -3.9566  -3.9359  -3.9278  -3.9201
    -3.8938  -3.7955  -3.7830  -3.7768  -3.7572  -3.7467  -3.7045  -3.6044
    -3.5939  -3.5859  -3.5719  -3.5511  -3.4846  -3.4199  -3.3356  -3.3060
    -3.2988  -3.2603  -3.2096  -3.1962  -3.1731  -3.1123  -3.0886  -3.0828
    -3.0741  -3.0103  -2.9887  -2.9214  -2.8838  -2.8535  -2.8502  -2.7958
    -2.7826  -2.7243  -2.7168  -2.7083  -2.6945  -2.6852  -2.6353  -2.6244
    -2.5403  -2.5057  -2.4963  -2.4788  -2.4663  -2.4293  -2.4145  -2.3583
    -2.3508  -2.3166  -2.3076  -2.2889  -2.2827  -2.2621  -2.2457  -2.2234
    -2.2165  -2.2051  -2.1784  -2.1746  -2.1604  -2.1535  -2.0960  -2.0834
    -2.0691  -2.0445  -1.9997  -1.9671  -1.9484  -1.9320  -1.9189  -1.9151
    -1.8881  -1.8795  -1.8748  -1.8525  -1.8388  -1.8325  -1.8110  -1.7605
    -1.7471  -1.7388  -1.7247  -1.7152  -1.7015  -1.7009  -1.6947  -1.6805
    -1.6742  -1.6708  -1.6478  -1.6265  -1.5734  -1.5699  -1.5568  -1.5321
    -1.4887  -1.4766  -1.4503  -1.4208  -1.4109  -1.3999  -1.3896  -1.3777
    -1.3265  -1.3211  -1.2871  -1.2511  -1.1885  -1.1858  -1.1749  -1.1468
    -1.1305  -1.1167  -1.1050  -1.1011  -1.0778  -1.0549  -1.0226  -0.9976
    -0.9721  -0.9651  -0.9455  -0.9262  -0.9160  -0.8876  -0.8670  -0.8586
    -0.8316  -0.8167  -0.8048  -0.7775  -0.7670  -0.7571  -0.7258  -0.5859
    -0.5606  -0.5541  -0.5444  -0.5294  -0.5257  -0.5137  -0.4977  -0.4707
    -0.4693  -0.4552  -0.4471  -0.4424  -0.3808  -0.3256  -0.3234  -0.3090
    -0.2967  -0.2871  -0.2737  -0.2415  -0.2303  -0.2194  -0.2100  -0.1972
    -0.1942  -0.1550  -0.1246  -0.1144  -0.1029  -0.0885  -0.0712  -0.0178
     0.1746   0.2773   0.5847   0.8954   0.9540   1.1777   1.2473   1.5870
     1.6862   1.7267

          k = 0.4000-0.4619 0.0000 ( 51262 PWs)   bands (ev):

   -21.7964  -9.2834  -6.7031  -6.6602  -6.0922  -5.9351  -5.7124  -5.5055
    -5.2243  -5.1596  -4.7784  -4.4636  -4.3275  -4.2160  -4.1788  -4.0586
    -4.0422  -4.0295  -4.0160  -4.0032  -3.9453  -3.9367  -3.9290  -3.9257
    -3.8939  -3.8409  -3.7834  -3.7720  -3.7554  -3.7456  -3.6820  -3.6051
    -3.5957  -3.5820  -3.5648  -3.5165  -3.4632  -3.4226  -3.3434  -3.3050
    -3.3000  -3.2654  -3.2132  -3.2004  -3.1737  -3.1310  -3.0895  -3.0834
    -3.0450  -3.0186  -2.9736  -2.9229  -2.8892  -2.8615  -2.8504  -2.8028
    -2.7874  -2.7246  -2.7170  -2.7051  -2.6943  -2.6762  -2.6571  -2.6131
    -2.5452  -2.5060  -2.4957  -2.4828  -2.4566  -2.4215  -2.4053  -2.3586
    -2.3540  -2.3136  -2.3002  -2.2973  -2.2858  -2.2660  -2.2475  -2.2368
    -2.2202  -2.2085  -2.1957  -2.1721  -2.1654  -2.1282  -2.0939  -2.0817
    -2.0683  -2.0422  -1.9931  -1.9715  -1.9532  -1.9333  -1.9184  -1.9119
    -1.8900  -1.8790  -1.8677  -1.8631  -1.8448  -1.8231  -1.8193  -1.7864
    -1.7612  -1.7369  -1.7289  -1.7186  -1.7061  -1.6983  -1.6871  -1.6753
    -1.6713  -1.6650  -1.6408  -1.6137  -1.5808  -1.5680  -1.5599  -1.5251
    -1.4797  -1.4720  -1.4484  -1.4231  -1.4110  -1.4008  -1.3933  -1.3596
    -1.3288  -1.3179  -1.2890  -1.2411  -1.1963  -1.1808  -1.1691  -1.1498
    -1.1266  -1.1240  -1.1127  -1.0843  -1.0629  -1.0507  -1.0336  -1.0145
    -0.9706  -0.9596  -0.9464  -0.9294  -0.9159  -0.8763  -0.8591  -0.8474
    -0.8409  -0.8125  -0.8065  -0.7895  -0.7743  -0.7587  -0.7212  -0.5820
    -0.5627  -0.5523  -0.5402  -0.5358  -0.5244  -0.5188  -0.4991  -0.4842
    -0.4661  -0.4563  -0.4454  -0.4337  -0.3887  -0.3428  -0.3223  -0.3120
    -0.2945  -0.2920  -0.2678  -0.2593  -0.2323  -0.2186  -0.2129  -0.1978
    -0.1858  -0.1312  -0.1252  -0.1147  -0.1039  -0.0857  -0.0705  -0.0209
     0.1615   0.2699   0.5234   0.9034   1.0521   1.1787   1.2790   1.5426
     1.6826   1.7334

 ------ SPIN DOWN ----------


          k = 0.0000 0.0000 0.0000 ( 51087 PWs)   bands (ev):

   -21.8800  -9.4030  -7.7828  -6.4987  -5.7764  -5.6635  -5.4511  -4.6993
    -4.6332  -4.6279  -4.6253  -4.5830  -4.5783  -4.5470  -3.9640  -3.7586
    -3.7520  -3.7416  -3.7146  -3.7060  -3.6502  -3.2537  -2.8141  -2.8129
    -2.8024  -2.7902  -2.7223  -2.5857  -2.3466  -2.3429  -2.3326  -2.3324
    -2.3100  -2.2433  -2.1437  -2.1430  -2.0742  -2.0451  -2.0451  -2.0438
    -1.9583  -1.9580  -1.9090  -1.9074  -1.8325  -1.8176  -1.8116  -1.7950
    -1.7634  -1.7456  -1.5602  -1.5415  -1.5408  -1.5339  -1.5166  -1.5128
    -1.5036  -1.5027  -1.4736  -1.4691  -1.4364  -1.4263  -1.4239  -1.4198
    -1.3470  -1.2681  -0.8975  -0.8711  -0.8561  -0.8518  -0.8313  -0.7783
    -0.6591  -0.6283  -0.5486  -0.5400  -0.5295  -0.5212  -0.5105  -0.4975
    -0.4684  -0.4642  -0.4434  -0.4400  -0.4282  -0.4282  -0.3742  -0.3649
    -0.3454  -0.3297  -0.3209  -0.3048  -0.2951  -0.2828  -0.2807  -0.2666
    -0.2648  -0.2585  -0.2505  -0.2443  -0.2406  -0.2403  -0.1876  -0.1650
    -0.1560  -0.1138  -0.0914  -0.0540  -0.0315  -0.0260  -0.0161  -0.0124
    -0.0100  -0.0050  -0.0042   0.0423   0.0714   0.0717   0.1214   0.1486
     0.1569   0.1599   0.1749   0.2016   0.2986   0.3543   0.3966   0.4014
     0.4481   0.4682   0.4760   0.4766   0.5903   0.6977   0.7072   0.7936
     0.8076   0.8872   0.9267   0.9750   1.0155   1.0364   1.0417   1.0436
     1.1370   1.1395   1.1943   1.2057   1.2163   1.2203   1.2224   1.2492
     1.2668   1.2695   1.2886   1.3019   1.3147   1.3244   1.3326   1.3524
     1.3648   1.3683   1.3730   1.3732   1.3930   1.4285   1.4366   1.4469
     1.4476   1.4675   1.4712   1.4871   1.4951   1.5035   1.5072   1.5386
     1.5428   1.5617   1.5657   1.5669   1.5805   1.5860   1.5911   1.6253
     1.6322   1.6329   1.6376   1.6413   1.6494   1.6553   1.6656   1.6704
     1.6759   1.7154   1.7160   1.8621   1.8622   1.8673   1.8708   1.8715
     1.8776   2.0143

          k = 0.0000 0.2309 0.0000 ( 51134 PWs)   bands (ev):

   -21.8800  -9.3933  -7.6400  -6.3910  -5.8404  -5.6782  -5.5622  -5.3917
    -4.9940  -4.9717  -4.5550  -4.4111  -4.0864  -4.0733  -4.0120  -3.9304
    -3.7982  -3.7097  -3.4501  -3.3935  -3.3414  -3.2360  -2.9453  -2.7940
    -2.7732  -2.7347  -2.6785  -2.5974  -2.4421  -2.3751  -2.3682  -2.3551
    -2.3270  -2.2964  -2.2859  -2.2802  -2.2314  -2.2062  -2.1053  -2.1011
    -2.0155  -2.0120  -1.9684  -1.8567  -1.8428  -1.8204  -1.8060  -1.7108
    -1.6771  -1.6608  -1.6067  -1.5769  -1.5584  -1.5425  -1.5219  -1.5180
    -1.5042  -1.4919  -1.4158  -1.3960  -1.3839  -1.3656  -1.3335  -1.2844
    -1.2504  -1.1560  -0.9765  -0.9421  -0.9046  -0.9021  -0.8426  -0.7924
    -0.7542  -0.7217  -0.6869  -0.6582  -0.6379  -0.5802  -0.5537  -0.5471
    -0.5054  -0.4991  -0.4834  -0.4800  -0.4672  -0.4439  -0.4311  -0.3886
    -0.3460  -0.3252  -0.3166  -0.3136  -0.3036  -0.2798  -0.2614  -0.2475
    -0.2373  -0.2287  -0.2235  -0.2171  -0.2156  -0.2142  -0.1934  -0.1663
    -0.1425  -0.1308  -0.1185  -0.1078  -0.0972  -0.0799  -0.0557  -0.0364
    -0.0225  -0.0006   0.0277   0.0584   0.0889   0.1029   0.1083   0.1387
     0.2509   0.2729   0.2775   0.3297   0.3659   0.3676   0.4007   0.4219
     0.4257   0.4369   0.4522   0.4569   0.6027   0.6774   0.7241   0.7765
     0.7850   0.8005   0.8127   0.8239   0.8758   0.8898   0.9277   0.9617
     1.0109   1.0227   1.0347   1.0833   1.0972   1.1174   1.1418   1.1786
     1.2027   1.2228   1.2506   1.2620   1.2719   1.2874   1.3236   1.3325
     1.3490   1.3747   1.4047   1.4190   1.4395   1.4493   1.4719   1.4822
     1.5148   1.5282   1.5319   1.5343   1.5572   1.6069   1.6138   1.6192
     1.6300   1.6518   1.6547   1.6873   1.6910   1.7065   1.7095   1.7152
     1.7309   1.7773   1.7831   1.7970   1.8006   1.8096   1.8217   1.8340
     1.8547   1.8587   1.8674   1.8965   1.9526   1.9700   1.9741   2.0301
     2.0532   2.1044

          k = 0.0000 0.4619 0.0000 ( 51204 PWs)   bands (ev):

   -21.8800  -9.3778  -7.2164  -6.5392  -6.1192  -5.8001  -5.6303  -5.4033
    -5.2040  -5.1477  -5.0333  -4.3045  -4.1039  -4.0206  -3.7332  -3.4623
    -3.4532  -3.3699  -3.3224  -3.1580  -3.0671  -3.0122  -2.9778  -2.8604
    -2.8535  -2.7870  -2.7464  -2.7111  -2.6445  -2.6174  -2.5989  -2.5568
    -2.5338  -2.4190  -2.3316  -2.3153  -2.2422  -2.2217  -2.1242  -2.1194
    -2.1067  -2.0893  -2.0637  -1.8386  -1.8116  -1.8021  -1.7689  -1.7411
    -1.6069  -1.5933  -1.5816  -1.5642  -1.5574  -1.5295  -1.5274  -1.5059
    -1.4914  -1.4203  -1.4123  -1.3917  -1.3696  -1.3573  -1.2070  -1.1817
    -1.0808  -1.0400  -0.9593  -0.9412  -0.9305  -0.8932  -0.8696  -0.8598
    -0.8454  -0.8191  -0.8044  -0.7712  -0.7275  -0.6962  -0.6779  -0.6489
    -0.6203  -0.6112  -0.5798  -0.5693  -0.5321  -0.5107  -0.4713  -0.4050
    -0.3970  -0.3804  -0.3563  -0.3324  -0.3020  -0.2875  -0.2626  -0.2472
    -0.2106  -0.2079  -0.1929  -0.1730  -0.1629  -0.1586  -0.1391  -0.1204
    -0.1019  -0.0837  -0.0751  -0.0610  -0.0526  -0.0465  -0.0331  -0.0132
     0.0009   0.0282   0.0688   0.1163   0.1415   0.1488   0.1631   0.2042
     0.2122   0.2221   0.2378   0.2826   0.2991   0.3170   0.3365   0.3414
     0.3931   0.3984   0.4070   0.4271   0.4629   0.5397   0.5932   0.6016
     0.6580   0.6851   0.7024   0.7682   0.8073   0.8516   0.8740   0.8879
     0.9112   0.9304   0.9497   0.9701   0.9896   1.0731   1.1436   1.1719
     1.1828   1.1956   1.2402   1.2564   1.2902   1.3075   1.3250   1.3459
     1.3740   1.3908   1.3939   1.4565   1.4776   1.4868   1.5296   1.5379
     1.5487   1.5542   1.5801   1.5882   1.6116   1.6256   1.6350   1.6624
     1.6704   1.7185   1.7558   1.7677   1.7823   1.7981   1.8061   1.8319
     1.8358   1.8580   1.8648   1.8763   1.8968   1.9005   1.9092   1.9149
     1.9564   2.0136   2.0337   2.1232   2.1373   2.2161   2.5517   2.6096
     2.6534   2.6888

          k = 0.2000-0.1155 0.0000 ( 51134 PWs)   bands (ev):

   -21.8800  -9.3932  -7.6400  -6.3911  -5.8418  -5.6773  -5.5609  -5.3926
    -4.9938  -4.9718  -4.5556  -4.4087  -4.0874  -4.0734  -4.0141  -3.9304
    -3.7971  -3.7097  -3.4511  -3.3936  -3.3383  -3.2359  -2.9477  -2.7938
    -2.7720  -2.7359  -2.6786  -2.5961  -2.4429  -2.3750  -2.3682  -2.3557
    -2.3269  -2.2968  -2.2860  -2.2803  -2.2315  -2.2058  -2.1052  -2.1012
    -2.0155  -2.0121  -1.9685  -1.8569  -1.8427  -1.8203  -1.8052  -1.7106
    -1.6772  -1.6610  -1.6067  -1.5769  -1.5584  -1.5424  -1.5221  -1.5180
    -1.5039  -1.4917  -1.4161  -1.3960  -1.3838  -1.3653  -1.3337  -1.2850
    -1.2502  -1.1562  -0.9764  -0.9420  -0.9047  -0.9022  -0.8424  -0.7922
    -0.7552  -0.7216  -0.6871  -0.6581  -0.6378  -0.5805  -0.5535  -0.5468
    -0.5054  -0.4992  -0.4833  -0.4796  -0.4671  -0.4442  -0.4320  -0.3888
    -0.3447  -0.3253  -0.3166  -0.3139  -0.3036  -0.2792  -0.2615  -0.2477
    -0.2374  -0.2285  -0.2234  -0.2171  -0.2157  -0.2142  -0.1935  -0.1663
    -0.1423  -0.1306  -0.1184  -0.1077  -0.0977  -0.0804  -0.0556  -0.0366
    -0.0220  -0.0004   0.0280   0.0588   0.0888   0.1029   0.1082   0.1387
     0.2507   0.2729   0.2779   0.3295   0.3655   0.3678   0.4002   0.4218
     0.4255   0.4368   0.4525   0.4569   0.6023   0.6789   0.7231   0.7764
     0.7849   0.8006   0.8128   0.8237   0.8751   0.8894   0.9273   0.9617
     1.0106   1.0237   1.0346   1.0835   1.0976   1.1178   1.1418   1.1779
     1.2028   1.2223   1.2509   1.2620   1.2718   1.2877   1.3236   1.3326
     1.3491   1.3744   1.4043   1.4192   1.4397   1.4494   1.4724   1.4825
     1.5149   1.5282   1.5321   1.5343   1.5569   1.6066   1.6137   1.6191
     1.6298   1.6517   1.6547   1.6873   1.6911   1.7064   1.7095   1.7153
     1.7308   1.7773   1.7831   1.7972   1.8006   1.8096   1.8220   1.8340
     1.8546   1.8587   1.8674   1.8964   1.9525   1.9700   1.9743   2.0301
     2.0532   2.1044

          k = 0.2000 0.1155 0.0000 ( 51134 PWs)   bands (ev):

   -21.8800  -9.3925  -7.6408  -6.3952  -5.8746  -5.6526  -5.4791  -5.4664
    -4.9892  -4.9745  -4.5789  -4.3497  -4.0937  -4.0743  -4.0291  -3.9613
    -3.7870  -3.7060  -3.4599  -3.3987  -3.3059  -3.2123  -2.9775  -2.8189
    -2.7618  -2.7127  -2.7106  -2.5636  -2.4577  -2.3760  -2.3682  -2.3499
    -2.3348  -2.3042  -2.2855  -2.2812  -2.2433  -2.1880  -2.1053  -2.1001
    -2.0180  -2.0132  -1.9561  -1.8599  -1.8358  -1.8157  -1.8132  -1.6965
    -1.6781  -1.6695  -1.5980  -1.5882  -1.5681  -1.5370  -1.5187  -1.5159
    -1.5145  -1.4486  -1.4384  -1.4016  -1.3783  -1.3672  -1.3309  -1.2983
    -1.2400  -1.1607  -0.9799  -0.9461  -0.9053  -0.8933  -0.8276  -0.8101
    -0.7810  -0.6945  -0.6764  -0.6742  -0.6490  -0.5817  -0.5627  -0.5357
    -0.5113  -0.4961  -0.4885  -0.4715  -0.4712  -0.4437  -0.4421  -0.3831
    -0.3342  -0.3289  -0.3181  -0.3119  -0.3054  -0.2718  -0.2611  -0.2430
    -0.2402  -0.2273  -0.2260  -0.2214  -0.2170  -0.2148  -0.1792  -0.1691
    -0.1460  -0.1325  -0.1145  -0.1136  -0.0982  -0.0744  -0.0552  -0.0470
    -0.0175  -0.0045   0.0485   0.0688   0.0804   0.0853   0.1063   0.1389
     0.2202   0.2892   0.3007   0.3263   0.3576   0.3771   0.3840   0.4136
     0.4267   0.4419   0.4548   0.4560   0.6410   0.6771   0.6999   0.7705
     0.7895   0.7928   0.8205   0.8311   0.8655   0.8962   0.9101   0.9543
     0.9717   1.0372   1.0563   1.0840   1.0932   1.1303   1.1455   1.1559
     1.1952   1.2413   1.2558   1.2688   1.2760   1.2902   1.3249   1.3305
     1.3470   1.3811   1.4055   1.4327   1.4372   1.4518   1.4720   1.4842
     1.5003   1.5271   1.5330   1.5433   1.5492   1.6013   1.6052   1.6176
     1.6327   1.6492   1.6606   1.6899   1.6972   1.7027   1.7111   1.7147
     1.7321   1.7770   1.7848   1.7977   1.7984   1.8109   1.8187   1.8323
     1.8569   1.8632   1.8656   1.8744   1.9506   1.9677   1.9759   2.0211
     2.0583   2.1013

          k = 0.2000 0.3464 0.0000 ( 51202 PWs)   bands (ev):

   -21.8800  -9.3798  -7.3579  -6.2162  -6.0891  -6.0045  -5.6729  -5.5264
    -5.4137  -4.7493  -4.6303  -4.2954  -4.2536  -4.2455  -3.7381  -3.4391
    -3.4245  -3.4228  -3.3991  -3.2648  -3.1616  -3.1293  -3.1035  -2.8893
    -2.7569  -2.6803  -2.6753  -2.6605  -2.5884  -2.5628  -2.5431  -2.4745
    -2.4658  -2.4539  -2.4244  -2.3333  -2.3110  -2.2485  -2.0884  -2.0761
    -2.0455  -1.9963  -1.9720  -1.9472  -1.9347  -1.7946  -1.7430  -1.7261
    -1.6356  -1.6100  -1.5638  -1.5598  -1.5482  -1.5373  -1.5197  -1.5032
    -1.4809  -1.4749  -1.4177  -1.3823  -1.3390  -1.2994  -1.2049  -1.1658
    -1.1057  -1.0714  -0.9900  -0.9634  -0.9007  -0.8729  -0.8576  -0.8309
    -0.8069  -0.7766  -0.7652  -0.7296  -0.7038  -0.6877  -0.6749  -0.6478
    -0.6317  -0.6098  -0.5952  -0.5658  -0.5594  -0.4777  -0.4299  -0.4151
    -0.4056  -0.3849  -0.3579  -0.3453  -0.3229  -0.2987  -0.2851  -0.2717
    -0.2573  -0.2380  -0.2310  -0.2099  -0.1997  -0.1796  -0.1637  -0.1338
    -0.1242  -0.1107  -0.0988  -0.0882  -0.0772  -0.0701  -0.0538  -0.0405
     0.0127   0.0418   0.0496   0.0657   0.1586   0.1762   0.1984   0.2263
     0.2481   0.2769   0.2937   0.3021   0.3367   0.3686   0.3780   0.3861
     0.3945   0.4221   0.4615   0.4721   0.5325   0.5995   0.6358   0.6807
     0.7352   0.7645   0.8038   0.8296   0.8390   0.8501   0.8605   0.8834
     0.8967   0.9131   0.9230   0.9429   0.9802   1.0345   1.0678   1.1018
     1.1198   1.1420   1.1665   1.1847   1.1935   1.2483   1.2549   1.3006
     1.3424   1.4095   1.4388   1.4864   1.5067   1.5192   1.5376   1.5500
     1.5611   1.5694   1.5936   1.6015   1.6533   1.6705   1.6759   1.6814
     1.6967   1.7269   1.7347   1.7472   1.7530   1.7757   1.7849   1.8082
     1.8131   1.8214   1.8302   1.8436   1.8565   1.8733   1.9084   1.9398
     1.9536   1.9733   2.0449   2.0794   2.1834   2.2222   2.3157   2.4935
     2.5328   2.5458

          k = 0.2000-0.5774 0.0000 ( 51262 PWs)   bands (ev):

   -21.8800  -9.3729  -6.8239  -6.7822  -6.1777  -5.9785  -5.7579  -5.5587
    -5.2512  -5.1875  -4.7431  -4.3221  -4.0941  -3.7517  -3.4861  -3.4591
    -3.4493  -3.3418  -3.2118  -3.1216  -3.0475  -3.0381  -3.0214  -2.9062
    -2.9000  -2.8834  -2.8651  -2.8539  -2.7301  -2.6312  -2.5246  -2.5073
    -2.4908  -2.4541  -2.4399  -2.4213  -2.3746  -2.3089  -2.2224  -2.0734
[...]
     atom    8 type  1   force =    -0.00012144   -0.00144988   -0.10492980
     atom    9 type  1   force =    -0.00100333    0.00065194   -0.10563012
     atom   10 type  1   force =    -0.00026341   -0.00010469   -0.01530360
     atom   11 type  1   force =     0.00117897   -0.00204918   -0.00848349
     atom   12 type  1   force =    -0.00097130    0.00050668   -0.01028500
     atom   13 type  1   force =    -0.00120588    0.00202043   -0.00846410
     atom   14 type  1   force =     0.00104663    0.00059758   -0.00557265
     atom   15 type  1   force =    -0.00017485    0.00094930   -0.00973942
     atom   16 type  1   force =    -0.00005877   -0.00109379   -0.01034414
     atom   17 type  1   force =     0.00071940   -0.00066210   -0.00977443
     atom   18 type  1   force =    -0.00084833   -0.00048502   -0.01181549
     atom   19 type  1   force =    -0.00368870   -0.00389429    0.00466665
     atom   20 type  1   force =    -0.00703512   -0.00415982   -0.00196593
     atom   21 type  1   force =     0.01271846   -0.00819192   -0.00351145
     atom   22 type  1   force =     0.00055556    0.00429001    0.00752459
     atom   23 type  1   force =    -0.00068129    0.01514201   -0.00354783
     atom   24 type  1   force =    -0.00021838   -0.00004389    0.01293861
     atom   25 type  1   force =    -0.00021597   -0.00012029    0.01715438
     atom   26 type  1   force =    -0.00519811   -0.00132304    0.00491017
     atom   27 type  1   force =     0.00395487   -0.00168192    0.00747258
     atom   28 type  1   force =     0.00475991    0.00272602    0.12390680
     atom   29 type  1   force =    -0.00217249    0.04559595    0.11785588
     atom   30 type  1   force =    -0.00241599    0.00896472    0.13340756
     atom   31 type  1   force =     0.03881701   -0.02483026    0.11855965
     atom   32 type  1   force =    -0.06764621   -0.03883677    0.03746713
     atom   33 type  1   force =    -0.01239948    0.00656875    0.12279175
     atom   34 type  1   force =     0.00592975   -0.00650131    0.13305116
     atom   35 type  1   force =    -0.00019477   -0.01462944    0.12366242
     atom   36 type  1   force =    -0.00058362   -0.00032403    0.10775269
     atom   37 type  2   force =    -0.07769993   -0.04409577    0.38114425
     atom   38 type  3   force =     0.48716519    0.26218913   -2.62499342
     atom   39 type  4   force =    -0.00813762   -0.00452975   -0.02527659
     The ionic contribution  to forces
     atom    1 type  1   force =    -0.00802749   -0.00042839 -111.16731401
     atom    2 type  1   force =    -0.00124294   -0.00079009 -111.18596746
     atom    3 type  1   force =     0.00927045   -0.00141856 -111.16980462
     atom    4 type  1   force =    -0.00493555    0.00815417 -111.16689416
     atom    5 type  1   force =     0.00346892    0.00876325 -111.16982255
     atom    6 type  1   force =     0.00146660    0.00090747 -111.16003596
     atom    7 type  1   force =    -0.00021819   -0.00011559 -111.15821510
     atom    8 type  1   force =    -0.00432259   -0.00676265 -111.16720867
     atom    9 type  1   force =     0.00454079   -0.00830961 -111.16676931
     atom   10 type  1   force =    -0.04570729   -0.02667889  -40.10358450
     atom   11 type  1   force =    -0.00216558   -0.07274258  -40.20100607
     atom   12 type  1   force =     0.04787360   -0.03736839  -40.10781232
     atom   13 type  1   force =    -0.06384765    0.03408653  -40.20198971
     atom   14 type  1   force =     0.05296802    0.03032178  -40.22375683
     atom   15 type  1   force =     0.01087187    0.00879445  -40.09803588
     atom   16 type  1   force =    -0.00816078    0.06055587  -40.10824229
     atom   17 type  1   force =     0.01325869    0.00542670  -40.09754102
     atom   18 type  1   force =    -0.00509343   -0.00239677  -40.08128096
     atom   19 type  1   force =    -0.39822298   -0.01699180   31.39380568
     atom   20 type  1   force =    -0.06076865   -0.03948604   30.33313170
     atom   21 type  1   force =     0.45981450   -0.08276315   31.26816477
     atom   22 type  1   force =    -0.23824830    0.39579290   31.41402604
     atom   23 type  1   force =     0.16147530    0.44102870   31.26813884
     atom   24 type  1   force =     0.07548920    0.04634839   31.69279746
     atom   25 type  1   force =    -0.01004263   -0.00543307   31.77597158
     atom   26 type  1   force =    -0.21067685   -0.33726994   31.39859439
     atom   27 type  1   force =     0.22077686   -0.40161739   31.42026198
     atom   28 type  1   force =    -1.59843304   -0.93268878  103.94489428
     atom   29 type  1   force =    -0.00104225   -4.87283782   99.87515272
     atom   30 type  1   force =     1.59818912   -1.23176373  103.98536990
     atom   31 type  1   force =    -4.24558138    2.42413423   99.79689951
     atom   32 type  1   force =     3.25982001    1.87601371   98.44112934
     atom   33 type  1   force =     0.62209321    0.12390377  104.08071231
     atom   34 type  1   force =    -0.25356055    2.01975484  103.97327471
     atom   35 type  1   force =     0.41713753    0.48020860  104.09915014
     atom   36 type  1   force =    -0.11974651   -0.05063826  104.50314878
     atom   37 type  2   force =     1.26631422    0.66192195   51.46155539
     atom   38 type  3   force =    -1.88539058   -1.02522724   90.30532599
     atom   39 type  4   force =     0.94060632    0.52761142   15.30377590
     The local contribution  to forces
     atom    1 type  1   force =     0.00896258    0.00120142  111.27522853
     atom    2 type  1   force =     0.00388174    0.00229201  111.29914053
     atom    3 type  1   force =    -0.01250290    0.00235047  111.27932322
     atom    4 type  1   force =     0.00427566   -0.00757410  111.27427539
     atom    5 type  1   force =    -0.00425681   -0.01200474  111.27930256
     atom    6 type  1   force =     0.00048345    0.00023392  111.26526501
     atom    7 type  1   force =    -0.00065395   -0.00041710  111.26372321
     atom    8 type  1   force =     0.00547106    0.00716843  111.27505510
     atom    9 type  1   force =    -0.00439973    0.00747340  111.27422127
     atom   10 type  1   force =     0.04609483    0.02689384   40.10131283
     atom   11 type  1   force =     0.00032178    0.07283335   40.19138112
     atom   12 type  1   force =    -0.04614963    0.03672754   40.10175284
     atom   13 type  1   force =     0.06300512   -0.03570736   40.19229024
     atom   14 type  1   force =    -0.05312669   -0.03040409   40.21011654
     atom   15 type  1   force =    -0.01001230   -0.01014844   40.08755629
     atom   16 type  1   force =     0.00843629   -0.05874895   40.10224871
     atom   17 type  1   force =    -0.01401091   -0.00398287   40.08710553
     atom   18 type  1   force =     0.00625125    0.00304828   40.07190160
     atom   19 type  1   force =     0.39881736    0.01873632  -31.38119290
     atom   20 type  1   force =     0.06826405    0.04389927  -30.32100110
     atom   21 type  1   force =    -0.47130445    0.08807592  -31.25124645
     atom   22 type  1   force =     0.23908520   -0.39736308  -31.40487101
     atom   23 type  1   force =    -0.16266366   -0.45367246  -31.25112864
     atom   24 type  1   force =    -0.07440672   -0.04578936  -31.68208844
     atom   25 type  1   force =     0.00954092    0.00513988  -31.76728915
     atom   26 type  1   force =     0.21253941    0.33696876  -31.38607568
     atom   27 type  1   force =    -0.22175646    0.40312269  -31.41100706
     atom   28 type  1   force =     1.58911484    0.92725711 -104.07778544
     atom   29 type  1   force =     0.00201807    4.80524914  -99.99763770
     atom   30 type  1   force =    -1.58906582    1.21307593 -104.12771862
     atom   31 type  1   force =     4.18630505   -2.38892288  -99.92117426
     atom   32 type  1   force =    -3.19273246   -1.83744703  -98.45422625
     atom   33 type  1   force =    -0.60940872   -0.13133708 -104.20643458
     atom   34 type  1   force =     0.24267464   -2.00252121 -104.11533039
     atom   35 type  1   force =    -0.41743572   -0.46464848 -104.22606718
     atom   36 type  1   force =     0.12183274    0.05187557 -104.62119326
     atom   37 type  2   force =    -1.18940589   -0.61841174  -51.84148551
     atom   38 type  3   force =     1.40868515    0.76831128  -87.69736911
     atom   39 type  4   force =    -0.90933159   -0.51004585  -15.29022063
     The core correction contribution to forces
     atom    1 type  1   force =    -0.00012368   -0.00001406    0.01005766
     atom    2 type  1   force =     0.00038134    0.00021947    0.00905633
     atom    3 type  1   force =    -0.00021036    0.00001717    0.01030795
     atom    4 type  1   force =     0.00001967    0.00007726    0.00996941
     atom    5 type  1   force =    -0.00008375   -0.00018956    0.01031461
     atom    6 type  1   force =     0.00022416    0.00012944    0.00985800
     atom    7 type  1   force =     0.00012311    0.00006984    0.01043682
     atom    8 type  1   force =    -0.00006563   -0.00009933    0.01005826
     atom    9 type  1   force =     0.00007020   -0.00002125    0.00997199
     atom   10 type  1   force =    -0.00020959   -0.00011952   -0.00186650
     atom   11 type  1   force =    -0.00004896   -0.00032230   -0.00193982
     atom   12 type  1   force =     0.00019604   -0.00023664   -0.00181161
     atom   13 type  1   force =    -0.00030711    0.00012620   -0.00194339
     atom   14 type  1   force =     0.00033629    0.00019693   -0.00166701
     atom   15 type  1   force =     0.00006167    0.00010005   -0.00189858
     atom   16 type  1   force =    -0.00011392    0.00028835   -0.00181282
     atom   17 type  1   force =     0.00011798    0.00000813   -0.00189887
     atom   18 type  1   force =     0.00011765    0.00006272   -0.00169582
     atom   19 type  1   force =     0.00013898   -0.00049837    0.00162947
     atom   20 type  1   force =    -0.00115433   -0.00064799    0.00053927
     atom   21 type  1   force =     0.00105568   -0.00072086    0.00057415
     atom   22 type  1   force =     0.00006903    0.00070924    0.00136006
     atom   23 type  1   force =    -0.00010697    0.00129288    0.00055449
     atom   24 type  1   force =     0.00033244    0.00018807    0.00213816
     atom   25 type  1   force =     0.00017803    0.00010130    0.00197268
     atom   26 type  1   force =    -0.00036761    0.00034842    0.00164200
     atom   27 type  1   force =     0.00064857   -0.00030953    0.00135702
     atom   28 type  1   force =     0.00186114    0.00109263   -0.00922661
     atom   29 type  1   force =     0.00081921    0.00939954   -0.00468103
     atom   30 type  1   force =    -0.00292406    0.00404778   -0.00771561
     atom   31 type  1   force =     0.00861249   -0.00400052   -0.00456088
     atom   32 type  1   force =    -0.00634718   -0.00377363   -0.00011261
     atom   33 type  1   force =    -0.00656642    0.00153594   -0.00648787
     atom   34 type  1   force =     0.00193967   -0.00455349   -0.00777536
     atom   35 type  1   force =    -0.00185529   -0.00635627   -0.00657189
     atom   36 type  1   force =    -0.00053323   -0.00032719   -0.01072687
     atom   37 type  2   force =     0.00053133    0.00042471   -0.00133169
     atom   38 type  3   force =    -0.00366827   -0.00197039    0.01936099
     atom   39 type  4   force =     0.00000000    0.00000000    0.00000000
     The Hubbard contrib.    to forces
     atom    1 type  1   force =     0.00000000    0.00000000    0.00000000
     atom    2 type  1   force =     0.00000000    0.00000000    0.00000000
     atom    3 type  1   force =     0.00000000    0.00000000    0.00000000
     atom    4 type  1   force =     0.00000000    0.00000000    0.00000000
     atom    5 type  1   force =     0.00000000    0.00000000    0.00000000
     atom    6 type  1   force =     0.00000000    0.00000000    0.00000000
     atom    7 type  1   force =     0.00000000    0.00000000    0.00000000
     atom    8 type  1   force =     0.00000000    0.00000000    0.00000000
     atom    9 type  1   force =     0.00000000    0.00000000    0.00000000
     atom   10 type  1   force =     0.00000000    0.00000000    0.00000000
     atom   11 type  1   force =     0.00000000    0.00000000    0.00000000
     atom   12 type  1   force =     0.00000000    0.00000000    0.00000000
     atom   13 type  1   force =     0.00000000    0.00000000    0.00000000
     atom   14 type  1   force =     0.00000000    0.00000000    0.00000000
     atom   15 type  1   force =     0.00000000    0.00000000    0.00000000
     atom   16 type  1   force =     0.00000000    0.00000000    0.00000000
     atom   17 type  1   force =     0.00000000    0.00000000    0.00000000
     atom   18 type  1   force =     0.00000000    0.00000000    0.00000000
     atom   19 type  1   force =     0.00000000    0.00000000    0.00000000
     atom   20 type  1   force =     0.00000000    0.00000000    0.00000000
     atom   21 type  1   force =     0.00000000    0.00000000    0.00000000
     atom   22 type  1   force =     0.00000000    0.00000000    0.00000000
     atom   23 type  1   force =     0.00000000    0.00000000    0.00000000
     atom   24 type  1   force =     0.00000000    0.00000000    0.00000000
     atom   25 type  1   force =     0.00000000    0.00000000    0.00000000
     atom   26 type  1   force =     0.00000000    0.00000000    0.00000000
     atom   27 type  1   force =     0.00000000    0.00000000    0.00000000
     atom   28 type  1   force =     0.00000000    0.00000000    0.00000000
     atom   29 type  1   force =     0.00000000    0.00000000    0.00000000
     atom   30 type  1   force =     0.00000000    0.00000000    0.00000000
     atom   31 type  1   force =     0.00000000    0.00000000    0.00000000
     atom   32 type  1   force =     0.00000000    0.00000000    0.00000000
     atom   33 type  1   force =     0.00000000    0.00000000    0.00000000
     atom   34 type  1   force =     0.00000000    0.00000000    0.00000000
     atom   35 type  1   force =     0.00000000    0.00000000    0.00000000
     atom   36 type  1   force =     0.00000000    0.00000000    0.00000000
     atom   37 type  2   force =     0.00000000    0.00000000    0.00000000
     atom   38 type  3   force =     0.00000000    0.00000000    0.00000000
     atom   39 type  4   force =     0.00000000    0.00000000    0.00000000
     The SCF correction term to forces
     atom    1 type  1   force =     0.00000000   -0.00000000    0.00000000
     atom    2 type  1   force =    -0.00000000    0.00000000    0.00000000
     atom    3 type  1   force =     0.00000000   -0.00000000    0.00000000
     atom    4 type  1   force =     0.00000000    0.00000000    0.00000000
     atom    5 type  1   force =    -0.00000000    0.00000000    0.00000000
     atom    6 type  1   force =     0.00000000   -0.00000000    0.00000000
     atom    7 type  1   force =     0.00000000    0.00000000    0.00000000
     atom    8 type  1   force =    -0.00000000    0.00000000    0.00000000
     atom    9 type  1   force =     0.00000000    0.00000000    0.00000000
     atom   10 type  1   force =    -0.00000000   -0.00000000    0.00000000
     atom   11 type  1   force =     0.00000000    0.00000000    0.00000000
     atom   12 type  1   force =     0.00000000   -0.00000000    0.00000000
     atom   13 type  1   force =     0.00000000   -0.00000000    0.00000000
     atom   14 type  1   force =    -0.00000000   -0.00000000    0.00000000
     atom   15 type  1   force =     0.00000000   -0.00000000    0.00000000
     atom   16 type  1   force =    -0.00000000    0.00000000    0.00000000
     atom   17 type  1   force =    -0.00000000    0.00000000    0.00000000
     atom   18 type  1   force =     0.00000000    0.00000000    0.00000000
     atom   19 type  1   force =    -0.00000000   -0.00000000    0.00000000
     atom   20 type  1   force =     0.00000000    0.00000000    0.00000000
     atom   21 type  1   force =    -0.00000000    0.00000000    0.00000000
     atom   22 type  1   force =     0.00000000   -0.00000000    0.00000000
     atom   23 type  1   force =     0.00000000   -0.00000000    0.00000000
     atom   24 type  1   force =    -0.00000000   -0.00000000    0.00000000
     atom   25 type  1   force =     0.00000000    0.00000000    0.00000000
     atom   26 type  1   force =    -0.00000000   -0.00000000    0.00000000
     atom   27 type  1   force =    -0.00000000    0.00000000    0.00000000
     atom   28 type  1   force =     0.00000000   -0.00000000    0.00000000
     atom   29 type  1   force =    -0.00000000    0.00000000    0.00000000
     atom   30 type  1   force =     0.00000000    0.00000000    0.00000000
     atom   31 type  1   force =     0.00000000   -0.00000000    0.00000000
     atom   32 type  1   force =    -0.00000000    0.00000000    0.00000000
     atom   33 type  1   force =    -0.00000000    0.00000000    0.00000000
     atom   34 type  1   force =     0.00000000   -0.00000000    0.00000000
     atom   35 type  1   force =    -0.00000000   -0.00000000    0.00000000
     atom   36 type  1   force =    -0.00000000   -0.00000000    0.00000000
     atom   37 type  2   force =     0.00000752    0.00000596   -0.00000650
     atom   38 type  3   force =     0.00000403    0.00000294   -0.00001339
     atom   39 type  4   force =    -0.00000319   -0.00000055   -0.00000343

     Total force =     0.030080     Total SCF correction =     0.000019

     Writing all to output data dir ./pwscf.save/

     init_run     :     11.41s CPU     11.83s WALL (       1 calls)
     electrons    :    949.40s CPU    967.22s WALL (       1 calls)
     forces       :      7.15s CPU      7.22s WALL (       1 calls)

     Called by init_run:
     wfcinit      :      8.30s CPU      8.62s WALL (       1 calls)
     potinit      :      2.00s CPU      2.07s WALL (       1 calls)
     hinit0       :      0.85s CPU      0.86s WALL (       1 calls)

     Called by electrons:
     c_bands      :    804.62s CPU    820.33s WALL (      53 calls)
     sum_band     :     97.62s CPU     98.93s WALL (      53 calls)
     v_of_rho     :     12.28s CPU     12.44s WALL (      54 calls)
     newd         :      3.11s CPU      3.16s WALL (      54 calls)
     PAW_pot      :     15.53s CPU     15.69s WALL (      54 calls)
     mix_rho      :     17.59s CPU     17.89s WALL (      53 calls)
     vdW_kernel   :      1.10s CPU      1.11s WALL (       1 calls)

     Called by c_bands:
     init_us_2    :      9.35s CPU      9.49s WALL (    2808 calls)
     init_us_2:cp :      9.33s CPU      9.49s WALL (    2808 calls)
     cegterg      :    777.62s CPU    792.56s WALL (    1378 calls)

     Called by *egterg:
     cdiaghg      :    212.53s CPU    216.84s WALL (    4646 calls)
     h_psi        :    367.29s CPU    375.93s WALL (    4672 calls)
     s_psi        :     39.57s CPU     40.05s WALL (    4672 calls)
     g_psi        :      0.98s CPU      1.01s WALL (    3268 calls)

     Called by h_psi:
     h_psi:calbec :     60.76s CPU     62.21s WALL (    4672 calls)
     vloc_psi     :    263.35s CPU    269.35s WALL (    4672 calls)
     add_vuspsi   :     40.74s CPU     41.91s WALL (    4672 calls)

     General routines
     calbec       :     89.98s CPU     91.74s WALL (    6154 calls)
     fft          :      9.20s CPU      9.31s WALL (    4883 calls)
     ffts         :     10.21s CPU     10.38s WALL (   23204 calls)
     fftw         :    303.29s CPU    309.74s WALL ( 1430076 calls)
     interpolate  :      0.35s CPU      0.36s WALL (     108 calls)

     Parallel routines

     PWSCF        :  16m13.58s CPU  16m36.86s WALL


   This run was terminated on:   9:57:46  14Dec2025            

=------------------------------------------------------------------------------=
   JOB DONE.
=------------------------------------------------------------------------------=
