
     Program PWSCF v.7.1 starts on 26Feb2025 at 16: 5:36 
        Git branch: heads/qe-7.1
        Last git commit: 48ba0178f8fede6d020eb786884699a9f063f55d-dirty
        Last git commit date: Fri Jan 27 14:22:33 2023 +0000
        Last git commit subject: Merge branch 'fix_hubbard' into 'develop'

     This program is part of the open-source Quantum ESPRESSO suite
     for quantum simulation of materials; please cite
         "P. Giannozzi et al., J. Phys.:Condens. Matter 21 395502 (2009);
         "P. Giannozzi et al., J. Phys.:Condens. Matter 29 465901 (2017);
         "P. Giannozzi et al., J. Chem. Phys. 152 154105 (2020);
          URL http://www.quantum-espresso.org", 
     in publications or presentations arising from this work. More details at
     http://www.quantum-espresso.org/quote

     Parallel version (MPI), running on    48 processors

     MPI processes distributed on     1 nodes
     108824 MiB available memory on the printing compute node when the environment starts

     Reading input from espresso.pwi
Warning: card &CELL ignored
Warning: card / ignored
Warning: card &FCP ignored
Warning: card / ignored
Warning: card &RISM ignored
Warning: card / ignored

     Current dimensions of program PWSCF are:
     Max number of different atomic species (ntypx) = 10
     Max number of k-points (npk) =  40000
     Max angular momentum in pseudopotentials (lmaxx) =  4
     file Pt.pbe-n-kjpaw_psl.1.0.0.UPF: wavefunction(s)  6S 5D renormalized
     file O.pbe-nl-kjpaw_psl.1.0.0.UPF: wavefunction(s)  2S 2P renormalized
     file H.pbe-kjpaw_psl.1.0.0.UPF: wavefunction(s)  1S renormalized

     **************************************************************************
     Initializing libbeef V0.1.2 with the BEEF-vdW functional.
     Citation: Wellendorff et al., PRB 85, 235149 (2012).
     **************************************************************************


     IMPORTANT: XC functional enforced from input :
     Exchange-correlation= BEEF-VDW
                           (   1   4  43  14   2   0   0)
     Any further DFT definition will be discarded
     Please, verify this is what you really want


     R & G space division:  proc/nbgrp/npool/nimage =      48
     Subspace diagonalization in iterative solution of the eigenvalue problem:
     one sub-group per band group will be used
     custom distributed-memory algorithm (size of sub-group:  2*  2 procs)


     Parallelization info
     --------------------
     sticks:   dense  smooth     PW     G-vecs:    dense   smooth      PW
     Min         151      59     16                29407     7165    1028
     Max         152      60     17                29420     7176    1042
     Sum        7267    2839    769              1411785   344073   49691

     Using Slab Decomposition



     bravais-lattice index     =            0
     lattice parameter (alat)  =      16.0349  a.u.
     unit-cell volume          =   10068.6169 (a.u.)^3
     number of atoms/cell      =           39
     number of atomic types    =            3
     number of electrons       =       368.00
     number of Kohn-Sham states=          221
     kinetic-energy cutoff     =      40.0000  Ry
     charge density cutoff     =     410.0000  Ry
     scf convergence threshold =      1.0E-06
     mixing beta               =       0.7000
     number of iterations used =            8  local-TF  mixing
     Exchange-correlation= BEEF-VDW
                           (   1   4  43  14   2   0   0)

     celldm(1)=  16.034858  celldm(2)=   0.000000  celldm(3)=   0.000000
     celldm(4)=   0.000000  celldm(5)=   0.000000  celldm(6)=   0.000000

     crystal axes: (cart. coord. in units of alat)
               a(1) = (   1.000000   0.000000   0.000000 )  
               a(2) = (   0.500000   0.866025   0.000000 )  
               a(3) = (   0.000000   0.000000   2.819966 )  

     reciprocal axes: (cart. coord. in units 2 pi/alat)
               b(1) = (  1.000000 -0.577350  0.000000 )  
               b(2) = (  0.000000  1.154701  0.000000 )  
               b(3) = (  0.000000  0.000000  0.354614 )  


     PseudoPot. # 1 for Pt read from file:
     /users/kbadger1/espresso/pseudo/pslibrary.1.0.0/pbe/PSEUDOPOTENTIALS/Pt.pbe-n-kjpaw_psl.1.0.0.UPF
     MD5 check sum: 2e24a0b5bf98a4ed1a57fa81bca8c143
     Pseudo is Projector augmented-wave + core cor, Zval = 10.0
     Generated using 'atomic' code by A. Dal Corso  v.7.0
     Shape of augmentation charge: PSQ
     Using radial grid of 1277 points,  6 beta functions with: 
                l(1) =   0
                l(2) =   0
                l(3) =   1
                l(4) =   1
                l(5) =   2
                l(6) =   2
     Q(r) pseudized with 0 coefficients 


     PseudoPot. # 2 for O  read from file:
     /users/kbadger1/espresso/pseudo/pslibrary.1.0.0/pbe/PSEUDOPOTENTIALS/O.pbe-nl-kjpaw_psl.1.0.0.UPF
     MD5 check sum: f0439fab3598ca4e468f064226030408
     Pseudo is Projector augmented-wave + core cor, Zval =  6.0
     Generated using 'atomic' code by A. Dal Corso  v.7.0
     Shape of augmentation charge: PSQ
     Using radial grid of 1095 points,  4 beta functions with: 
                l(1) =   0
                l(2) =   0
                l(3) =   1
                l(4) =   1
     Q(r) pseudized with 0 coefficients 


     PseudoPot. # 3 for H  read from file:
     /users/kbadger1/espresso/pseudo/pslibrary.1.0.0/pbe/PSEUDOPOTENTIALS/H.pbe-kjpaw_psl.1.0.0.UPF
     MD5 check sum: fe4c6fa958fa6d3815bf5d2419cbf1df
     Pseudo is Projector augmented-wave, Zval =  1.0
     Generated using 'atomic' code by A. Dal Corso  v.7.0
     Shape of augmentation charge: PSQ
     Using radial grid of  929 points,  2 beta functions with: 
                l(1) =   0
                l(2) =   0
     Q(r) pseudized with 0 coefficients 


     atomic species   valence    mass     pseudopotential
        Pt            10.00   195.08400     Pt( 1.00)
        O              6.00    15.99900     O ( 1.00)
        H              1.00     1.00800     H ( 1.00)

     No symmetry found



   Cartesian axes

     site n.     atom                  positions (alat units)
         1           Pt  tau(   1) = (   0.0000000   0.0000000   1.0017346  )
         2           Pt  tau(   2) = (   0.3333333   0.0000000   1.0017346  )
         3           Pt  tau(   3) = (   0.6666667   0.0000000   1.0017346  )
         4           Pt  tau(   4) = (   0.1666667   0.2886751   1.0017346  )
         5           Pt  tau(   5) = (   0.5000000   0.2886751   1.0017346  )
         6           Pt  tau(   6) = (   0.8333333   0.2886751   1.0017346  )
         7           Pt  tau(   7) = (   0.3333333   0.5773503   1.0017346  )
         8           Pt  tau(   8) = (   0.6666667   0.5773503   1.0017346  )
         9           Pt  tau(   9) = (   1.0000000   0.5773503   1.0017346  )
        10           Pt  tau(  10) = (   0.1666667   0.0962250   1.2739001  )
        11           Pt  tau(  11) = (   0.5000000   0.0962250   1.2739001  )
        12           Pt  tau(  12) = (   0.8333333   0.0962250   1.2739001  )
        13           Pt  tau(  13) = (   0.3333333   0.3849002   1.2739001  )
        14           Pt  tau(  14) = (   0.6666667   0.3849002   1.2739001  )
        15           Pt  tau(  15) = (   1.0000000   0.3849002   1.2739001  )
        16           Pt  tau(  16) = (   0.5000000   0.6735753   1.2739001  )
        17           Pt  tau(  17) = (   0.8333333   0.6735753   1.2739001  )
        18           Pt  tau(  18) = (   1.1666667   0.6735753   1.2739001  )
        19           Pt  tau(  19) = (  -0.0019931   0.1945187   1.5410526  )
        20           Pt  tau(  20) = (   0.3328408   0.1957610   1.5462695  )
        21           Pt  tau(  21) = (   0.6636679   0.1947024   1.5462027  )
        22           Pt  tau(  22) = (   0.1644768   0.4837885   1.5425555  )
        23           Pt  tau(  23) = (   0.4971137   0.4814657   1.5477270  )
        24           Pt  tau(  24) = (   0.8312661   0.4836063   1.5419729  )
        25           Pt  tau(  25) = (   0.3294615   0.7731671   1.5444861  )
        26           Pt  tau(  26) = (   0.6640514   0.7721195   1.5405956  )
        27           Pt  tau(  27) = (   0.9987545   0.7728776   1.5441661  )
        28           Pt  tau(  28) = (  -0.0049817   0.0055668   1.8167504  )
        29           Pt  tau(  29) = (   0.3256441   0.0034335   1.8143197  )
        30           Pt  tau(  30) = (   0.6612279   0.0052551   1.8281279  )
        31           Pt  tau(  31) = (   0.1597347   0.2943422   1.8147867  )
        32           Pt  tau(  32) = (   0.4960531   0.2969164   1.8310326  )
        33           Pt  tau(  33) = (   0.8308380   0.2946531   1.8144148  )
        34           Pt  tau(  34) = (   0.3271105   0.5855123   1.8167512  )
        35           Pt  tau(  35) = (   0.6625001   0.5848933   1.8159490  )
        36           Pt  tau(  36) = (   0.9946813   0.5828507   1.8168828  )
        37           O   tau(  37) = (   0.4919633   0.2780707   2.0687961  )
        38           H   tau(  38) = (   0.5946994   0.3105364   2.1076617  )
        39           H   tau(  39) = (   0.6294219   0.0406139   2.0055420  )

     number of k points=    13  Marzari-Vanderbilt smearing, width (Ry)=  0.0200
                       cart. coord. in units 2pi/alat
        k(    1) = (   0.0000000   0.0000000   0.0000000), wk =   0.0800000
        k(    2) = (   0.0000000   0.2309401   0.0000000), wk =   0.1600000
        k(    3) = (   0.0000000   0.4618802   0.0000000), wk =   0.1600000
        k(    4) = (   0.2000000  -0.1154701   0.0000000), wk =   0.1600000
        k(    5) = (   0.2000000   0.1154701   0.0000000), wk =   0.1600000
        k(    6) = (   0.2000000   0.3464102   0.0000000), wk =   0.1600000
        k(    7) = (   0.2000000  -0.5773503   0.0000000), wk =   0.1600000
        k(    8) = (   0.2000000  -0.3464102   0.0000000), wk =   0.1600000
        k(    9) = (   0.4000000  -0.2309401   0.0000000), wk =   0.1600000
        k(   10) = (   0.4000000  -0.0000000   0.0000000), wk =   0.1600000
        k(   11) = (   0.4000000   0.2309401   0.0000000), wk =   0.1600000
        k(   12) = (   0.4000000  -0.6928203   0.0000000), wk =   0.1600000
        k(   13) = (   0.4000000  -0.4618802   0.0000000), wk =   0.1600000

     Dense  grid:  1411785 G-vectors     FFT dimensions: ( 108, 108, 300)

     Smooth grid:   344073 G-vectors     FFT dimensions: (  72,  72, 192)

     Estimated max dynamical RAM per process >     207.10 MB

     Estimated total dynamical RAM >       9.71 GB

     Initial potential from superposition of free atoms

     starting charge     367.9939, renormalised to     368.0000

     negative rho (up, down):  3.177E-03 0.000E+00


     %%%%%%%%%%%%%%%%%%%%%%%%%%%%%%%%%%%%%%%%%%%%%%%%%%%%%%%%%%%%%%%%%%%%%%%%
     %                                                                      %
     % You are using vdW-DF, which was implemented by the Thonhauser group. %
     % Please cite the following two papers that made this development      %
     % possible and the two reviews that describe the various versions:     %
     %                                                                      %
     %   T. Thonhauser et al., PRL 115, 136402 (2015).                      %
     %   T. Thonhauser et al., PRB 76, 125112 (2007).                       %
     %   K. Berland et al., Rep. Prog. Phys. 78, 066501 (2015).             %
     %   D.C. Langreth et al., J. Phys.: Condens. Matter 21, 084203 (2009). %
     %                                                                      %
     % If you are calculating stress with vdW-DF, please also cite:         %
     %                                                                      %
     %   R. Sabatini et al., J. Phys.: Condens. Matter 24, 424209 (2012).   %
     %                                                                      %
     %%%%%%%%%%%%%%%%%%%%%%%%%%%%%%%%%%%%%%%%%%%%%%%%%%%%%%%%%%%%%%%%%%%%%%%%

     %%%%%%%%%%%%%%%%%%%%%%%%%%%%%%%%%%%%%%%%%%%%%%%%%%%%%%%%%%%%%%%%%%%%%%%%
     %                                                                      %
     %  vdW-DF NEWS:                                                        %
     %                                                                      %
     %  * vdW-DF3 is now available. DOI: 10.1021/acs.jctc.0c00471           %
     %    use with input_dft = 'vdW-DF3-opt1' or 'vdW-DF3-opt2'             %
     %                                                                      %
     %  * Unscreened and range-separated hybrid vdW-DF-cx functionals       %
     %    DOI: 10.1063/1.4986522 and 10.1088/1361-648X/ac2ad2               %
     %    use with input_dft = 'vdW-DF-cx0'    and 'vdW-DF-ahcx'            %
     %  * Unscreened and range-separated hybrid vdW-DF2-b86r functionals    %
     %    DOI: 10.1063/1.4986522 and DOI: 10.1103/PhysRevX.12.041003        %
     %    use with input_dft = 'vdW-DF2-br0' and 'vdW-DF2-ahbr'             %
     %                                                                      %
     %%%%%%%%%%%%%%%%%%%%%%%%%%%%%%%%%%%%%%%%%%%%%%%%%%%%%%%%%%%%%%%%%%%%%%%%


     Starting wfcs are  330 randomized atomic wfcs
     Checking if some PAW data can be deallocated... 

     total cpu time spent up to now is       22.3 secs

     per-process dynamical memory:   212.0 Mb

     Self-consistent Calculation

     iteration #  1     ecut=    40.00 Ry     beta= 0.70
     Davidson diagonalization with overlap
     ethr =  1.00E-02,  avg # of iterations =  2.0

     Threshold (ethr) on eigenvalues was too large:
     Diagonalizing with lowered threshold

     Davidson diagonalization with overlap
     ethr =  6.75E-04,  avg # of iterations =  3.2

     negative rho (up, down):  1.084E-02 0.000E+00

     total cpu time spent up to now is       62.8 secs

     total energy              =  -27798.81732286 Ry
     estimated scf accuracy    <       2.64916037 Ry

     iteration #  2     ecut=    40.00 Ry     beta= 0.70
     Davidson diagonalization with overlap
     ethr =  7.20E-04,  avg # of iterations =  3.0

     negative rho (up, down):  9.618E-03 0.000E+00

     total cpu time spent up to now is       87.3 secs

     total energy              =  -27799.01938779 Ry
     estimated scf accuracy    <       1.04119006 Ry

     iteration #  3     ecut=    40.00 Ry     beta= 0.70
     Davidson diagonalization with overlap
     ethr =  2.83E-04,  avg # of iterations =  2.0

     negative rho (up, down):  7.521E-03 0.000E+00

     total cpu time spent up to now is      111.9 secs

     total energy              =  -27799.09133103 Ry
     estimated scf accuracy    <       0.30687747 Ry

     iteration #  4     ecut=    40.00 Ry     beta= 0.70
     Davidson diagonalization with overlap
     ethr =  8.34E-05,  avg # of iterations = 11.7

     negative rho (up, down):  6.058E-03 0.000E+00

     total cpu time spent up to now is      149.1 secs

     total energy              =  -27799.13964642 Ry
     estimated scf accuracy    <       0.17842636 Ry

     iteration #  5     ecut=    40.00 Ry     beta= 0.70
     Davidson diagonalization with overlap
     ethr =  4.85E-05,  avg # of iterations =  2.2

     negative rho (up, down):  4.240E-03 0.000E+00

     total cpu time spent up to now is      173.5 secs

     total energy              =  -27799.14736211 Ry
     estimated scf accuracy    <       0.03031731 Ry

     iteration #  6     ecut=    40.00 Ry     beta= 0.70
     Davidson diagonalization with overlap
     c_bands:  1 eigenvalues not converged
     c_bands:  1 eigenvalues not converged
     ethr =  8.24E-06,  avg # of iterations = 10.3

     negative rho (up, down):  3.332E-03 0.000E+00

     total cpu time spent up to now is      213.1 secs

     total energy              =  -27799.15519583 Ry
     estimated scf accuracy    <       0.00823974 Ry

     iteration #  7     ecut=    40.00 Ry     beta= 0.70
     Davidson diagonalization with overlap
     c_bands:  1 eigenvalues not converged
     ethr =  2.24E-06,  avg # of iterations =  9.3

     negative rho (up, down):  2.713E-03 0.000E+00

     total cpu time spent up to now is      245.6 secs

     total energy              =  -27799.15598662 Ry
     estimated scf accuracy    <       0.00304061 Ry

     iteration #  8     ecut=    40.00 Ry     beta= 0.70
     Davidson diagonalization with overlap
     ethr =  8.26E-07,  avg # of iterations =  4.1

     negative rho (up, down):  2.600E-03 0.000E+00

     total cpu time spent up to now is      272.3 secs

     total energy              =  -27799.15632544 Ry
     estimated scf accuracy    <       0.00073128 Ry

     iteration #  9     ecut=    40.00 Ry     beta= 0.70
     Davidson diagonalization with overlap
     ethr =  1.99E-07,  avg # of iterations =  4.2

     negative rho (up, down):  2.446E-03 0.000E+00

     total cpu time spent up to now is      303.5 secs

     total energy              =  -27799.15653045 Ry
     estimated scf accuracy    <       0.00025385 Ry

     iteration # 10     ecut=    40.00 Ry     beta= 0.70
     Davidson diagonalization with overlap
     ethr =  6.90E-08,  avg # of iterations =  3.5

     negative rho (up, down):  2.306E-03 0.000E+00

     total cpu time spent up to now is      331.2 secs

     total energy              =  -27799.15657747 Ry
     estimated scf accuracy    <       0.00012956 Ry

     iteration # 11     ecut=    40.00 Ry     beta= 0.70
     Davidson diagonalization with overlap
     ethr =  3.52E-08,  avg # of iterations =  2.0

     negative rho (up, down):  2.248E-03 0.000E+00

     total cpu time spent up to now is      356.2 secs

     total energy              =  -27799.15659332 Ry
     estimated scf accuracy    <       0.00005971 Ry

     iteration # 12     ecut=    40.00 Ry     beta= 0.70
     Davidson diagonalization with overlap
     ethr =  1.62E-08,  avg # of iterations =  2.0

     negative rho (up, down):  2.227E-03 0.000E+00

     total cpu time spent up to now is      381.9 secs

     total energy              =  -27799.15660379 Ry
     estimated scf accuracy    <       0.00003482 Ry

     iteration # 13     ecut=    40.00 Ry     beta= 0.70
     Davidson diagonalization with overlap
     ethr =  9.46E-09,  avg # of iterations =  3.5

     negative rho (up, down):  2.336E-03 0.000E+00

     total cpu time spent up to now is      397.5 secs

     total energy              =  -27799.15661080 Ry
     estimated scf accuracy    <       0.00001029 Ry

     iteration # 14     ecut=    40.00 Ry     beta= 0.70
     Davidson diagonalization with overlap
     ethr =  2.79E-09,  avg # of iterations =  5.0

     negative rho (up, down):  2.394E-03 0.000E+00

     total cpu time spent up to now is      441.5 secs

     total energy              =  -27799.15661310 Ry
     estimated scf accuracy    <       0.00000537 Ry

     iteration # 15     ecut=    40.00 Ry     beta= 0.70
     Davidson diagonalization with overlap
     ethr =  1.46E-09,  avg # of iterations =  2.0

     negative rho (up, down):  2.559E-03 0.000E+00

     total cpu time spent up to now is      455.1 secs

     total energy              =  -27799.15661283 Ry
     estimated scf accuracy    <       0.00000275 Ry

     iteration # 16     ecut=    40.00 Ry     beta= 0.70
     Davidson diagonalization with overlap
     ethr =  7.48E-10,  avg # of iterations =  2.0

     negative rho (up, down):  2.632E-03 0.000E+00

     total cpu time spent up to now is      480.5 secs

     total energy              =  -27799.15661257 Ry
     estimated scf accuracy    <       0.00000172 Ry

     iteration # 17     ecut=    40.00 Ry     beta= 0.70
     Davidson diagonalization with overlap
     ethr =  4.67E-10,  avg # of iterations =  1.7

     negative rho (up, down):  3.089E-03 0.000E+00

     total cpu time spent up to now is      503.7 secs

     End of self-consistent calculation

          k = 0.0000 0.0000 0.0000 ( 42913 PWs)   bands (ev):

   -16.2952  -6.2670  -5.0045  -4.0076  -3.9355  -3.8781  -3.8574  -3.8476
    -3.8385  -3.8322  -3.8118  -3.7192  -3.4018  -3.2953  -3.2914  -3.2854
    -3.2798  -3.2543  -3.0042  -2.8302  -2.8258  -2.8217  -2.8124  -2.8063
    -2.7560  -2.6125  -2.6049  -2.5999  -2.5989  -2.5698  -2.4436  -2.3948
    -2.3895  -2.3836  -2.3751  -2.3706  -2.3656  -2.3515  -2.3461  -2.3422
    -2.3397  -2.2973  -2.1948  -1.8349  -1.7740  -1.7586  -1.7492  -1.7377
    -1.7280  -1.6928  -1.6793  -1.6631  -1.6325  -1.5371  -1.4970  -1.4797
    -1.3839  -1.1672  -1.0317  -0.9787  -0.9507  -0.9377  -0.9304  -0.8711
    -0.8542  -0.7977  -0.7731  -0.7565  -0.7545  -0.7415  -0.7328  -0.7158
    -0.7104  -0.6980  -0.6903  -0.6827  -0.6572  -0.6467  -0.6418  -0.5983
    -0.5609  -0.5516  -0.5290  -0.5084  -0.4315  -0.3734  -0.3595  -0.3378
    -0.3312  -0.3081  -0.3040  -0.2968  -0.2843  -0.2792  -0.2405  -0.2081
    -0.1844  -0.1826  -0.1307  -0.0882  -0.0878  -0.0472  -0.0472  -0.0160
     0.0260   0.0644   0.0932   0.1220   0.1452   0.3035   0.3868   0.4719
     0.5445   0.5706   0.5776   0.5859   0.5985   0.6074   0.6312   0.6667
     0.6722   0.7053   0.7492   0.7670   0.7821   0.8433   0.8788   0.8948
     0.9340   0.9667   0.9909   1.0223   1.0502   1.0796   1.0950   1.1074
     1.1244   1.2272   1.3100   1.3311   1.3425   1.3447   1.3526   1.3912
     1.4135   1.5764   1.5846   1.6005   1.6125   1.6194   1.6554   1.6644
     1.7337   1.7472   1.7686   1.7784   1.7828   1.8002   1.8071   1.8107
     1.8220   1.8354   1.8770   1.8895   1.9075   1.9293   1.9364   1.9483
     1.9531   2.0146   2.0201   2.0281   2.0347   2.0554   2.0615   2.0708
     2.0838   2.0957   2.1481   2.1571   2.1617   2.1700   2.1850   2.1896
     2.1949   2.2050   2.2648   2.2816   2.2924   2.3082   2.3114   2.4581
     2.5028   2.5684   2.5790   2.6040   2.6158   2.6191   2.6278   2.7314
     2.9964   3.4455   3.5021   3.5104   3.5290   3.5625   4.2223   5.1150
     5.7871   5.8114   5.8424   5.8607   6.3207   7.1023   7.3733   7.4091
     7.4227   7.4352   7.4400   7.4618   7.5435

          k = 0.0000 0.2309 0.0000 ( 42996 PWs)   bands (ev):

   -16.2952  -6.1203  -4.8625  -4.3648  -4.0271  -3.9725  -3.8523  -3.7791
    -3.7030  -3.6612  -3.6176  -3.5783  -3.4455  -3.3805  -3.2900  -3.2193
    -3.2150  -3.1884  -2.9593  -2.9084  -2.7951  -2.7858  -2.7690  -2.7477
    -2.6994  -2.6890  -2.6399  -2.6202  -2.6053  -2.5707  -2.5385  -2.5075
    -2.4731  -2.4003  -2.3858  -2.3721  -2.3638  -2.2620  -2.1866  -2.1727
    -2.1618  -2.1365  -2.1113  -1.9246  -1.8815  -1.8671  -1.8289  -1.8125
    -1.7811  -1.7190  -1.6301  -1.5783  -1.5354  -1.4984  -1.4815  -1.4599
    -1.4046  -1.2817  -1.1813  -1.1280  -1.0993  -1.0759  -1.0513  -1.0042
    -0.9693  -0.9297  -0.9119  -0.9022  -0.8804  -0.8551  -0.8248  -0.7888
    -0.7594  -0.7416  -0.7032  -0.6516  -0.6354  -0.6211  -0.5768  -0.5609
    -0.5488  -0.5062  -0.4961  -0.4726  -0.4359  -0.4241  -0.4011  -0.3677
    -0.3463  -0.3369  -0.3154  -0.3016  -0.2798  -0.2348  -0.2073  -0.1911
    -0.1758  -0.1678  -0.1321  -0.1215  -0.0978  -0.0847  -0.0728   0.0229
     0.0472   0.0683   0.0900   0.1041   0.1307   0.1589   0.1822   0.1885
     0.2050   0.2184   0.2772   0.3691   0.4630   0.5218   0.5560   0.5571
     0.5967   0.6351   0.6493   0.6593   0.7000   0.7915   0.8222   0.8707
     0.9151   0.9639   0.9859   1.0098   1.0429   1.0649   1.0795   1.1143
     1.1404   1.1768   1.1928   1.2217   1.2314   1.2357   1.3070   1.4109
     1.4342   1.4474   1.4616   1.4774   1.5333   1.5698   1.5848   1.6159
     1.6292   1.6480   1.6906   1.7113   1.7205   1.7543   1.7666   1.8398
     1.8516   1.9041   1.9555   1.9638   2.0007   2.0114   2.0215   2.0307
     2.0637   2.1165   2.1361   2.1522   2.1820   2.2078   2.2221   2.2434
     2.2548   2.2649   2.2736   2.3110   2.3251   2.3393   2.4483   2.4639
     2.5020   2.5088   2.5157   2.5320   2.5459   2.5642   2.5946   2.6135
     2.6358   2.7193   2.7329   2.7482   2.8095   2.8998   2.9170   2.9372
     3.1696   3.2607   3.5469   3.9124   4.1173   4.1685   4.4404   5.0461
     5.3374   5.6655   6.1216   6.2459   6.2524   6.4773   6.7130   7.0763
     7.2336   7.2868   7.5583   7.5975   7.6163

          k = 0.0000 0.4619 0.0000 ( 43046 PWs)   bands (ev):

   -16.2952  -5.6979  -5.0638  -4.4689  -4.0623  -4.0062  -3.9351  -3.7861
    -3.6259  -3.4681  -3.3866  -3.3250  -3.2919  -3.2576  -3.2071  -3.0847
    -3.0477  -3.0337  -3.0248  -2.9438  -2.8963  -2.8732  -2.8525  -2.8242
    -2.8001  -2.7669  -2.7327  -2.6941  -2.6839  -2.5770  -2.4355  -2.4240
    -2.4176  -2.4053  -2.4011  -2.3428  -2.1760  -2.1670  -2.1535  -2.1441
    -2.1232  -2.0729  -1.9698  -1.8899  -1.8520  -1.8418  -1.8131  -1.7951
    -1.7443  -1.7105  -1.6883  -1.6703  -1.6462  -1.5632  -1.5086  -1.4821
    -1.4654  -1.4271  -1.3634  -1.3155  -1.3029  -1.2607  -1.2438  -1.1513
    -1.0941  -1.0618  -1.0166  -1.0056  -0.9857  -0.9518  -0.9181  -0.8871
    -0.8384  -0.7803  -0.7546  -0.7334  -0.6823  -0.6526  -0.6383  -0.6287
    -0.6061  -0.5899  -0.5626  -0.5455  -0.5307  -0.5148  -0.5007  -0.4926
    -0.4632  -0.4291  -0.4014  -0.3876  -0.3660  -0.3504  -0.3417  -0.3234
    -0.2100  -0.1871  -0.1647  -0.1409  -0.1020  -0.0883  -0.0665  -0.0516
     0.0060   0.0481   0.0798   0.0905   0.1122   0.1767   0.1971   0.2158
     0.3018   0.3439   0.3522   0.4332   0.4695   0.4851   0.5124   0.5280
     0.5442   0.5699   0.5858   0.6324   0.6517   0.6623   0.6877   0.6997
     0.7232   0.7554   0.7878   0.8224   0.8774   0.9075   0.9379   0.9606
     0.9929   1.0683   1.1078   1.1335   1.1961   1.2156   1.2835   1.3424
     1.3776   1.4203   1.4323   1.4558   1.4760   1.4869   1.5492   1.5586
     1.5965   1.6134   1.6414   1.6700   1.7337   1.7524   1.7641   1.7900
     1.8214   1.8561   1.9607   1.9877   2.0009   2.0334   2.0524   2.0714
     2.1003   2.1555   2.1748   2.2139   2.2736   2.2906   2.3290   2.3627
     2.3732   2.3807   2.4171   2.4772   2.4795   2.5078   2.5197   2.5241
     2.5444   2.5470   2.7008   2.7247   2.7335   2.7482   2.7817   2.9210
     2.9872   2.9957   3.2037   3.4398   3.5160   3.7514   3.8130   3.8341
     4.1811   4.2124   4.3416   4.5431   4.8334   5.0238   5.0333   5.0915
     5.2620   5.3433   5.3764   5.6063   5.6866   5.7445   6.1832   6.3521
     6.7064   6.9217   7.0927   7.4480   7.5991

          k = 0.2000-0.1155 0.0000 ( 42996 PWs)   bands (ev):

   -16.2952  -6.1206  -4.8628  -4.3752  -4.0184  -3.9660  -3.8607  -3.7775
    -3.7041  -3.6574  -3.6230  -3.5765  -3.4363  -3.3740  -3.2963  -3.2257
    -3.2171  -3.1962  -2.9866  -2.8568  -2.7941  -2.7840  -2.7773  -2.7506
    -2.7010  -2.6807  -2.6499  -2.6191  -2.6096  -2.5752  -2.5566  -2.5005
    -2.4651  -2.4142  -2.4025  -2.3682  -2.3575  -2.2807  -2.1794  -2.1746
    -2.1549  -2.1416  -2.0833  -1.8983  -1.8735  -1.8568  -1.8151  -1.8040
    -1.7845  -1.7260  -1.6380  -1.5897  -1.5437  -1.5047  -1.4754  -1.4579
    -1.4069  -1.2713  -1.1705  -1.1323  -1.0897  -1.0616  -1.0378  -1.0054
    -0.9696  -0.9351  -0.9177  -0.9008  -0.8862  -0.8551  -0.8277  -0.7757
    -0.7564  -0.7304  -0.7143  -0.6851  -0.6506  -0.6424  -0.5933  -0.5679
    -0.5408  -0.4874  -0.4744  -0.4678  -0.4442  -0.4189  -0.3801  -0.3741
    -0.3565  -0.3407  -0.3160  -0.2973  -0.2669  -0.2298  -0.2194  -0.1929
    -0.1873  -0.1621  -0.1311  -0.1230  -0.0934  -0.0818  -0.0658   0.0099
     0.0550   0.0701   0.0799   0.0994   0.1290   0.1479   0.1760   0.1932
     0.2080   0.2148   0.2763   0.3879   0.4642   0.5215   0.5451   0.5634
     0.6089   0.6280   0.6455   0.6630   0.7006   0.7644   0.8104   0.8503
     0.9245   0.9512   0.9871   1.0122   1.0329   1.0447   1.0783   1.0879
     1.1321   1.1752   1.1928   1.2195   1.2325   1.2516   1.3211   1.3971
     1.4347   1.4512   1.4661   1.4938   1.5260   1.5501   1.5895   1.6091
     1.6287   1.6798   1.6924   1.7107   1.7317   1.7569   1.7896   1.8414
     1.8569   1.9218   1.9364   1.9659   1.9791   2.0118   2.0215   2.0357
     2.0719   2.1068   2.1311   2.1538   2.1686   2.2006   2.2286   2.2481
     2.2579   2.2688   2.2789   2.2920   2.3189   2.3313   2.4404   2.4593
     2.4911   2.5108   2.5192   2.5427   2.5642   2.5835   2.5977   2.6291
     2.6422   2.7196   2.7263   2.7457   2.8065   2.9125   2.9163   2.9432
     3.1657   3.2852   3.5744   3.8964   4.0982   4.1728   4.4276   5.0529
     5.3257   5.6691   6.1377   6.2421   6.2532   6.4847   6.6915   7.0890
     7.2227   7.2899   7.5703   7.6057   7.6307

          k = 0.2000 0.1155 0.0000 ( 42996 PWs)   bands (ev):

   -16.2952  -6.1204  -4.8633  -4.3709  -4.0182  -3.9598  -3.8768  -3.7737
    -3.7034  -3.6523  -3.6094  -3.5889  -3.4625  -3.3743  -3.2651  -3.2281
    -3.2200  -3.1894  -2.9784  -2.9027  -2.7948  -2.7810  -2.7686  -2.7329
    -2.7026  -2.6841  -2.6391  -2.6210  -2.6085  -2.5744  -2.5420  -2.5043
    -2.4759  -2.4030  -2.3895  -2.3661  -2.3616  -2.2703  -2.1858  -2.1721
    -2.1561  -2.1431  -2.1161  -1.9393  -1.8917  -1.8647  -1.8117  -1.7978
    -1.7785  -1.7223  -1.6032  -1.5756  -1.5489  -1.5106  -1.4883  -1.4500
    -1.3935  -1.2782  -1.1920  -1.1195  -1.0934  -1.0636  -1.0306  -1.0174
    -0.9819  -0.9263  -0.9104  -0.9060  -0.8801  -0.8393  -0.8235  -0.7848
    -0.7640  -0.7537  -0.7259  -0.6617  -0.6485  -0.6214  -0.5761  -0.5630
    -0.5400  -0.5015  -0.4792  -0.4601  -0.4416  -0.4203  -0.4020  -0.3681
    -0.3534  -0.3419  -0.3314  -0.2858  -0.2519  -0.2348  -0.2155  -0.1992
    -0.1869  -0.1655  -0.1440  -0.1158  -0.0891  -0.0833  -0.0566  -0.0145
     0.0438   0.0686   0.0850   0.1142   0.1319   0.1428   0.1800   0.1910
     0.2092   0.2148   0.2833   0.3746   0.4519   0.5346   0.5487   0.5954
     0.6129   0.6251   0.6397   0.6655   0.6950   0.7461   0.8044   0.8460
     0.9371   0.9699   1.0026   1.0174   1.0378   1.0480   1.0859   1.0942
     1.1300   1.1724   1.1941   1.2129   1.2290   1.2481   1.3235   1.3983
     1.4289   1.4439   1.4618   1.4982   1.5139   1.5539   1.6110   1.6204
     1.6296   1.6780   1.6912   1.6998   1.7420   1.7568   1.7835   1.8307
     1.8531   1.9062   1.9235   1.9556   1.9865   2.0023   2.0189   2.0619
     2.0757   2.1229   2.1366   2.1425   2.1782   2.2129   2.2229   2.2345
     2.2596   2.2666   2.2710   2.2849   2.3269   2.3433   2.4648   2.4726
     2.4881   2.5098   2.5223   2.5306   2.5610   2.5708   2.5923   2.6158
     2.6276   2.7104   2.7327   2.7473   2.8915   2.9070   2.9220   2.9527
     2.9959   3.3235   3.6347   3.8233   4.1203   4.2134   4.4670   4.8774
     5.4342   5.7545   6.0695   6.2397   6.2520   6.4706   6.7069   7.0300
     7.2331   7.2719   7.5603   7.6148   7.6319

          k = 0.2000 0.3464 0.0000 ( 43046 PWs)   bands (ev):

   -16.2952  -5.8351  -4.6405  -4.6033  -4.5768  -3.9192  -3.6550  -3.5267
    -3.5162  -3.4934  -3.4760  -3.4544  -3.4422  -3.4243  -3.3372  -3.3250
    -3.0683  -2.9483  -2.9398  -2.9293  -2.8918  -2.8551  -2.7723  -2.7171
    -2.6975  -2.6897  -2.6850  -2.6457  -2.5913  -2.5483  -2.5358  -2.5272
    -2.4936  -2.4503  -2.4226  -2.4076  -2.3622  -2.2942  -2.2339  -2.0367
    -1.9999  -1.9477  -1.9349  -1.9238  -1.9073  -1.8920  -1.8810  -1.8189
    -1.7875  -1.6593  -1.6549  -1.5989  -1.5606  -1.5301  -1.4968  -1.4679
    -1.4573  -1.4066  -1.3737  -1.2506  -1.2232  -1.1978  -1.1359  -1.1284
    -1.1013  -1.0664  -1.0233  -0.9939  -0.9775  -0.9527  -0.8750  -0.8311
    -0.8068  -0.7775  -0.7627  -0.7368  -0.7231  -0.6801  -0.6619  -0.6559
    -0.5850  -0.5268  -0.5194  -0.5077  -0.4929  -0.4784  -0.4654  -0.4319
    -0.4146  -0.3930  -0.3522  -0.3343  -0.3004  -0.2587  -0.2442  -0.2344
    -0.1971  -0.1658  -0.1450  -0.1265  -0.1205  -0.0950  -0.0695  -0.0553
    -0.0474  -0.0211   0.0103   0.0266   0.0303   0.0947   0.1222   0.1575
     0.1709   0.2345   0.2713   0.3321   0.3739   0.4545   0.4684   0.4901
     0.5893   0.6079   0.6278   0.6490   0.6637   0.6985   0.7227   0.7406
     0.7650   0.8090   0.8189   0.8603   0.9431   0.9949   1.0485   1.0625
     1.0779   1.1148   1.1623   1.1782   1.2292   1.2621   1.2791   1.3057
     1.3437   1.3794   1.4270   1.4508   1.4958   1.5193   1.5440   1.5647
     1.5841   1.5936   1.6185   1.6262   1.6330   1.6849   1.7050   1.7775
     1.8399   1.8918   1.9374   2.0018   2.0373   2.0802   2.1460   2.1719
     2.2012   2.2333   2.2676   2.2898   2.3026   2.3254   2.3433   2.3614
     2.3707   2.3867   2.4010   2.4217   2.4397   2.4867   2.5347   2.5504
     2.5655   2.5806   2.6276   2.6724   2.7161   2.7759   2.8082   2.8498
     2.8896   2.9002   3.0358   3.0488   3.1763   3.4786   3.5803   3.6233
     3.9982   4.1000   4.1198   4.2841   4.4971   4.8302   4.9803   5.0407
     5.0794   5.2598   5.7280   6.0016   6.2257   6.3922   6.4809   6.5755
     6.9680   7.0366   7.0569   7.1092   7.2440

          k = 0.2000-0.5774 0.0000 ( 43014 PWs)   bands (ev):

   -16.2952  -5.3089  -5.2934  -4.7004  -4.1613  -4.0941  -3.8422  -3.5878
    -3.5089  -3.3862  -3.3533  -3.2656  -3.2420  -3.1503  -3.1266  -3.0683
    -3.0238  -3.0137  -2.9856  -2.9694  -2.9607  -2.9500  -2.9126  -2.8022
    -2.7930  -2.7780  -2.7568  -2.6908  -2.6384  -2.5650  -2.5431  -2.4859
    -2.4187  -2.4009  -2.3858  -2.3719  -2.3140  -2.2803  -2.2495  -2.1632
    -2.1236  -1.9787  -1.9603  -1.9428  -1.8825  -1.8040  -1.7755  -1.7275
    -1.6631  -1.6262  -1.5895  -1.5528  -1.5277  -1.5091  -1.4787  -1.4538
    -1.4039  -1.3663  -1.3542  -1.3329  -1.3323  -1.3097  -1.2700  -1.2444
    -1.2289  -1.1451  -1.1148  -1.0757  -1.0314  -0.9893  -0.9468  -0.9135
    -0.8800  -0.8617  -0.8224  -0.8180  -0.7797  -0.7622  -0.7219  -0.6972
    -0.6668  -0.6357  -0.6212  -0.6005  -0.5584  -0.5298  -0.4844  -0.4646
    -0.4200  -0.3907  -0.3458  -0.3056  -0.2913  -0.2580  -0.2468  -0.2205
    -0.1991  -0.1765  -0.1594  -0.1497  -0.1209  -0.1032  -0.0874  -0.0817
    -0.0475  -0.0320  -0.0172  -0.0056   0.0149   0.0306   0.0595   0.0770
     0.1213   0.2961   0.3293   0.3599   0.3800   0.4019   0.4779   0.4863
     0.5134   0.5539   0.5748   0.6028   0.6143   0.6498   0.6722   0.7094
     0.7280   0.7744   0.8242   0.8538   0.8914   0.9464   1.0002   1.0469
     1.0932   1.1097   1.1460   1.1688   1.2010   1.2376   1.2579   1.2802
     1.3091   1.3396   1.3555   1.3829   1.4288   1.4684   1.4854   1.5196
     1.5258   1.5608   1.5725   1.6000   1.6687   1.7107   1.7425   1.8406
     1.8957   1.9304   1.9607   1.9866   2.0231   2.1099   2.1275   2.1628
     2.2031   2.2640   2.2859   2.3134   2.3345   2.3449   2.3589   2.3876
     2.4031   2.4576   2.4812   2.5016   2.5231   2.5426   2.5595   2.5629
     2.6236   2.7163   2.7237   2.7415   2.7681   2.7837   2.8259   2.8444
     2.9511   3.0840   3.2899   3.7192   3.9218   3.9240   4.1773   4.2855
     4.3044   4.3407   4.4200   4.7035   4.9296   4.9452   5.2446   5.4039
     5.5145   5.5356   5.5419   5.6089   5.7431   5.8410   6.0119   6.2112
     6.3745   6.4362   6.7418   7.0103   7.0450

          k = 0.2000-0.3464 0.0000 ( 43046 PWs)   bands (ev):

   -16.2952  -5.8356  -4.6288  -4.6082  -4.5859  -3.9216  -3.6429  -3.5300
    -3.5194  -3.5075  -3.4792  -3.4566  -3.4413  -3.4001  -3.3415  -3.3231
    -3.0871  -2.9549  -2.9362  -2.9344  -2.8843  -2.8491  -2.7725  -2.7136
    -2.6997  -2.6875  -2.6832  -2.6557  -2.5611  -2.5491  -2.5336  -2.5263
    -2.5035  -2.4478  -2.4292  -2.4135  -2.3786  -2.3101  -2.2367  -2.0512
    -1.9581  -1.9439  -1.9332  -1.9175  -1.8903  -1.8741  -1.8489  -1.8230
    -1.7595  -1.7042  -1.6653  -1.6298  -1.5504  -1.5291  -1.5023  -1.4654
    -1.4414  -1.4040  -1.3705  -1.2788  -1.2197  -1.1793  -1.1660  -1.1154
    -1.0793  -1.0522  -1.0407  -1.0006  -0.9812  -0.9554  -0.8580  -0.8356
    -0.8059  -0.7858  -0.7584  -0.7479  -0.7130  -0.6866  -0.6645  -0.6367
    -0.5889  -0.5352  -0.5167  -0.4970  -0.4781  -0.4711  -0.4558  -0.4332
    -0.4164  -0.4079  -0.3897  -0.3410  -0.2852  -0.2615  -0.2393  -0.2268
    -0.2041  -0.1704  -0.1515  -0.1341  -0.1147  -0.0859  -0.0736  -0.0697
    -0.0474  -0.0043   0.0039   0.0317   0.0523   0.0986   0.1274   0.1506
     0.1746   0.2099   0.2508   0.2975   0.3802   0.4314   0.4640   0.5110
     0.5837   0.5973   0.6425   0.6594   0.6772   0.6983   0.7167   0.7351
     0.7668   0.7979   0.8412   0.8751   0.9371   0.9996   1.0405   1.0503
     1.0908   1.1100   1.1212   1.1699   1.1995   1.2494   1.2941   1.3290
     1.3513   1.3639   1.4177   1.4804   1.4947   1.5159   1.5413   1.5695
     1.5831   1.6011   1.6137   1.6237   1.6523   1.6793   1.7182   1.7962
     1.8392   1.9213   1.9450   1.9624   2.0363   2.1065   2.1446   2.1714
     2.1856   2.2100   2.2746   2.2797   2.3065   2.3108   2.3478   2.3546
     2.3608   2.3844   2.4032   2.4310   2.4442   2.4892   2.5156   2.5450
     2.5680   2.5874   2.6092   2.6825   2.7491   2.7914   2.8301   2.8738
     2.8973   2.9033   3.0090   3.0418   3.0987   3.5214   3.5864   3.6848
     3.9747   4.1079   4.1346   4.1708   4.5505   4.8297   4.9644   5.0421
     5.1042   5.3365   5.7167   5.9295   6.2263   6.2832   6.4780   6.7762
     6.9641   7.0116   7.0649   7.0904   7.2688

          k = 0.4000-0.2309 0.0000 ( 43046 PWs)   bands (ev):

   -16.2952  -5.6995  -5.0679  -4.4703  -4.0585  -4.0012  -3.9414  -3.7802
    -3.6227  -3.4710  -3.4033  -3.3304  -3.3128  -3.2463  -3.1930  -3.0987
    -3.0530  -3.0404  -3.0252  -2.9483  -2.9001  -2.8679  -2.8443  -2.8278
    -2.7974  -2.7755  -2.7036  -2.6964  -2.6841  -2.6096  -2.4376  -2.4186
    -2.4107  -2.4045  -2.3903  -2.3473  -2.1828  -2.1629  -2.1443  -2.1375
    -2.1270  -2.0581  -1.9044  -1.8887  -1.8515  -1.8309  -1.8027  -1.7887
    -1.7534  -1.7027  -1.6837  -1.6572  -1.6402  -1.6181  -1.5061  -1.4620
    -1.4583  -1.4290  -1.3487  -1.3031  -1.2720  -1.2423  -1.1968  -1.1755
    -1.0936  -1.0639  -1.0406  -1.0177  -0.9908  -0.9457  -0.9282  -0.8925
    -0.8371  -0.8133  -0.8013  -0.7457  -0.6871  -0.6579  -0.6389  -0.6247
    -0.5999  -0.5921  -0.5584  -0.5448  -0.5336  -0.5280  -0.5155  -0.4927
    -0.4553  -0.4377  -0.4076  -0.3705  -0.3465  -0.3349  -0.3112  -0.2879
    -0.2149  -0.2040  -0.1708  -0.1651  -0.1317  -0.0982  -0.0678  -0.0589
    -0.0055   0.0199   0.0794   0.0957   0.1217   0.1627   0.2019   0.2387
     0.2750   0.3466   0.3692   0.4252   0.4511   0.4851   0.5053   0.5216
     0.5635   0.5902   0.6154   0.6452   0.6512   0.6575   0.6766   0.6911
     0.7033   0.7400   0.7868   0.8319   0.8792   0.8912   0.8983   0.9495
     0.9844   1.0519   1.0910   1.1269   1.1856   1.2236   1.2881   1.3599
     1.3870   1.3942   1.4148   1.4511   1.4809   1.5005   1.5406   1.5731
     1.5968   1.6269   1.6573   1.6755   1.7405   1.7539   1.7726   1.7770
     1.8166   1.8980   1.9309   1.9974   2.0133   2.0277   2.0408   2.0588
     2.1039   2.1568   2.1766   2.2004   2.2627   2.2860   2.3212   2.3400
     2.3513   2.3804   2.4345   2.4746   2.4917   2.5154   2.5218   2.5388
     2.5626   2.5673   2.7000   2.7274   2.7582   2.7793   2.7899   2.9144
     2.9904   2.9977   3.2317   3.4306   3.4974   3.7589   3.8163   3.8311
     4.1728   4.2066   4.3473   4.5668   4.8369   5.0265   5.0335   5.1128
     5.2275   5.3270   5.4027   5.6124   5.6864   5.7374   6.1861   6.3931
     6.6768   6.9025   7.1005   7.4405   7.6316

          k = 0.4000-0.0000 0.0000 ( 43046 PWs)   bands (ev):

   -16.2952  -5.8360  -4.6357  -4.6125  -4.5777  -3.9195  -3.6494  -3.5319
    -3.5244  -3.4966  -3.4755  -3.4455  -3.4424  -3.4160  -3.3364  -3.3257
    -3.0692  -2.9672  -2.9508  -2.9356  -2.8827  -2.8722  -2.7634  -2.7112
    -2.6946  -2.6904  -2.6816  -2.6324  -2.5599  -2.5419  -2.5343  -2.5291
    -2.5057  -2.4429  -2.4342  -2.4124  -2.3736  -2.3072  -2.2659  -2.0463
    -1.9932  -1.9482  -1.9363  -1.9069  -1.8915  -1.8783  -1.8326  -1.8138
    -1.7356  -1.6747  -1.6526  -1.6428  -1.5649  -1.5367  -1.4837  -1.4591
    -1.4469  -1.4224  -1.3391  -1.2747  -1.2286  -1.2061  -1.1442  -1.0899
    -1.0773  -1.0524  -1.0181  -0.9935  -0.9770  -0.9651  -0.8682  -0.8428
    -0.8218  -0.7965  -0.7704  -0.7619  -0.7102  -0.6829  -0.6704  -0.6279
    -0.5927  -0.5278  -0.5168  -0.5011  -0.4842  -0.4792  -0.4619  -0.4264
    -0.4141  -0.3967  -0.3723  -0.3361  -0.3186  -0.2588  -0.2463  -0.2379
    -0.1972  -0.1713  -0.1542  -0.1249  -0.1193  -0.0948  -0.0739  -0.0675
    -0.0456  -0.0147   0.0094   0.0214   0.0446   0.1151   0.1266   0.1391
     0.1778   0.2268   0.2722   0.2928   0.3670   0.4445   0.4830   0.4926
     0.5651   0.5961   0.6267   0.6638   0.6691   0.6803   0.7100   0.7368
     0.7840   0.7943   0.8330   0.8695   0.9389   0.9835   1.0414   1.0596
     1.0853   1.1046   1.1461   1.1650   1.2322   1.2584   1.2776   1.3222
     1.3388   1.3684   1.3991   1.4841   1.5086   1.5275   1.5463   1.5825
     1.5929   1.5994   1.6119   1.6263   1.6475   1.6815   1.7258   1.7687
     1.8274   1.9035   1.9391   1.9928   2.0394   2.0680   2.1449   2.1588
     2.2030   2.2370   2.2710   2.2984   2.3036   2.3172   2.3349   2.3571
     2.3678   2.3759   2.4052   2.4253   2.4362   2.4847   2.5226   2.5437
     2.5652   2.5839   2.6211   2.6675   2.7523   2.8020   2.8389   2.8651
     2.8915   2.9038   3.0374   3.0447   3.1687   3.4679   3.5776   3.6091
     4.0083   4.1141   4.1308   4.2989   4.4907   4.8260   4.9864   5.0426
     5.0724   5.2509   5.7246   6.0054   6.2267   6.3931   6.4749   6.6033
     6.9648   7.0351   7.0540   7.0846   7.2574

          k = 0.4000 0.2309 0.0000 ( 43046 PWs)   bands (ev):

   -16.2952  -5.6987  -5.0665  -4.4703  -4.0514  -3.9989  -3.9573  -3.7916
    -3.6111  -3.4637  -3.3995  -3.3241  -3.2871  -3.2618  -3.1903  -3.0926
    -3.0600  -3.0413  -3.0266  -2.9460  -2.9037  -2.8744  -2.8521  -2.8273
    -2.8021  -2.7674  -2.7255  -2.6886  -2.6733  -2.5632  -2.4319  -2.4290
    -2.4141  -2.4050  -2.3897  -2.3595  -2.1854  -2.1593  -2.1506  -2.1438
    -2.1283  -2.0977  -1.9856  -1.8621  -1.8379  -1.8343  -1.8157  -1.7811
    -1.7551  -1.7116  -1.6905  -1.6660  -1.6234  -1.5828  -1.4989  -1.4747
    -1.4508  -1.4247  -1.3625  -1.3190  -1.2800  -1.2615  -1.2290  -1.1241
    -1.0930  -1.0364  -1.0289  -0.9981  -0.9924  -0.9367  -0.9158  -0.8875
    -0.8575  -0.7959  -0.7786  -0.7412  -0.7080  -0.6662  -0.6573  -0.6427
    -0.6120  -0.5852  -0.5569  -0.5437  -0.5314  -0.5259  -0.5180  -0.4990
    -0.4814  -0.4417  -0.3974  -0.3674  -0.3649  -0.3460  -0.3325  -0.2836
    -0.2369  -0.1949  -0.1770  -0.1431  -0.1039  -0.0920  -0.0613  -0.0423
     0.0001   0.0652   0.0804   0.1119   0.1354   0.1786   0.1995   0.2164
     0.2793   0.3415   0.3829   0.3997   0.4505   0.4893   0.5192   0.5334
     0.5673   0.5863   0.6070   0.6292   0.6472   0.6633   0.6830   0.6993
     0.7058   0.7501   0.7738   0.8418   0.8616   0.8876   0.9104   0.9342
     0.9918   1.0747   1.1051   1.1220   1.1944   1.2205   1.2687   1.3305
     1.3869   1.3974   1.4474   1.4574   1.4803   1.4962   1.5392   1.5609
     1.5805   1.6210   1.6398   1.7121   1.7348   1.7490   1.7619   1.7849
     1.8108   1.8332   1.9194   2.0035   2.0192   2.0436   2.0680   2.0814
     2.1503   2.1607   2.1741   2.2097   2.2666   2.2782   2.3214   2.3427
     2.3657   2.3795   2.4367   2.4621   2.4991   2.5082   2.5147   2.5296
     2.5501   2.5578   2.7024   2.7278   2.7469   2.7579   2.7775   2.9224
     2.9904   3.0038   3.2014   3.4427   3.5013   3.7803   3.8187   3.8866
     4.1669   4.2181   4.2670   4.5454   4.7906   5.0255   5.0313   5.0844
     5.2868   5.3576   5.3929   5.6598   5.6728   5.7687   6.1029   6.3344
     6.7333   6.9370   7.1039   7.4624   7.5961

          k = 0.4000-0.6928 0.0000 ( 43014 PWs)   bands (ev):

   -16.2952  -5.3075  -5.2973  -4.6975  -4.1857  -4.0628  -3.8610  -3.5885
    -3.4895  -3.3814  -3.3530  -3.2736  -3.2418  -3.1557  -3.1303  -3.0833
    -3.0319  -3.0070  -2.9933  -2.9748  -2.9636  -2.9472  -2.8924  -2.8104
    -2.7958  -2.7740  -2.7432  -2.6994  -2.6257  -2.5546  -2.5390  -2.4902
    -2.4182  -2.3999  -2.3838  -2.3744  -2.3282  -2.2809  -2.2498  -2.1646
    -2.1271  -1.9926  -1.9588  -1.9471  -1.8540  -1.7949  -1.7662  -1.7381
    -1.6567  -1.6292  -1.5884  -1.5663  -1.5397  -1.4861  -1.4763  -1.4414
    -1.3975  -1.3667  -1.3500  -1.3343  -1.3259  -1.2960  -1.2651  -1.2500
    -1.2185  -1.1282  -1.0955  -1.0783  -1.0524  -0.9969  -0.9453  -0.9154
    -0.8905  -0.8680  -0.8277  -0.8134  -0.7942  -0.7690  -0.7347  -0.7028
    -0.6825  -0.6414  -0.6136  -0.5850  -0.5563  -0.5252  -0.4883  -0.4567
    -0.4518  -0.3997  -0.3404  -0.3019  -0.2846  -0.2679  -0.2394  -0.2164
    -0.1947  -0.1795  -0.1672  -0.1461  -0.1294  -0.1091  -0.0930  -0.0741
    -0.0510  -0.0367  -0.0221  -0.0057   0.0028   0.0123   0.0638   0.0955
     0.1687   0.2598   0.3299   0.3671   0.3756   0.4462   0.4738   0.4907
     0.5309   0.5442   0.5857   0.5988   0.6266   0.6473   0.6772   0.7097
     0.7382   0.7560   0.8049   0.8609   0.8811   0.9000   1.0071   1.0419
     1.0816   1.1145   1.1331   1.1797   1.2157   1.2329   1.2677   1.2890
     1.2991   1.3141   1.3514   1.3657   1.4050   1.4583   1.4975   1.5143
     1.5223   1.5494   1.5826   1.6325   1.6848   1.7078   1.7572   1.8353
     1.8984   1.9433   1.9763   1.9946   2.0644   2.0811   2.1153   2.1375
     2.2157   2.2387   2.2980   2.3108   2.3299   2.3451   2.3564   2.3740
     2.4164   2.4677   2.4921   2.5030   2.5290   2.5397   2.5511   2.5574
     2.6242   2.7101   2.7345   2.7508   2.7586   2.7810   2.8280   2.8507
     2.9553   3.0837   3.3101   3.7712   3.9196   3.9322   4.1129   4.2666
     4.3019   4.3443   4.3655   4.8204   4.9321   4.9593   5.2015   5.3934
     5.4326   5.5296   5.5511   5.7056   5.7430   5.8434   5.9330   6.3200
     6.3686   6.3983   6.7959   6.9986   7.0350

          k = 0.4000-0.4619 0.0000 ( 43014 PWs)   bands (ev):

   -16.2952  -5.3163  -5.2902  -4.6969  -4.1562  -4.1081  -3.8294  -3.5862
    -3.5177  -3.3890  -3.3573  -3.2828  -3.2271  -3.1429  -3.1310  -3.0962
    -3.0338  -3.0218  -2.9812  -2.9659  -2.9631  -2.9441  -2.8754  -2.8151
    -2.7935  -2.7790  -2.7532  -2.6954  -2.6101  -2.6033  -2.5394  -2.4827
    -2.4155  -2.4019  -2.3844  -2.3742  -2.3328  -2.2668  -2.2347  -2.1463
    -2.1098  -1.9874  -1.9540  -1.9133  -1.8497  -1.8357  -1.7749  -1.7410
    -1.6662  -1.6310  -1.5969  -1.5685  -1.5306  -1.4850  -1.4651  -1.4402
    -1.3882  -1.3634  -1.3338  -1.3321  -1.3105  -1.3014  -1.2608  -1.2435
    -1.2240  -1.1974  -1.1055  -1.0730  -1.0379  -0.9968  -0.9562  -0.9042
    -0.8732  -0.8602  -0.8437  -0.8189  -0.8073  -0.7346  -0.7267  -0.7113
    -0.6864  -0.6553  -0.6220  -0.5870  -0.5445  -0.5181  -0.4872  -0.4453
    -0.4237  -0.3956  -0.3521  -0.3187  -0.2705  -0.2530  -0.2419  -0.2121
    -0.2045  -0.1934  -0.1740  -0.1578  -0.1484  -0.1321  -0.0996  -0.0625
    -0.0419  -0.0288  -0.0151   0.0072   0.0164   0.0202   0.0495   0.0611
     0.1852   0.2195   0.3330   0.3535   0.3819   0.4087   0.4731   0.4851
     0.5212   0.5654   0.5800   0.6088   0.6260   0.6509   0.6695   0.7037
     0.7521   0.7618   0.8211   0.8597   0.8809   0.9347   0.9886   1.0311
     1.0528   1.1192   1.1492   1.1743   1.2088   1.2434   1.2650   1.2873
     1.2982   1.3331   1.3571   1.3773   1.4353   1.4514   1.4859   1.5165
     1.5285   1.5561   1.5694   1.6087   1.6694   1.6989   1.8077   1.8225
     1.8955   1.9365   1.9780   1.9903   2.0087   2.1043   2.1262   2.1639
     2.1860   2.2698   2.2843   2.3004   2.3179   2.3423   2.3576   2.3871
     2.4080   2.4715   2.4888   2.5003   2.5130   2.5258   2.5563   2.5686
     2.6216   2.7156   2.7312   2.7627   2.7849   2.7916   2.8341   2.8625
     2.9541   3.0836   3.3020   3.7133   3.9204   3.9245   4.1905   4.2694
     4.2985   4.3152   4.4234   4.7093   4.9344   4.9505   5.2390   5.4065
     5.5000   5.5309   5.5454   5.6369   5.8005   5.8690   6.0251   6.1697
     6.3672   6.4355   6.7084   6.9967   7.0136

     the Fermi energy is     2.5457 ev

!    total energy              =  -27799.15660952 Ry
     total all-electron energy =  -1326794.768917 Ry
     estimated scf accuracy    <       0.00000073 Ry
     smearing contrib. (-TS)   =       0.00116709 Ry
     internal energy E=F+TS    =  -27799.15777661 Ry

     The total energy is F=E-TS. E is the sum of the following terms:
     one-electron contribution =  -20705.26227203 Ry
     hartree contribution      =   10664.02299004 Ry
     xc contribution           =    -899.16555164 Ry
     ewald contribution        =    8625.37174994 Ry
     one-center paw contrib.   =  -25484.12469292 Ry

     convergence has been achieved in  17 iterations

     negative rho (up, down):  3.089E-03 0.000E+00

     Forces acting on atoms (cartesian axes, Ry/au):

     atom    1 type  1   force =    -0.00034728   -0.00005267   -0.00773566
     atom    2 type  1   force =    -0.00021988   -0.00082148   -0.00317395
     atom    3 type  1   force =     0.00133104   -0.00041727   -0.00406040
     atom    4 type  1   force =    -0.00053445   -0.00087343   -0.00360363
     atom    5 type  1   force =     0.00055589   -0.00008167   -0.00390002
     atom    6 type  1   force =     0.00102189   -0.00093683   -0.00394668
     atom    7 type  1   force =     0.00105524    0.00049303   -0.00331020
     atom    8 type  1   force =     0.00067580   -0.00065218   -0.00601319
     atom    9 type  1   force =    -0.00004549   -0.00039741   -0.00328241
     atom   10 type  1   force =     0.00044645    0.00111260    0.00024159
     atom   11 type  1   force =    -0.00110198    0.00243114    0.01078055
     atom   12 type  1   force =    -0.00153419   -0.00039631    0.00551052
     atom   13 type  1   force =     0.00172175    0.00022895    0.00961180
     atom   14 type  1   force =    -0.00347080    0.00247158    0.00486478
     atom   15 type  1   force =    -0.00071833    0.00139124    0.00129815
     atom   16 type  1   force =     0.00073560   -0.00233157    0.00047595
     atom   17 type  1   force =    -0.00202526   -0.00038475   -0.00176035
     atom   18 type  1   force =    -0.00031781    0.00138135    0.00711939
     atom   19 type  1   force =     0.00028094    0.00014243    0.00017640
     atom   20 type  1   force =    -0.00004353    0.00013330    0.00015299
     atom   21 type  1   force =    -0.00015560    0.00073919    0.00023925
     atom   22 type  1   force =    -0.00002562   -0.00037399   -0.00009095
     atom   23 type  1   force =     0.00020309    0.00007373   -0.00033556
     atom   24 type  1   force =    -0.00001325    0.00005972    0.00006929
     atom   25 type  1   force =     0.00007936    0.00019087   -0.00002508
     atom   26 type  1   force =     0.00007872    0.00004944    0.00024830
     atom   27 type  1   force =    -0.00038399   -0.00008633   -0.00026800
     atom   28 type  1   force =     0.00036391   -0.00030727    0.00008467
     atom   29 type  1   force =     0.00029279    0.00006218    0.00009524
     atom   30 type  1   force =     0.00033020   -0.00002697    0.00072101
     atom   31 type  1   force =     0.00007631   -0.00004686    0.00033839
     atom   32 type  1   force =     0.00074000   -0.00034336    0.00015628
     atom   33 type  1   force =    -0.00000894    0.00019695    0.00026349
     atom   34 type  1   force =     0.00042271   -0.00027515   -0.00010888
     atom   35 type  1   force =     0.00024216   -0.00004746    0.00018856
     atom   36 type  1   force =    -0.00015136   -0.00032329    0.00014577
     atom   37 type  2   force =    -0.00426481    0.00436192   -0.00031396
     atom   38 type  3   force =     0.00006432    0.00197749   -0.00125127
     atom   39 type  3   force =     0.00464439   -0.00832085    0.00039782
     The non-local contrib.  to forces
     atom    1 type  1   force =     0.00118185   -0.00035962   -0.01673520
     atom    2 type  1   force =    -0.00031367   -0.00068588   -0.01924370
     atom    3 type  1   force =    -0.00052045   -0.00027446   -0.01956117
     atom    4 type  1   force =    -0.00057535    0.00071952   -0.01917881
     atom    5 type  1   force =    -0.00008436    0.00024149   -0.02057117
     atom    6 type  1   force =     0.00025180    0.00077794   -0.01828111
     atom    7 type  1   force =    -0.00049270   -0.00042725   -0.01957331
     atom    8 type  1   force =    -0.00025251    0.00112466   -0.01716692
     atom    9 type  1   force =    -0.00012171   -0.00014816   -0.02017035
     atom   10 type  1   force =     0.00134117    0.00302036   -0.00164253
     atom   11 type  1   force =    -0.00111691    0.00138660    0.00190747
     atom   12 type  1   force =    -0.00260847    0.00218159   -0.00010805
     atom   13 type  1   force =    -0.00123680    0.00061955    0.00220066
     atom   14 type  1   force =    -0.00124530   -0.00148560    0.00206537
     atom   15 type  1   force =    -0.00057373    0.00132388   -0.00202394
     atom   16 type  1   force =    -0.00328658   -0.00042632   -0.00007500
     atom   17 type  1   force =     0.00204629    0.00180611   -0.00157562
     atom   18 type  1   force =    -0.00167890    0.00061307   -0.00006649
     atom   19 type  1   force =     0.00162437    0.00308065    0.00688238
     atom   20 type  1   force =    -0.01297210   -0.00619130   -0.00612906
     atom   21 type  1   force =     0.00883675    0.00262523   -0.00059402
     atom   22 type  1   force =    -0.00278206   -0.00071408    0.00292287
     atom   23 type  1   force =     0.00032061    0.01551078   -0.00561983
     atom   24 type  1   force =     0.00247916    0.00107526    0.00471741
     atom   25 type  1   force =     0.01115009   -0.00747067   -0.00035429
     atom   26 type  1   force =     0.00187877    0.00044077    0.01062816
     atom   27 type  1   force =    -0.01009060   -0.00664760    0.00028557
     atom   28 type  1   force =    -0.00240599   -0.00005342    0.01862636
     atom   29 type  1   force =     0.02083049    0.01586309    0.03387016
     atom   30 type  1   force =    -0.00093439    0.00772719   -0.12256682
     atom   31 type  1   force =     0.01625893    0.00004533    0.02648944
     atom   32 type  1   force =    -0.00143606   -0.01309140   -0.07423719
     atom   33 type  1   force =    -0.01615836   -0.00578665    0.02226773
     atom   34 type  1   force =     0.00719626   -0.01414399    0.02646601
     atom   35 type  1   force =    -0.00633366   -0.01304667    0.02139210
     atom   36 type  1   force =     0.00281462    0.00203815    0.01952950
     atom   37 type  2   force =     1.97251527    0.70262928   -0.52666572
     atom   38 type  3   force =    -0.09904186   -0.03129121   -0.04056846
     atom   39 type  3   force =     0.00827702   -0.00895136   -0.04151197
     The ionic contribution  to forces
     atom    1 type  1   force =    -0.00726050   -0.01157933  -94.32764482
     atom    2 type  1   force =     0.00922075    0.00938418  -94.31998418
     atom    3 type  1   force =    -0.00212125    0.00490812  -94.30983661
     atom    4 type  1   force =     0.01869083    0.00235522  -94.32654009
     atom    5 type  1   force =    -0.00014438    0.00483790  -94.29252486
     atom    6 type  1   force =    -0.01856948   -0.00357771  -94.32696530
     atom    7 type  1   force =     0.01178198   -0.00411380  -94.30115156
     atom    8 type  1   force =    -0.01720447   -0.00954355  -94.31414660
     atom    9 type  1   force =     0.00534522    0.00759811  -94.33256028
     atom   10 type  1   force =     0.12239783    0.06792546  -33.25335356
     atom   11 type  1   force =    -0.00454295    0.07476658  -33.15336645
     atom   12 type  1   force =    -0.13315388   -0.02333024  -33.21118202
     atom   13 type  1   force =     0.11541068    0.01881764  -33.14587981
     atom   14 type  1   force =    -0.15852050   -0.01423099  -33.13031997
     atom   15 type  1   force =     0.00748279    0.03352160  -33.33424440
     atom   16 type  1   force =    -0.11555862   -0.14864994  -33.08701449
     atom   17 type  1   force =     0.02982975    0.04127356  -33.26889191
     atom   18 type  1   force =     0.04938584    0.04884604  -33.22554561
     atom   19 type  1   force =     0.01875115   -0.09857405   28.12534690
     atom   20 type  1   force =    -0.08228567   -0.05779727   28.83721232
     atom   21 type  1   force =     0.04230039   -0.11889693   28.88747366
     atom   22 type  1   force =    -0.01810740    0.08279767   28.36837069
     atom   23 type  1   force =     0.01465168    0.25052306   29.01345583
     atom   24 type  1   force =     0.00269354    0.10678510   28.23798335
     atom   25 type  1   force =     0.08999618   -0.02672132   28.80812125
     atom   26 type  1   force =    -0.12094909   -0.04658029   28.00742987
     atom   27 type  1   force =     0.04058733   -0.05976833   28.71874711
     atom   28 type  1   force =     0.26394797   -0.02277670   90.47636003
     atom   29 type  1   force =    -0.92109357   -0.97170685   89.08993911
     atom   30 type  1   force =     1.08872701   -1.72907880   88.96181373
     atom   31 type  1   force =    -1.07486690    0.06115695   89.58654097
     atom   32 type  1   force =    -0.49932440    0.73573833   84.51204067
     atom   33 type  1   force =     1.51223137    0.27073652   89.04996757
     atom   34 type  1   force =    -0.49505970    0.70054394   89.74567574
     atom   35 type  1   force =     0.57169273    1.08143021   89.67037856
     atom   36 type  1   force =    -0.04040756   -0.29399646   90.53470576
     atom   37 type  2   force =    -3.55728027   -0.79008863   65.32305868
     atom   38 type  3   force =     3.21807030    1.09390604   11.56971548
     atom   39 type  3   force =     0.03325528   -0.26684103   12.13681524
     The local contribution  to forces
     atom    1 type  1   force =     0.00570732    0.01182394   94.31990503
     atom    2 type  1   force =    -0.00909069   -0.00945733   94.31949563
     atom    3 type  1   force =     0.00392930   -0.00505734   94.30883953
     atom    4 type  1   force =    -0.01855450   -0.00393818   94.32556482
     atom    5 type  1   force =     0.00074752   -0.00520689   94.29278182
     atom    6 type  1   force =     0.01933035    0.00181785   94.32470473
     atom    7 type  1   force =    -0.01020989    0.00500934   94.30094693
     atom    8 type  1   force =     0.01812277    0.00769795   94.30829001
     atom    9 type  1   force =    -0.00514613   -0.00783797   94.33294885
     atom   10 type  1   force =    -0.12285058   -0.06946517   33.25432820
     atom   11 type  1   force =     0.00456122   -0.07355902   33.16182182
     atom   12 type  1   force =     0.13379063    0.02069538   33.21608929
     atom   13 type  1   force =    -0.11222438   -0.01924387   33.15281587
     atom   14 type  1   force =     0.15585442    0.01823487   33.13272753
     atom   15 type  1   force =    -0.00756207   -0.03334591   33.33628971
     atom   16 type  1   force =     0.11911575    0.14625174   33.08738854
     atom   17 type  1   force =    -0.03372781   -0.04332334   33.26763609
     atom   18 type  1   force =    -0.04797875   -0.04786731   33.23186561
     atom   19 type  1   force =    -0.02014014    0.09538950  -28.13065061
     atom   20 type  1   force =     0.09555532    0.06423552  -28.82965028
     atom   21 type  1   force =    -0.05170301    0.11680267  -28.88458866
     atom   22 type  1   force =     0.02095134   -0.08241682  -28.37021790
     atom   23 type  1   force =    -0.01455796   -0.26584930  -29.00753689
     atom   24 type  1   force =    -0.00548289   -0.10768187  -28.24125954
     atom   25 type  1   force =    -0.10120997    0.03477648  -28.80624782
     atom   26 type  1   force =     0.11872025    0.04609695  -28.01646499
     atom   27 type  1   force =    -0.03050807    0.06669550  -28.71754376
     atom   28 type  1   force =    -0.26130073    0.02274627  -90.47938654
     atom   29 type  1   force =     0.90136258    0.95720134  -89.10771863
     atom   30 type  1   force =    -1.08397428    1.71751894  -88.84029339
     atom   31 type  1   force =     1.05986293   -0.06115942  -89.59639169
     atom   32 type  1   force =     0.49987788   -0.72238963  -84.43958175
     atom   33 type  1   force =    -1.49652338   -0.26478822  -89.05661988
     atom   34 type  1   force =     0.48837777   -0.68770325  -89.75607882
     atom   35 type  1   force =    -0.56521396   -1.06895796  -89.67582635
     atom   36 type  1   force =     0.03760783    0.29157309  -90.53836938
     atom   37 type  2   force =     1.59896589    0.09862549  -64.80371217
     atom   38 type  3   force =    -3.11897186   -1.06063494  -11.53044764
     atom   39 type  3   force =    -0.03689260    0.26748295  -12.09495551
     The core correction contribution to forces
     atom    1 type  1   force =    -0.00001403    0.00006738    0.01734817
     atom    2 type  1   force =     0.00001287   -0.00000380    0.01715123
     atom    3 type  1   force =     0.00003314   -0.00000284    0.01712636
     atom    4 type  1   force =    -0.00003982    0.00001343    0.01715625
     atom    5 type  1   force =    -0.00000461    0.00001913    0.01701302
     atom    6 type  1   force =    -0.00000171   -0.00000013    0.01718829
     atom    7 type  1   force =    -0.00006002    0.00000440    0.01707260
     atom    8 type  1   force =    -0.00003029    0.00005489    0.01757063
     atom    9 type  1   force =    -0.00004398    0.00001195    0.01708871
     atom   10 type  1   force =    -0.00043397   -0.00030018    0.00120774
     atom   11 type  1   force =     0.00003903   -0.00013512    0.00073058
     atom   12 type  1   force =     0.00038968    0.00002913    0.00105219
     atom   13 type  1   force =    -0.00023936    0.00001820    0.00075549
     atom   14 type  1   force =     0.00037963   -0.00015488    0.00070136
     atom   15 type  1   force =     0.00000750   -0.00014914    0.00157635
     atom   16 type  1   force =     0.00036145    0.00050152    0.00046396
     atom   17 type  1   force =    -0.00011046   -0.00008869    0.00134228
     atom   18 type  1   force =    -0.00000289   -0.00018054    0.00114896
     atom   19 type  1   force =    -0.00000182    0.00023472   -0.00186196
     atom   20 type  1   force =    -0.00026727   -0.00005852   -0.00175770
     atom   21 type  1   force =     0.00038946    0.00012304   -0.00246817
     atom   22 type  1   force =    -0.00003453   -0.00005549   -0.00165844
     atom   23 type  1   force =    -0.00027591   -0.00021631   -0.00108764
     atom   24 type  1   force =     0.00031022   -0.00021708   -0.00181047
     atom   25 type  1   force =     0.00004208   -0.00031199   -0.00199689
     atom   26 type  1   force =     0.00038769    0.00016024   -0.00181595
     atom   27 type  1   force =    -0.00023144   -0.00025426   -0.00221893
     atom   28 type  1   force =     0.00007872   -0.00017334   -0.01622319
     atom   29 type  1   force =    -0.00081002   -0.00123602   -0.01668289
     atom   30 type  1   force =    -0.00343087    0.00383427    0.00083951
     atom   31 type  1   force =    -0.00117952   -0.00009596   -0.01697654
     atom   32 type  1   force =     0.00163374   -0.00059107    0.00126390
     atom   33 type  1   force =     0.00042705   -0.00000254   -0.01604295
     atom   34 type  1   force =    -0.00009345    0.00101264   -0.01687604
     atom   35 type  1   force =     0.00007071    0.00046770   -0.01637136
     atom   36 type  1   force =    -0.00013992    0.00002147   -0.01640456
     atom   37 type  2   force =    -0.01855590   -0.00678044    0.00647558
     atom   38 type  3   force =     0.00000000    0.00000000    0.00000000
     atom   39 type  3   force =     0.00000000    0.00000000    0.00000000
     The Hubbard contrib.    to forces
     atom    1 type  1   force =     0.00000000    0.00000000    0.00000000
     atom    2 type  1   force =     0.00000000    0.00000000    0.00000000
     atom    3 type  1   force =     0.00000000    0.00000000    0.00000000
     atom    4 type  1   force =     0.00000000    0.00000000    0.00000000
     atom    5 type  1   force =     0.00000000    0.00000000    0.00000000
     atom    6 type  1   force =     0.00000000    0.00000000    0.00000000
     atom    7 type  1   force =     0.00000000    0.00000000    0.00000000
     atom    8 type  1   force =     0.00000000    0.00000000    0.00000000
     atom    9 type  1   force =     0.00000000    0.00000000    0.00000000
     atom   10 type  1   force =     0.00000000    0.00000000    0.00000000
     atom   11 type  1   force =     0.00000000    0.00000000    0.00000000
     atom   12 type  1   force =     0.00000000    0.00000000    0.00000000
     atom   13 type  1   force =     0.00000000    0.00000000    0.00000000
     atom   14 type  1   force =     0.00000000    0.00000000    0.00000000
     atom   15 type  1   force =     0.00000000    0.00000000    0.00000000
     atom   16 type  1   force =     0.00000000    0.00000000    0.00000000
     atom   17 type  1   force =     0.00000000    0.00000000    0.00000000
     atom   18 type  1   force =     0.00000000    0.00000000    0.00000000
     atom   19 type  1   force =     0.00000000    0.00000000    0.00000000
     atom   20 type  1   force =     0.00000000    0.00000000    0.00000000
     atom   21 type  1   force =     0.00000000    0.00000000    0.00000000
     atom   22 type  1   force =     0.00000000    0.00000000    0.00000000
     atom   23 type  1   force =     0.00000000    0.00000000    0.00000000
     atom   24 type  1   force =     0.00000000    0.00000000    0.00000000
     atom   25 type  1   force =     0.00000000    0.00000000    0.00000000
     atom   26 type  1   force =     0.00000000    0.00000000    0.00000000
     atom   27 type  1   force =     0.00000000    0.00000000    0.00000000
     atom   28 type  1   force =     0.00000000    0.00000000    0.00000000
     atom   29 type  1   force =     0.00000000    0.00000000    0.00000000
     atom   30 type  1   force =     0.00000000    0.00000000    0.00000000
     atom   31 type  1   force =     0.00000000    0.00000000    0.00000000
     atom   32 type  1   force =     0.00000000    0.00000000    0.00000000
     atom   33 type  1   force =     0.00000000    0.00000000    0.00000000
     atom   34 type  1   force =     0.00000000    0.00000000    0.00000000
     atom   35 type  1   force =     0.00000000    0.00000000    0.00000000
     atom   36 type  1   force =     0.00000000    0.00000000    0.00000000
     atom   37 type  2   force =     0.00000000    0.00000000    0.00000000
     atom   38 type  3   force =     0.00000000    0.00000000    0.00000000
     atom   39 type  3   force =     0.00000000    0.00000000    0.00000000
     The SCF correction term to forces
     atom    1 type  1   force =     0.00000000   -0.00000000   -0.00000000
     atom    2 type  1   force =    -0.00000000   -0.00000000   -0.00000000
     atom    3 type  1   force =     0.00000000    0.00000000   -0.00000000
     atom    4 type  1   force =    -0.00000000   -0.00000000   -0.00000000
     atom    5 type  1   force =     0.00000000    0.00000000   -0.00000000
     atom    6 type  1   force =     0.00000000    0.00000000   -0.00000000
     atom    7 type  1   force =     0.00000000    0.00000000   -0.00000000
     atom    8 type  1   force =     0.00000000    0.00000000   -0.00000000
     atom    9 type  1   force =    -0.00000000   -0.00000000   -0.00000000
     atom   10 type  1   force =    -0.00000000   -0.00000000   -0.00000000
     atom   11 type  1   force =    -0.00000000   -0.00000000   -0.00000000
     atom   12 type  1   force =     0.00000000    0.00000000   -0.00000000
     atom   13 type  1   force =     0.00000000    0.00000000   -0.00000000
     atom   14 type  1   force =     0.00000000    0.00000000   -0.00000000
     atom   15 type  1   force =    -0.00000000    0.00000000   -0.00000000
     atom   16 type  1   force =     0.00000000   -0.00000000   -0.00000000
     atom   17 type  1   force =    -0.00000000   -0.00000000   -0.00000000
     atom   18 type  1   force =    -0.00000000   -0.00000000   -0.00000000
     atom   19 type  1   force =     0.00004795    0.00001108    0.00048211
     atom   20 type  1   force =    -0.00007324   -0.00005566    0.00050014
     atom   21 type  1   force =     0.00002138    0.00008465    0.00043887
     atom   22 type  1   force =    -0.00005240    0.00001421    0.00051426
     atom   23 type  1   force =     0.00006525    0.00010497    0.00047539
     atom   24 type  1   force =    -0.00001271    0.00009778    0.00046096
     atom   25 type  1   force =     0.00010155   -0.00008216    0.00047510
     atom   26 type  1   force =     0.00004167   -0.00006876    0.00049364
     atom   27 type  1   force =    -0.00014064   -0.00011218    0.00048444
     atom   28 type  1   force =     0.00004452   -0.00005063    0.00073044
     atom   29 type  1   force =     0.00000389   -0.00005992    0.00070992
     atom   30 type  1   force =    -0.00005670   -0.00002910    0.00095041
     atom   31 type  1   force =     0.00000145    0.00000570    0.00069864
     atom   32 type  1   force =    -0.00001058   -0.00001011    0.00069307
     atom   33 type  1   force =     0.00001496    0.00003732    0.00071346
     atom   34 type  1   force =     0.00000240    0.00001499    0.00072666
     atom   35 type  1   force =     0.00002691    0.00005873    0.00063804
     atom   36 type  1   force =    -0.00002576    0.00003992    0.00070688
     atom   37 type  2   force =     0.00009078   -0.00002430    0.00055210
     atom   38 type  3   force =     0.00000831   -0.00000294    0.00007177
     atom   39 type  3   force =     0.00000526   -0.00001194    0.00007249

     Total force =     0.011731     Total SCF correction =     0.002717
     SCF correction compared to forces is large: reduce conv_thr to get better values

     Writing all to output data dir ./pwscf.save/

     init_run     :     21.56s CPU     22.04s WALL (       1 calls)
     electrons    :    446.80s CPU    481.63s WALL (       1 calls)
     forces       :      3.89s CPU      4.71s WALL (       1 calls)

     Called by init_run:
     wfcinit      :     16.61s CPU     16.95s WALL (       1 calls)
     potinit      :      3.32s CPU      3.39s WALL (       1 calls)
     hinit0       :      1.03s CPU      1.05s WALL (       1 calls)

     Called by electrons:
     c_bands      :    380.38s CPU    403.19s WALL (      18 calls)
     sum_band     :     49.79s CPU     58.51s WALL (      18 calls)
     v_of_rho     :      7.89s CPU     10.00s WALL (      18 calls)
     newd         :      2.71s CPU      3.46s WALL (      18 calls)
     PAW_pot      :      4.08s CPU      4.23s WALL (      18 calls)
     mix_rho      :      4.15s CPU      4.25s WALL (      18 calls)
     vdW_kernel   :      1.75s CPU      1.77s WALL (       1 calls)

     Called by c_bands:
     init_us_2    :      2.76s CPU      3.03s WALL (     494 calls)
     init_us_2:cp :      2.76s CPU      3.03s WALL (     494 calls)
     cegterg      :    371.91s CPU    392.72s WALL (     234 calls)

     Called by *egterg:
     cdiaghg      :     74.52s CPU     77.15s WALL (    1179 calls)
     h_psi        :    195.04s CPU    207.68s WALL (    1205 calls)
     s_psi        :     14.59s CPU     15.66s WALL (    1205 calls)
     g_psi        :      0.42s CPU      0.43s WALL (     958 calls)

     Called by h_psi:
     h_psi:calbec :     27.96s CPU     30.14s WALL (    1205 calls)
     vloc_psi     :    151.10s CPU    159.81s WALL (    1205 calls)
     add_vuspsi   :     14.93s CPU     16.65s WALL (    1205 calls)

     General routines
     calbec       :     40.20s CPU     42.62s WALL (    1491 calls)
     fft          :      4.34s CPU      6.75s WALL (    1194 calls)
     ffts         :      2.44s CPU      2.47s WALL (    5038 calls)
     fftw         :    164.29s CPU    177.18s WALL (  301664 calls)
     interpolate  :      0.60s CPU      0.65s WALL (      18 calls)

     Parallel routines

     PWSCF        :   7m54.05s CPU   8m32.97s WALL


   This run was terminated on:  16:14: 9  26Feb2025            

=------------------------------------------------------------------------------=
   JOB DONE.
=------------------------------------------------------------------------------=
