
     Program PWSCF v.7.1 starts on 23Feb2025 at 10: 7:21 
        Git branch: heads/qe-7.1
        Last git commit: 48ba0178f8fede6d020eb786884699a9f063f55d-dirty
        Last git commit date: Fri Jan 27 14:22:33 2023 +0000
        Last git commit subject: Merge branch 'fix_hubbard' into 'develop'

     This program is part of the open-source Quantum ESPRESSO suite
     for quantum simulation of materials; please cite
         "P. Giannozzi et al., J. Phys.:Condens. Matter 21 395502 (2009);
         "P. Giannozzi et al., J. Phys.:Condens. Matter 29 465901 (2017);
         "P. Giannozzi et al., J. Chem. Phys. 152 154105 (2020);
          URL http://www.quantum-espresso.org", 
     in publications or presentations arising from this work. More details at
     http://www.quantum-espresso.org/quote

     Parallel version (MPI), running on    48 processors

     MPI processes distributed on     1 nodes
     173481 MiB available memory on the printing compute node when the environment starts

     Reading input from espresso.pwi
Warning: card &CELL ignored
Warning: card / ignored
Warning: card &FCP ignored
Warning: card / ignored
Warning: card &RISM ignored
Warning: card / ignored

     Current dimensions of program PWSCF are:
     Max number of different atomic species (ntypx) = 10
     Max number of k-points (npk) =  40000
     Max angular momentum in pseudopotentials (lmaxx) =  4
     file Pt.pbe-n-kjpaw_psl.1.0.0.UPF: wavefunction(s)  6S 5D renormalized
     file H.pbe-kjpaw_psl.1.0.0.UPF: wavefunction(s)  1S renormalized

     **************************************************************************
     Initializing libbeef V0.1.2 with the BEEF-vdW functional.
     Citation: Wellendorff et al., PRB 85, 235149 (2012).
     **************************************************************************


     IMPORTANT: XC functional enforced from input :
     Exchange-correlation= BEEF-VDW
                           (   1   4  43  14   2   0   0)
     Any further DFT definition will be discarded
     Please, verify this is what you really want


     R & G space division:  proc/nbgrp/npool/nimage =      48
     Subspace diagonalization in iterative solution of the eigenvalue problem:
     one sub-group per band group will be used
     custom distributed-memory algorithm (size of sub-group:  2*  2 procs)


     Parallelization info
     --------------------
     sticks:   dense  smooth     PW     G-vecs:    dense   smooth      PW
     Min         151      59     16                29407     7165    1028
     Max         152      60     17                29420     7176    1042
     Sum        7267    2839    769              1411785   344073   49691

     Using Slab Decomposition



     bravais-lattice index     =            0
     lattice parameter (alat)  =      16.0349  a.u.
     unit-cell volume          =   10068.6169 (a.u.)^3
     number of atoms/cell      =           37
     number of atomic types    =            2
     number of electrons       =       361.00
     number of Kohn-Sham states=          217
     kinetic-energy cutoff     =      40.0000  Ry
     charge density cutoff     =     410.0000  Ry
     scf convergence threshold =      1.0E-06
     mixing beta               =       0.7000
     number of iterations used =            8  local-TF  mixing
     Exchange-correlation= BEEF-VDW
                           (   1   4  43  14   2   0   0)

     celldm(1)=  16.034858  celldm(2)=   0.000000  celldm(3)=   0.000000
     celldm(4)=   0.000000  celldm(5)=   0.000000  celldm(6)=   0.000000

     crystal axes: (cart. coord. in units of alat)
               a(1) = (   1.000000   0.000000   0.000000 )  
               a(2) = (   0.500000   0.866025   0.000000 )  
               a(3) = (   0.000000   0.000000   2.819966 )  

     reciprocal axes: (cart. coord. in units 2 pi/alat)
               b(1) = (  1.000000 -0.577350  0.000000 )  
               b(2) = (  0.000000  1.154701  0.000000 )  
               b(3) = (  0.000000  0.000000  0.354614 )  


     PseudoPot. # 1 for Pt read from file:
     /users/kbadger1/espresso/pseudo/pslibrary.1.0.0/pbe/PSEUDOPOTENTIALS/Pt.pbe-n-kjpaw_psl.1.0.0.UPF
     MD5 check sum: 2e24a0b5bf98a4ed1a57fa81bca8c143
     Pseudo is Projector augmented-wave + core cor, Zval = 10.0
     Generated using 'atomic' code by A. Dal Corso  v.7.0
     Shape of augmentation charge: PSQ
     Using radial grid of 1277 points,  6 beta functions with: 
                l(1) =   0
                l(2) =   0
                l(3) =   1
                l(4) =   1
                l(5) =   2
                l(6) =   2
     Q(r) pseudized with 0 coefficients 


     PseudoPot. # 2 for H  read from file:
     /users/kbadger1/espresso/pseudo/pslibrary.1.0.0/pbe/PSEUDOPOTENTIALS/H.pbe-kjpaw_psl.1.0.0.UPF
     MD5 check sum: fe4c6fa958fa6d3815bf5d2419cbf1df
     Pseudo is Projector augmented-wave, Zval =  1.0
     Generated using 'atomic' code by A. Dal Corso  v.7.0
     Shape of augmentation charge: PSQ
     Using radial grid of  929 points,  2 beta functions with: 
                l(1) =   0
                l(2) =   0
     Q(r) pseudized with 0 coefficients 


     atomic species   valence    mass     pseudopotential
        Pt            10.00   195.08400     Pt( 1.00)
        H              1.00     1.00800     H ( 1.00)

     No symmetry found



   Cartesian axes

     site n.     atom                  positions (alat units)
         1           Pt  tau(   1) = (   0.0000000   0.0000000   1.0017346  )
         2           Pt  tau(   2) = (   0.3333333   0.0000000   1.0017346  )
         3           Pt  tau(   3) = (   0.6666667   0.0000000   1.0017346  )
         4           Pt  tau(   4) = (   0.1666667   0.2886751   1.0017346  )
         5           Pt  tau(   5) = (   0.5000000   0.2886751   1.0017346  )
         6           Pt  tau(   6) = (   0.8333333   0.2886751   1.0017346  )
         7           Pt  tau(   7) = (   0.3333333   0.5773503   1.0017346  )
         8           Pt  tau(   8) = (   0.6666667   0.5773503   1.0017346  )
         9           Pt  tau(   9) = (   1.0000000   0.5773503   1.0017346  )
        10           Pt  tau(  10) = (   0.1666667   0.0962250   1.2739001  )
        11           Pt  tau(  11) = (   0.5000000   0.0962250   1.2739001  )
        12           Pt  tau(  12) = (   0.8333333   0.0962250   1.2739001  )
        13           Pt  tau(  13) = (   0.3333333   0.3849002   1.2739001  )
        14           Pt  tau(  14) = (   0.6666667   0.3849002   1.2739001  )
        15           Pt  tau(  15) = (   1.0000000   0.3849002   1.2739001  )
        16           Pt  tau(  16) = (   0.5000000   0.6735753   1.2739001  )
        17           Pt  tau(  17) = (   0.8333333   0.6735753   1.2739001  )
        18           Pt  tau(  18) = (   1.1666667   0.6735753   1.2739001  )
        19           Pt  tau(  19) = (   0.0005827   0.1900925   1.5439728  )
        20           Pt  tau(  20) = (   0.3327282   0.1901085   1.5439873  )
        21           Pt  tau(  21) = (   0.6666542   0.1900031   1.5422802  )
        22           Pt  tau(  22) = (   0.1666678   0.4754662   1.5467352  )
        23           Pt  tau(  23) = (   0.4998555   0.4785460   1.5426909  )
        24           Pt  tau(  24) = (   0.8334663   0.4785444   1.5427008  )
        25           Pt  tau(  25) = (   0.3331370   0.7664873   1.5420974  )
        26           Pt  tau(  26) = (   0.6666604   0.7673177   1.5425046  )
        27           Pt  tau(  27) = (   1.0001891   0.7664928   1.5420944  )
        28           Pt  tau(  28) = (  -0.0014787  -0.0071732   1.8156871  )
        29           Pt  tau(  29) = (   0.3347715  -0.0071562   1.8156764  )
        30           Pt  tau(  30) = (   0.6666458  -0.0058194   1.8164694  )
        31           Pt  tau(  31) = (   0.1666158   0.2804549   1.8304275  )
        32           Pt  tau(  32) = (   0.5005159   0.2828032   1.8162559  )
        33           Pt  tau(  33) = (   0.8327571   0.2828007   1.8162501  )
        34           Pt  tau(  34) = (   0.3331034   0.5715950   1.8170735  )
        35           Pt  tau(  35) = (   0.6666434   0.5713598   1.8162760  )
        36           Pt  tau(  36) = (   1.0001989   0.5716085   1.8170714  )
        37           H   tau(  37) = (   0.1662519   0.2343709   2.0082029  )

     number of k points=    13  Marzari-Vanderbilt smearing, width (Ry)=  0.0200
                       cart. coord. in units 2pi/alat
        k(    1) = (   0.0000000   0.0000000   0.0000000), wk =   0.0800000
        k(    2) = (   0.0000000   0.2309401   0.0000000), wk =   0.1600000
        k(    3) = (   0.0000000   0.4618802   0.0000000), wk =   0.1600000
        k(    4) = (   0.2000000  -0.1154701   0.0000000), wk =   0.1600000
        k(    5) = (   0.2000000   0.1154701   0.0000000), wk =   0.1600000
        k(    6) = (   0.2000000   0.3464102   0.0000000), wk =   0.1600000
        k(    7) = (   0.2000000  -0.5773503   0.0000000), wk =   0.1600000
        k(    8) = (   0.2000000  -0.3464102   0.0000000), wk =   0.1600000
        k(    9) = (   0.4000000  -0.2309401   0.0000000), wk =   0.1600000
        k(   10) = (   0.4000000  -0.0000000   0.0000000), wk =   0.1600000
        k(   11) = (   0.4000000   0.2309401   0.0000000), wk =   0.1600000
        k(   12) = (   0.4000000  -0.6928203   0.0000000), wk =   0.1600000
        k(   13) = (   0.4000000  -0.4618802   0.0000000), wk =   0.1600000

     Dense  grid:  1411785 G-vectors     FFT dimensions: ( 108, 108, 300)

     Smooth grid:   344073 G-vectors     FFT dimensions: (  72,  72, 192)

     Estimated max dynamical RAM per process >     203.68 MB

     Estimated total dynamical RAM >       9.55 GB

     Initial potential from superposition of free atoms

     starting charge     360.9939, renormalised to     361.0000

     negative rho (up, down):  3.360E-03 0.000E+00


     %%%%%%%%%%%%%%%%%%%%%%%%%%%%%%%%%%%%%%%%%%%%%%%%%%%%%%%%%%%%%%%%%%%%%%%%
     %                                                                      %
     % You are using vdW-DF, which was implemented by the Thonhauser group. %
     % Please cite the following two papers that made this development      %
     % possible and the two reviews that describe the various versions:     %
     %                                                                      %
     %   T. Thonhauser et al., PRL 115, 136402 (2015).                      %
     %   T. Thonhauser et al., PRB 76, 125112 (2007).                       %
     %   K. Berland et al., Rep. Prog. Phys. 78, 066501 (2015).             %
     %   D.C. Langreth et al., J. Phys.: Condens. Matter 21, 084203 (2009). %
     %                                                                      %
     % If you are calculating stress with vdW-DF, please also cite:         %
     %                                                                      %
     %   R. Sabatini et al., J. Phys.: Condens. Matter 24, 424209 (2012).   %
     %                                                                      %
     %%%%%%%%%%%%%%%%%%%%%%%%%%%%%%%%%%%%%%%%%%%%%%%%%%%%%%%%%%%%%%%%%%%%%%%%

     %%%%%%%%%%%%%%%%%%%%%%%%%%%%%%%%%%%%%%%%%%%%%%%%%%%%%%%%%%%%%%%%%%%%%%%%
     %                                                                      %
     %  vdW-DF NEWS:                                                        %
     %                                                                      %
     %  * vdW-DF3 is now available. DOI: 10.1021/acs.jctc.0c00471           %
     %    use with input_dft = 'vdW-DF3-opt1' or 'vdW-DF3-opt2'             %
     %                                                                      %
     %  * Unscreened and range-separated hybrid vdW-DF-cx functionals       %
     %    DOI: 10.1063/1.4986522 and 10.1088/1361-648X/ac2ad2               %
     %    use with input_dft = 'vdW-DF-cx0'    and 'vdW-DF-ahcx'            %
     %  * Unscreened and range-separated hybrid vdW-DF2-b86r functionals    %
     %    DOI: 10.1063/1.4986522 and DOI: 10.1103/PhysRevX.12.041003        %
     %    use with input_dft = 'vdW-DF2-br0' and 'vdW-DF2-ahbr'             %
     %                                                                      %
     %%%%%%%%%%%%%%%%%%%%%%%%%%%%%%%%%%%%%%%%%%%%%%%%%%%%%%%%%%%%%%%%%%%%%%%%


     Starting wfcs are  325 randomized atomic wfcs
     Checking if some PAW data can be deallocated... 

     total cpu time spent up to now is       18.3 secs

     per-process dynamical memory:   207.6 Mb

     Self-consistent Calculation

     iteration #  1     ecut=    40.00 Ry     beta= 0.70
     Davidson diagonalization with overlap
     ethr =  1.00E-02,  avg # of iterations =  2.0

     Threshold (ethr) on eigenvalues was too large:
     Diagonalizing with lowered threshold

     Davidson diagonalization with overlap
     ethr =  3.96E-04,  avg # of iterations =  3.9

     negative rho (up, down):  1.712E-02 0.000E+00

     total cpu time spent up to now is       58.0 secs

     total energy              =  -27755.27597086 Ry
     estimated scf accuracy    <       1.62379420 Ry

     iteration #  2     ecut=    40.00 Ry     beta= 0.70
     Davidson diagonalization with overlap
     ethr =  4.50E-04,  avg # of iterations =  2.0

     negative rho (up, down):  1.513E-02 0.000E+00

     total cpu time spent up to now is       79.9 secs

     total energy              =  -27755.37903021 Ry
     estimated scf accuracy    <       0.85487906 Ry

     iteration #  3     ecut=    40.00 Ry     beta= 0.70
     Davidson diagonalization with overlap
     ethr =  2.37E-04,  avg # of iterations =  2.0

     negative rho (up, down):  9.650E-03 0.000E+00

     total cpu time spent up to now is       97.8 secs

     total energy              =  -27755.43288754 Ry
     estimated scf accuracy    <       0.10341448 Ry

     iteration #  4     ecut=    40.00 Ry     beta= 0.70
     Davidson diagonalization with overlap
     c_bands:  1 eigenvalues not converged
     c_bands:  1 eigenvalues not converged
     c_bands:  1 eigenvalues not converged
     c_bands:  1 eigenvalues not converged
     ethr =  2.86E-05,  avg # of iterations = 12.8

     negative rho (up, down):  7.031E-03 0.000E+00

     total cpu time spent up to now is      140.9 secs

     total energy              =  -27755.48470826 Ry
     estimated scf accuracy    <       0.09714210 Ry

     iteration #  5     ecut=    40.00 Ry     beta= 0.70
     Davidson diagonalization with overlap
     ethr =  2.69E-05,  avg # of iterations =  1.2

     negative rho (up, down):  3.101E-03 0.000E+00

     total cpu time spent up to now is      154.9 secs

     total energy              =  -27755.48474447 Ry
     estimated scf accuracy    <       0.03141924 Ry

     iteration #  6     ecut=    40.00 Ry     beta= 0.70
     Davidson diagonalization with overlap
     c_bands:  1 eigenvalues not converged
     ethr =  8.70E-06,  avg # of iterations = 10.2

     negative rho (up, down):  1.327E-03 0.000E+00

     total cpu time spent up to now is      179.4 secs

     total energy              =  -27755.48692741 Ry
     estimated scf accuracy    <       0.00259606 Ry

     iteration #  7     ecut=    40.00 Ry     beta= 0.70
     Davidson diagonalization with overlap
     ethr =  7.19E-07,  avg # of iterations = 10.0

     negative rho (up, down):  1.005E-03 0.000E+00

     total cpu time spent up to now is      224.8 secs

     total energy              =  -27755.48769187 Ry
     estimated scf accuracy    <       0.00209158 Ry

     iteration #  8     ecut=    40.00 Ry     beta= 0.70
     Davidson diagonalization with overlap
     ethr =  5.79E-07,  avg # of iterations =  2.1

     negative rho (up, down):  8.673E-04 0.000E+00

     total cpu time spent up to now is      238.9 secs

     total energy              =  -27755.48782033 Ry
     estimated scf accuracy    <       0.00024959 Ry

     iteration #  9     ecut=    40.00 Ry     beta= 0.70
     Davidson diagonalization with overlap
     ethr =  6.91E-08,  avg # of iterations =  4.4

     negative rho (up, down):  7.040E-04 0.000E+00

     total cpu time spent up to now is      268.7 secs

     total energy              =  -27755.48792356 Ry
     estimated scf accuracy    <       0.00011025 Ry

     iteration # 10     ecut=    40.00 Ry     beta= 0.70
     Davidson diagonalization with overlap
     c_bands:  1 eigenvalues not converged
     c_bands:  1 eigenvalues not converged
     ethr =  3.05E-08,  avg # of iterations =  5.4

     negative rho (up, down):  7.038E-04 0.000E+00

     total cpu time spent up to now is      298.4 secs

     total energy              =  -27755.48794283 Ry
     estimated scf accuracy    <       0.00010959 Ry

     iteration # 11     ecut=    40.00 Ry     beta= 0.70
     Davidson diagonalization with overlap
     ethr =  3.04E-08,  avg # of iterations =  1.1

     negative rho (up, down):  7.907E-04 0.000E+00

     total cpu time spent up to now is      320.6 secs

     total energy              =  -27755.48794818 Ry
     estimated scf accuracy    <       0.00007458 Ry

     iteration # 12     ecut=    40.00 Ry     beta= 0.70
     Davidson diagonalization with overlap
     ethr =  2.07E-08,  avg # of iterations =  1.3

     negative rho (up, down):  1.020E-03 0.000E+00

     total cpu time spent up to now is      331.7 secs

     total energy              =  -27755.48795784 Ry
     estimated scf accuracy    <       0.00002817 Ry

     iteration # 13     ecut=    40.00 Ry     beta= 0.70
     Davidson diagonalization with overlap
     ethr =  7.80E-09,  avg # of iterations =  2.0

     negative rho (up, down):  1.494E-03 0.000E+00

     total cpu time spent up to now is      353.6 secs

     total energy              =  -27755.48796672 Ry
     estimated scf accuracy    <       0.00001528 Ry

     iteration # 14     ecut=    40.00 Ry     beta= 0.70
     Davidson diagonalization with overlap
     ethr =  4.23E-09,  avg # of iterations =  2.0

     negative rho (up, down):  1.845E-03 0.000E+00

     total cpu time spent up to now is      375.1 secs

     total energy              =  -27755.48797319 Ry
     estimated scf accuracy    <       0.00000796 Ry

     iteration # 15     ecut=    40.00 Ry     beta= 0.70
     Davidson diagonalization with overlap
     ethr =  2.20E-09,  avg # of iterations =  2.0

     negative rho (up, down):  2.522E-03 0.000E+00

     total cpu time spent up to now is      387.5 secs

     total energy              =  -27755.48797234 Ry
     estimated scf accuracy    <       0.00000718 Ry

     iteration # 16     ecut=    40.00 Ry     beta= 0.70
     Davidson diagonalization with overlap
     ethr =  1.99E-09,  avg # of iterations =  1.3

     negative rho (up, down):  2.788E-03 0.000E+00

     total cpu time spent up to now is      408.2 secs

     total energy              =  -27755.48797154 Ry
     estimated scf accuracy    <       0.00000213 Ry

     iteration # 17     ecut=    40.00 Ry     beta= 0.70
     Davidson diagonalization with overlap
     ethr =  5.91E-10,  avg # of iterations =  3.5

     negative rho (up, down):  3.178E-03 0.000E+00

     total cpu time spent up to now is      432.9 secs

     End of self-consistent calculation

          k = 0.0000 0.0000 0.0000 ( 42913 PWs)   bands (ev):

    -6.2927  -5.0096  -3.9466  -3.8946  -3.8782  -3.8686  -3.8677  -3.8621
    -3.8525  -3.8502  -3.4144  -3.3165  -3.3150  -3.3092  -3.3060  -3.3020
    -2.9971  -2.8472  -2.8418  -2.8368  -2.8359  -2.8356  -2.7708  -2.6250
    -2.6242  -2.6212  -2.6203  -2.6169  -2.4493  -2.3992  -2.3952  -2.3937
    -2.3870  -2.3849  -2.3828  -2.3820  -2.3770  -2.3677  -2.3675  -2.3324
    -2.2004  -1.7800  -1.7786  -1.7607  -1.7478  -1.7157  -1.7041  -1.6990
    -1.6920  -1.6910  -1.6398  -1.5483  -1.5253  -1.4582  -1.3301  -0.9848
    -0.9771  -0.9569  -0.9515  -0.9445  -0.9316  -0.8842  -0.7849  -0.7835
    -0.7800  -0.7757  -0.7585  -0.7530  -0.7358  -0.7301  -0.7278  -0.7167
    -0.7119  -0.7003  -0.6760  -0.6751  -0.6369  -0.5641  -0.5474  -0.5434
    -0.5379  -0.5182  -0.4094  -0.3889  -0.3739  -0.3553  -0.3509  -0.3376
    -0.3091  -0.2922  -0.2810  -0.2070  -0.2067  -0.1523  -0.1500  -0.1139
    -0.1117  -0.0884  -0.0730  -0.0669  -0.0524   0.0526   0.0716   0.0744
     0.0848   0.1018   0.1177   0.4260   0.5601   0.5738   0.5827   0.5886
     0.5917   0.5930   0.5978   0.6506   0.6568   0.6615   0.6627   0.6940
     0.7443   0.7449   0.8665   0.8898   0.9003   0.9087   0.9106   0.9957
     0.9986   1.0322   1.0498   1.0687   1.0724   1.0972   1.2842   1.2970
     1.3212   1.3244   1.3254   1.3398   1.3865   1.3994   1.5714   1.5765
     1.5775   1.5887   1.5913   1.6446   1.7362   1.7389   1.7530   1.7580
     1.7603   1.7801   1.7818   1.7923   1.7962   1.7973   1.8018   1.8865
     1.9033   1.9039   1.9206   1.9317   1.9337   1.9514   1.9620   2.0128
     2.0194   2.0309   2.0412   2.0525   2.0580   2.0629   2.0659   2.1354
     2.1395   2.1463   2.1564   2.1597   2.1613   2.1754   2.2386   2.2592
     2.2658   2.2677   2.2857   2.2862   2.4551   2.4937   2.5608   2.5739
     2.5951   2.5958   2.6033   2.6082   2.9354   3.4249   3.4714   3.4868
     3.4895   3.4955   3.4957   5.0380   5.7712   5.7883   5.8141   5.8250
     5.8364   6.9825   7.3596   7.3740   7.3949   7.4019   7.4249   7.4256
     7.5648

          k = 0.0000 0.2309 0.0000 ( 42996 PWs)   bands (ev):

    -6.1460  -4.8662  -4.3920  -3.9978  -3.9770  -3.7840  -3.7275  -3.6867
    -3.6487  -3.6235  -3.4716  -3.4030  -3.3112  -3.2491  -3.2453  -3.2336
    -2.9991  -2.8708  -2.8148  -2.8061  -2.7958  -2.7680  -2.7220  -2.7006
    -2.6599  -2.6451  -2.6374  -2.5895  -2.5754  -2.5342  -2.4902  -2.4317
    -2.4214  -2.3782  -2.3682  -2.2852  -2.1903  -2.1899  -2.1701  -2.1686
    -2.0970  -1.9034  -1.8882  -1.8312  -1.8304  -1.7952  -1.7840  -1.7451
    -1.5986  -1.5949  -1.5290  -1.5238  -1.4761  -1.4574  -1.3882  -1.2077
    -1.1513  -1.1320  -1.0696  -1.0493  -1.0281  -0.9744  -0.9735  -0.9459
    -0.9215  -0.9136  -0.8753  -0.8525  -0.7939  -0.7638  -0.7581  -0.7415
    -0.7062  -0.6848  -0.6760  -0.5977  -0.5903  -0.5723  -0.5105  -0.4974
    -0.4686  -0.4655  -0.4329  -0.3905  -0.3784  -0.3704  -0.3627  -0.3321
    -0.3122  -0.2797  -0.2559  -0.2495  -0.1966  -0.1791  -0.1615  -0.1590
    -0.1263  -0.1037  -0.0945  -0.0842   0.0225   0.0654   0.0676   0.0831
     0.0871   0.1148   0.1196   0.1278   0.1785   0.1788   0.2041   0.2133
     0.3571   0.4459   0.5055   0.5423   0.5979   0.5987   0.6180   0.6245
     0.6414   0.6651   0.7972   0.7975   0.8165   0.9231   0.9428   0.9731
     1.0024   1.0162   1.0550   1.0721   1.0937   1.0951   1.1736   1.1951
     1.1998   1.2193   1.2269   1.3874   1.3981   1.4355   1.4463   1.4548
     1.4791   1.5129   1.5563   1.5881   1.6043   1.6156   1.6565   1.6875
     1.6972   1.6986   1.7348   1.8114   1.8186   1.8476   1.8859   1.9410
     1.9704   1.9748   1.9812   2.0010   2.0033   2.0464   2.1013   2.1300
     2.1314   2.1827   2.1955   2.1971   2.2406   2.2439   2.2463   2.2515
     2.2544   2.3055   2.3155   2.4384   2.4668   2.4972   2.5104   2.5175
     2.5310   2.5652   2.5962   2.5989   2.6117   2.6839   2.7055   2.7179
     2.7326   2.8916   2.8931   2.9112   2.9378   3.2512   3.3652   3.7699
     4.0723   4.0789   4.2086   4.8525   5.3137   5.5303   6.0386   6.2222
     6.2239   6.3720   6.5742   6.9486   7.1910   7.2371   7.5524   7.5876
     7.5942

          k = 0.0000 0.4619 0.0000 ( 43046 PWs)   bands (ev):

    -5.7239  -5.0907  -4.4647  -4.0347  -4.0122  -3.9101  -3.6585  -3.4959
    -3.4074  -3.3530  -3.3234  -3.2827  -3.2144  -3.1222  -3.0834  -3.0701
    -3.0649  -2.9628  -2.9245  -2.8983  -2.8728  -2.8562  -2.8103  -2.7912
    -2.7233  -2.7130  -2.7030  -2.6176  -2.4457  -2.4409  -2.4344  -2.4222
    -2.4193  -2.3638  -2.2004  -2.1781  -2.1536  -2.1515  -2.1341  -2.0654
    -1.9193  -1.8630  -1.8502  -1.8380  -1.7994  -1.7882  -1.7776  -1.7107
    -1.7055  -1.6563  -1.6447  -1.6117  -1.4969  -1.4880  -1.4517  -1.4487
    -1.3375  -1.2874  -1.2700  -1.2687  -1.1938  -1.1178  -1.0546  -1.0510
    -1.0484  -1.0267  -0.9597  -0.9364  -0.9032  -0.8362  -0.8322  -0.8097
    -0.7905  -0.6870  -0.6667  -0.6588  -0.6480  -0.6320  -0.5822  -0.5729
    -0.5611  -0.5584  -0.5397  -0.5370  -0.5279  -0.4970  -0.4696  -0.4084
    -0.3983  -0.3685  -0.3587  -0.3433  -0.3289  -0.2427  -0.2333  -0.1796
    -0.1717  -0.1300  -0.1053  -0.0803  -0.0789  -0.0744  -0.0032   0.0724
     0.0926   0.1307   0.1534   0.1805   0.2008   0.3349   0.3388   0.3811
     0.4206   0.4866   0.5038   0.5090   0.5413   0.5441   0.5704   0.6094
     0.6366   0.6469   0.6598   0.6620   0.6816   0.6885   0.7093   0.7227
     0.7729   0.8484   0.8739   0.9012   0.9121   0.9787   1.0524   1.0752
     1.0986   1.2020   1.2170   1.3081   1.3565   1.3635   1.4008   1.4187
     1.4276   1.4755   1.4807   1.5349   1.5553   1.5854   1.6206   1.6299
     1.7024   1.7256   1.7399   1.7519   1.7646   1.7806   1.8767   1.9408
     1.9836   2.0132   2.0288   2.0399   2.0441   2.1359   2.1559   2.1618
     2.2396   2.2432   2.2525   2.3095   2.3214   2.3370   2.3555   2.4327
     2.4721   2.4940   2.4943   2.5121   2.5229   2.5365   2.5491   2.7081
     2.7330   2.7528   2.7681   2.7698   2.9293   2.9717   3.1477   3.3738
     3.4070   3.5473   3.7935   3.7956   4.1204   4.1856   4.2258   4.5402
     4.7322   5.0081   5.0112   5.0619   5.2167   5.2774   5.3531   5.4260
     5.6576   5.6696   6.0645   6.3217   6.6305   6.8382   7.0192   7.3352
     7.5474

          k = 0.2000-0.1155 0.0000 ( 42996 PWs)   bands (ev):

    -6.1458  -4.8662  -4.3862  -4.0022  -3.9791  -3.7848  -3.7267  -3.6835
    -3.6437  -3.6303  -3.4800  -3.4039  -3.3023  -3.2454  -3.2423  -3.2298
    -2.9791  -2.9178  -2.8178  -2.8038  -2.7869  -2.7573  -2.7225  -2.7053
    -2.6580  -2.6480  -2.6348  -2.5890  -2.5592  -2.5359  -2.4967  -2.4207
    -2.4165  -2.3781  -2.3730  -2.2695  -2.2011  -2.1852  -2.1751  -2.1581
    -2.1247  -1.9065  -1.8866  -1.8729  -1.8249  -1.8084  -1.7816  -1.7301
    -1.6042  -1.5835  -1.5317  -1.5112  -1.4846  -1.4545  -1.3805  -1.2334
    -1.1486  -1.1208  -1.0916  -1.0668  -1.0340  -0.9791  -0.9543  -0.9371
    -0.9152  -0.9106  -0.8928  -0.8529  -0.7953  -0.7836  -0.7629  -0.7408
    -0.6761  -0.6524  -0.6460  -0.5993  -0.5916  -0.5677  -0.5128  -0.4982
    -0.4808  -0.4642  -0.4439  -0.3869  -0.3749  -0.3640  -0.3578  -0.3448
    -0.3113  -0.2934  -0.2425  -0.2305  -0.1972  -0.1925  -0.1691  -0.1483
    -0.1407  -0.1068  -0.0910  -0.0810   0.0189   0.0621   0.0810   0.0905
     0.0929   0.1084   0.1156   0.1315   0.1678   0.1812   0.1980   0.2103
     0.3036   0.4717   0.5088   0.5553   0.5841   0.5954   0.6178   0.6326
     0.6462   0.6745   0.7980   0.8082   0.8290   0.9301   0.9516   0.9585
     1.0159   1.0223   1.0649   1.0711   1.0921   1.1263   1.1743   1.1853
     1.2020   1.2121   1.2288   1.3817   1.4078   1.4346   1.4446   1.4558
     1.4825   1.5073   1.5588   1.5844   1.5917   1.6169   1.6356   1.6831
     1.6938   1.7027   1.7323   1.8093   1.8155   1.8423   1.8885   1.9452
     1.9661   1.9731   1.9869   2.0049   2.0234   2.0460   2.1067   2.1312
     2.1390   2.1849   2.1929   2.1987   2.2376   2.2432   2.2462   2.2521
     2.2561   2.3137   2.3282   2.4548   2.4654   2.4916   2.5023   2.5075
     2.5227   2.5457   2.5689   2.5911   2.6052   2.6706   2.7101   2.7293
     2.7430   2.8822   2.8968   2.9039   2.9520   3.2307   3.3468   3.7816
     4.0750   4.0880   4.2103   4.8630   5.3194   5.5166   6.0291   6.2210
     6.2272   6.3680   6.5728   6.9584   7.1948   7.2402   7.5659   7.5750
     7.5918

          k = 0.2000 0.1155 0.0000 ( 42996 PWs)   bands (ev):

    -6.1458  -4.8662  -4.3862  -4.0022  -3.9791  -3.7847  -3.7267  -3.6835
    -3.6437  -3.6303  -3.4799  -3.4039  -3.3024  -3.2454  -3.2423  -3.2298
    -2.9788  -2.9181  -2.8177  -2.8038  -2.7869  -2.7575  -2.7225  -2.7053
    -2.6580  -2.6480  -2.6347  -2.5889  -2.5591  -2.5359  -2.4967  -2.4207
    -2.4165  -2.3781  -2.3731  -2.2694  -2.2011  -2.1852  -2.1751  -2.1581
    -2.1247  -1.9065  -1.8867  -1.8730  -1.8249  -1.8083  -1.7817  -1.7302
    -1.6042  -1.5836  -1.5315  -1.5112  -1.4846  -1.4545  -1.3804  -1.2335
    -1.1486  -1.1209  -1.0918  -1.0669  -1.0339  -0.9791  -0.9542  -0.9372
    -0.9152  -0.9106  -0.8929  -0.8529  -0.7951  -0.7836  -0.7628  -0.7408
    -0.6761  -0.6522  -0.6460  -0.5993  -0.5916  -0.5677  -0.5127  -0.4984
    -0.4808  -0.4642  -0.4438  -0.3869  -0.3751  -0.3640  -0.3578  -0.3450
    -0.3113  -0.2935  -0.2424  -0.2304  -0.1972  -0.1925  -0.1689  -0.1485
    -0.1407  -0.1068  -0.0909  -0.0811   0.0189   0.0622   0.0811   0.0904
     0.0929   0.1084   0.1157   0.1314   0.1679   0.1812   0.1981   0.2103
     0.3030   0.4719   0.5087   0.5551   0.5842   0.5953   0.6179   0.6326
     0.6462   0.6747   0.7982   0.8083   0.8289   0.9301   0.9516   0.9585
     1.0160   1.0224   1.0648   1.0711   1.0923   1.1264   1.1742   1.1852
     1.2020   1.2121   1.2287   1.3818   1.4079   1.4346   1.4446   1.4558
     1.4825   1.5073   1.5589   1.5844   1.5916   1.6169   1.6355   1.6831
     1.6937   1.7027   1.7323   1.8093   1.8155   1.8423   1.8884   1.9453
     1.9662   1.9731   1.9869   2.0049   2.0234   2.0460   2.1067   2.1312
     2.1390   2.1849   2.1929   2.1987   2.2376   2.2432   2.2462   2.2521
     2.2561   2.3138   2.3283   2.4548   2.4655   2.4916   2.5022   2.5074
     2.5227   2.5457   2.5687   2.5910   2.6052   2.6705   2.7101   2.7294
     2.7430   2.8822   2.8968   2.9039   2.9520   3.2306   3.3468   3.7816
     4.0751   4.0880   4.2103   4.8631   5.3193   5.5166   6.0291   6.2210
     6.2272   6.3681   6.5730   6.9584   7.1949   7.2402   7.5660   7.5751
     7.5918

          k = 0.2000 0.3464 0.0000 ( 43046 PWs)   bands (ev):

    -5.8606  -4.6485  -4.6301  -4.5854  -3.6531  -3.5593  -3.5433  -3.5308
    -3.4958  -3.4821  -3.4705  -3.4649  -3.3631  -3.3604  -3.0901  -2.9812
    -2.9751  -2.9631  -2.9091  -2.8946  -2.7773  -2.7299  -2.7179  -2.7085
    -2.6997  -2.6644  -2.5834  -2.5658  -2.5504  -2.5414  -2.5170  -2.4744
    -2.4476  -2.4318  -2.3954  -2.3326  -2.2415  -2.0565  -1.9588  -1.9506
    -1.9331  -1.9121  -1.9075  -1.8981  -1.8482  -1.8362  -1.7377  -1.6755
    -1.6606  -1.6506  -1.5710  -1.5439  -1.4949  -1.4816  -1.4580  -1.3925
    -1.3497  -1.2307  -1.2224  -1.1817  -1.1264  -1.1112  -1.0904  -1.0735
    -1.0310  -1.0083  -0.9936  -0.8663  -0.8537  -0.8224  -0.8190  -0.7787
    -0.7645  -0.7202  -0.7063  -0.6898  -0.6635  -0.5607  -0.5506  -0.5283
    -0.5135  -0.5082  -0.4973  -0.4894  -0.4550  -0.4356  -0.4052  -0.3750
    -0.3536  -0.3034  -0.2777  -0.2616  -0.2349  -0.1906  -0.1747  -0.1585
    -0.1437  -0.1158  -0.1045  -0.0937  -0.0786  -0.0648  -0.0543  -0.0440
    -0.0007   0.0187   0.0773   0.1151   0.1585   0.1663   0.2206   0.2353
     0.2441   0.3241   0.4362   0.4613   0.5498   0.5849   0.6016   0.6103
     0.6368   0.6658   0.6752   0.7010   0.7198   0.7317   0.7846   0.8148
     0.8457   0.9337   1.0036   1.0271   1.0554   1.0674   1.0994   1.1310
     1.1465   1.2470   1.2635   1.2734   1.3228   1.3361   1.3845   1.4553
     1.4784   1.4808   1.5038   1.5476   1.5570   1.5769   1.5796   1.5977
     1.6045   1.6132   1.6332   1.7075   1.7844   1.8224   1.8784   1.9429
     1.9628   2.0434   2.1268   2.1329   2.1386   2.1773   2.2453   2.2658
     2.2765   2.2897   2.3076   2.3286   2.3395   2.3425   2.3572   2.3893
     2.4172   2.4336   2.4866   2.5080   2.5383   2.5592   2.5694   2.6083
     2.7156   2.7682   2.8057   2.8189   2.8744   2.8835   2.8899   3.0149
     3.0273   3.2918   3.5440   3.5611   3.9285   4.0885   4.1094   4.1332
     4.4405   4.8154   4.8348   5.0209   5.0283   5.0801   5.6745   5.8903
     6.2095   6.2680   6.4477   6.5597   6.9341   7.0100   7.0231   7.0324
     7.0699

          k = 0.2000-0.5774 0.0000 ( 43014 PWs)   bands (ev):

    -5.3307  -5.3227  -4.7180  -4.1323  -4.0735  -3.6083  -3.5558  -3.4135
    -3.3856  -3.3054  -3.2633  -3.1675  -3.1572  -3.1144  -3.0455  -3.0375
    -3.0124  -2.9955  -2.9853  -2.9732  -2.9094  -2.8286  -2.8251  -2.8067
    -2.7834  -2.7011  -2.6123  -2.6116  -2.5665  -2.4963  -2.4226  -2.4111
    -2.4041  -2.3992  -2.3430  -2.2808  -2.2470  -2.1731  -2.1031  -1.9954
    -1.9811  -1.8822  -1.8457  -1.8416  -1.7851  -1.7642  -1.6693  -1.6156
    -1.5932  -1.5739  -1.5452  -1.4898  -1.4788  -1.4534  -1.3809  -1.3690
    -1.3460  -1.3383  -1.3321  -1.3238  -1.2794  -1.2584  -1.2161  -1.1395
    -1.1089  -1.0639  -1.0502  -0.9572  -0.9123  -0.8867  -0.8837  -0.8463
    -0.8398  -0.8244  -0.7617  -0.7156  -0.7025  -0.6891  -0.6678  -0.6427
    -0.5859  -0.5602  -0.5414  -0.4817  -0.4704  -0.4643  -0.4226  -0.3704
    -0.2938  -0.2881  -0.2604  -0.2586  -0.2236  -0.2198  -0.2107  -0.1848
    -0.1751  -0.1643  -0.1310  -0.1280  -0.0849  -0.0733  -0.0553  -0.0502
    -0.0382  -0.0107   0.0097   0.0285   0.0461   0.1431   0.2436   0.2726
     0.3613   0.3672   0.4615   0.4732   0.4896   0.5275   0.5489   0.5564
     0.5814   0.6014   0.6330   0.6900   0.7049   0.7272   0.7649   0.7851
     0.8379   0.8561   0.8906   0.9759   1.0515   1.1117   1.1288   1.1342
     1.1603   1.2249   1.2424   1.2613   1.2703   1.2857   1.3142   1.3263
     1.3577   1.4210   1.4505   1.4863   1.5054   1.5233   1.5269   1.5511
     1.5542   1.6492   1.7197   1.7759   1.8173   1.8825   1.9486   1.9677
     1.9784   2.0478   2.0978   2.1044   2.1358   2.2034   2.2572   2.2744
     2.2933   2.3214   2.3249   2.3476   2.3796   2.4082   2.4745   2.4849
     2.4881   2.5039   2.5374   2.5421   2.5453   2.6050   2.7258   2.7392
     2.7571   2.7656   2.7704   2.8223   2.8713   2.9435   3.0678   3.6581
     3.9036   3.9045   4.1099   4.1764   4.2844   4.2880   4.3001   4.6071
     4.9128   4.9186   5.1399   5.3702   5.3974   5.4956   5.5137   5.6089
     5.7679   5.8257   5.9041   6.1496   6.3224   6.3486   6.6421   6.9668
     6.9874

          k = 0.2000-0.3464 0.0000 ( 43046 PWs)   bands (ev):

    -5.8606  -4.6484  -4.6301  -4.5854  -3.6531  -3.5593  -3.5433  -3.5308
    -3.4958  -3.4820  -3.4705  -3.4649  -3.3631  -3.3604  -3.0900  -2.9812
    -2.9751  -2.9631  -2.9091  -2.8948  -2.7775  -2.7299  -2.7179  -2.7085
    -2.6996  -2.6641  -2.5833  -2.5658  -2.5505  -2.5414  -2.5170  -2.4743
    -2.4476  -2.4318  -2.3954  -2.3327  -2.2417  -2.0565  -1.9587  -1.9505
    -1.9331  -1.9120  -1.9076  -1.8980  -1.8481  -1.8361  -1.7375  -1.6754
    -1.6606  -1.6509  -1.5708  -1.5439  -1.4949  -1.4817  -1.4581  -1.3925
    -1.3494  -1.2306  -1.2225  -1.1816  -1.1264  -1.1113  -1.0904  -1.0734
    -1.0310  -1.0083  -0.9937  -0.8664  -0.8538  -0.8225  -0.8191  -0.7789
    -0.7646  -0.7201  -0.7062  -0.6898  -0.6635  -0.5606  -0.5505  -0.5283
    -0.5135  -0.5081  -0.4973  -0.4895  -0.4551  -0.4356  -0.4051  -0.3750
    -0.3536  -0.3035  -0.2776  -0.2615  -0.2348  -0.1905  -0.1747  -0.1585
    -0.1437  -0.1159  -0.1045  -0.0938  -0.0786  -0.0649  -0.0543  -0.0440
    -0.0006   0.0187   0.0773   0.1151   0.1586   0.1665   0.2205   0.2353
     0.2441   0.3240   0.4362   0.4613   0.5496   0.5848   0.6015   0.6103
     0.6368   0.6659   0.6750   0.7011   0.7198   0.7318   0.7846   0.8148
     0.8456   0.9336   1.0036   1.0270   1.0554   1.0674   1.0993   1.1310
     1.1465   1.2470   1.2635   1.2734   1.3228   1.3361   1.3845   1.4553
     1.4784   1.4809   1.5039   1.5476   1.5569   1.5769   1.5796   1.5976
     1.6046   1.6132   1.6332   1.7076   1.7842   1.8224   1.8785   1.9429
     1.9628   2.0434   2.1267   2.1330   2.1386   2.1771   2.2453   2.2658
     2.2765   2.2898   2.3076   2.3286   2.3395   2.3425   2.3571   2.3893
     2.4171   2.4337   2.4866   2.5081   2.5382   2.5592   2.5694   2.6083
     2.7157   2.7683   2.8058   2.8190   2.8744   2.8835   2.8899   3.0148
     3.0273   3.2918   3.5439   3.5611   3.9288   4.0885   4.1095   4.1332
     4.4405   4.8154   4.8348   5.0209   5.0284   5.0801   5.6747   5.8901
     6.2095   6.2680   6.4476   6.5597   6.9341   7.0100   7.0231   7.0323
     7.0699

          k = 0.4000-0.2309 0.0000 ( 43046 PWs)   bands (ev):

    -5.7230  -5.0881  -4.4649  -4.0393  -4.0122  -3.9129  -3.6553  -3.4935
    -3.3935  -3.3484  -3.3106  -3.2917  -3.2156  -3.1168  -3.0816  -3.0688
    -3.0575  -2.9610  -2.9234  -2.9039  -2.8823  -2.8511  -2.8148  -2.7851
    -2.7471  -2.7160  -2.7033  -2.5784  -2.4470  -2.4433  -2.4387  -2.4348
    -2.4217  -2.3586  -2.1997  -2.1799  -2.1587  -2.1539  -2.1372  -2.0731
    -1.9669  -1.8619  -1.8504  -1.8456  -1.8235  -1.7845  -1.7525  -1.7237
    -1.7018  -1.6834  -1.6396  -1.5813  -1.5053  -1.4909  -1.4527  -1.4388
    -1.3457  -1.3107  -1.2871  -1.2740  -1.2399  -1.1212  -1.0684  -1.0414
    -1.0303  -1.0136  -0.9495  -0.9376  -0.9083  -0.8136  -0.7952  -0.7875
    -0.7573  -0.6850  -0.6751  -0.6607  -0.6554  -0.6346  -0.5969  -0.5762
    -0.5572  -0.5478  -0.5370  -0.5323  -0.5300  -0.5045  -0.4566  -0.3999
    -0.3922  -0.3850  -0.3701  -0.3660  -0.3449  -0.2499  -0.2105  -0.1787
    -0.1411  -0.1189  -0.1018  -0.0945  -0.0605  -0.0547   0.0224   0.0752
     0.0868   0.1080   0.1466   0.1897   0.2060   0.3305   0.3426   0.3592
     0.4259   0.4790   0.5058   0.5140   0.5312   0.5437   0.5502   0.5651
     0.6341   0.6497   0.6593   0.6773   0.6879   0.7051   0.7235   0.7459
     0.7571   0.8687   0.8929   0.9057   0.9326   0.9830   1.0705   1.0896
     1.1085   1.2033   1.2091   1.2791   1.3449   1.3730   1.4079   1.4263
     1.4391   1.4596   1.4785   1.5307   1.5421   1.5777   1.6059   1.6318
     1.6960   1.7189   1.7411   1.7458   1.7659   1.8083   1.8662   1.9429
     1.9817   2.0130   2.0381   2.0446   2.0510   2.1338   2.1571   2.1681
     2.2457   2.2481   2.2582   2.3042   2.3334   2.3480   2.3638   2.4373
     2.4656   2.4885   2.4971   2.5084   2.5125   2.5223   2.5327   2.7087
     2.7123   2.7418   2.7428   2.7637   2.9313   2.9722   3.1514   3.3535
     3.4273   3.5451   3.7889   3.8001   4.1310   4.1877   4.2254   4.5204
     4.7273   5.0043   5.0133   5.0470   5.2307   5.2859   5.3486   5.4116
     5.6574   5.6711   6.0640   6.2976   6.6425   6.8487   7.0224   7.3361
     7.5489

          k = 0.4000-0.0000 0.0000 ( 43046 PWs)   bands (ev):

    -5.8601  -4.6480  -4.6287  -4.5847  -3.6569  -3.5464  -3.5418  -3.5321
    -3.4942  -3.4887  -3.4749  -3.4677  -3.3658  -3.3568  -3.0770  -2.9737
    -2.9694  -2.9618  -2.9179  -2.8832  -2.7819  -2.7414  -2.7144  -2.7104
    -2.6987  -2.6689  -2.6072  -2.5635  -2.5609  -2.5378  -2.5144  -2.4723
    -2.4365  -2.4300  -2.3980  -2.3126  -2.2251  -2.0482  -1.9589  -1.9534
    -1.9450  -1.9172  -1.9040  -1.9030  -1.8969  -1.8374  -1.7928  -1.6690
    -1.6638  -1.5942  -1.5753  -1.5455  -1.4930  -1.4867  -1.4502  -1.3959
    -1.3662  -1.2352  -1.2176  -1.1770  -1.1539  -1.1138  -1.0920  -1.0838
    -1.0341  -1.0072  -1.0023  -0.8576  -0.8433  -0.8175  -0.7988  -0.7715
    -0.7446  -0.7144  -0.7107  -0.6860  -0.6714  -0.5718  -0.5393  -0.5344
    -0.5153  -0.5075  -0.4995  -0.4912  -0.4513  -0.4315  -0.3963  -0.3654
    -0.3470  -0.3079  -0.2740  -0.2677  -0.2261  -0.1988  -0.1680  -0.1478
    -0.1409  -0.1190  -0.1052  -0.0943  -0.0896  -0.0734  -0.0566  -0.0453
     0.0095   0.0169   0.0436   0.1176   0.1543   0.1603   0.2315   0.2460
     0.2471   0.3497   0.4308   0.4535   0.5700   0.5888   0.6151   0.6222
     0.6354   0.6538   0.6885   0.6938   0.7220   0.7294   0.7744   0.8096
     0.8499   0.9559   1.0092   1.0347   1.0484   1.0699   1.1035   1.1411
     1.1516   1.2416   1.2703   1.2729   1.3184   1.3375   1.3908   1.4483
     1.4647   1.4785   1.5028   1.5469   1.5601   1.5684   1.5756   1.5927
     1.6015   1.6069   1.6276   1.6940   1.8041   1.8188   1.8666   1.9536
     1.9668   2.0442   2.1275   2.1337   2.1368   2.1951   2.2448   2.2598
     2.2771   2.2856   2.3136   2.3275   2.3419   2.3559   2.3663   2.3904
     2.4113   2.4200   2.4932   2.5257   2.5335   2.5590   2.5671   2.6133
     2.6823   2.7466   2.7899   2.8060   2.8674   2.8809   2.8858   3.0208
     3.0306   3.3144   3.5550   3.5675   3.9201   4.0800   4.0948   4.1235
     4.4431   4.8207   4.8389   5.0196   5.0331   5.0760   5.6852   5.8747
     6.2081   6.2517   6.4497   6.5546   6.9396   7.0175   7.0246   7.0379
     7.4371

          k = 0.4000 0.2309 0.0000 ( 43046 PWs)   bands (ev):

    -5.7230  -5.0881  -4.4649  -4.0394  -4.0122  -3.9128  -3.6553  -3.4936
    -3.3934  -3.3484  -3.3106  -3.2917  -3.2158  -3.1168  -3.0815  -3.0688
    -3.0575  -2.9609  -2.9234  -2.9039  -2.8824  -2.8511  -2.8147  -2.7851
    -2.7472  -2.7160  -2.7032  -2.5787  -2.4470  -2.4433  -2.4387  -2.4348
    -2.4217  -2.3586  -2.1997  -2.1799  -2.1587  -2.1540  -2.1372  -2.0731
    -1.9669  -1.8619  -1.8505  -1.8456  -1.8235  -1.7846  -1.7524  -1.7238
    -1.7018  -1.6834  -1.6397  -1.5812  -1.5053  -1.4910  -1.4527  -1.4388
    -1.3457  -1.3107  -1.2873  -1.2740  -1.2402  -1.1212  -1.0682  -1.0413
    -1.0303  -1.0135  -0.9494  -0.9377  -0.9079  -0.8135  -0.7950  -0.7876
    -0.7571  -0.6849  -0.6752  -0.6607  -0.6555  -0.6346  -0.5968  -0.5762
    -0.5572  -0.5479  -0.5371  -0.5323  -0.5300  -0.5046  -0.4564  -0.4001
    -0.3922  -0.3853  -0.3701  -0.3661  -0.3450  -0.2497  -0.2104  -0.1788
    -0.1410  -0.1190  -0.1019  -0.0946  -0.0604  -0.0545   0.0222   0.0751
     0.0867   0.1078   0.1467   0.1897   0.2059   0.3306   0.3426   0.3593
     0.4258   0.4791   0.5057   0.5140   0.5311   0.5436   0.5502   0.5651
     0.6341   0.6498   0.6594   0.6772   0.6879   0.7050   0.7236   0.7459
     0.7572   0.8689   0.8930   0.9059   0.9325   0.9829   1.0707   1.0896
     1.1086   1.2034   1.2091   1.2790   1.3449   1.3731   1.4080   1.4262
     1.4392   1.4596   1.4785   1.5307   1.5421   1.5776   1.6059   1.6318
     1.6960   1.7189   1.7412   1.7458   1.7660   1.8085   1.8661   1.9430
     1.9817   2.0129   2.0381   2.0446   2.0509   2.1338   2.1571   2.1681
     2.2457   2.2481   2.2583   2.3042   2.3335   2.3480   2.3638   2.4374
     2.4656   2.4885   2.4971   2.5084   2.5124   2.5222   2.5326   2.7087
     2.7122   2.7417   2.7427   2.7636   2.9313   2.9722   3.1513   3.3534
     3.4274   3.5452   3.7888   3.8002   4.1310   4.1876   4.2254   4.5203
     4.7270   5.0042   5.0133   5.0470   5.2308   5.2859   5.3485   5.4115
     5.6574   5.6711   6.0641   6.2975   6.6426   6.8488   7.0223   7.3361
     7.5491

          k = 0.4000-0.6928 0.0000 ( 43014 PWs)   bands (ev):

    -5.3308  -5.3200  -4.7199  -4.1355  -4.0716  -3.6098  -3.5462  -3.4125
    -3.3854  -3.2927  -3.2708  -3.1748  -3.1591  -3.0861  -3.0453  -3.0318
    -3.0160  -2.9996  -2.9836  -2.9752  -2.9252  -2.8335  -2.8264  -2.8018
    -2.7824  -2.7002  -2.6446  -2.5746  -2.5605  -2.4991  -2.4238  -2.4136
    -2.4019  -2.3989  -2.3390  -2.2867  -2.2563  -2.1814  -2.1162  -1.9922
    -1.9686  -1.9484  -1.8494  -1.8163  -1.7842  -1.7542  -1.6586  -1.6102
    -1.5861  -1.5683  -1.5406  -1.5106  -1.4868  -1.4643  -1.3834  -1.3752
    -1.3534  -1.3442  -1.3384  -1.3262  -1.2805  -1.2650  -1.2371  -1.1305
    -1.1032  -1.0637  -1.0264  -0.9501  -0.9185  -0.8987  -0.8863  -0.8475
    -0.8121  -0.8029  -0.7488  -0.7195  -0.7072  -0.6939  -0.6638  -0.6397
    -0.5934  -0.5778  -0.5254  -0.4990  -0.4881  -0.4615  -0.4070  -0.3393
    -0.3181  -0.2807  -0.2740  -0.2626  -0.2158  -0.2109  -0.2048  -0.1822
    -0.1749  -0.1371  -0.1195  -0.1050  -0.0937  -0.0736  -0.0581  -0.0499
    -0.0459  -0.0249   0.0053   0.0366   0.0551   0.0977   0.2588   0.3197
     0.3596   0.3657   0.4636   0.4750   0.4871   0.5055   0.5427   0.5698
     0.5782   0.5925   0.6329   0.6803   0.7039   0.7242   0.7739   0.7819
     0.8384   0.8622   0.9102   0.9979   1.0650   1.1111   1.1185   1.1354
     1.1564   1.2067   1.2324   1.2559   1.2736   1.2789   1.3117   1.3244
     1.3636   1.4245   1.4435   1.4886   1.5013   1.5222   1.5275   1.5498
     1.5664   1.6802   1.7063   1.7766   1.8189   1.8811   1.9370   1.9645
     1.9840   2.0481   2.0952   2.1015   2.1448   2.2071   2.2604   2.2789
     2.3081   2.3212   2.3299   2.3449   2.3743   2.3973   2.4710   2.4839
     2.4924   2.5207   2.5345   2.5399   2.5484   2.6069   2.7145   2.7310
     2.7436   2.7508   2.7660   2.8193   2.8508   2.9415   3.0689   3.6713
     3.9035   3.9074   4.1226   4.1665   4.2896   4.2942   4.3173   4.5873
     4.9001   4.9178   5.1542   5.3664   5.3994   5.4940   5.5124   5.5825
     5.7172   5.8172   5.9195   6.1542   6.3279   6.3635   6.6418   6.9776
     7.0101

          k = 0.4000-0.4619 0.0000 ( 43014 PWs)   bands (ev):

    -5.3309  -5.3200  -4.7199  -4.1356  -4.0716  -3.6097  -3.5462  -3.4125
    -3.3854  -3.2928  -3.2708  -3.1747  -3.1592  -3.0863  -3.0453  -3.0318
    -3.0159  -2.9996  -2.9835  -2.9752  -2.9250  -2.8335  -2.8265  -2.8018
    -2.7824  -2.7004  -2.6446  -2.5745  -2.5603  -2.4990  -2.4238  -2.4136
    -2.4019  -2.3989  -2.3391  -2.2867  -2.2564  -2.1813  -2.1160  -1.9922
    -1.9687  -1.9484  -1.8493  -1.8163  -1.7841  -1.7543  -1.6587  -1.6103
    -1.5861  -1.5684  -1.5407  -1.5105  -1.4868  -1.4642  -1.3835  -1.3751
    -1.3534  -1.3442  -1.3383  -1.3262  -1.2804  -1.2650  -1.2367  -1.1307
    -1.1034  -1.0638  -1.0266  -0.9501  -0.9186  -0.8987  -0.8863  -0.8474
    -0.8121  -0.8031  -0.7489  -0.7194  -0.7072  -0.6939  -0.6636  -0.6396
    -0.5934  -0.5777  -0.5254  -0.4989  -0.4881  -0.4615  -0.4071  -0.3394
    -0.3181  -0.2805  -0.2741  -0.2625  -0.2158  -0.2109  -0.2049  -0.1822
    -0.1750  -0.1372  -0.1195  -0.1050  -0.0936  -0.0736  -0.0581  -0.0499
    -0.0459  -0.0249   0.0051   0.0366   0.0551   0.0982   0.2588   0.3196
     0.3596   0.3658   0.4636   0.4751   0.4872   0.5056   0.5425   0.5697
     0.5782   0.5925   0.6328   0.6804   0.7040   0.7241   0.7739   0.7818
     0.8384   0.8621   0.9102   0.9976   1.0649   1.1111   1.1186   1.1354
     1.1565   1.2069   1.2324   1.2559   1.2736   1.2789   1.3117   1.3244
     1.3636   1.4245   1.4436   1.4886   1.5014   1.5222   1.5275   1.5498
     1.5663   1.6800   1.7064   1.7766   1.8189   1.8811   1.9371   1.9646
     1.9839   2.0481   2.0952   2.1016   2.1447   2.2071   2.2604   2.2789
     2.3080   2.3212   2.3299   2.3448   2.3744   2.3973   2.4710   2.4839
     2.4924   2.5206   2.5345   2.5399   2.5484   2.6069   2.7145   2.7311
     2.7436   2.7509   2.7661   2.8193   2.8509   2.9415   3.0688   3.6713
     3.9035   3.9074   4.1226   4.1665   4.2895   4.2943   4.3172   4.5874
     4.9001   4.9179   5.1542   5.3664   5.3994   5.4939   5.5125   5.5828
     5.7172   5.8172   5.9195   6.1541   6.3277   6.3635   6.6418   6.9774
     7.0100

     the Fermi energy is     2.5236 ev

!    total energy              =  -27755.48796966 Ry
     total all-electron energy =  -1326642.253386 Ry
     estimated scf accuracy    <       0.00000050 Ry
     smearing contrib. (-TS)   =       0.00180221 Ry
     internal energy E=F+TS    =  -27755.48977187 Ry

     The total energy is F=E-TS. E is the sum of the following terms:
     one-electron contribution =  -20682.36002736 Ry
     hartree contribution      =   10648.38057359 Ry
     xc contribution           =    -890.68800128 Ry
     ewald contribution        =    8643.15604228 Ry
     one-center paw contrib.   =  -25473.97835911 Ry

     convergence has been achieved in  17 iterations

     negative rho (up, down):  3.178E-03 0.000E+00

     Forces acting on atoms (cartesian axes, Ry/au):

     atom    1 type  1   force =    -0.00035478    0.00063033   -0.00319524
     atom    2 type  1   force =     0.00033818    0.00067477   -0.00319590
     atom    3 type  1   force =     0.00002473    0.00146843   -0.00627984
     atom    4 type  1   force =     0.00003684    0.00055465   -0.00358072
     atom    5 type  1   force =     0.00027707    0.00008618   -0.00348856
     atom    6 type  1   force =    -0.00030210    0.00004436   -0.00348982
     atom    7 type  1   force =    -0.00026238    0.00060378   -0.00287860
     atom    8 type  1   force =    -0.00005200    0.00032730   -0.00330472
     atom    9 type  1   force =     0.00031194    0.00062014   -0.00288905
     atom   10 type  1   force =     0.00000065   -0.00046135    0.00642212
     atom   11 type  1   force =     0.00181135   -0.00205188   -0.00087889
     atom   12 type  1   force =    -0.00182002   -0.00208332   -0.00088109
     atom   13 type  1   force =    -0.00167944   -0.00056313    0.00809749
     atom   14 type  1   force =    -0.00003539   -0.00113464    0.00266188
     atom   15 type  1   force =     0.00170902   -0.00058451    0.00811940
     atom   16 type  1   force =    -0.00027725   -0.00092745    0.00275114
     atom   17 type  1   force =     0.00023844   -0.00091451    0.00276899
     atom   18 type  1   force =     0.00003439   -0.00010579    0.00102977
     atom   19 type  1   force =     0.00005970   -0.00003958    0.00012123
     atom   20 type  1   force =    -0.00006079   -0.00004402    0.00012095
     atom   21 type  1   force =    -0.00000261   -0.00009841   -0.00001704
     atom   22 type  1   force =     0.00000072    0.00003970   -0.00010378
     atom   23 type  1   force =     0.00001290   -0.00007000   -0.00001930
     atom   24 type  1   force =    -0.00002219   -0.00007204   -0.00002104
     atom   25 type  1   force =     0.00002506   -0.00003914   -0.00002869
     atom   26 type  1   force =    -0.00000439   -0.00009931   -0.00000643
     atom   27 type  1   force =    -0.00003112   -0.00002920   -0.00002470
     atom   28 type  1   force =     0.00011330   -0.00004736   -0.00009681
     atom   29 type  1   force =    -0.00012062   -0.00004691   -0.00008601
     atom   30 type  1   force =    -0.00000574   -0.00026708   -0.00006740
     atom   31 type  1   force =     0.00000315   -0.00017909    0.00023153
     atom   32 type  1   force =    -0.00005924   -0.00021593   -0.00001844
     atom   33 type  1   force =     0.00005367   -0.00021829   -0.00001223
     atom   34 type  1   force =    -0.00002035   -0.00017306   -0.00004310
     atom   35 type  1   force =    -0.00000325   -0.00025060   -0.00002548
     atom   36 type  1   force =     0.00001183   -0.00017328   -0.00003630
     atom   37 type  2   force =     0.00005074    0.00584025    0.00234468
     The non-local contrib.  to forces
     atom    1 type  1   force =    -0.00010795   -0.00041049   -0.01813658
     atom    2 type  1   force =     0.00009538   -0.00037585   -0.01814243
     atom    3 type  1   force =     0.00000476   -0.00138294   -0.01631742
     atom    4 type  1   force =     0.00003095   -0.00039789   -0.01900367
     atom    5 type  1   force =     0.00022664    0.00016186   -0.01835988
     atom    6 type  1   force =    -0.00024685    0.00012048   -0.01835041
     atom    7 type  1   force =     0.00049041    0.00059457   -0.01884054
     atom    8 type  1   force =    -0.00005349   -0.00019213   -0.01902452
     atom    9 type  1   force =    -0.00044380    0.00061419   -0.01883954
     atom   10 type  1   force =    -0.00000642   -0.00165403    0.00030573
     atom   11 type  1   force =    -0.00203363    0.00005714   -0.00033448
     atom   12 type  1   force =     0.00202394    0.00001950   -0.00033321
     atom   13 type  1   force =     0.00012788   -0.00109915    0.00153332
     atom   14 type  1   force =    -0.00004238   -0.00055364   -0.00055666
     atom   15 type  1   force =    -0.00009327   -0.00112983    0.00155178
     atom   16 type  1   force =     0.00076826   -0.00135113   -0.00069991
     atom   17 type  1   force =    -0.00081339   -0.00133562   -0.00068727
     atom   18 type  1   force =     0.00003839   -0.00375067   -0.00038710
     atom   19 type  1   force =    -0.00781369   -0.00578965    0.00087795
     atom   20 type  1   force =     0.00784712   -0.00581430    0.00080920
     atom   21 type  1   force =    -0.00000496    0.00008906    0.00328146
     atom   22 type  1   force =     0.00000000    0.01520883   -0.00805710
     atom   23 type  1   force =     0.00199695    0.00070318    0.00173266
     atom   24 type  1   force =    -0.00202162    0.00070450    0.00172117
     atom   25 type  1   force =     0.00091255    0.00008958    0.00437572
     atom   26 type  1   force =    -0.00001088   -0.00276244    0.00080020
     atom   27 type  1   force =    -0.00091434    0.00010486    0.00439568
     atom   28 type  1   force =     0.00941821    0.01038121    0.02343659
     atom   29 type  1   force =    -0.00941156    0.01029991    0.02341478
     atom   30 type  1   force =    -0.00000265    0.00078532    0.01692697
     atom   31 type  1   force =     0.00013253    0.01378823   -0.12646281
     atom   32 type  1   force =    -0.00572259    0.00034760    0.02025893
     atom   33 type  1   force =     0.00579739    0.00032844    0.02031985
     atom   34 type  1   force =    -0.00053598   -0.00304019    0.01858158
     atom   35 type  1   force =     0.00000597    0.00144340    0.01697709
     atom   36 type  1   force =     0.00052088   -0.00306037    0.01861471
     atom   37 type  2   force =     0.00008446    0.01070653   -0.04068785
     The ionic contribution  to forces
     atom    1 type  1   force =    -0.00013177    0.00591984  -93.43074836
     atom    2 type  1   force =     0.00016913    0.00589603  -93.43065795
     atom    3 type  1   force =    -0.00003702   -0.00559630  -93.43137961
     atom    4 type  1   force =    -0.00000646    0.00862085  -93.40965605
     atom    5 type  1   force =    -0.00965452    0.00098956  -93.42825931
     atom    6 type  1   force =     0.00965992    0.00105554  -93.42823556
     atom    7 type  1   force =    -0.01181246   -0.00785763  -93.41735525
     atom    8 type  1   force =     0.00005665   -0.00152245  -93.43783275
     atom    9 type  1   force =     0.01175583   -0.00785120  -93.41724733
     atom   10 type  1   force =     0.00041388    0.05393194  -31.53786614
     atom   11 type  1   force =    -0.04594616    0.00916479  -31.54756470
     atom   12 type  1   force =     0.04529961    0.00923677  -31.54788732
     atom   13 type  1   force =    -0.09739044    0.01606226  -31.48481009
     atom   14 type  1   force =     0.00033355   -0.01371259  -31.59698233
     atom   15 type  1   force =     0.09707980    0.01666089  -31.48414314
     atom   16 type  1   force =    -0.02788472   -0.02298268  -31.60267336
     atom   17 type  1   force =     0.02811069   -0.02319572  -31.60203563
     atom   18 type  1   force =    -0.00029760   -0.16358591  -31.47127100
     atom   19 type  1   force =     0.08633714    0.04078613   31.27842162
     atom   20 type  1   force =    -0.08641181    0.03931105   31.28108462
     atom   21 type  1   force =     0.00010747   -0.05849159   30.85451571
     atom   22 type  1   force =    -0.00131169    0.01512214   31.73622491
     atom   23 type  1   force =    -0.05426098   -0.01288871   30.93581914
     atom   24 type  1   force =     0.05535031   -0.01253120   30.93747899
     atom   25 type  1   force =    -0.08102738   -0.02546362   30.79078504
     atom   26 type  1   force =     0.00076476    0.03153775   30.90785635
     atom   27 type  1   force =     0.07996507   -0.02608334   30.78993619
     atom   28 type  1   force =    -0.08889197   -0.26711510   92.31525108
     atom   29 type  1   force =     0.08884829   -0.26670717   92.31476523
     atom   30 type  1   force =    -0.00021312    0.00981179   92.72680101
     atom   31 type  1   force =     0.00554915    0.57175197   92.42211021
     atom   32 type  1   force =     0.24193583    0.06754174   92.48858515
     atom   33 type  1   force =    -0.24359959    0.06827977   92.48598636
     atom   34 type  1   force =     0.11577178    0.13614213   92.67333573
     atom   35 type  1   force =     0.00105811    0.00976292   92.76595606
     atom   36 type  1   force =    -0.11710084    0.13704946   92.67234126
     atom   37 type  2   force =    -0.00258845   -0.33905013   12.32935120
     The local contribution  to forces
     atom    1 type  1   force =    -0.00002195   -0.00486461   93.42797973
     atom    2 type  1   force =     0.00004981   -0.00500894   93.42791679
     atom    3 type  1   force =    -0.00001058    0.00852961   93.42331246
     atom    4 type  1   force =    -0.00010499   -0.00767895   93.40739764
     atom    5 type  1   force =     0.00976529   -0.00103592   93.42545426
     atom    6 type  1   force =    -0.00965904   -0.00095187   93.42542089
     atom    7 type  1   force =     0.01102854    0.00790890   93.41567714
     atom    8 type  1   force =     0.00013635    0.00208903   93.43594897
     atom    9 type  1   force =    -0.01115861    0.00786894   93.41557673
     atom   10 type  1   force =    -0.00038580   -0.05272346   31.54249683
     atom   11 type  1   force =     0.04972849   -0.01140384   31.54546676
     atom   12 type  1   force =    -0.04910333   -0.01133800   31.54579137
     atom   13 type  1   force =     0.09533012   -0.01545023   31.49016946
     atom   14 type  1   force =    -0.00018995    0.01328662   31.59854283
     atom   15 type  1   force =    -0.09515900   -0.01592408   31.48944701
     atom   16 type  1   force =     0.02702178    0.02330326   31.60441162
     atom   17 type  1   force =    -0.02710570    0.02342187   31.60371025
     atom   18 type  1   force =     0.00015736    0.16661715   31.47156472
     atom   19 type  1   force =    -0.07800396   -0.03487981  -31.27652484
     atom   20 type  1   force =     0.07800327   -0.03346572  -31.27911108
     atom   21 type  1   force =    -0.00006478    0.05810284  -30.85585019
     atom   22 type  1   force =     0.00121404   -0.03050016  -31.72626508
     atom   23 type  1   force =     0.05234303    0.01218662  -30.93567323
     atom   24 type  1   force =    -0.05331878    0.01184011  -30.93738381
     atom   25 type  1   force =     0.07988643    0.02520798  -30.79322764
     atom   26 type  1   force =    -0.00070877   -0.02903314  -30.90672675
     atom   27 type  1   force =    -0.07888301    0.02573505  -30.79244637
     atom   28 type  1   force =     0.07989807    0.25638672  -92.32185913
     atom   29 type  1   force =    -0.07987226    0.25603378  -92.32133374
     atom   30 type  1   force =     0.00021474   -0.01089102  -92.72654166
     atom   31 type  1   force =    -0.00564554   -0.57954297  -92.29705740
     atom   32 type  1   force =    -0.23631471   -0.06784075  -92.49169923
     atom   33 type  1   force =     0.23791753   -0.06852033  -92.48919304
     atom   34 type  1   force =    -0.11515400   -0.13348373  -92.67459636
     atom   35 type  1   force =    -0.00101585   -0.01132247  -92.76563003
     atom   36 type  1   force =     0.11643292   -0.13440002  -92.67366790
     atom   37 type  2   force =     0.00255386    0.33418615  -12.28627978
     The core correction contribution to forces
     atom    1 type  1   force =    -0.00000803   -0.00000712    0.01722021
     atom    2 type  1   force =     0.00000740   -0.00000687    0.01721964
     atom    3 type  1   force =    -0.00000009   -0.00009064    0.01763514
     atom    4 type  1   force =     0.00000037    0.00001341    0.01717614
     atom    5 type  1   force =     0.00000754   -0.00003585    0.01720638
     atom    6 type  1   force =    -0.00000785   -0.00003644    0.01720603
     atom    7 type  1   force =     0.00002565   -0.00002825    0.01717684
     atom    8 type  1   force =    -0.00000023   -0.00000785    0.01719320
     atom    9 type  1   force =    -0.00002528   -0.00002846    0.01717573
     atom   10 type  1   force =    -0.00000126   -0.00011786    0.00120719
     atom   11 type  1   force =     0.00001588    0.00005265    0.00123378
     atom   12 type  1   force =    -0.00001277    0.00005333    0.00123551
     atom   13 type  1   force =     0.00024794   -0.00003422    0.00101909
     atom   14 type  1   force =    -0.00000118    0.00002679    0.00142154
     atom   15 type  1   force =    -0.00024727   -0.00003595    0.00101719
     atom   16 type  1   force =    -0.00001333    0.00005845    0.00150851
     atom   17 type  1   force =     0.00001284    0.00005980    0.00150744
     atom   18 type  1   force =     0.00000061    0.00054282    0.00087128
     atom   19 type  1   force =    -0.00039715   -0.00001930   -0.00256409
     atom   20 type  1   force =     0.00039944   -0.00001384   -0.00256096
     atom   21 type  1   force =    -0.00000042    0.00031986   -0.00191386
     atom   22 type  1   force =     0.00000586    0.00017112   -0.00186608
     atom   23 type  1   force =     0.00003510    0.00004512   -0.00182961
     atom   24 type  1   force =    -0.00003859    0.00004508   -0.00182675
     atom   25 type  1   force =     0.00031772    0.00000965   -0.00186071
     atom   26 type  1   force =    -0.00000120   -0.00004542   -0.00190632
     atom   27 type  1   force =    -0.00031456    0.00001144   -0.00186002
     atom   28 type  1   force =    -0.00031292    0.00015880   -0.01630021
     atom   29 type  1   force =     0.00031544    0.00015914   -0.01630364
     atom   30 type  1   force =    -0.00000116   -0.00007446   -0.01653243
     atom   31 type  1   force =    -0.00005300   -0.00604436    0.00194859
     atom   32 type  1   force =     0.00008362   -0.00016626   -0.01651481
     atom   33 type  1   force =    -0.00008061   -0.00016787   -0.01651054
     atom   34 type  1   force =    -0.00009262    0.00023821   -0.01675105
     atom   35 type  1   force =    -0.00000357   -0.00011886   -0.01673601
     atom   36 type  1   force =     0.00009792    0.00023786   -0.01674941
     atom   37 type  2   force =     0.00000000    0.00000000    0.00000000
     The Hubbard contrib.    to forces
     atom    1 type  1   force =     0.00000000    0.00000000    0.00000000
     atom    2 type  1   force =     0.00000000    0.00000000    0.00000000
     atom    3 type  1   force =     0.00000000    0.00000000    0.00000000
     atom    4 type  1   force =     0.00000000    0.00000000    0.00000000
     atom    5 type  1   force =     0.00000000    0.00000000    0.00000000
     atom    6 type  1   force =     0.00000000    0.00000000    0.00000000
     atom    7 type  1   force =     0.00000000    0.00000000    0.00000000
     atom    8 type  1   force =     0.00000000    0.00000000    0.00000000
     atom    9 type  1   force =     0.00000000    0.00000000    0.00000000
     atom   10 type  1   force =     0.00000000    0.00000000    0.00000000
     atom   11 type  1   force =     0.00000000    0.00000000    0.00000000
     atom   12 type  1   force =     0.00000000    0.00000000    0.00000000
     atom   13 type  1   force =     0.00000000    0.00000000    0.00000000
     atom   14 type  1   force =     0.00000000    0.00000000    0.00000000
     atom   15 type  1   force =     0.00000000    0.00000000    0.00000000
     atom   16 type  1   force =     0.00000000    0.00000000    0.00000000
     atom   17 type  1   force =     0.00000000    0.00000000    0.00000000
     atom   18 type  1   force =     0.00000000    0.00000000    0.00000000
     atom   19 type  1   force =     0.00000000    0.00000000    0.00000000
     atom   20 type  1   force =     0.00000000    0.00000000    0.00000000
     atom   21 type  1   force =     0.00000000    0.00000000    0.00000000
     atom   22 type  1   force =     0.00000000    0.00000000    0.00000000
     atom   23 type  1   force =     0.00000000    0.00000000    0.00000000
     atom   24 type  1   force =     0.00000000    0.00000000    0.00000000
     atom   25 type  1   force =     0.00000000    0.00000000    0.00000000
     atom   26 type  1   force =     0.00000000    0.00000000    0.00000000
     atom   27 type  1   force =     0.00000000    0.00000000    0.00000000
     atom   28 type  1   force =     0.00000000    0.00000000    0.00000000
     atom   29 type  1   force =     0.00000000    0.00000000    0.00000000
     atom   30 type  1   force =     0.00000000    0.00000000    0.00000000
     atom   31 type  1   force =     0.00000000    0.00000000    0.00000000
     atom   32 type  1   force =     0.00000000    0.00000000    0.00000000
     atom   33 type  1   force =     0.00000000    0.00000000    0.00000000
     atom   34 type  1   force =     0.00000000    0.00000000    0.00000000
     atom   35 type  1   force =     0.00000000    0.00000000    0.00000000
     atom   36 type  1   force =     0.00000000    0.00000000    0.00000000
     atom   37 type  2   force =     0.00000000    0.00000000    0.00000000
     The SCF correction term to forces
     atom    1 type  1   force =    -0.00000000   -0.00000000    0.00000000
     atom    2 type  1   force =     0.00000000    0.00000000    0.00000000
     atom    3 type  1   force =     0.00000000    0.00000000    0.00000000
     atom    4 type  1   force =     0.00000000   -0.00000000    0.00000000
     atom    5 type  1   force =    -0.00000000    0.00000000    0.00000000
     atom    6 type  1   force =    -0.00000000   -0.00000000    0.00000000
     atom    7 type  1   force =     0.00000000   -0.00000000    0.00000000
     atom    8 type  1   force =    -0.00000000   -0.00000000    0.00000000
     atom    9 type  1   force =     0.00000000    0.00000000    0.00000000
     atom   10 type  1   force =    -0.00000000    0.00000000    0.00000000
     atom   11 type  1   force =     0.00000000    0.00000000    0.00000000
     atom   12 type  1   force =    -0.00000000   -0.00000000    0.00000000
     atom   13 type  1   force =     0.00000000   -0.00000000    0.00000000
     atom   14 type  1   force =    -0.00000000   -0.00000000    0.00000000
     atom   15 type  1   force =     0.00000000   -0.00000000    0.00000000
     atom   16 type  1   force =    -0.00000000    0.00000000    0.00000000
     atom   17 type  1   force =     0.00000000    0.00000000    0.00000000
     atom   18 type  1   force =     0.00000000    0.00000000    0.00000000
     atom   19 type  1   force =    -0.00006272   -0.00013696   -0.00008603
     atom   20 type  1   force =     0.00010111   -0.00006121   -0.00009744
     atom   21 type  1   force =    -0.00003999   -0.00011859   -0.00004678
     atom   22 type  1   force =     0.00009244    0.00003776   -0.00013706
     atom   23 type  1   force =    -0.00010128   -0.00011622   -0.00006486
     atom   24 type  1   force =     0.00000642   -0.00013054   -0.00000725
     atom   25 type  1   force =    -0.00006433    0.00011726   -0.00009773
     atom   26 type  1   force =    -0.00004838    0.00020393   -0.00002653
     atom   27 type  1   force =     0.00011565    0.00020278   -0.00004679
     atom   28 type  1   force =     0.00000183    0.00014101   -0.00062175
     atom   29 type  1   force =    -0.00000061    0.00016743   -0.00062525
     atom   30 type  1   force =    -0.00000363    0.00010128   -0.00071790
     atom   31 type  1   force =     0.00001994   -0.00013198   -0.00030369
     atom   32 type  1   force =    -0.00004146   -0.00009826   -0.00064510
     atom   33 type  1   force =     0.00001888   -0.00013831   -0.00061148
     atom   34 type  1   force =    -0.00000961   -0.00002949   -0.00060961
     atom   35 type  1   force =    -0.00004798   -0.00001560   -0.00058921
     atom   36 type  1   force =     0.00006088   -0.00000021   -0.00057158
     atom   37 type  2   force =     0.00000079   -0.00000230   -0.00003550

     Total force =     0.006335     Total SCF correction =     0.001900
     SCF correction compared to forces is large: reduce conv_thr to get better values

     Writing all to output data dir ./pwscf.save/

     init_run     :     15.44s CPU     18.16s WALL (       1 calls)
     electrons    :    398.60s CPU    414.90s WALL (       1 calls)
     forces       :      3.54s CPU      4.27s WALL (       1 calls)

     Called by init_run:
     wfcinit      :      5.57s CPU      5.78s WALL (       1 calls)
     potinit      :      8.49s CPU     10.94s WALL (       1 calls)
     hinit0       :      0.80s CPU      0.82s WALL (       1 calls)

     Called by electrons:
     c_bands      :    337.07s CPU    349.19s WALL (      18 calls)
     sum_band     :     35.97s CPU     36.98s WALL (      18 calls)
     v_of_rho     :     14.64s CPU     18.96s WALL (      18 calls)
     newd         :      7.58s CPU      8.42s WALL (      18 calls)
     PAW_pot      :      7.17s CPU      7.28s WALL (      18 calls)
     mix_rho      :      3.53s CPU      3.61s WALL (      18 calls)
     vdW_kernel   :      5.41s CPU      5.45s WALL (       1 calls)

     Called by c_bands:
     init_us_2    :      2.56s CPU      2.61s WALL (     494 calls)
     init_us_2:cp :      2.56s CPU      2.61s WALL (     494 calls)
     cegterg      :    328.85s CPU    340.69s WALL (     234 calls)

     Called by *egterg:
     cdiaghg      :     65.40s CPU     66.38s WALL (    1120 calls)
     h_psi        :    173.69s CPU    181.33s WALL (    1146 calls)
     s_psi        :     14.36s CPU     15.37s WALL (    1146 calls)
     g_psi        :      0.44s CPU      0.45s WALL (     899 calls)

     Called by h_psi:
     h_psi:calbec :     22.51s CPU     24.28s WALL (    1146 calls)
     vloc_psi     :    135.46s CPU    140.97s WALL (    1146 calls)
     add_vuspsi   :     14.62s CPU     14.97s WALL (    1146 calls)

     General routines
     calbec       :     30.94s CPU     33.00s WALL (    1432 calls)
     fft          :      8.46s CPU     12.96s WALL (    1194 calls)
     ffts         :      2.09s CPU      2.12s WALL (    4236 calls)
     fftw         :    138.80s CPU    143.75s WALL (  304218 calls)
     interpolate  :      0.66s CPU      0.71s WALL (      18 calls)

     Parallel routines

     PWSCF        :   6m59.18s CPU   7m21.45s WALL


   This run was terminated on:  10:14:42  23Feb2025            

=------------------------------------------------------------------------------=
   JOB DONE.
=------------------------------------------------------------------------------=
