
     Program PWSCF v.7.1 starts on 23Feb2025 at 17:16:52 
        Git branch: heads/qe-7.1
        Last git commit: 48ba0178f8fede6d020eb786884699a9f063f55d-dirty
        Last git commit date: Fri Jan 27 14:22:33 2023 +0000
        Last git commit subject: Merge branch 'fix_hubbard' into 'develop'

     This program is part of the open-source Quantum ESPRESSO suite
     for quantum simulation of materials; please cite
         "P. Giannozzi et al., J. Phys.:Condens. Matter 21 395502 (2009);
         "P. Giannozzi et al., J. Phys.:Condens. Matter 29 465901 (2017);
         "P. Giannozzi et al., J. Chem. Phys. 152 154105 (2020);
          URL http://www.quantum-espresso.org", 
     in publications or presentations arising from this work. More details at
     http://www.quantum-espresso.org/quote

     Parallel version (MPI), running on    48 processors

     MPI processes distributed on     1 nodes
     252276 MiB available memory on the printing compute node when the environment starts

     Reading input from espresso.pwi
Warning: card &CELL ignored
Warning: card / ignored
Warning: card &FCP ignored
Warning: card / ignored
Warning: card &RISM ignored
Warning: card / ignored

     Current dimensions of program PWSCF are:
     Max number of different atomic species (ntypx) = 10
     Max number of k-points (npk) =  40000
     Max angular momentum in pseudopotentials (lmaxx) =  4
     file Pt.pbe-n-kjpaw_psl.1.0.0.UPF: wavefunction(s)  6S 5D renormalized
     file H.pbe-kjpaw_psl.1.0.0.UPF: wavefunction(s)  1S renormalized

     **************************************************************************
     Initializing libbeef V0.1.2 with the BEEF-vdW functional.
     Citation: Wellendorff et al., PRB 85, 235149 (2012).
     **************************************************************************


     IMPORTANT: XC functional enforced from input :
     Exchange-correlation= BEEF-VDW
                           (   1   4  43  14   2   0   0)
     Any further DFT definition will be discarded
     Please, verify this is what you really want


     R & G space division:  proc/nbgrp/npool/nimage =      48
     Subspace diagonalization in iterative solution of the eigenvalue problem:
     one sub-group per band group will be used
     custom distributed-memory algorithm (size of sub-group:  2*  2 procs)


     Parallelization info
     --------------------
     sticks:   dense  smooth     PW     G-vecs:    dense   smooth      PW
     Min         151      59     16                29407     7165    1028
     Max         152      60     17                29420     7176    1042
     Sum        7267    2839    769              1411785   344073   49691

     Using Slab Decomposition



     bravais-lattice index     =            0
     lattice parameter (alat)  =      16.0349  a.u.
     unit-cell volume          =   10068.6169 (a.u.)^3
     number of atoms/cell      =           37
     number of atomic types    =            2
     number of electrons       =       361.00
     number of Kohn-Sham states=          217
     kinetic-energy cutoff     =      40.0000  Ry
     charge density cutoff     =     410.0000  Ry
     scf convergence threshold =      1.0E-08
     mixing beta               =       0.7000
     number of iterations used =            8  local-TF  mixing
     Exchange-correlation= BEEF-VDW
                           (   1   4  43  14   2   0   0)

     celldm(1)=  16.034858  celldm(2)=   0.000000  celldm(3)=   0.000000
     celldm(4)=   0.000000  celldm(5)=   0.000000  celldm(6)=   0.000000

     crystal axes: (cart. coord. in units of alat)
               a(1) = (   1.000000   0.000000   0.000000 )  
               a(2) = (   0.500000   0.866025   0.000000 )  
               a(3) = (   0.000000   0.000000   2.819966 )  

     reciprocal axes: (cart. coord. in units 2 pi/alat)
               b(1) = (  1.000000 -0.577350  0.000000 )  
               b(2) = (  0.000000  1.154701  0.000000 )  
               b(3) = (  0.000000  0.000000  0.354614 )  


     PseudoPot. # 1 for Pt read from file:
     /users/kbadger1/espresso/pseudo/pslibrary.1.0.0/pbe/PSEUDOPOTENTIALS/Pt.pbe-n-kjpaw_psl.1.0.0.UPF
     MD5 check sum: 2e24a0b5bf98a4ed1a57fa81bca8c143
     Pseudo is Projector augmented-wave + core cor, Zval = 10.0
     Generated using 'atomic' code by A. Dal Corso  v.7.0
     Shape of augmentation charge: PSQ
     Using radial grid of 1277 points,  6 beta functions with: 
                l(1) =   0
                l(2) =   0
                l(3) =   1
                l(4) =   1
                l(5) =   2
                l(6) =   2
     Q(r) pseudized with 0 coefficients 


     PseudoPot. # 2 for H  read from file:
     /users/kbadger1/espresso/pseudo/pslibrary.1.0.0/pbe/PSEUDOPOTENTIALS/H.pbe-kjpaw_psl.1.0.0.UPF
     MD5 check sum: fe4c6fa958fa6d3815bf5d2419cbf1df
     Pseudo is Projector augmented-wave, Zval =  1.0
     Generated using 'atomic' code by A. Dal Corso  v.7.0
     Shape of augmentation charge: PSQ
     Using radial grid of  929 points,  2 beta functions with: 
                l(1) =   0
                l(2) =   0
     Q(r) pseudized with 0 coefficients 


     atomic species   valence    mass     pseudopotential
        Pt            10.00   195.08400     Pt( 1.00)
        H              1.00     1.00800     H ( 1.00)

     No symmetry found



   Cartesian axes

     site n.     atom                  positions (alat units)
         1           Pt  tau(   1) = (   0.0000000   0.0000000   1.0017346  )
         2           Pt  tau(   2) = (   0.3333333   0.0000000   1.0017346  )
         3           Pt  tau(   3) = (   0.6666667   0.0000000   1.0017346  )
         4           Pt  tau(   4) = (   0.1666667   0.2886751   1.0017346  )
         5           Pt  tau(   5) = (   0.5000000   0.2886751   1.0017346  )
         6           Pt  tau(   6) = (   0.8333333   0.2886751   1.0017346  )
         7           Pt  tau(   7) = (   0.3333333   0.5773503   1.0017346  )
         8           Pt  tau(   8) = (   0.6666667   0.5773503   1.0017346  )
         9           Pt  tau(   9) = (   1.0000000   0.5773503   1.0017346  )
        10           Pt  tau(  10) = (   0.1666667   0.0962250   1.2739001  )
        11           Pt  tau(  11) = (   0.5000000   0.0962250   1.2739001  )
        12           Pt  tau(  12) = (   0.8333333   0.0962250   1.2739001  )
        13           Pt  tau(  13) = (   0.3333333   0.3849002   1.2739001  )
        14           Pt  tau(  14) = (   0.6666667   0.3849002   1.2739001  )
        15           Pt  tau(  15) = (   1.0000000   0.3849002   1.2739001  )
        16           Pt  tau(  16) = (   0.5000000   0.6735753   1.2739001  )
        17           Pt  tau(  17) = (   0.8333333   0.6735753   1.2739001  )
        18           Pt  tau(  18) = (   1.1666667   0.6735753   1.2739001  )
        19           Pt  tau(  19) = (   0.0005477   0.1901271   1.5441194  )
        20           Pt  tau(  20) = (   0.3327521   0.1901372   1.5441405  )
        21           Pt  tau(  21) = (   0.6666512   0.1900045   1.5424732  )
        22           Pt  tau(  22) = (   0.1666618   0.4755597   1.5468977  )
        23           Pt  tau(  23) = (   0.4998629   0.4785862   1.5428369  )
        24           Pt  tau(  24) = (   0.8334485   0.4785886   1.5428208  )
        25           Pt  tau(  25) = (   0.3331427   0.7665313   1.5422626  )
        26           Pt  tau(  26) = (   0.6666543   0.7673393   1.5427007  )
        27           Pt  tau(  27) = (   1.0001707   0.7665372   1.5422614  )
        28           Pt  tau(  28) = (  -0.0014818  -0.0070933   1.8159845  )
        29           Pt  tau(  29) = (   0.3347646  -0.0070772   1.8159892  )
        30           Pt  tau(  30) = (   0.6666425  -0.0058182   1.8168055  )
        31           Pt  tau(  31) = (   0.1666068   0.2806181   1.8304771  )
        32           Pt  tau(  32) = (   0.5005308   0.2829018   1.8165630  )
        33           Pt  tau(  33) = (   0.8327237   0.2829090   1.8165484  )
        34           Pt  tau(  34) = (   0.3331416   0.5717132   1.8173891  )
        35           Pt  tau(  35) = (   0.6666493   0.5713646   1.8166224  )
        36           Pt  tau(  36) = (   1.0001372   0.5717176   1.8173822  )
        37           H   tau(  37) = (   0.1661771   0.2344298   2.0082232  )

     number of k points=    13  Marzari-Vanderbilt smearing, width (Ry)=  0.0200
                       cart. coord. in units 2pi/alat
        k(    1) = (   0.0000000   0.0000000   0.0000000), wk =   0.0800000
        k(    2) = (   0.0000000   0.2309401   0.0000000), wk =   0.1600000
        k(    3) = (   0.0000000   0.4618802   0.0000000), wk =   0.1600000
        k(    4) = (   0.2000000  -0.1154701   0.0000000), wk =   0.1600000
        k(    5) = (   0.2000000   0.1154701   0.0000000), wk =   0.1600000
        k(    6) = (   0.2000000   0.3464102   0.0000000), wk =   0.1600000
        k(    7) = (   0.2000000  -0.5773503   0.0000000), wk =   0.1600000
        k(    8) = (   0.2000000  -0.3464102   0.0000000), wk =   0.1600000
        k(    9) = (   0.4000000  -0.2309401   0.0000000), wk =   0.1600000
        k(   10) = (   0.4000000  -0.0000000   0.0000000), wk =   0.1600000
        k(   11) = (   0.4000000   0.2309401   0.0000000), wk =   0.1600000
        k(   12) = (   0.4000000  -0.6928203   0.0000000), wk =   0.1600000
        k(   13) = (   0.4000000  -0.4618802   0.0000000), wk =   0.1600000

     Dense  grid:  1411785 G-vectors     FFT dimensions: ( 108, 108, 300)

     Smooth grid:   344073 G-vectors     FFT dimensions: (  72,  72, 192)

     Estimated max dynamical RAM per process >     203.68 MB

     Estimated total dynamical RAM >       9.55 GB

     Initial potential from superposition of free atoms

     starting charge     360.9939, renormalised to     361.0000

     negative rho (up, down):  3.356E-03 0.000E+00


     %%%%%%%%%%%%%%%%%%%%%%%%%%%%%%%%%%%%%%%%%%%%%%%%%%%%%%%%%%%%%%%%%%%%%%%%
     %                                                                      %
     % You are using vdW-DF, which was implemented by the Thonhauser group. %
     % Please cite the following two papers that made this development      %
     % possible and the two reviews that describe the various versions:     %
     %                                                                      %
     %   T. Thonhauser et al., PRL 115, 136402 (2015).                      %
     %   T. Thonhauser et al., PRB 76, 125112 (2007).                       %
     %   K. Berland et al., Rep. Prog. Phys. 78, 066501 (2015).             %
     %   D.C. Langreth et al., J. Phys.: Condens. Matter 21, 084203 (2009). %
     %                                                                      %
     % If you are calculating stress with vdW-DF, please also cite:         %
     %                                                                      %
     %   R. Sabatini et al., J. Phys.: Condens. Matter 24, 424209 (2012).   %
     %                                                                      %
     %%%%%%%%%%%%%%%%%%%%%%%%%%%%%%%%%%%%%%%%%%%%%%%%%%%%%%%%%%%%%%%%%%%%%%%%

     %%%%%%%%%%%%%%%%%%%%%%%%%%%%%%%%%%%%%%%%%%%%%%%%%%%%%%%%%%%%%%%%%%%%%%%%
     %                                                                      %
     %  vdW-DF NEWS:                                                        %
     %                                                                      %
     %  * vdW-DF3 is now available. DOI: 10.1021/acs.jctc.0c00471           %
     %    use with input_dft = 'vdW-DF3-opt1' or 'vdW-DF3-opt2'             %
     %                                                                      %
     %  * Unscreened and range-separated hybrid vdW-DF-cx functionals       %
     %    DOI: 10.1063/1.4986522 and 10.1088/1361-648X/ac2ad2               %
     %    use with input_dft = 'vdW-DF-cx0'    and 'vdW-DF-ahcx'            %
     %  * Unscreened and range-separated hybrid vdW-DF2-b86r functionals    %
     %    DOI: 10.1063/1.4986522 and DOI: 10.1103/PhysRevX.12.041003        %
     %    use with input_dft = 'vdW-DF2-br0' and 'vdW-DF2-ahbr'             %
     %                                                                      %
     %%%%%%%%%%%%%%%%%%%%%%%%%%%%%%%%%%%%%%%%%%%%%%%%%%%%%%%%%%%%%%%%%%%%%%%%


     Starting wfcs are  325 randomized atomic wfcs
     Checking if some PAW data can be deallocated... 

     total cpu time spent up to now is       10.8 secs

     per-process dynamical memory:   207.7 Mb

     Self-consistent Calculation

     iteration #  1     ecut=    40.00 Ry     beta= 0.70
     Davidson diagonalization with overlap
     ethr =  1.00E-02,  avg # of iterations =  2.0

     Threshold (ethr) on eigenvalues was too large:
     Diagonalizing with lowered threshold

     Davidson diagonalization with overlap
     ethr =  3.95E-04,  avg # of iterations =  3.9

     negative rho (up, down):  1.711E-02 0.000E+00

     total cpu time spent up to now is       41.1 secs

     total energy              =  -27755.27596619 Ry
     estimated scf accuracy    <       1.62348807 Ry

     iteration #  2     ecut=    40.00 Ry     beta= 0.70
     Davidson diagonalization with overlap
     ethr =  4.50E-04,  avg # of iterations =  2.0

     negative rho (up, down):  1.513E-02 0.000E+00

     total cpu time spent up to now is       53.3 secs

     total energy              =  -27755.37903171 Ry
     estimated scf accuracy    <       0.85243606 Ry

     iteration #  3     ecut=    40.00 Ry     beta= 0.70
     Davidson diagonalization with overlap
     ethr =  2.36E-04,  avg # of iterations =  2.0

     negative rho (up, down):  9.650E-03 0.000E+00

     total cpu time spent up to now is       65.9 secs

     total energy              =  -27755.43288926 Ry
     estimated scf accuracy    <       0.10294190 Ry

     iteration #  4     ecut=    40.00 Ry     beta= 0.70
     Davidson diagonalization with overlap
     c_bands:  1 eigenvalues not converged
     c_bands:  1 eigenvalues not converged
     c_bands:  1 eigenvalues not converged
     c_bands:  1 eigenvalues not converged
     c_bands:  1 eigenvalues not converged
     ethr =  2.85E-05,  avg # of iterations = 14.1

     negative rho (up, down):  7.014E-03 0.000E+00

     total cpu time spent up to now is       96.0 secs

     total energy              =  -27755.48477876 Ry
     estimated scf accuracy    <       0.09508638 Ry

     iteration #  5     ecut=    40.00 Ry     beta= 0.70
     Davidson diagonalization with overlap
     ethr =  2.63E-05,  avg # of iterations =  1.2

     negative rho (up, down):  3.101E-03 0.000E+00

     total cpu time spent up to now is      108.3 secs

     total energy              =  -27755.48478895 Ry
     estimated scf accuracy    <       0.03132418 Ry

     iteration #  6     ecut=    40.00 Ry     beta= 0.70
     Davidson diagonalization with overlap
     c_bands:  1 eigenvalues not converged
     ethr =  8.68E-06,  avg # of iterations =  9.0

     negative rho (up, down):  1.324E-03 0.000E+00

     total cpu time spent up to now is      123.9 secs

     total energy              =  -27755.48694939 Ry
     estimated scf accuracy    <       0.00261780 Ry

     iteration #  7     ecut=    40.00 Ry     beta= 0.70
     Davidson diagonalization with overlap
     ethr =  7.25E-07,  avg # of iterations = 10.3

     negative rho (up, down):  1.002E-03 0.000E+00

     total cpu time spent up to now is      150.9 secs

     total energy              =  -27755.48769209 Ry
     estimated scf accuracy    <       0.00211384 Ry

     iteration #  8     ecut=    40.00 Ry     beta= 0.70
     Davidson diagonalization with overlap
     ethr =  5.86E-07,  avg # of iterations =  1.6

     negative rho (up, down):  8.656E-04 0.000E+00

     total cpu time spent up to now is      163.7 secs

     total energy              =  -27755.48782156 Ry
     estimated scf accuracy    <       0.00025185 Ry

     iteration #  9     ecut=    40.00 Ry     beta= 0.70
     Davidson diagonalization with overlap
     ethr =  6.98E-08,  avg # of iterations =  4.4

     negative rho (up, down):  7.029E-04 0.000E+00

     total cpu time spent up to now is      185.2 secs

     total energy              =  -27755.48792750 Ry
     estimated scf accuracy    <       0.00011082 Ry

     iteration # 10     ecut=    40.00 Ry     beta= 0.70
     Davidson diagonalization with overlap
     c_bands:  1 eigenvalues not converged
     ethr =  3.07E-08,  avg # of iterations =  5.4

     negative rho (up, down):  7.018E-04 0.000E+00

     total cpu time spent up to now is      206.2 secs

     total energy              =  -27755.48794704 Ry
     estimated scf accuracy    <       0.00011047 Ry

     iteration # 11     ecut=    40.00 Ry     beta= 0.70
     Davidson diagonalization with overlap
     ethr =  3.06E-08,  avg # of iterations =  1.1

     negative rho (up, down):  7.869E-04 0.000E+00

     total cpu time spent up to now is      217.3 secs

     total energy              =  -27755.48795231 Ry
     estimated scf accuracy    <       0.00007548 Ry

     iteration # 12     ecut=    40.00 Ry     beta= 0.70
     Davidson diagonalization with overlap
     ethr =  2.09E-08,  avg # of iterations =  1.2

     negative rho (up, down):  1.014E-03 0.000E+00

     total cpu time spent up to now is      228.6 secs

     total energy              =  -27755.48796204 Ry
     estimated scf accuracy    <       0.00002857 Ry

     iteration # 13     ecut=    40.00 Ry     beta= 0.70
     Davidson diagonalization with overlap
     ethr =  7.91E-09,  avg # of iterations =  2.0

     negative rho (up, down):  1.486E-03 0.000E+00

     total cpu time spent up to now is      241.3 secs

     total energy              =  -27755.48797100 Ry
     estimated scf accuracy    <       0.00001537 Ry

     iteration # 14     ecut=    40.00 Ry     beta= 0.70
     Davidson diagonalization with overlap
     ethr =  4.26E-09,  avg # of iterations =  2.0

     negative rho (up, down):  1.835E-03 0.000E+00

     total cpu time spent up to now is      254.3 secs

     total energy              =  -27755.48797752 Ry
     estimated scf accuracy    <       0.00000794 Ry

     iteration # 15     ecut=    40.00 Ry     beta= 0.70
     Davidson diagonalization with overlap
     ethr =  2.20E-09,  avg # of iterations =  2.0

     negative rho (up, down):  2.519E-03 0.000E+00

     total cpu time spent up to now is      267.3 secs

     total energy              =  -27755.48797666 Ry
     estimated scf accuracy    <       0.00000722 Ry

     iteration # 16     ecut=    40.00 Ry     beta= 0.70
     Davidson diagonalization with overlap
     ethr =  2.00E-09,  avg # of iterations =  1.2

     negative rho (up, down):  2.786E-03 0.000E+00

     total cpu time spent up to now is      278.6 secs

     total energy              =  -27755.48797586 Ry
     estimated scf accuracy    <       0.00000216 Ry

     iteration # 17     ecut=    40.00 Ry     beta= 0.70
     Davidson diagonalization with overlap
     ethr =  5.98E-10,  avg # of iterations =  3.3

     negative rho (up, down):  2.963E-03 0.000E+00

     total cpu time spent up to now is      293.7 secs

     total energy              =  -27755.48797538 Ry
     estimated scf accuracy    <       0.00000049 Ry

     iteration # 18     ecut=    40.00 Ry     beta= 0.70
     Davidson diagonalization with overlap
     ethr =  1.37E-10,  avg # of iterations =  5.3

     negative rho (up, down):  3.033E-03 0.000E+00

     total cpu time spent up to now is      317.3 secs

     total energy              =  -27755.48797525 Ry
     estimated scf accuracy    <       0.00000042 Ry

     iteration # 19     ecut=    40.00 Ry     beta= 0.70
     Davidson diagonalization with overlap
     ethr =  1.16E-10,  avg # of iterations =  2.0

     negative rho (up, down):  3.143E-03 0.000E+00

     total cpu time spent up to now is      330.6 secs

     total energy              =  -27755.48797462 Ry
     estimated scf accuracy    <       0.00000010 Ry

     iteration # 20     ecut=    40.00 Ry     beta= 0.70
     Davidson diagonalization with overlap
     ethr =  2.66E-11,  avg # of iterations =  3.7

     negative rho (up, down):  3.172E-03 0.000E+00

     total cpu time spent up to now is      347.8 secs

     total energy              =  -27755.48797449 Ry
     estimated scf accuracy    <       0.00000002 Ry

     iteration # 21     ecut=    40.00 Ry     beta= 0.70
     Davidson diagonalization with overlap
     ethr =  6.82E-12,  avg # of iterations =  4.4

     negative rho (up, down):  3.172E-03 0.000E+00

     total cpu time spent up to now is      367.4 secs

     total energy              =  -27755.48797449 Ry
     estimated scf accuracy    <       0.00000001 Ry

     iteration # 22     ecut=    40.00 Ry     beta= 0.70
     Davidson diagonalization with overlap
     c_bands:  1 eigenvalues not converged
     ethr =  2.95E-12,  avg # of iterations =  3.5

     negative rho (up, down):  3.173E-03 0.000E+00

     total cpu time spent up to now is      381.0 secs

     End of self-consistent calculation

          k = 0.0000 0.0000 0.0000 ( 42913 PWs)   bands (ev):

    -6.2889  -5.0081  -3.9448  -3.8914  -3.8743  -3.8644  -3.8639  -3.8597
    -3.8487  -3.8465  -3.4123  -3.3132  -3.3117  -3.3060  -3.3029  -3.2990
    -2.9950  -2.8445  -2.8388  -2.8340  -2.8331  -2.8327  -2.7684  -2.6223
    -2.6212  -2.6183  -2.6177  -2.6140  -2.4467  -2.3960  -2.3937  -2.3910
    -2.3836  -2.3822  -2.3801  -2.3796  -2.3733  -2.3652  -2.3640  -2.3277
    -2.1980  -1.7782  -1.7767  -1.7570  -1.7441  -1.7136  -1.7022  -1.6969
    -1.6900  -1.6889  -1.6369  -1.5455  -1.5237  -1.4556  -1.3272  -0.9834
    -0.9759  -0.9561  -0.9503  -0.9438  -0.9306  -0.8841  -0.7823  -0.7810
    -0.7774  -0.7731  -0.7569  -0.7513  -0.7335  -0.7282  -0.7249  -0.7138
    -0.7089  -0.6975  -0.6731  -0.6720  -0.6352  -0.5628  -0.5461  -0.5419
    -0.5370  -0.5171  -0.4074  -0.3837  -0.3689  -0.3506  -0.3467  -0.3334
    -0.3060  -0.2907  -0.2792  -0.2059  -0.2054  -0.1506  -0.1481  -0.1132
    -0.1111  -0.0877  -0.0724  -0.0663  -0.0509   0.0546   0.0732   0.0765
     0.0865   0.1033   0.1190   0.4271   0.5624   0.5762   0.5851   0.5909
     0.5940   0.5953   0.5993   0.6518   0.6579   0.6630   0.6634   0.6944
     0.7436   0.7449   0.8674   0.8908   0.9016   0.9095   0.9118   0.9962
     0.9994   1.0341   1.0504   1.0695   1.0731   1.0985   1.2863   1.2991
     1.3237   1.3265   1.3278   1.3417   1.3883   1.4013   1.5721   1.5768
     1.5778   1.5892   1.5914   1.6449   1.7378   1.7402   1.7544   1.7594
     1.7617   1.7810   1.7826   1.7929   1.7965   1.7977   1.8024   1.8875
     1.9043   1.9049   1.9219   1.9326   1.9352   1.9528   1.9630   2.0134
     2.0202   2.0322   2.0426   2.0534   2.0587   2.0645   2.0672   2.1361
     2.1402   2.1471   2.1569   2.1609   2.1623   2.1761   2.2393   2.2595
     2.2661   2.2679   2.2856   2.2863   2.4554   2.4934   2.5605   2.5735
     2.5946   2.5951   2.6025   2.6075   2.9351   3.4246   3.4708   3.4860
     3.4888   3.4945   3.4948   5.0374   5.7693   5.7862   5.8114   5.8221
     5.8339   6.9824   7.3610   7.3745   7.3959   7.4026   7.4254   7.4264
     7.5610

          k = 0.0000 0.2309 0.0000 ( 42996 PWs)   bands (ev):

    -6.1422  -4.8647  -4.3880  -3.9940  -3.9732  -3.7826  -3.7252  -3.6828
    -3.6450  -3.6198  -3.4694  -3.3996  -3.3086  -3.2456  -3.2419  -3.2307
    -2.9961  -2.8681  -2.8113  -2.8027  -2.7932  -2.7658  -2.7191  -2.6978
    -2.6577  -2.6408  -2.6332  -2.5867  -2.5736  -2.5300  -2.4868  -2.4293
    -2.4187  -2.3765  -2.3669  -2.2829  -2.1868  -2.1862  -2.1682  -2.1664
    -2.0945  -1.9007  -1.8859  -1.8290  -1.8276  -1.7927  -1.7820  -1.7425
    -1.5963  -1.5929  -1.5265  -1.5210  -1.4736  -1.4552  -1.3860  -1.2048
    -1.1482  -1.1290  -1.0682  -1.0474  -1.0269  -0.9729  -0.9715  -0.9442
    -0.9203  -0.9117  -0.8735  -0.8503  -0.7931  -0.7630  -0.7561  -0.7397
    -0.7042  -0.6826  -0.6733  -0.5944  -0.5874  -0.5694  -0.5089  -0.4927
    -0.4679  -0.4640  -0.4315  -0.3874  -0.3748  -0.3687  -0.3595  -0.3296
    -0.3110  -0.2784  -0.2508  -0.2483  -0.1952  -0.1775  -0.1598  -0.1582
    -0.1247  -0.1020  -0.0927  -0.0831   0.0235   0.0672   0.0693   0.0847
     0.0887   0.1158   0.1206   0.1287   0.1796   0.1803   0.2050   0.2141
     0.3587   0.4477   0.5080   0.5445   0.5991   0.5994   0.6184   0.6265
     0.6435   0.6664   0.7986   0.7996   0.8174   0.9235   0.9440   0.9748
     1.0034   1.0174   1.0559   1.0730   1.0947   1.0961   1.1752   1.1966
     1.2014   1.2200   1.2272   1.3891   1.3995   1.4366   1.4479   1.4562
     1.4799   1.5139   1.5575   1.5894   1.6056   1.6165   1.6575   1.6888
     1.6979   1.6992   1.7357   1.8123   1.8196   1.8483   1.8866   1.9421
     1.9717   1.9759   1.9821   2.0016   2.0042   2.0478   2.1021   2.1306
     2.1320   2.1834   2.1968   2.1978   2.2412   2.2447   2.2467   2.2525
     2.2556   2.3058   2.3159   2.4382   2.4666   2.4970   2.5109   2.5176
     2.5309   2.5646   2.5968   2.5986   2.6116   2.6847   2.7064   2.7191
     2.7328   2.8921   2.8939   2.9116   2.9375   3.2506   3.3643   3.7698
     4.0717   4.0785   4.2080   4.8518   5.3118   5.5280   6.0372   6.2236
     6.2254   6.3695   6.5719   6.9482   7.1914   7.2374   7.5482   7.5874
     7.5951

          k = 0.0000 0.4619 0.0000 ( 43046 PWs)   bands (ev):

    -5.7200  -5.0868  -4.4632  -4.0308  -4.0084  -3.9081  -3.6546  -3.4923
    -3.4054  -3.3508  -3.3208  -3.2789  -3.2114  -3.1193  -3.0795  -3.0663
    -3.0610  -2.9599  -2.9208  -2.8941  -2.8685  -2.8521  -2.8088  -2.7891
    -2.7199  -2.7095  -2.7015  -2.6157  -2.4429  -2.4374  -2.4317  -2.4193
    -2.4164  -2.3615  -2.1974  -2.1753  -2.1521  -2.1497  -2.1320  -2.0634
    -1.9171  -1.8609  -1.8480  -1.8359  -1.7971  -1.7862  -1.7757  -1.7082
    -1.7028  -1.6540  -1.6427  -1.6099  -1.4938  -1.4846  -1.4499  -1.4463
    -1.3352  -1.2846  -1.2674  -1.2658  -1.1912  -1.1157  -1.0528  -1.0496
    -1.0464  -1.0246  -0.9573  -0.9342  -0.9030  -0.8336  -0.8296  -0.8082
    -0.7892  -0.6854  -0.6650  -0.6565  -0.6467  -0.6297  -0.5815  -0.5706
    -0.5588  -0.5537  -0.5370  -0.5351  -0.5257  -0.4959  -0.4685  -0.4058
    -0.3946  -0.3659  -0.3567  -0.3424  -0.3279  -0.2417  -0.2285  -0.1787
    -0.1705  -0.1288  -0.1049  -0.0795  -0.0771  -0.0735  -0.0015   0.0738
     0.0952   0.1320   0.1550   0.1822   0.2021   0.3361   0.3401   0.3823
     0.4223   0.4877   0.5053   0.5105   0.5426   0.5455   0.5714   0.6107
     0.6379   0.6481   0.6609   0.6637   0.6832   0.6898   0.7104   0.7239
     0.7741   0.8496   0.8758   0.9025   0.9132   0.9800   1.0541   1.0774
     1.1003   1.2031   1.2180   1.3092   1.3579   1.3649   1.4022   1.4196
     1.4287   1.4762   1.4810   1.5361   1.5563   1.5856   1.6212   1.6313
     1.7030   1.7265   1.7412   1.7527   1.7655   1.7813   1.8774   1.9414
     1.9851   2.0141   2.0296   2.0410   2.0452   2.1366   2.1564   2.1622
     2.2396   2.2432   2.2524   2.3097   2.3218   2.3371   2.3557   2.4328
     2.4725   2.4942   2.4947   2.5125   2.5227   2.5381   2.5486   2.7089
     2.7332   2.7529   2.7681   2.7698   2.9306   2.9722   3.1478   3.3729
     3.4081   3.5474   3.7949   3.7969   4.1206   4.1865   4.2263   4.5403
     4.7321   5.0097   5.0127   5.0621   5.2160   5.2773   5.3522   5.4237
     5.6582   5.6703   6.0642   6.3215   6.6300   6.8382   7.0193   7.3332
     7.5461

          k = 0.2000-0.1155 0.0000 ( 42996 PWs)   bands (ev):

    -6.1420  -4.8647  -4.3824  -3.9983  -3.9751  -3.7833  -3.7244  -3.6801
    -3.6397  -3.6264  -3.4778  -3.4005  -3.2996  -3.2420  -3.2390  -3.2269
    -2.9761  -2.9150  -2.8142  -2.8007  -2.7844  -2.7549  -2.7194  -2.7025
    -2.6558  -2.6438  -2.6310  -2.5866  -2.5563  -2.5315  -2.4938  -2.4186
    -2.4137  -2.3765  -2.3716  -2.2674  -2.1969  -2.1820  -2.1731  -2.1557
    -2.1221  -1.9038  -1.8841  -1.8710  -1.8220  -1.8056  -1.7796  -1.7279
    -1.6019  -1.5810  -1.5290  -1.5088  -1.4823  -1.4523  -1.3783  -1.2303
    -1.1455  -1.1180  -1.0896  -1.0648  -1.0327  -0.9772  -0.9527  -0.9359
    -0.9135  -0.9089  -0.8908  -0.8508  -0.7945  -0.7825  -0.7607  -0.7388
    -0.6735  -0.6511  -0.6450  -0.5961  -0.5883  -0.5650  -0.5107  -0.4963
    -0.4789  -0.4602  -0.4418  -0.3840  -0.3728  -0.3606  -0.3554  -0.3424
    -0.3102  -0.2920  -0.2412  -0.2267  -0.1950  -0.1909  -0.1673  -0.1475
    -0.1394  -0.1052  -0.0896  -0.0796   0.0200   0.0636   0.0825   0.0919
     0.0946   0.1094   0.1167   0.1325   0.1692   0.1827   0.1988   0.2112
     0.3054   0.4739   0.5112   0.5572   0.5856   0.5973   0.6184   0.6331
     0.6479   0.6759   0.7991   0.8102   0.8301   0.9304   0.9530   0.9600
     1.0172   1.0229   1.0656   1.0719   1.0933   1.1274   1.1757   1.1867
     1.2036   1.2130   1.2292   1.3834   1.4093   1.4358   1.4461   1.4574
     1.4833   1.5082   1.5601   1.5856   1.5931   1.6177   1.6367   1.6842
     1.6944   1.7037   1.7331   1.8103   1.8166   1.8432   1.8892   1.9462
     1.9671   1.9742   1.9880   2.0060   2.0238   2.0472   2.1074   2.1319
     2.1396   2.1857   2.1936   2.1999   2.2383   2.2442   2.2468   2.2530
     2.2569   2.3140   2.3284   2.4549   2.4652   2.4912   2.5023   2.5080
     2.5229   2.5454   2.5687   2.5912   2.6060   2.6713   2.7110   2.7298
     2.7437   2.8827   2.8976   2.9045   2.9515   3.2300   3.3463   3.7814
     4.0746   4.0873   4.2098   4.8620   5.3176   5.5147   6.0277   6.2224
     6.2286   6.3656   6.5703   6.9578   7.1953   7.2402   7.5625   7.5740
     7.5929

          k = 0.2000 0.1155 0.0000 ( 42996 PWs)   bands (ev):

    -6.1420  -4.8647  -4.3824  -3.9983  -3.9751  -3.7833  -3.7244  -3.6801
    -3.6397  -3.6264  -3.4777  -3.4005  -3.2998  -3.2420  -3.2390  -3.2269
    -2.9758  -2.9153  -2.8142  -2.8007  -2.7844  -2.7552  -2.7195  -2.7025
    -2.6559  -2.6438  -2.6309  -2.5865  -2.5563  -2.5316  -2.4938  -2.4185
    -2.4136  -2.3765  -2.3717  -2.2672  -2.1968  -2.1820  -2.1732  -2.1557
    -2.1221  -1.9038  -1.8842  -1.8711  -1.8220  -1.8055  -1.7797  -1.7279
    -1.6020  -1.5811  -1.5288  -1.5087  -1.4823  -1.4523  -1.3782  -1.2304
    -1.1455  -1.1181  -1.0897  -1.0650  -1.0325  -0.9772  -0.9526  -0.9360
    -0.9134  -0.9089  -0.8909  -0.8508  -0.7942  -0.7824  -0.7606  -0.7387
    -0.6735  -0.6509  -0.6450  -0.5961  -0.5883  -0.5649  -0.5107  -0.4965
    -0.4789  -0.4602  -0.4417  -0.3839  -0.3730  -0.3605  -0.3554  -0.3426
    -0.3102  -0.2921  -0.2411  -0.2266  -0.1951  -0.1909  -0.1672  -0.1477
    -0.1394  -0.1051  -0.0896  -0.0797   0.0200   0.0637   0.0825   0.0919
     0.0947   0.1093   0.1168   0.1325   0.1692   0.1827   0.1989   0.2113
     0.3047   0.4742   0.5111   0.5570   0.5857   0.5972   0.6184   0.6332
     0.6480   0.6761   0.7994   0.8102   0.8300   0.9304   0.9530   0.9600
     1.0173   1.0231   1.0655   1.0719   1.0934   1.1275   1.1757   1.1866
     1.2036   1.2131   1.2292   1.3834   1.4094   1.4358   1.4461   1.4574
     1.4833   1.5082   1.5601   1.5856   1.5930   1.6177   1.6366   1.6843
     1.6944   1.7037   1.7331   1.8103   1.8165   1.8432   1.8891   1.9462
     1.9671   1.9743   1.9880   2.0060   2.0239   2.0472   2.1074   2.1319
     2.1397   2.1857   2.1937   2.1999   2.2383   2.2442   2.2468   2.2530
     2.2569   2.3141   2.3285   2.4549   2.4653   2.4913   2.5022   2.5080
     2.5228   2.5454   2.5685   2.5910   2.6059   2.6712   2.7110   2.7298
     2.7438   2.8827   2.8976   2.9045   2.9516   3.2299   3.3462   3.7815
     4.0747   4.0873   4.2097   4.8622   5.3175   5.5146   6.0276   6.2225
     6.2286   6.3656   6.5705   6.9578   7.1954   7.2402   7.5625   7.5740
     7.5929

          k = 0.2000 0.3464 0.0000 ( 43046 PWs)   bands (ev):

    -5.8568  -4.6448  -4.6262  -4.5835  -3.6514  -3.5553  -3.5397  -3.5285
    -3.4938  -3.4780  -3.4682  -3.4613  -3.3593  -3.3569  -3.0875  -2.9775
    -2.9714  -2.9593  -2.9048  -2.8906  -2.7745  -2.7264  -2.7147  -2.7060
    -2.6980  -2.6617  -2.5804  -2.5626  -2.5476  -2.5399  -2.5150  -2.4710
    -2.4454  -2.4297  -2.3928  -2.3291  -2.2392  -2.0545  -1.9572  -1.9489
    -1.9306  -1.9095  -1.9055  -1.8957  -1.8457  -1.8335  -1.7356  -1.6733
    -1.6585  -1.6486  -1.5677  -1.5406  -1.4922  -1.4791  -1.4559  -1.3899
    -1.3469  -1.2284  -1.2203  -1.1790  -1.1242  -1.1090  -1.0875  -1.0715
    -1.0287  -1.0060  -0.9917  -0.8648  -0.8519  -0.8216  -0.8170  -0.7773
    -0.7634  -0.7182  -0.7040  -0.6883  -0.6609  -0.5581  -0.5486  -0.5265
    -0.5111  -0.5063  -0.4943  -0.4868  -0.4520  -0.4331  -0.4036  -0.3738
    -0.3528  -0.3023  -0.2741  -0.2588  -0.2333  -0.1896  -0.1731  -0.1572
    -0.1425  -0.1140  -0.1031  -0.0918  -0.0775  -0.0633  -0.0536  -0.0430
     0.0003   0.0198   0.0789   0.1163   0.1600   0.1677   0.2224   0.2372
     0.2461   0.3258   0.4388   0.4635   0.5507   0.5853   0.6026   0.6115
     0.6379   0.6671   0.6767   0.7028   0.7216   0.7332   0.7856   0.8160
     0.8474   0.9352   1.0044   1.0278   1.0566   1.0686   1.1002   1.1320
     1.1475   1.2481   1.2647   1.2746   1.3243   1.3377   1.3858   1.4566
     1.4796   1.4820   1.5050   1.5486   1.5580   1.5781   1.5804   1.5986
     1.6053   1.6139   1.6334   1.7087   1.7853   1.8234   1.8795   1.9441
     1.9637   2.0441   2.1276   2.1338   2.1393   2.1776   2.2458   2.2659
     2.2773   2.2904   2.3081   2.3291   2.3400   2.3428   2.3572   2.3892
     2.4168   2.4334   2.4869   2.5085   2.5384   2.5600   2.5702   2.6084
     2.7158   2.7682   2.8058   2.8189   2.8752   2.8844   2.8897   3.0158
     3.0284   3.2922   3.5453   3.5624   3.9282   4.0891   4.1100   4.1328
     4.4403   4.8142   4.8337   5.0222   5.0284   5.0802   5.6749   5.8896
     6.2111   6.2658   6.4492   6.5585   6.9340   7.0088   7.0233   7.0320
     7.0689

          k = 0.2000-0.5774 0.0000 ( 43014 PWs)   bands (ev):

    -5.3269  -5.3188  -4.7141  -4.1309  -4.0716  -3.6064  -3.5519  -3.4099
    -3.3815  -3.3018  -3.2593  -3.1633  -3.1533  -3.1116  -3.0427  -3.0349
    -3.0087  -2.9916  -2.9828  -2.9706  -2.9058  -2.8251  -2.8214  -2.8028
    -2.7795  -2.6996  -2.6108  -2.6097  -2.5636  -2.4942  -2.4197  -2.4087
    -2.4020  -2.3965  -2.3404  -2.2793  -2.2450  -2.1704  -2.1008  -1.9928
    -1.9779  -1.8799  -1.8438  -1.8394  -1.7828  -1.7621  -1.6673  -1.6125
    -1.5910  -1.5719  -1.5430  -1.4870  -1.4764  -1.4509  -1.3783  -1.3663
    -1.3438  -1.3358  -1.3297  -1.3215  -1.2763  -1.2559  -1.2134  -1.1370
    -1.1073  -1.0612  -1.0477  -0.9557  -0.9098  -0.8864  -0.8812  -0.8433
    -0.8382  -0.8228  -0.7601  -0.7144  -0.7009  -0.6880  -0.6661  -0.6420
    -0.5846  -0.5591  -0.5379  -0.4793  -0.4690  -0.4620  -0.4211  -0.3680
    -0.2913  -0.2861  -0.2581  -0.2572  -0.2212  -0.2187  -0.2091  -0.1831
    -0.1735  -0.1624  -0.1303  -0.1270  -0.0836  -0.0716  -0.0529  -0.0478
    -0.0370  -0.0097   0.0108   0.0301   0.0476   0.1448   0.2454   0.2744
     0.3626   0.3688   0.4633   0.4755   0.4910   0.5287   0.5496   0.5571
     0.5824   0.6022   0.6344   0.6916   0.7066   0.7284   0.7661   0.7869
     0.8390   0.8576   0.8919   0.9771   1.0528   1.1131   1.1300   1.1352
     1.1610   1.2260   1.2437   1.2625   1.2718   1.2869   1.3151   1.3270
     1.3588   1.4222   1.4515   1.4875   1.5066   1.5246   1.5283   1.5522
     1.5551   1.6501   1.7209   1.7767   1.8184   1.8837   1.9494   1.9683
     1.9787   2.0489   2.0982   2.1051   2.1361   2.2033   2.2574   2.2746
     2.2933   2.3217   2.3254   2.3477   2.3795   2.4090   2.4746   2.4853
     2.4884   2.5044   2.5377   2.5421   2.5454   2.6054   2.7266   2.7395
     2.7573   2.7657   2.7705   2.8228   2.8710   2.9446   3.0688   3.6586
     3.9050   3.9059   4.1094   4.1756   4.2852   4.2896   4.3009   4.6062
     4.9143   4.9201   5.1394   5.3709   5.3974   5.4966   5.5145   5.6092
     5.7678   5.8263   5.9030   6.1481   6.3224   6.3494   6.6414   6.9676
     6.9884

          k = 0.2000-0.3464 0.0000 ( 43046 PWs)   bands (ev):

    -5.8568  -4.6448  -4.6262  -4.5835  -3.6514  -3.5553  -3.5398  -3.5285
    -3.4939  -3.4779  -3.4682  -3.4613  -3.3593  -3.3569  -3.0874  -2.9775
    -2.9715  -2.9592  -2.9047  -2.8908  -2.7747  -2.7264  -2.7147  -2.7061
    -2.6980  -2.6613  -2.5802  -2.5627  -2.5476  -2.5399  -2.5149  -2.4710
    -2.4454  -2.4297  -2.3928  -2.3293  -2.2395  -2.0545  -1.9572  -1.9488
    -1.9306  -1.9095  -1.9056  -1.8957  -1.8456  -1.8334  -1.7353  -1.6732
    -1.6585  -1.6490  -1.5675  -1.5406  -1.4922  -1.4792  -1.4559  -1.3899
    -1.3466  -1.2283  -1.2203  -1.1789  -1.1242  -1.1092  -1.0875  -1.0715
    -1.0287  -1.0061  -0.9917  -0.8649  -0.8520  -0.8219  -0.8172  -0.7775
    -0.7634  -0.7181  -0.7039  -0.6882  -0.6610  -0.5580  -0.5484  -0.5265
    -0.5112  -0.5063  -0.4943  -0.4870  -0.4521  -0.4331  -0.4034  -0.3738
    -0.3529  -0.3025  -0.2741  -0.2587  -0.2332  -0.1895  -0.1731  -0.1572
    -0.1425  -0.1141  -0.1030  -0.0918  -0.0775  -0.0633  -0.0536  -0.0429
     0.0004   0.0197   0.0788   0.1163   0.1602   0.1679   0.2223   0.2371
     0.2460   0.3257   0.4389   0.4636   0.5504   0.5852   0.6026   0.6115
     0.6379   0.6672   0.6765   0.7028   0.7217   0.7333   0.7856   0.8160
     0.8473   0.9351   1.0044   1.0277   1.0567   1.0685   1.1001   1.1320
     1.1474   1.2481   1.2647   1.2746   1.3244   1.3377   1.3858   1.4566
     1.4796   1.4821   1.5051   1.5485   1.5580   1.5781   1.5805   1.5986
     1.6054   1.6139   1.6335   1.7088   1.7851   1.8234   1.8797   1.9440
     1.9637   2.0441   2.1275   2.1338   2.1393   2.1775   2.2458   2.2659
     2.2773   2.2904   2.3081   2.3291   2.3400   2.3427   2.3571   2.3892
     2.4168   2.4336   2.4868   2.5085   2.5383   2.5600   2.5702   2.6084
     2.7161   2.7683   2.8059   2.8190   2.8753   2.8844   2.8897   3.0157
     3.0284   3.2922   3.5452   3.5623   3.9285   4.0891   4.1101   4.1328
     4.4402   4.8142   4.8337   5.0223   5.0285   5.0803   5.6751   5.8895
     6.2111   6.2658   6.4490   6.5585   6.9339   7.0087   7.0233   7.0321
     7.0689

          k = 0.4000-0.2309 0.0000 ( 43046 PWs)   bands (ev):

    -5.7192  -5.0843  -4.4634  -4.0355  -4.0081  -3.9110  -3.6517  -3.4900
    -3.3917  -3.3463  -3.3073  -3.2876  -3.2130  -3.1141  -3.0777  -3.0649
    -3.0538  -2.9582  -2.9200  -2.8995  -2.8783  -2.8471  -2.8130  -2.7831
    -2.7444  -2.7124  -2.7012  -2.5764  -2.4437  -2.4402  -2.4359  -2.4318
    -2.4187  -2.3564  -2.1965  -2.1772  -2.1571  -2.1522  -2.1349  -2.0710
    -1.9649  -1.8598  -1.8484  -1.8434  -1.8216  -1.7825  -1.7503  -1.7208
    -1.6993  -1.6811  -1.6376  -1.5793  -1.5020  -1.4878  -1.4506  -1.4363
    -1.3430  -1.3078  -1.2843  -1.2709  -1.2372  -1.1188  -1.0667  -1.0396
    -1.0287  -1.0119  -0.9472  -0.9365  -0.9064  -0.8116  -0.7933  -0.7860
    -0.7557  -0.6835  -0.6736  -0.6585  -0.6533  -0.6324  -0.5958  -0.5741
    -0.5550  -0.5459  -0.5346  -0.5290  -0.5268  -0.5030  -0.4548  -0.3976
    -0.3890  -0.3829  -0.3682  -0.3640  -0.3436  -0.2491  -0.2064  -0.1779
    -0.1401  -0.1181  -0.1011  -0.0936  -0.0598  -0.0531   0.0239   0.0766
     0.0895   0.1101   0.1481   0.1908   0.2072   0.3316   0.3437   0.3604
     0.4274   0.4801   0.5074   0.5154   0.5322   0.5451   0.5517   0.5667
     0.6354   0.6510   0.6605   0.6788   0.6889   0.7062   0.7249   0.7472
     0.7584   0.8698   0.8946   0.9068   0.9338   0.9842   1.0725   1.0917
     1.1099   1.2044   1.2103   1.2805   1.3463   1.3743   1.4092   1.4276
     1.4399   1.4602   1.4789   1.5319   1.5432   1.5781   1.6065   1.6332
     1.6968   1.7198   1.7421   1.7468   1.7670   1.8088   1.8666   1.9434
     1.9830   2.0140   2.0389   2.0457   2.0520   2.1344   2.1578   2.1683
     2.2456   2.2481   2.2581   2.3047   2.3333   2.3481   2.3637   2.4373
     2.4660   2.4887   2.4974   2.5086   2.5127   2.5241   2.5325   2.7093
     2.7129   2.7421   2.7433   2.7639   2.9326   2.9727   3.1512   3.3530
     3.4284   3.5451   3.7902   3.8015   4.1310   4.1887   4.2256   4.5209
     4.7272   5.0057   5.0148   5.0475   5.2297   5.2860   5.3474   5.4098
     5.6578   5.6720   6.0634   6.2979   6.6417   6.8489   7.0221   7.3341
     7.5477

          k = 0.4000-0.0000 0.0000 ( 43046 PWs)   bands (ev):

    -5.8563  -4.6446  -4.6248  -4.5828  -3.6552  -3.5425  -3.5385  -3.5298
    -3.4906  -3.4864  -3.4708  -3.4654  -3.3621  -3.3532  -3.0746  -2.9699
    -2.9657  -2.9582  -2.9139  -2.8790  -2.7794  -2.7371  -2.7116  -2.7079
    -2.6971  -2.6661  -2.6040  -2.5601  -2.5580  -2.5364  -2.5123  -2.4690
    -2.4347  -2.4275  -2.3953  -2.3094  -2.2229  -2.0463  -1.9573  -1.9518
    -1.9425  -1.9147  -1.9020  -1.9006  -1.8945  -1.8351  -1.7901  -1.6667
    -1.6617  -1.5918  -1.5719  -1.5423  -1.4904  -1.4840  -1.4479  -1.3934
    -1.3635  -1.2328  -1.2152  -1.1744  -1.1515  -1.1116  -1.0889  -1.0815
    -1.0316  -1.0050  -1.0001  -0.8557  -0.8425  -0.8166  -0.7973  -0.7703
    -0.7432  -0.7131  -0.7095  -0.6831  -0.6688  -0.5692  -0.5373  -0.5328
    -0.5136  -0.5041  -0.4960  -0.4889  -0.4481  -0.4300  -0.3951  -0.3647
    -0.3459  -0.3069  -0.2703  -0.2642  -0.2246  -0.1980  -0.1666  -0.1468
    -0.1397  -0.1174  -0.1041  -0.0921  -0.0882  -0.0721  -0.0557  -0.0442
     0.0104   0.0182   0.0450   0.1188   0.1558   0.1618   0.2332   0.2478
     0.2489   0.3512   0.4335   0.4558   0.5708   0.5889   0.6164   0.6232
     0.6364   0.6551   0.6903   0.6955   0.7237   0.7308   0.7755   0.8117
     0.8511   0.9571   1.0098   1.0356   1.0497   1.0711   1.1041   1.1420
     1.1526   1.2427   1.2716   1.2741   1.3199   1.3391   1.3919   1.4496
     1.4658   1.4798   1.5039   1.5478   1.5611   1.5696   1.5769   1.5938
     1.6022   1.6077   1.6279   1.6952   1.8051   1.8198   1.8676   1.9546
     1.9677   2.0450   2.1283   2.1343   2.1376   2.1956   2.2452   2.2600
     2.2778   2.2863   2.3142   2.3282   2.3422   2.3559   2.3662   2.3907
     2.4111   2.4196   2.4934   2.5259   2.5336   2.5598   2.5679   2.6134
     2.6826   2.7468   2.7903   2.8063   2.8678   2.8812   2.8868   3.0215
     3.0317   3.3147   3.5563   3.5687   3.9196   4.0807   4.0956   4.1232
     4.4430   4.8192   4.8379   5.0212   5.0330   5.0761   5.6857   5.8743
     6.2097   6.2496   6.4506   6.5538   6.9392   7.0165   7.0227   7.0349
     7.0622

          k = 0.4000 0.2309 0.0000 ( 43046 PWs)   bands (ev):

    -5.7192  -5.0843  -4.4634  -4.0355  -4.0081  -3.9110  -3.6517  -3.4900
    -3.3916  -3.3463  -3.3073  -3.2876  -3.2132  -3.1141  -3.0777  -3.0649
    -3.0537  -2.9580  -2.9200  -2.8995  -2.8784  -2.8471  -2.8128  -2.7832
    -2.7445  -2.7124  -2.7011  -2.5767  -2.4437  -2.4402  -2.4360  -2.4318
    -2.4187  -2.3562  -2.1965  -2.1772  -2.1571  -2.1522  -2.1349  -2.0710
    -1.9650  -1.8598  -1.8484  -1.8434  -1.8216  -1.7826  -1.7502  -1.7210
    -1.6993  -1.6812  -1.6378  -1.5792  -1.5020  -1.4879  -1.4506  -1.4363
    -1.3431  -1.3079  -1.2845  -1.2710  -1.2376  -1.1188  -1.0666  -1.0395
    -1.0286  -1.0118  -0.9471  -0.9365  -0.9059  -0.8116  -0.7930  -0.7861
    -0.7553  -0.6834  -0.6736  -0.6586  -0.6534  -0.6323  -0.5957  -0.5742
    -0.5551  -0.5459  -0.5347  -0.5290  -0.5268  -0.5030  -0.4546  -0.3977
    -0.3890  -0.3832  -0.3683  -0.3641  -0.3437  -0.2489  -0.2063  -0.1779
    -0.1400  -0.1183  -0.1011  -0.0937  -0.0597  -0.0529   0.0238   0.0766
     0.0895   0.1098   0.1481   0.1909   0.2071   0.3317   0.3437   0.3606
     0.4274   0.4802   0.5073   0.5154   0.5321   0.5450   0.5517   0.5666
     0.6354   0.6512   0.6607   0.6788   0.6888   0.7061   0.7250   0.7473
     0.7584   0.8700   0.8946   0.9070   0.9337   0.9841   1.0727   1.0918
     1.1100   1.2044   1.2102   1.2803   1.3463   1.3744   1.4092   1.4275
     1.4400   1.4602   1.4789   1.5319   1.5431   1.5781   1.6064   1.6332
     1.6967   1.7198   1.7422   1.7468   1.7670   1.8090   1.8664   1.9435
     1.9831   2.0140   2.0389   2.0457   2.0519   2.1344   2.1578   2.1683
     2.2456   2.2482   2.2582   2.3046   2.3334   2.3481   2.3637   2.4374
     2.4659   2.4887   2.4974   2.5086   2.5126   2.5240   2.5324   2.7093
     2.7128   2.7421   2.7431   2.7637   2.9326   2.9727   3.1511   3.3529
     3.4285   3.5451   3.7901   3.8015   4.1310   4.1886   4.2257   4.5207
     4.7269   5.0057   5.0149   5.0476   5.2298   5.2860   5.3474   5.4097
     5.6578   5.6719   6.0635   6.2978   6.6418   6.8490   7.0220   7.3341
     7.5476

          k = 0.4000-0.6928 0.0000 ( 43014 PWs)   bands (ev):

    -5.3270  -5.3162  -4.7160  -4.1341  -4.0697  -3.6078  -3.5427  -3.4088
    -3.3811  -3.2890  -3.2668  -3.1709  -3.1552  -3.0833  -3.0427  -3.0289
    -3.0128  -2.9955  -2.9800  -2.9731  -2.9225  -2.8300  -2.8228  -2.7979
    -2.7785  -2.6987  -2.6430  -2.5714  -2.5588  -2.4970  -2.4210  -2.4116
    -2.3988  -2.3964  -2.3363  -2.2852  -2.2544  -2.1785  -2.1139  -1.9888
    -1.9660  -1.9465  -1.8475  -1.8140  -1.7820  -1.7520  -1.6567  -1.6072
    -1.5841  -1.5663  -1.5379  -1.5076  -1.4843  -1.4619  -1.3808  -1.3726
    -1.3505  -1.3420  -1.3355  -1.3239  -1.2776  -1.2624  -1.2347  -1.1282
    -1.1012  -1.0609  -1.0237  -0.9487  -0.9178  -0.8964  -0.8839  -0.8444
    -0.8109  -0.8019  -0.7472  -0.7183  -0.7056  -0.6922  -0.6624  -0.6387
    -0.5921  -0.5772  -0.5222  -0.4961  -0.4854  -0.4602  -0.4053  -0.3367
    -0.3159  -0.2792  -0.2719  -0.2608  -0.2141  -0.2092  -0.2033  -0.1803
    -0.1733  -0.1356  -0.1185  -0.1040  -0.0925  -0.0721  -0.0556  -0.0485
    -0.0438  -0.0243   0.0068   0.0383   0.0563   0.0994   0.2605   0.3213
     0.3610   0.3670   0.4656   0.4767   0.4886   0.5067   0.5438   0.5705
     0.5791   0.5934   0.6343   0.6818   0.7054   0.7257   0.7756   0.7832
     0.8396   0.8635   0.9113   0.9992   1.0661   1.1125   1.1198   1.1365
     1.1572   1.2080   1.2334   1.2572   1.2749   1.2803   1.3126   1.3252
     1.3646   1.4258   1.4446   1.4898   1.5027   1.5235   1.5287   1.5506
     1.5674   1.6811   1.7076   1.7770   1.8200   1.8822   1.9377   1.9651
     1.9845   2.0493   2.0957   2.1022   2.1452   2.2071   2.2607   2.2790
     2.3079   2.3218   2.3301   2.3449   2.3742   2.3981   2.4712   2.4842
     2.4927   2.5209   2.5347   2.5402   2.5485   2.6073   2.7150   2.7317
     2.7440   2.7513   2.7662   2.8198   2.8506   2.9425   3.0699   3.6716
     3.9049   3.9088   4.1220   4.1659   4.2904   4.2951   4.3186   4.5866
     4.9014   4.9192   5.1538   5.3672   5.3994   5.4949   5.5133   5.5828
     5.7179   5.8181   5.9182   6.1525   6.3280   6.3640   6.6412   6.9782
     7.0107

          k = 0.4000-0.4619 0.0000 ( 43014 PWs)   bands (ev):

    -5.3270  -5.3162  -4.7160  -4.1342  -4.0697  -3.6077  -3.5427  -3.4087
    -3.3812  -3.2891  -3.2668  -3.1708  -3.1553  -3.0836  -3.0427  -3.0289
    -3.0128  -2.9955  -2.9799  -2.9731  -2.9223  -2.8299  -2.8228  -2.7979
    -2.7785  -2.6988  -2.6430  -2.5713  -2.5585  -2.4969  -2.4211  -2.4115
    -2.3988  -2.3964  -2.3365  -2.2851  -2.2545  -2.1785  -2.1137  -1.9888
    -1.9661  -1.9464  -1.8474  -1.8141  -1.7820  -1.7522  -1.6568  -1.6073
    -1.5841  -1.5663  -1.5379  -1.5074  -1.4843  -1.4618  -1.3808  -1.3725
    -1.3504  -1.3420  -1.3355  -1.3238  -1.2774  -1.2624  -1.2343  -1.1285
    -1.1015  -1.0610  -1.0239  -0.9487  -0.9179  -0.8964  -0.8839  -0.8443
    -0.8108  -0.8021  -0.7473  -0.7183  -0.7056  -0.6922  -0.6622  -0.6386
    -0.5921  -0.5772  -0.5222  -0.4960  -0.4854  -0.4603  -0.4054  -0.3368
    -0.3159  -0.2790  -0.2720  -0.2608  -0.2141  -0.2092  -0.2034  -0.1803
    -0.1735  -0.1357  -0.1186  -0.1041  -0.0922  -0.0721  -0.0556  -0.0485
    -0.0438  -0.0242   0.0066   0.0383   0.0563   0.1000   0.2605   0.3211
     0.3610   0.3670   0.4656   0.4768   0.4887   0.5068   0.5436   0.5705
     0.5792   0.5934   0.6342   0.6819   0.7055   0.7257   0.7756   0.7831
     0.8396   0.8635   0.9112   0.9988   1.0660   1.1126   1.1199   1.1365
     1.1572   1.2083   1.2334   1.2571   1.2750   1.2803   1.3126   1.3252
     1.3646   1.4257   1.4447   1.4898   1.5027   1.5235   1.5287   1.5506
     1.5673   1.6809   1.7078   1.7770   1.8199   1.8823   1.9379   1.9652
     1.9845   2.0493   2.0957   2.1022   2.1451   2.2071   2.2606   2.2790
     2.3078   2.3218   2.3300   2.3448   2.3744   2.3982   2.4712   2.4842
     2.4927   2.5208   2.5347   2.5402   2.5485   2.6073   2.7150   2.7317
     2.7440   2.7513   2.7663   2.8198   2.8507   2.9425   3.0698   3.6716
     3.9048   3.9087   4.1220   4.1659   4.2904   4.2951   4.3184   4.5868
     4.9014   4.9193   5.1539   5.3672   5.3994   5.4947   5.5135   5.5831
     5.7180   5.8181   5.9181   6.1525   6.3277   6.3641   6.6412   6.9779
     7.0103

     the Fermi energy is     2.5238 ev

!    total energy              =  -27755.48797449 Ry
     total all-electron energy =  -1326642.253391 Ry
     estimated scf accuracy    <          7.1E-09 Ry
     smearing contrib. (-TS)   =       0.00191973 Ry
     internal energy E=F+TS    =  -27755.48989421 Ry

     The total energy is F=E-TS. E is the sum of the following terms:
     one-electron contribution =  -20673.33835948 Ry
     hartree contribution      =   10643.89397353 Ry
     xc contribution           =    -890.67842947 Ry
     ewald contribution        =    8638.60909127 Ry
     one-center paw contrib.   =  -25473.97617006 Ry

     convergence has been achieved in  22 iterations

     negative rho (up, down):  3.173E-03 0.000E+00

     Forces acting on atoms (cartesian axes, Ry/au):

     atom    1 type  1   force =    -0.00033302    0.00061560   -0.00336636
     atom    2 type  1   force =     0.00033340    0.00061583   -0.00336077
     atom    3 type  1   force =     0.00001194    0.00147010   -0.00643502
     atom    4 type  1   force =     0.00000083    0.00055537   -0.00374599
     atom    5 type  1   force =     0.00030273    0.00007477   -0.00365507
     atom    6 type  1   force =    -0.00029716    0.00007073   -0.00365925
     atom    7 type  1   force =    -0.00025999    0.00060486   -0.00305039
     atom    8 type  1   force =    -0.00000007    0.00034593   -0.00345758
     atom    9 type  1   force =     0.00026613    0.00060197   -0.00304901
     atom   10 type  1   force =     0.00000571   -0.00049262    0.00666343
     atom   11 type  1   force =     0.00180959   -0.00204541   -0.00062799
     atom   12 type  1   force =    -0.00182296   -0.00205072   -0.00063925
     atom   13 type  1   force =    -0.00168360   -0.00053362    0.00834842
     atom   14 type  1   force =    -0.00001179   -0.00111198    0.00290227
     atom   15 type  1   force =     0.00168348   -0.00052549    0.00832890
     atom   16 type  1   force =    -0.00021816   -0.00089879    0.00302509
     atom   17 type  1   force =     0.00020728   -0.00088987    0.00302115
     atom   18 type  1   force =    -0.00000228   -0.00007172    0.00127083
     atom   19 type  1   force =     0.00012100   -0.00000708    0.00001730
     atom   20 type  1   force =    -0.00013084   -0.00001281    0.00001339
     atom   21 type  1   force =     0.00000155   -0.00002793   -0.00013785
     atom   22 type  1   force =    -0.00001429   -0.00003406   -0.00017629
     atom   23 type  1   force =     0.00000961   -0.00006868   -0.00003518
     atom   24 type  1   force =     0.00000252   -0.00007203   -0.00000581
     atom   25 type  1   force =     0.00001486   -0.00007212   -0.00010684
     atom   26 type  1   force =     0.00000901   -0.00011458   -0.00013517
     atom   27 type  1   force =    -0.00002404   -0.00008199   -0.00010717
     atom   28 type  1   force =     0.00011470   -0.00008880   -0.00009836
     atom   29 type  1   force =    -0.00012953   -0.00008852   -0.00010334
     atom   30 type  1   force =    -0.00000456   -0.00013579   -0.00008282
     atom   31 type  1   force =    -0.00000538   -0.00026802    0.00036207
     atom   32 type  1   force =    -0.00007749   -0.00027089   -0.00003308
     atom   33 type  1   force =     0.00007698   -0.00028295   -0.00003775
     atom   34 type  1   force =    -0.00006407   -0.00022875   -0.00008430
     atom   35 type  1   force =    -0.00001852   -0.00008867   -0.00009021
     atom   36 type  1   force =     0.00006671   -0.00022163   -0.00009004
     atom   37 type  2   force =     0.00005970    0.00583036    0.00241802
     The non-local contrib.  to forces
     atom    1 type  1   force =    -0.00009046   -0.00040956   -0.01828457
     atom    2 type  1   force =     0.00009377   -0.00041388   -0.01829009
     atom    3 type  1   force =    -0.00001060   -0.00138465   -0.01643380
     atom    4 type  1   force =    -0.00000228   -0.00040523   -0.01914244
     atom    5 type  1   force =     0.00023826    0.00015627   -0.01850133
     atom    6 type  1   force =    -0.00023443    0.00015530   -0.01849277
     atom    7 type  1   force =     0.00049856    0.00060624   -0.01897468
     atom    8 type  1   force =    -0.00000144   -0.00018198   -0.01913873
     atom    9 type  1   force =    -0.00049832    0.00060850   -0.01897116
     atom   10 type  1   force =    -0.00000626   -0.00167123    0.00035387
     atom   11 type  1   force =    -0.00201603    0.00004483   -0.00031166
     atom   12 type  1   force =     0.00200468    0.00004005   -0.00031202
     atom   13 type  1   force =     0.00012460   -0.00106391    0.00159405
     atom   14 type  1   force =    -0.00000603   -0.00051516   -0.00051042
     atom   15 type  1   force =    -0.00013184   -0.00106597    0.00158240
     atom   16 type  1   force =     0.00081448   -0.00133639   -0.00063652
     atom   17 type  1   force =    -0.00082809   -0.00133568   -0.00064330
     atom   18 type  1   force =    -0.00000054   -0.00370823   -0.00034404
     atom   19 type  1   force =    -0.00774105   -0.00574737    0.00084710
     atom   20 type  1   force =     0.00776334   -0.00578402    0.00076708
     atom   21 type  1   force =     0.00000524    0.00017264    0.00318956
     atom   22 type  1   force =    -0.00002618    0.01514048   -0.00808904
     atom   23 type  1   force =     0.00200422    0.00071066    0.00176969
     atom   24 type  1   force =    -0.00200115    0.00070530    0.00179178
     atom   25 type  1   force =     0.00090599    0.00005779    0.00435381
     atom   26 type  1   force =     0.00000364   -0.00278267    0.00070340
     atom   27 type  1   force =    -0.00091362    0.00004615    0.00436472
     atom   28 type  1   force =     0.00946677    0.01042120    0.02360919
     atom   29 type  1   force =    -0.00946782    0.01031694    0.02357879
     atom   30 type  1   force =     0.00000020    0.00094640    0.01705133
     atom   31 type  1   force =     0.00013593    0.01365946   -0.12612570
     atom   32 type  1   force =    -0.00580782    0.00025143    0.02039195
     atom   33 type  1   force =     0.00591452    0.00020761    0.02043418
     atom   34 type  1   force =    -0.00064611   -0.00315993    0.01866803
     atom   35 type  1   force =    -0.00001540    0.00164038    0.01703346
     atom   36 type  1   force =     0.00065264   -0.00317389    0.01867788
     atom   37 type  2   force =     0.00009969    0.01072925   -0.04068263
     The ionic contribution  to forces
     atom    1 type  1   force =    -0.00003138    0.00594621  -93.41451559
     atom    2 type  1   force =     0.00007590    0.00600683  -93.41441443
     atom    3 type  1   force =    -0.00004454   -0.00553748  -93.41525573
     atom    4 type  1   force =     0.00007073    0.00849473  -93.39340612
     atom    5 type  1   force =    -0.00973277    0.00090591  -93.41209626
     atom    6 type  1   force =     0.00966088    0.00092049  -93.41223486
     atom    7 type  1   force =    -0.01178954   -0.00786981  -93.40128986
     atom    8 type  1   force =    -0.00002656   -0.00140013  -93.42185042
     atom    9 type  1   force =     0.01181599   -0.00780671  -93.40132817
     atom   10 type  1   force =     0.00060079    0.05369587  -31.52125744
     atom   11 type  1   force =    -0.04558494    0.00970244  -31.53318023
     atom   12 type  1   force =     0.04470264    0.00934081  -31.53383897
     atom   13 type  1   force =    -0.09812980    0.01551393  -31.46939482
     atom   14 type  1   force =    -0.00053952   -0.01540195  -31.58270395
     atom   15 type  1   force =     0.09860849    0.01594891  -31.46978847
     atom   16 type  1   force =    -0.02747546   -0.02170200  -31.58791691
     atom   17 type  1   force =     0.02742679   -0.02106571  -31.58798990
     atom   18 type  1   force =    -0.00012519   -0.16257255  -31.45718449
     atom   19 type  1   force =     0.08824015    0.04005093   31.26723246
     atom   20 type  1   force =    -0.08780395    0.03923042   31.27097503
     atom   21 type  1   force =    -0.00049267   -0.05745695   30.85535932
     atom   22 type  1   force =    -0.00057016    0.01384216   31.72708689
     atom   23 type  1   force =    -0.05574114   -0.01411486   30.92691114
     atom   24 type  1   force =     0.05619774   -0.01372843   30.92383211
     atom   25 type  1   force =    -0.08075643   -0.02531546   30.78484487
     atom   26 type  1   force =     0.00064063    0.03407152   30.90948277
     atom   27 type  1   force =     0.08000240   -0.02523847   30.78474073
     atom   28 type  1   force =    -0.08464856   -0.26109337   92.29424360
     atom   29 type  1   force =     0.08453251   -0.26016523   92.29604546
     atom   30 type  1   force =    -0.00030785    0.01731771   92.70911079
     atom   31 type  1   force =     0.00647990    0.56675366   92.36861122
     atom   32 type  1   force =     0.23586152    0.06052192   92.46791015
     atom   33 type  1   force =    -0.23770461    0.05979657   92.46376380
     atom   34 type  1   force =     0.11264771    0.13112450   92.65341618
     atom   35 type  1   force =    -0.00064461    0.01799659   92.74758160
     atom   36 type  1   force =    -0.11232635    0.13291944   92.65125666
     atom   37 type  2   force =    -0.00308875   -0.33963244   12.32724185
     The local contribution  to forces
     atom    1 type  1   force =    -0.00020227   -0.00491083   93.41226147
     atom    2 type  1   force =     0.00016005   -0.00496939   93.41217569
     atom    3 type  1   force =     0.00006268    0.00847521   93.40767102
     atom    4 type  1   force =    -0.00006768   -0.00753935   93.39168263
     atom    5 type  1   force =     0.00978256   -0.00095027   93.40979030
     atom    6 type  1   force =    -0.00970913   -0.00096212   93.40991298
     atom    7 type  1   force =     0.01099460    0.00788903   93.40009659
     atom    8 type  1   force =     0.00003251    0.00193208   93.42039085
     atom    9 type  1   force =    -0.01101980    0.00782362   93.40013424
     atom   10 type  1   force =    -0.00057985   -0.05239142   31.52650139
     atom   11 type  1   force =     0.04938729   -0.01184767   31.53175943
     atom   12 type  1   force =    -0.04851824   -0.01148224   31.53240026
     atom   13 type  1   force =     0.09605920   -0.01494143   31.47527300
     atom   14 type  1   force =     0.00053311    0.01478451   31.58483230
     atom   15 type  1   force =    -0.09652987   -0.01535606   31.47565650
     atom   16 type  1   force =     0.02645477    0.02207014   31.59021238
     atom   17 type  1   force =    -0.02639458    0.02144803   31.59029016
     atom   18 type  1   force =     0.00011383    0.16564784   31.45806546
     atom   19 type  1   force =    -0.07995489   -0.03426811  -31.26547669
     atom   20 type  1   force =     0.07949259   -0.03342916  -31.26914529
     atom   21 type  1   force =     0.00048027    0.05695780  -30.85674455
     atom   22 type  1   force =     0.00057386   -0.02919431  -31.71728170
     atom   23 type  1   force =     0.05369842    0.01329190  -30.92683832
     atom   24 type  1   force =    -0.05413962    0.01291818  -30.92375128
     atom   25 type  1   force =     0.07954446    0.02514417  -30.78741170
     atom   26 type  1   force =    -0.00062236   -0.03136668  -30.90837726
     atom   27 type  1   force =    -0.07880610    0.02507034  -30.78731894
     atom   28 type  1   force =     0.07562775    0.25042280  -92.30171219
     atom   29 type  1   force =    -0.07551836    0.24960136  -92.30349006
     atom   30 type  1   force =     0.00029348   -0.01831579  -92.70977250
     atom   31 type  1   force =    -0.00655305   -0.57462881  -92.24413585
     atom   32 type  1   force =    -0.23023870   -0.06088706  -92.47188621
     atom   33 type  1   force =     0.23196540   -0.06012743  -92.46779234
     atom   34 type  1   force =    -0.11198858   -0.12845565  -92.65549158
     atom   35 type  1   force =     0.00064141   -0.01957226  -92.74805018
     atom   36 type  1   force =     0.11166102   -0.13021557  -92.65335596
     atom   37 type  2   force =     0.00304915    0.33473368  -12.28415535
     The core correction contribution to forces
     atom    1 type  1   force =    -0.00000766   -0.00000689    0.01722282
     atom    2 type  1   force =     0.00000709   -0.00000720    0.01722251
     atom    3 type  1   force =    -0.00000048   -0.00009004    0.01763659
     atom    4 type  1   force =     0.00000021    0.00001427    0.01717939
     atom    5 type  1   force =     0.00000770   -0.00003563    0.01720872
     atom    6 type  1   force =    -0.00000767   -0.00003616    0.01720935
     atom    7 type  1   force =     0.00002578   -0.00002850    0.01717876
     atom    8 type  1   force =    -0.00000001   -0.00000758    0.01719677
     atom    9 type  1   force =    -0.00002584   -0.00002857    0.01717918
     atom   10 type  1   force =    -0.00000158   -0.00011547    0.00115035
     atom   11 type  1   force =     0.00001338    0.00005079    0.00118359
     atom   12 type  1   force =    -0.00000960    0.00005250    0.00118678
     atom   13 type  1   force =     0.00024961   -0.00003430    0.00096655
     atom   14 type  1   force =     0.00000125    0.00003287    0.00137063
     atom   15 type  1   force =    -0.00025108   -0.00003537    0.00096860
     atom   16 type  1   force =    -0.00001432    0.00005468    0.00145531
     atom   17 type  1   force =     0.00001459    0.00005321    0.00145689
     atom   18 type  1   force =     0.00000044    0.00053807    0.00082080
     atom   19 type  1   force =    -0.00040534   -0.00002190   -0.00254049
     atom   20 type  1   force =     0.00040680   -0.00001817   -0.00253607
     atom   21 type  1   force =     0.00000135    0.00031110   -0.00189570
     atom   22 type  1   force =     0.00000440    0.00017918   -0.00184774
     atom   23 type  1   force =     0.00004040    0.00004982   -0.00182534
     atom   24 type  1   force =    -0.00004295    0.00005017   -0.00182979
     atom   25 type  1   force =     0.00031887    0.00001189   -0.00184472
     atom   26 type  1   force =    -0.00000152   -0.00005184   -0.00188973
     atom   27 type  1   force =    -0.00031617    0.00001231   -0.00184499
     atom   28 type  1   force =    -0.00032173    0.00014603   -0.01626958
     atom   29 type  1   force =     0.00032391    0.00014538   -0.01627266
     atom   30 type  1   force =    -0.00000007   -0.00010335   -0.01649806
     atom   31 type  1   force =    -0.00006215   -0.00603610    0.00196703
     atom   32 type  1   force =     0.00009637   -0.00014313   -0.01648111
     atom   33 type  1   force =    -0.00009341   -0.00013949   -0.01647557
     atom   34 type  1   force =    -0.00008120    0.00025237   -0.01671556
     atom   35 type  1   force =     0.00000249   -0.00015055   -0.01669476
     atom   36 type  1   force =     0.00008086    0.00024818   -0.01671210
     atom   37 type  2   force =     0.00000000    0.00000000    0.00000000
     The Hubbard contrib.    to forces
     atom    1 type  1   force =     0.00000000    0.00000000    0.00000000
     atom    2 type  1   force =     0.00000000    0.00000000    0.00000000
     atom    3 type  1   force =     0.00000000    0.00000000    0.00000000
     atom    4 type  1   force =     0.00000000    0.00000000    0.00000000
     atom    5 type  1   force =     0.00000000    0.00000000    0.00000000
     atom    6 type  1   force =     0.00000000    0.00000000    0.00000000
     atom    7 type  1   force =     0.00000000    0.00000000    0.00000000
     atom    8 type  1   force =     0.00000000    0.00000000    0.00000000
     atom    9 type  1   force =     0.00000000    0.00000000    0.00000000
     atom   10 type  1   force =     0.00000000    0.00000000    0.00000000
     atom   11 type  1   force =     0.00000000    0.00000000    0.00000000
     atom   12 type  1   force =     0.00000000    0.00000000    0.00000000
     atom   13 type  1   force =     0.00000000    0.00000000    0.00000000
     atom   14 type  1   force =     0.00000000    0.00000000    0.00000000
     atom   15 type  1   force =     0.00000000    0.00000000    0.00000000
     atom   16 type  1   force =     0.00000000    0.00000000    0.00000000
     atom   17 type  1   force =     0.00000000    0.00000000    0.00000000
     atom   18 type  1   force =     0.00000000    0.00000000    0.00000000
     atom   19 type  1   force =     0.00000000    0.00000000    0.00000000
     atom   20 type  1   force =     0.00000000    0.00000000    0.00000000
     atom   21 type  1   force =     0.00000000    0.00000000    0.00000000
     atom   22 type  1   force =     0.00000000    0.00000000    0.00000000
     atom   23 type  1   force =     0.00000000    0.00000000    0.00000000
     atom   24 type  1   force =     0.00000000    0.00000000    0.00000000
     atom   25 type  1   force =     0.00000000    0.00000000    0.00000000
     atom   26 type  1   force =     0.00000000    0.00000000    0.00000000
     atom   27 type  1   force =     0.00000000    0.00000000    0.00000000
     atom   28 type  1   force =     0.00000000    0.00000000    0.00000000
     atom   29 type  1   force =     0.00000000    0.00000000    0.00000000
     atom   30 type  1   force =     0.00000000    0.00000000    0.00000000
     atom   31 type  1   force =     0.00000000    0.00000000    0.00000000
     atom   32 type  1   force =     0.00000000    0.00000000    0.00000000
     atom   33 type  1   force =     0.00000000    0.00000000    0.00000000
     atom   34 type  1   force =     0.00000000    0.00000000    0.00000000
     atom   35 type  1   force =     0.00000000    0.00000000    0.00000000
     atom   36 type  1   force =     0.00000000    0.00000000    0.00000000
     atom   37 type  2   force =     0.00000000    0.00000000    0.00000000
     The SCF correction term to forces
     atom    1 type  1   force =    -0.00000000   -0.00000000   -0.00000000
     atom    2 type  1   force =    -0.00000000   -0.00000000   -0.00000000
     atom    3 type  1   force =     0.00000000    0.00000000   -0.00000000
     atom    4 type  1   force =    -0.00000000   -0.00000000   -0.00000000
     atom    5 type  1   force =     0.00000000   -0.00000000   -0.00000000
     atom    6 type  1   force =    -0.00000000   -0.00000000   -0.00000000
     atom    7 type  1   force =     0.00000000    0.00000000   -0.00000000
     atom    8 type  1   force =    -0.00000000    0.00000000   -0.00000000
     atom    9 type  1   force =    -0.00000000    0.00000000   -0.00000000
     atom   10 type  1   force =    -0.00000000   -0.00000000   -0.00000000
     atom   11 type  1   force =     0.00000000    0.00000000   -0.00000000
     atom   12 type  1   force =    -0.00000000   -0.00000000   -0.00000000
     atom   13 type  1   force =     0.00000000   -0.00000000   -0.00000000
     atom   14 type  1   force =    -0.00000000   -0.00000000   -0.00000000
     atom   15 type  1   force =    -0.00000000   -0.00000000   -0.00000000
     atom   16 type  1   force =     0.00000000    0.00000000   -0.00000000
     atom   17 type  1   force =    -0.00000000    0.00000000   -0.00000000
     atom   18 type  1   force =     0.00000000    0.00000000   -0.00000000
     atom   19 type  1   force =    -0.00001794   -0.00002092   -0.00005754
     atom   20 type  1   force =     0.00001033   -0.00001217   -0.00005983
     atom   21 type  1   force =     0.00000730   -0.00001281   -0.00005894
     atom   22 type  1   force =     0.00000374   -0.00000186   -0.00005716
     atom   23 type  1   force =     0.00000766   -0.00000649   -0.00006482
     atom   24 type  1   force =    -0.00001155   -0.00001754   -0.00006108
     atom   25 type  1   force =     0.00000192    0.00002920   -0.00006156
     atom   26 type  1   force =    -0.00001143    0.00001479   -0.00006681
     atom   27 type  1   force =     0.00000940    0.00002739   -0.00006117
     atom   28 type  1   force =    -0.00000959    0.00001425    0.00001815
     atom   29 type  1   force =     0.00000017    0.00001274    0.00002267
     atom   30 type  1   force =     0.00000963    0.00001895    0.00001316
     atom   31 type  1   force =    -0.00000607   -0.00001652    0.00003291
     atom   32 type  1   force =     0.00001110   -0.00001434    0.00001967
     atom   33 type  1   force =    -0.00000497   -0.00002050    0.00001972
     atom   34 type  1   force =     0.00000406    0.00000968    0.00002617
     atom   35 type  1   force =    -0.00000246   -0.00000312    0.00002721
     atom   36 type  1   force =    -0.00000151   -0.00000009    0.00003101
     atom   37 type  2   force =    -0.00000044   -0.00000042    0.00000170

     Total force =     0.006373     Total SCF correction =     0.000212

     Writing all to output data dir ./pwscf.save/

     init_run     :     10.31s CPU     10.63s WALL (       1 calls)
     electrons    :    360.02s CPU    370.41s WALL (       1 calls)
     forces       :      4.72s CPU      5.32s WALL (       1 calls)

     Called by init_run:
     wfcinit      :      5.88s CPU      6.06s WALL (       1 calls)
     potinit      :      3.05s CPU      3.12s WALL (       1 calls)
     hinit0       :      0.82s CPU      0.84s WALL (       1 calls)

     Called by electrons:
     c_bands      :    305.04s CPU    311.31s WALL (      23 calls)
     sum_band     :     34.09s CPU     35.14s WALL (      23 calls)
     v_of_rho     :      9.69s CPU     11.54s WALL (      23 calls)
     newd         :      3.15s CPU      3.96s WALL (      23 calls)
     PAW_pot      :      4.98s CPU      5.12s WALL (      23 calls)
     mix_rho      :      4.96s CPU      5.04s WALL (      23 calls)
     vdW_kernel   :      1.69s CPU      1.71s WALL (       1 calls)

     Called by c_bands:
     init_us_2    :      3.10s CPU      3.15s WALL (     624 calls)
     init_us_2:cp :      3.09s CPU      3.15s WALL (     624 calls)
     cegterg      :    296.91s CPU    302.89s WALL (     299 calls)

     Called by *egterg:
     cdiaghg      :     79.65s CPU     80.69s WALL (    1425 calls)
     h_psi        :    138.72s CPU    141.51s WALL (    1451 calls)
     s_psi        :     16.78s CPU     17.17s WALL (    1451 calls)
     g_psi        :      0.55s CPU      0.58s WALL (    1139 calls)

     Called by h_psi:
     h_psi:calbec :     21.32s CPU     22.04s WALL (    1451 calls)
     vloc_psi     :     98.52s CPU    100.35s WALL (    1451 calls)
     add_vuspsi   :     17.56s CPU     17.79s WALL (    1451 calls)

     General routines
     calbec       :     31.16s CPU     32.02s WALL (    1802 calls)
     fft          :      5.68s CPU      7.48s WALL (    1509 calls)
     ffts         :      2.86s CPU      2.90s WALL (    5603 calls)
     fftw         :     94.06s CPU     95.78s WALL (  395265 calls)
     interpolate  :      0.61s CPU      0.67s WALL (      23 calls)

     Parallel routines

     PWSCF        :   6m16.68s CPU   6m30.68s WALL


   This run was terminated on:  17:23:23  23Feb2025            

=------------------------------------------------------------------------------=
   JOB DONE.
=------------------------------------------------------------------------------=
