
     Program PWSCF v.7.1 starts on 17Dec2025 at 10:20:21 
        Git branch: heads/qe-7.1
        Last git commit: 48ba0178f8fede6d020eb786884699a9f063f55d-dirty
        Last git commit date: Fri Jan 27 14:22:33 2023 +0000
        Last git commit subject: Merge branch 'fix_hubbard' into 'develop'

     This program is part of the open-source Quantum ESPRESSO suite
     for quantum simulation of materials; please cite
         "P. Giannozzi et al., J. Phys.:Condens. Matter 21 395502 (2009);
         "P. Giannozzi et al., J. Phys.:Condens. Matter 29 465901 (2017);
         "P. Giannozzi et al., J. Chem. Phys. 152 154105 (2020);
          URL http://www.quantum-espresso.org", 
     in publications or presentations arising from this work. More details at
     http://www.quantum-espresso.org/quote

     Parallel version (MPI), running on    96 processors

     MPI processes distributed on     2 nodes
     158973 MiB available memory on the printing compute node when the environment starts

     Reading input from espresso.pwi
Warning: card &CELL ignored
Warning: card / ignored
Warning: card &FCP ignored
Warning: card / ignored
Warning: card &RISM ignored
Warning: card / ignored

     Current dimensions of program PWSCF are:
     Max number of different atomic species (ntypx) = 10
     Max number of k-points (npk) =  40000
     Max angular momentum in pseudopotentials (lmaxx) =  4
     file Co.pbe-n-kjpaw_psl.1.0.0.UPF: wavefunction(s)  4S 3D renormalized
     file C.pbe-n-kjpaw_psl.1.0.0.UPF: wavefunction(s)  2S 2P renormalized
     file O.pbe-nl-kjpaw_psl.1.0.0.UPF: wavefunction(s)  2S 2P renormalized
     file H.pbe-kjpaw_psl.1.0.0.UPF: wavefunction(s)  1S renormalized

     **************************************************************************
     Initializing libbeef V0.1.2 with the BEEF-vdW functional.
     Citation: Wellendorff et al., PRB 85, 235149 (2012).
     **************************************************************************


     IMPORTANT: XC functional enforced from input :
     Exchange-correlation= BEEF-VDW
                           (   1   4  43  14   2   0   0)
     Any further DFT definition will be discarded
     Please, verify this is what you really want


     R & G space division:  proc/nbgrp/npool/nimage =      96
     Subspace diagonalization in iterative solution of the eigenvalue problem:
     one sub-group per band group will be used
     custom distributed-memory algorithm (size of sub-group:  2*  2 procs)


     Parallelization info
     --------------------
     sticks:   dense  smooth     PW     G-vecs:    dense   smooth      PW
     Min          43      28      7                 7829     4248     595
     Max          44      29      8                 7845     4281     630
     Sum        4153    2773    757               752179   409445   59217

     Using Slab Decomposition



     bravais-lattice index     =            0
     lattice parameter (alat)  =      14.1729  a.u.
     unit-cell volume          =    8574.3059 (a.u.)^3
     number of atoms/cell      =           39
     number of atomic types    =            4
     number of electrons       =       335.00
     number of Kohn-Sham states=          202
     kinetic-energy cutoff     =      50.0000  Ry
     charge density cutoff     =     300.0000  Ry
     scf convergence threshold =      1.0E-08
     mixing beta               =       0.7000
     number of iterations used =            8  local-TF  mixing
     Exchange-correlation= BEEF-VDW
                           (   1   4  43  14   2   0   0)

     celldm(1)=  14.172946  celldm(2)=   0.000000  celldm(3)=   0.000000
     celldm(4)=   0.000000  celldm(5)=   0.000000  celldm(6)=   0.000000

     crystal axes: (cart. coord. in units of alat)
               a(1) = (   1.000000   0.000000   0.000000 )  
               a(2) = (   0.500000   0.866025   0.000000 )  
               a(3) = (   0.000000   0.000000   3.477667 )  

     reciprocal axes: (cart. coord. in units 2 pi/alat)
               b(1) = (  1.000000 -0.577350  0.000000 )  
               b(2) = (  0.000000  1.154701  0.000000 )  
               b(3) = (  0.000000  0.000000  0.287549 )  


     PseudoPot. # 1 for Co read from file:
     /users/kbadger1/espresso/pseudo/pslibrary.1.0.0/pbe/PSEUDOPOTENTIALS/Co.pbe-n-kjpaw_psl.1.0.0.UPF
     MD5 check sum: 88af6ec42553d4236c267fdfcb472151
     Pseudo is Projector augmented-wave + core cor, Zval =  9.0
     Generated using 'atomic' code by A. Dal Corso  v.7.0
     Shape of augmentation charge: PSQ
     Using radial grid of 1193 points,  6 beta functions with: 
                l(1) =   0
                l(2) =   0
                l(3) =   1
                l(4) =   1
                l(5) =   2
                l(6) =   2
     Q(r) pseudized with 0 coefficients 


     PseudoPot. # 2 for C  read from file:
     /users/kbadger1/espresso/pseudo/pslibrary.1.0.0/pbe/PSEUDOPOTENTIALS/C.pbe-n-kjpaw_psl.1.0.0.UPF
     MD5 check sum: 6408e75cdba28732cea38a4db8498ce4
     Pseudo is Projector augmented-wave + core cor, Zval =  4.0
     Generated using 'atomic' code by A. Dal Corso  v.7.0
     Shape of augmentation charge: PSQ
     Using radial grid of 1073 points,  4 beta functions with: 
                l(1) =   0
                l(2) =   0
                l(3) =   1
                l(4) =   1
     Q(r) pseudized with 0 coefficients 


     PseudoPot. # 3 for O  read from file:
     /users/kbadger1/espresso/pseudo/pslibrary.1.0.0/pbe/PSEUDOPOTENTIALS/O.pbe-nl-kjpaw_psl.1.0.0.UPF
     MD5 check sum: f0439fab3598ca4e468f064226030408
     Pseudo is Projector augmented-wave + core cor, Zval =  6.0
     Generated using 'atomic' code by A. Dal Corso  v.7.0
     Shape of augmentation charge: PSQ
     Using radial grid of 1095 points,  4 beta functions with: 
                l(1) =   0
                l(2) =   0
                l(3) =   1
                l(4) =   1
     Q(r) pseudized with 0 coefficients 


     PseudoPot. # 4 for H  read from file:
     /users/kbadger1/espresso/pseudo/pslibrary.1.0.0/pbe/PSEUDOPOTENTIALS/H.pbe-kjpaw_psl.1.0.0.UPF
     MD5 check sum: fe4c6fa958fa6d3815bf5d2419cbf1df
     Pseudo is Projector augmented-wave, Zval =  1.0
     Generated using 'atomic' code by A. Dal Corso  v.7.0
     Shape of augmentation charge: PSQ
     Using radial grid of  929 points,  2 beta functions with: 
                l(1) =   0
                l(2) =   0
     Q(r) pseudized with 0 coefficients 


     atomic species   valence    mass     pseudopotential
        Co             9.00    58.93319     Co( 1.00)
        C              4.00    12.00000     C ( 1.00)
        O              6.00    15.99491     O ( 1.00)
        H              1.00     1.00783     H ( 1.00)

     Starting magnetic structure 
     atomic species   magnetization
        Co           1.000
        C            1.000
        O            0.000
        H            0.000

     No symmetry found



   Cartesian axes

     site n.     atom                  positions (alat units)
         1           Co  tau(   1) = (   0.0000000   0.1924501   1.3333333  )
         2           Co  tau(   2) = (   0.3333333   0.1924501   1.3333333  )
         3           Co  tau(   3) = (   0.6666667   0.1924501   1.3333333  )
         4           Co  tau(   4) = (   0.1666667   0.4811252   1.3333333  )
         5           Co  tau(   5) = (   0.5000000   0.4811252   1.3333333  )
         6           Co  tau(   6) = (   0.8333333   0.4811252   1.3333333  )
         7           Co  tau(   7) = (   0.3333333   0.7698004   1.3333333  )
         8           Co  tau(   8) = (   0.6666667   0.7698004   1.3333333  )
         9           Co  tau(   9) = (   1.0000000   0.7698004   1.3333333  )
        10           Co  tau(  10) = (   0.0000000   0.0000000   1.6036667  )
        11           Co  tau(  11) = (   0.3333333   0.0000000   1.6036667  )
        12           Co  tau(  12) = (   0.6666667   0.0000000   1.6036667  )
        13           Co  tau(  13) = (   0.1666667   0.2886751   1.6036667  )
        14           Co  tau(  14) = (   0.5000000   0.2886751   1.6036667  )
        15           Co  tau(  15) = (   0.8333333   0.2886751   1.6036667  )
        16           Co  tau(  16) = (   0.3333333   0.5773503   1.6036667  )
        17           Co  tau(  17) = (   0.6666667   0.5773503   1.6036667  )
        18           Co  tau(  18) = (   1.0000000   0.5773503   1.6036667  )
        19           Co  tau(  19) = (   0.0000000   0.1924501   1.8740000  )
        20           Co  tau(  20) = (   0.3333333   0.1924501   1.8740000  )
        21           Co  tau(  21) = (   0.6666667   0.1924501   1.8740000  )
        22           Co  tau(  22) = (   0.1666667   0.4811252   1.8740000  )
        23           Co  tau(  23) = (   0.5000000   0.4811252   1.8740000  )
        24           Co  tau(  24) = (   0.8333333   0.4811252   1.8740000  )
        25           Co  tau(  25) = (   0.3333333   0.7698004   1.8740000  )
        26           Co  tau(  26) = (   0.6666667   0.7698004   1.8740000  )
        27           Co  tau(  27) = (   1.0000000   0.7698004   1.8740000  )
        28           Co  tau(  28) = (   0.0000000   0.0000000   2.1443333  )
        29           Co  tau(  29) = (   0.3333333   0.0000000   2.1443333  )
        30           Co  tau(  30) = (   0.6666667   0.0000000   2.1443333  )
        31           Co  tau(  31) = (   0.1666667   0.2886751   2.1443333  )
        32           Co  tau(  32) = (   0.5000000   0.2886751   2.1443333  )
        33           Co  tau(  33) = (   0.8333333   0.2886751   2.1443333  )
        34           Co  tau(  34) = (   0.3333333   0.5773503   2.1443333  )
        35           Co  tau(  35) = (   0.6666667   0.5773503   2.1443333  )
        36           Co  tau(  36) = (   1.0000000   0.5773503   2.1443333  )
        37           C   tau(  37) = (   0.3510518   0.2026774   2.3328603  )
        38           O   tau(  38) = (   0.2457017   0.1477114   2.4480326  )
        39           H   tau(  39) = (   0.4813016   0.2758456   2.3860562  )

     number of k points=    13  Marzari-Vanderbilt smearing, width (Ry)=  0.0010
                       cart. coord. in units 2pi/alat
        k(    1) = (   0.0000000   0.0000000   0.0000000), wk =   0.0400000
        k(    2) = (   0.0000000   0.2309401   0.0000000), wk =   0.0800000
        k(    3) = (   0.0000000   0.4618802   0.0000000), wk =   0.0800000
        k(    4) = (   0.2000000  -0.1154701   0.0000000), wk =   0.0800000
        k(    5) = (   0.2000000   0.1154701   0.0000000), wk =   0.0800000
        k(    6) = (   0.2000000   0.3464102   0.0000000), wk =   0.0800000
        k(    7) = (   0.2000000  -0.5773503   0.0000000), wk =   0.0800000
        k(    8) = (   0.2000000  -0.3464102   0.0000000), wk =   0.0800000
        k(    9) = (   0.4000000  -0.2309401   0.0000000), wk =   0.0800000
        k(   10) = (   0.4000000   0.0000000   0.0000000), wk =   0.0800000
        k(   11) = (   0.4000000   0.2309401   0.0000000), wk =   0.0800000
        k(   12) = (   0.4000000  -0.6928203   0.0000000), wk =   0.0800000
        k(   13) = (   0.4000000  -0.4618802   0.0000000), wk =   0.0800000

     Dense  grid:   752179 G-vectors     FFT dimensions: (  80,  80, 288)

     Smooth grid:   409445 G-vectors     FFT dimensions: (  64,  64, 225)

     Estimated max dynamical RAM per process >      99.02 MB

     Estimated total dynamical RAM >       9.28 GB
     Generating pointlists ...
     new r_m :   0.1001 (alat units)  1.4194 (a.u.) for type    1
     new r_m :   0.0654 (alat units)  0.9271 (a.u.) for type    2
     new r_m :   0.0683 (alat units)  0.9675 (a.u.) for type    3
     new r_m :   0.0654 (alat units)  0.9271 (a.u.) for type    4

     Initial potential from superposition of free atoms

     starting charge     334.9897, renormalised to     335.0000

     negative rho (up, down):  3.064E-03 4.704E-04


     %%%%%%%%%%%%%%%%%%%%%%%%%%%%%%%%%%%%%%%%%%%%%%%%%%%%%%%%%%%%%%%%%%%%%%%%
     %                                                                      %
     % You are using vdW-DF, which was implemented by the Thonhauser group. %
     % Please cite the following two papers that made this development      %
     % possible and the two reviews that describe the various versions:     %
     %                                                                      %
     %   T. Thonhauser et al., PRL 115, 136402 (2015).                      %
     %   T. Thonhauser et al., PRB 76, 125112 (2007).                       %
     %   K. Berland et al., Rep. Prog. Phys. 78, 066501 (2015).             %
     %   D.C. Langreth et al., J. Phys.: Condens. Matter 21, 084203 (2009). %
     %                                                                      %
     % If you are calculating stress with vdW-DF, please also cite:         %
     %                                                                      %
     %   R. Sabatini et al., J. Phys.: Condens. Matter 24, 424209 (2012).   %
     %   C.M. Frostenson et al., Electr. Struct. 4, 014001 (2022).          %
     %                                                                      %
     %%%%%%%%%%%%%%%%%%%%%%%%%%%%%%%%%%%%%%%%%%%%%%%%%%%%%%%%%%%%%%%%%%%%%%%%

     %%%%%%%%%%%%%%%%%%%%%%%%%%%%%%%%%%%%%%%%%%%%%%%%%%%%%%%%%%%%%%%%%%%%%%%%
     %                                                                      %
     %  vdW-DF NEWS:                                                        %
     %                                                                      %
     %  * vdW-DF3 is now available. DOI: 10.1021/acs.jctc.0c00471           %
     %    use with input_dft = 'vdW-DF3-opt1' or 'vdW-DF3-opt2'             %
     %                                                                      %
     %  * Unscreened and range-separated hybrid vdW-DF-cx functionals       %
     %    DOI: 10.1063/1.4986522 and 10.1088/1361-648X/ac2ad2               %
     %    use with input_dft = 'vdW-DF-cx0'    and 'vdW-DF-ahcx'            %
     %  * Unscreened and range-separated hybrid vdW-DF2-b86r functionals    %
     %    DOI: 10.1063/1.4986522 and DOI: 10.1103/PhysRevX.12.041003        %
     %    use with input_dft = 'vdW-DF2-br0' and 'vdW-DF2-ahbr'             %
     %                                                                      %
     %%%%%%%%%%%%%%%%%%%%%%%%%%%%%%%%%%%%%%%%%%%%%%%%%%%%%%%%%%%%%%%%%%%%%%%%


     Starting wfcs are  333 randomized atomic wfcs
     Checking if some PAW data can be deallocated... 

     total cpu time spent up to now is       16.1 secs

     per-process dynamical memory:   230.9 Mb

     Self-consistent Calculation

     iteration #  1     ecut=    50.00 Ry     beta= 0.70
     Davidson diagonalization with overlap
     ethr =  1.00E-02,  avg # of iterations =  2.0

     negative rho (up, down):  2.672E-05 3.848E-08

     total cpu time spent up to now is       38.8 secs

     total energy              =   -6053.07488370 Ry
     estimated scf accuracy    <      39.43669802 Ry

     total magnetization       =    69.00 Bohr mag/cell
     absolute magnetization    =    81.33 Bohr mag/cell

     iteration #  2     ecut=    50.00 Ry     beta= 0.70
     Davidson diagonalization with overlap
     ethr =  1.00E-02,  avg # of iterations =  1.0

     negative rho (up, down):  3.161E-06 1.136E-08

     total cpu time spent up to now is       52.7 secs

     total energy              =   -6052.59816774 Ry
     estimated scf accuracy    <      24.04054883 Ry

     total magnetization       =    68.52 Bohr mag/cell
     absolute magnetization    =    76.72 Bohr mag/cell

     iteration #  3     ecut=    50.00 Ry     beta= 0.70
     Davidson diagonalization with overlap
     ethr =  7.18E-03,  avg # of iterations =  1.2

     negative rho (up, down):  1.024E-08 0.000E+00

     total cpu time spent up to now is       71.7 secs

     total energy              =   -6055.08766438 Ry
     estimated scf accuracy    <      87.16122983 Ry

     total magnetization       =    65.68 Bohr mag/cell
     absolute magnetization    =    73.10 Bohr mag/cell

     iteration #  4     ecut=    50.00 Ry     beta= 0.70
     Davidson diagonalization with overlap
     ethr =  7.18E-03,  avg # of iterations =  1.0

     total cpu time spent up to now is       85.3 secs

     total energy              =   -6056.34545527 Ry
     estimated scf accuracy    <       5.46409767 Ry

     total magnetization       =    60.49 Bohr mag/cell
     absolute magnetization    =    70.46 Bohr mag/cell

     iteration #  5     ecut=    50.00 Ry     beta= 0.70
     Davidson diagonalization with overlap
     ethr =  1.63E-03,  avg # of iterations =  1.5

     total cpu time spent up to now is      104.6 secs

     total energy              =   -6056.35016879 Ry
     estimated scf accuracy    <       2.17304000 Ry

     total magnetization       =    60.30 Bohr mag/cell
     absolute magnetization    =    69.79 Bohr mag/cell

     iteration #  6     ecut=    50.00 Ry     beta= 0.70
     Davidson diagonalization with overlap
     ethr =  6.49E-04,  avg # of iterations =  1.6

     total cpu time spent up to now is      119.3 secs

     total energy              =   -6056.46658851 Ry
     estimated scf accuracy    <       0.64000090 Ry

     total magnetization       =    60.20 Bohr mag/cell
     absolute magnetization    =    69.48 Bohr mag/cell

     iteration #  7     ecut=    50.00 Ry     beta= 0.70
     Davidson diagonalization with overlap
     ethr =  1.91E-04,  avg # of iterations =  5.0

     total cpu time spent up to now is      142.3 secs

     total energy              =   -6056.50364061 Ry
     estimated scf accuracy    <       0.77559761 Ry

     total magnetization       =    60.20 Bohr mag/cell
     absolute magnetization    =    69.20 Bohr mag/cell

     iteration #  8     ecut=    50.00 Ry     beta= 0.70
     Davidson diagonalization with overlap
     ethr =  1.91E-04,  avg # of iterations =  1.5

     total cpu time spent up to now is      160.7 secs

     total energy              =   -6056.51651097 Ry
     estimated scf accuracy    <       0.12710242 Ry

     total magnetization       =    60.20 Bohr mag/cell
     absolute magnetization    =    69.06 Bohr mag/cell

     iteration #  9     ecut=    50.00 Ry     beta= 0.70
     Davidson diagonalization with overlap
     c_bands:  1 eigenvalues not converged
     c_bands:  1 eigenvalues not converged
     ethr =  3.79E-05,  avg # of iterations = 12.3

     total cpu time spent up to now is      196.7 secs

     total energy              =   -6056.53656555 Ry
     estimated scf accuracy    <       0.22674185 Ry

     total magnetization       =    60.91 Bohr mag/cell
     absolute magnetization    =    68.93 Bohr mag/cell

     iteration # 10     ecut=    50.00 Ry     beta= 0.70
     Davidson diagonalization with overlap
     ethr =  3.79E-05,  avg # of iterations =  1.8

     total cpu time spent up to now is      210.9 secs

     total energy              =   -6056.54441724 Ry
     estimated scf accuracy    <       0.21066361 Ry

     total magnetization       =    61.09 Bohr mag/cell
     absolute magnetization    =    68.90 Bohr mag/cell

     iteration # 11     ecut=    50.00 Ry     beta= 0.70
     Davidson diagonalization with overlap
     ethr =  3.79E-05,  avg # of iterations =  1.0

     total cpu time spent up to now is      228.1 secs

     total energy              =   -6056.52990176 Ry
     estimated scf accuracy    <       0.10026694 Ry

     total magnetization       =    61.10 Bohr mag/cell
     absolute magnetization    =    68.85 Bohr mag/cell

     iteration # 12     ecut=    50.00 Ry     beta= 0.70
     Davidson diagonalization with overlap
     ethr =  2.99E-05,  avg # of iterations =  2.0

     negative rho (up, down):  8.806E-08 0.000E+00

     total cpu time spent up to now is      248.6 secs

     total energy              =   -6056.53460573 Ry
     estimated scf accuracy    <       0.10636235 Ry

     total magnetization       =    61.01 Bohr mag/cell
     absolute magnetization    =    68.53 Bohr mag/cell

     iteration # 13     ecut=    50.00 Ry     beta= 0.70
     Davidson diagonalization with overlap
     ethr =  2.99E-05,  avg # of iterations =  1.0

     total cpu time spent up to now is      261.5 secs

     total energy              =   -6056.53373685 Ry
     estimated scf accuracy    <       0.09246834 Ry

     total magnetization       =    61.07 Bohr mag/cell
     absolute magnetization    =    68.51 Bohr mag/cell

     iteration # 14     ecut=    50.00 Ry     beta= 0.70
     Davidson diagonalization with overlap
     ethr =  2.76E-05,  avg # of iterations =  1.3

     total cpu time spent up to now is      279.4 secs

     total energy              =   -6056.53166563 Ry
     estimated scf accuracy    <       0.06949191 Ry

     total magnetization       =    61.11 Bohr mag/cell
     absolute magnetization    =    68.56 Bohr mag/cell

     iteration # 15     ecut=    50.00 Ry     beta= 0.70
     Davidson diagonalization with overlap
     ethr =  2.07E-05,  avg # of iterations =  1.0

     negative rho (up, down):  1.291E-04 4.415E-05

     total cpu time spent up to now is      292.5 secs

     total energy              =   -6056.52906770 Ry
     estimated scf accuracy    <       0.11974864 Ry

     total magnetization       =    61.07 Bohr mag/cell
     absolute magnetization    =    68.54 Bohr mag/cell

     iteration # 16     ecut=    50.00 Ry     beta= 0.70
     Davidson diagonalization with overlap
     ethr =  2.07E-05,  avg # of iterations =  1.3

     negative rho (up, down):  6.954E-03 6.301E-03

     total cpu time spent up to now is      311.9 secs

     total energy              =   -6056.52463360 Ry
     estimated scf accuracy    <       0.10246661 Ry

     total magnetization       =    61.10 Bohr mag/cell
     absolute magnetization    =    68.49 Bohr mag/cell

     iteration # 17     ecut=    50.00 Ry     beta= 0.70
     Davidson diagonalization with overlap
     ethr =  2.07E-05,  avg # of iterations =  1.3

     negative rho (up, down):  2.297E-02 2.193E-02

     total cpu time spent up to now is      325.2 secs

     total energy              =   -6056.52206630 Ry
     estimated scf accuracy    <       0.06509779 Ry

     total magnetization       =    61.09 Bohr mag/cell
     absolute magnetization    =    68.48 Bohr mag/cell

     iteration # 18     ecut=    50.00 Ry     beta= 0.70
     Davidson diagonalization with overlap
     ethr =  1.94E-05,  avg # of iterations =  1.2

     negative rho (up, down):  2.042E-02 1.922E-02

     total cpu time spent up to now is      343.5 secs

     total energy              =   -6056.52222852 Ry
     estimated scf accuracy    <       0.01474017 Ry

     total magnetization       =    61.08 Bohr mag/cell
     absolute magnetization    =    68.45 Bohr mag/cell

     iteration # 19     ecut=    50.00 Ry     beta= 0.70
     Davidson diagonalization with overlap
     c_bands:  2 eigenvalues not converged
     ethr =  4.40E-06,  avg # of iterations =  4.1

     negative rho (up, down):  1.821E-02 1.700E-02

     total cpu time spent up to now is      361.0 secs

     total energy              =   -6056.52168347 Ry
     estimated scf accuracy    <       0.02225566 Ry

     total magnetization       =    61.08 Bohr mag/cell
     absolute magnetization    =    68.46 Bohr mag/cell

     iteration # 20     ecut=    50.00 Ry     beta= 0.70
     Davidson diagonalization with overlap
     ethr =  4.40E-06,  avg # of iterations =  1.2

     negative rho (up, down):  2.383E-02 2.252E-02

     total cpu time spent up to now is      379.0 secs

     total energy              =   -6056.52136273 Ry
     estimated scf accuracy    <       0.01760130 Ry

     total magnetization       =    61.08 Bohr mag/cell
     absolute magnetization    =    68.48 Bohr mag/cell

     iteration # 21     ecut=    50.00 Ry     beta= 0.70
     Davidson diagonalization with overlap
     ethr =  4.40E-06,  avg # of iterations =  1.2

     negative rho (up, down):  2.025E-02 1.902E-02

     total cpu time spent up to now is      397.0 secs

     total energy              =   -6056.52114549 Ry
     estimated scf accuracy    <       0.01331935 Ry

     total magnetization       =    61.08 Bohr mag/cell
     absolute magnetization    =    68.48 Bohr mag/cell

     iteration # 22     ecut=    50.00 Ry     beta= 0.70
     Davidson diagonalization with overlap
     ethr =  3.98E-06,  avg # of iterations =  1.0

     negative rho (up, down):  1.136E-02 1.059E-02

     total cpu time spent up to now is      410.0 secs

     total energy              =   -6056.51947116 Ry
     estimated scf accuracy    <       0.00622171 Ry

     total magnetization       =    61.08 Bohr mag/cell
     absolute magnetization    =    68.48 Bohr mag/cell

     iteration # 23     ecut=    50.00 Ry     beta= 0.70
     Davidson diagonalization with overlap
     ethr =  1.86E-06,  avg # of iterations =  2.1

     negative rho (up, down):  1.334E-02 1.266E-02

     total cpu time spent up to now is      430.5 secs

     total energy              =   -6056.51959364 Ry
     estimated scf accuracy    <       0.00812110 Ry

     total magnetization       =    61.08 Bohr mag/cell
     absolute magnetization    =    68.52 Bohr mag/cell

     iteration # 24     ecut=    50.00 Ry     beta= 0.70
     Davidson diagonalization with overlap
     ethr =  1.86E-06,  avg # of iterations =  1.3

     negative rho (up, down):  1.144E-02 1.081E-02

     total cpu time spent up to now is      443.9 secs

     total energy              =   -6056.51987390 Ry
     estimated scf accuracy    <       0.00178981 Ry

     total magnetization       =    61.08 Bohr mag/cell
     absolute magnetization    =    68.53 Bohr mag/cell

     iteration # 25     ecut=    50.00 Ry     beta= 0.70
     Davidson diagonalization with overlap
     ethr =  5.34E-07,  avg # of iterations =  2.0

     negative rho (up, down):  8.475E-03 7.861E-03

     total cpu time spent up to now is      463.0 secs

     total energy              =   -6056.51987945 Ry
     estimated scf accuracy    <       0.00049613 Ry

     total magnetization       =    61.08 Bohr mag/cell
     absolute magnetization    =    68.54 Bohr mag/cell

     iteration # 26     ecut=    50.00 Ry     beta= 0.70
     Davidson diagonalization with overlap
     ethr =  1.48E-07,  avg # of iterations =  5.2

     negative rho (up, down):  5.625E-03 4.947E-03

     total cpu time spent up to now is      481.2 secs

     total energy              =   -6056.51997922 Ry
     estimated scf accuracy    <       0.00063107 Ry

     total magnetization       =    61.08 Bohr mag/cell
     absolute magnetization    =    68.54 Bohr mag/cell

     iteration # 27     ecut=    50.00 Ry     beta= 0.70
     Davidson diagonalization with overlap
     ethr =  1.48E-07,  avg # of iterations =  1.8

     negative rho (up, down):  4.884E-03 4.139E-03

     total cpu time spent up to now is      500.3 secs

     total energy              =   -6056.52001260 Ry
     estimated scf accuracy    <       0.00042437 Ry

     total magnetization       =    61.08 Bohr mag/cell
     absolute magnetization    =    68.54 Bohr mag/cell

     iteration # 28     ecut=    50.00 Ry     beta= 0.70
     Davidson diagonalization with overlap
     ethr =  1.27E-07,  avg # of iterations =  1.2

     negative rho (up, down):  3.435E-03 2.544E-03

     total cpu time spent up to now is      518.6 secs

     total energy              =   -6056.52000258 Ry
     estimated scf accuracy    <       0.00018350 Ry

     total magnetization       =    61.08 Bohr mag/cell
     absolute magnetization    =    68.54 Bohr mag/cell

     iteration # 29     ecut=    50.00 Ry     beta= 0.70
     Davidson diagonalization with overlap
     ethr =  5.48E-08,  avg # of iterations =  2.2

     negative rho (up, down):  2.215E-03 1.106E-03

     total cpu time spent up to now is      533.2 secs

     total energy              =   -6056.52003939 Ry
     estimated scf accuracy    <       0.00038410 Ry

     total magnetization       =    61.08 Bohr mag/cell
     absolute magnetization    =    68.54 Bohr mag/cell

     iteration # 30     ecut=    50.00 Ry     beta= 0.70
     Davidson diagonalization with overlap
     ethr =  5.48E-08,  avg # of iterations =  1.8

     negative rho (up, down):  2.722E-03 1.615E-03

     total cpu time spent up to now is      553.0 secs

     total energy              =   -6056.52004446 Ry
     estimated scf accuracy    <       0.00039450 Ry

     total magnetization       =    61.08 Bohr mag/cell
     absolute magnetization    =    68.54 Bohr mag/cell

     iteration # 31     ecut=    50.00 Ry     beta= 0.70
     Davidson diagonalization with overlap
     ethr =  5.48E-08,  avg # of iterations =  1.0

     negative rho (up, down):  2.600E-03 1.493E-03

     total cpu time spent up to now is      566.1 secs

     total energy              =   -6056.52005060 Ry
     estimated scf accuracy    <       0.00006944 Ry

     total magnetization       =    61.08 Bohr mag/cell
     absolute magnetization    =    68.54 Bohr mag/cell

     iteration # 32     ecut=    50.00 Ry     beta= 0.70
     Davidson diagonalization with overlap
     ethr =  2.07E-08,  avg # of iterations =  2.2

     negative rho (up, down):  2.647E-03 1.521E-03

     total cpu time spent up to now is      585.1 secs

     total energy              =   -6056.52005834 Ry
     estimated scf accuracy    <       0.00004025 Ry

     total magnetization       =    61.08 Bohr mag/cell
     absolute magnetization    =    68.54 Bohr mag/cell

     iteration # 33     ecut=    50.00 Ry     beta= 0.70
     Davidson diagonalization with overlap
     ethr =  1.20E-08,  avg # of iterations =  3.2

     negative rho (up, down):  2.716E-03 1.684E-03

     total cpu time spent up to now is      600.4 secs

     total energy              =   -6056.52006336 Ry
     estimated scf accuracy    <       0.00004645 Ry

     total magnetization       =    61.08 Bohr mag/cell
     absolute magnetization    =    68.54 Bohr mag/cell

     iteration # 34     ecut=    50.00 Ry     beta= 0.70
     Davidson diagonalization with overlap
     ethr =  1.20E-08,  avg # of iterations =  2.0

     negative rho (up, down):  2.544E-03 1.463E-03

     total cpu time spent up to now is      619.6 secs

     total energy              =   -6056.52006141 Ry
     estimated scf accuracy    <       0.00007556 Ry

     total magnetization       =    61.08 Bohr mag/cell
     absolute magnetization    =    68.54 Bohr mag/cell

     iteration # 35     ecut=    50.00 Ry     beta= 0.70
     Davidson diagonalization with overlap
     ethr =  1.20E-08,  avg # of iterations =  1.5

     negative rho (up, down):  2.557E-03 1.506E-03

     total cpu time spent up to now is      637.9 secs

     total energy              =   -6056.52006274 Ry
     estimated scf accuracy    <       0.00002804 Ry

     total magnetization       =    61.08 Bohr mag/cell
     absolute magnetization    =    68.54 Bohr mag/cell

     iteration # 36     ecut=    50.00 Ry     beta= 0.70
     Davidson diagonalization with overlap
     ethr =  8.37E-09,  avg # of iterations =  1.5

     negative rho (up, down):  2.539E-03 1.467E-03

     total cpu time spent up to now is      651.7 secs

     total energy              =   -6056.52006378 Ry
     estimated scf accuracy    <       0.00000708 Ry

     total magnetization       =    61.08 Bohr mag/cell
     absolute magnetization    =    68.54 Bohr mag/cell

     iteration # 37     ecut=    50.00 Ry     beta= 0.70
     Davidson diagonalization with overlap
     ethr =  2.11E-09,  avg # of iterations =  7.1

     negative rho (up, down):  2.519E-03 1.448E-03

     total cpu time spent up to now is      675.5 secs

     total energy              =   -6056.52006408 Ry
     estimated scf accuracy    <       0.00000535 Ry

     total magnetization       =    61.08 Bohr mag/cell
     absolute magnetization    =    68.54 Bohr mag/cell

     iteration # 38     ecut=    50.00 Ry     beta= 0.70
     Davidson diagonalization with overlap
     ethr =  1.60E-09,  avg # of iterations =  1.7

     negative rho (up, down):  2.489E-03 1.411E-03

     total cpu time spent up to now is      689.8 secs

     total energy              =   -6056.52006429 Ry
     estimated scf accuracy    <       0.00000135 Ry

     total magnetization       =    61.08 Bohr mag/cell
     absolute magnetization    =    68.54 Bohr mag/cell

     iteration # 39     ecut=    50.00 Ry     beta= 0.70
     Davidson diagonalization with overlap
     ethr =  4.04E-10,  avg # of iterations =  5.2

     negative rho (up, down):  2.426E-03 1.324E-03

     total cpu time spent up to now is      712.1 secs

     total energy              =   -6056.52006451 Ry
     estimated scf accuracy    <       0.00000108 Ry

     total magnetization       =    61.08 Bohr mag/cell
     absolute magnetization    =    68.54 Bohr mag/cell

     iteration # 40     ecut=    50.00 Ry     beta= 0.70
     Davidson diagonalization with overlap
     ethr =  3.24E-10,  avg # of iterations =  2.3

     negative rho (up, down):  2.423E-03 1.326E-03

     total cpu time spent up to now is      731.8 secs

     total energy              =   -6056.52006452 Ry
     estimated scf accuracy    <       0.00000102 Ry

     total magnetization       =    61.08 Bohr mag/cell
     absolute magnetization    =    68.54 Bohr mag/cell

     iteration # 41     ecut=    50.00 Ry     beta= 0.70
     Davidson diagonalization with overlap
     ethr =  3.05E-10,  avg # of iterations =  1.3

     negative rho (up, down):  2.343E-03 1.238E-03

     total cpu time spent up to now is      745.3 secs

     total energy              =   -6056.52006442 Ry
     estimated scf accuracy    <       0.00000130 Ry

     total magnetization       =    61.08 Bohr mag/cell
     absolute magnetization    =    68.54 Bohr mag/cell

     iteration # 42     ecut=    50.00 Ry     beta= 0.70
     Davidson diagonalization with overlap
     ethr =  3.05E-10,  avg # of iterations =  1.8

     negative rho (up, down):  2.319E-03 1.214E-03

     total cpu time spent up to now is      764.3 secs

     total energy              =   -6056.52006442 Ry
     estimated scf accuracy    <       0.00000116 Ry

     total magnetization       =    61.08 Bohr mag/cell
     absolute magnetization    =    68.54 Bohr mag/cell

     iteration # 43     ecut=    50.00 Ry     beta= 0.70
     Davidson diagonalization with overlap
     ethr =  3.05E-10,  avg # of iterations =  1.0

     negative rho (up, down):  2.307E-03 1.203E-03

     total cpu time spent up to now is      777.3 secs

     total energy              =   -6056.52006441 Ry
     estimated scf accuracy    <       0.00000062 Ry

     total magnetization       =    61.08 Bohr mag/cell
     absolute magnetization    =    68.54 Bohr mag/cell

     iteration # 44     ecut=    50.00 Ry     beta= 0.70
     Davidson diagonalization with overlap
     ethr =  1.85E-10,  avg # of iterations =  2.2

     negative rho (up, down):  2.297E-03 1.194E-03

     total cpu time spent up to now is      797.5 secs

     total energy              =   -6056.52006437 Ry
     estimated scf accuracy    <       0.00000231 Ry

     total magnetization       =    61.08 Bohr mag/cell
     absolute magnetization    =    68.54 Bohr mag/cell

     iteration # 45     ecut=    50.00 Ry     beta= 0.70
     Davidson diagonalization with overlap
     ethr =  1.85E-10,  avg # of iterations =  1.3

     negative rho (up, down):  2.305E-03 1.203E-03

     total cpu time spent up to now is      811.4 secs

     total energy              =   -6056.52006447 Ry
     estimated scf accuracy    <       0.00000047 Ry

     total magnetization       =    61.08 Bohr mag/cell
     absolute magnetization    =    68.54 Bohr mag/cell

     iteration # 46     ecut=    50.00 Ry     beta= 0.70
     Davidson diagonalization with overlap
     ethr =  1.41E-10,  avg # of iterations =  1.2

     negative rho (up, down):  2.311E-03 1.210E-03

     total cpu time spent up to now is      829.4 secs

     total energy              =   -6056.52006448 Ry
     estimated scf accuracy    <       0.00000059 Ry

     total magnetization       =    61.08 Bohr mag/cell
     absolute magnetization    =    68.54 Bohr mag/cell

     iteration # 47     ecut=    50.00 Ry     beta= 0.70
     Davidson diagonalization with overlap
     ethr =  1.41E-10,  avg # of iterations =  1.2

     negative rho (up, down):  2.285E-03 1.184E-03

     total cpu time spent up to now is      847.5 secs

     total energy              =   -6056.52006446 Ry
     estimated scf accuracy    <       0.00000044 Ry

     total magnetization       =    61.08 Bohr mag/cell
     absolute magnetization    =    68.54 Bohr mag/cell

     iteration # 48     ecut=    50.00 Ry     beta= 0.70
     Davidson diagonalization with overlap
     ethr =  1.33E-10,  avg # of iterations =  1.0

     negative rho (up, down):  2.261E-03 1.161E-03

     total cpu time spent up to now is      861.6 secs

     total energy              =   -6056.52006445 Ry
     estimated scf accuracy    <       0.00000013 Ry

     total magnetization       =    61.08 Bohr mag/cell
     absolute magnetization    =    68.54 Bohr mag/cell

     iteration # 49     ecut=    50.00 Ry     beta= 0.70
     Davidson diagonalization with overlap
     ethr =  4.00E-11,  avg # of iterations =  2.3

     negative rho (up, down):  2.270E-03 1.170E-03

     total cpu time spent up to now is      880.9 secs

     total energy              =   -6056.52006447 Ry
     estimated scf accuracy    <       0.00000003 Ry

     total magnetization       =    61.08 Bohr mag/cell
     absolute magnetization    =    68.54 Bohr mag/cell

     iteration # 50     ecut=    50.00 Ry     beta= 0.70
     Davidson diagonalization with overlap
     ethr =  1.04E-11,  avg # of iterations =  5.3

     negative rho (up, down):  2.260E-03 1.161E-03

     total cpu time spent up to now is      898.4 secs

     total energy              =   -6056.52006446 Ry
     estimated scf accuracy    <       0.00000009 Ry

     total magnetization       =    61.08 Bohr mag/cell
     absolute magnetization    =    68.54 Bohr mag/cell

     iteration # 51     ecut=    50.00 Ry     beta= 0.70
     Davidson diagonalization with overlap
     ethr =  1.04E-11,  avg # of iterations =  1.8

     negative rho (up, down):  2.249E-03 1.150E-03

     total cpu time spent up to now is      918.6 secs

     total energy              =   -6056.52006444 Ry
     estimated scf accuracy    <       0.00000008 Ry

     total magnetization       =    61.08 Bohr mag/cell
     absolute magnetization    =    68.54 Bohr mag/cell

     iteration # 52     ecut=    50.00 Ry     beta= 0.70
     Davidson diagonalization with overlap
     ethr =  1.04E-11,  avg # of iterations =  1.4

     negative rho (up, down):  2.251E-03 1.152E-03

     total cpu time spent up to now is      937.3 secs

     total energy              =   -6056.52006445 Ry
     estimated scf accuracy    <       0.00000004 Ry

     total magnetization       =    61.08 Bohr mag/cell
     absolute magnetization    =    68.54 Bohr mag/cell

     iteration # 53     ecut=    50.00 Ry     beta= 0.70
     Davidson diagonalization with overlap
     ethr =  1.04E-11,  avg # of iterations =  1.0

     negative rho (up, down):  2.248E-03 1.150E-03

     total cpu time spent up to now is      950.5 secs

     total energy              =   -6056.52006445 Ry
     estimated scf accuracy    <       0.00000002 Ry

     total magnetization       =    61.08 Bohr mag/cell
     absolute magnetization    =    68.54 Bohr mag/cell

     iteration # 54     ecut=    50.00 Ry     beta= 0.70
     Davidson diagonalization with overlap
     ethr =  5.25E-12,  avg # of iterations =  1.2

     negative rho (up, down):  2.249E-03 1.150E-03

     total cpu time spent up to now is      969.0 secs

     total energy              =   -6056.52006445 Ry
     estimated scf accuracy    <       0.00000001 Ry

     total magnetization       =    61.08 Bohr mag/cell
     absolute magnetization    =    68.54 Bohr mag/cell

     iteration # 55     ecut=    50.00 Ry     beta= 0.70
     Davidson diagonalization with overlap
     ethr =  3.24E-12,  avg # of iterations =  1.9

     negative rho (up, down):  2.253E-03 1.154E-03

     total cpu time spent up to now is      984.5 secs

     total energy              =   -6056.52006445 Ry
     estimated scf accuracy    <       0.00000002 Ry

     total magnetization       =    61.08 Bohr mag/cell
     absolute magnetization    =    68.54 Bohr mag/cell

     iteration # 56     ecut=    50.00 Ry     beta= 0.70
     Davidson diagonalization with overlap
     ethr =  3.24E-12,  avg # of iterations =  1.2

     negative rho (up, down):  2.247E-03 1.149E-03

     total cpu time spent up to now is     1002.9 secs

     total energy              =   -6056.52006445 Ry
     estimated scf accuracy    <       0.00000001 Ry

     total magnetization       =    61.08 Bohr mag/cell
     absolute magnetization    =    68.54 Bohr mag/cell

     iteration # 57     ecut=    50.00 Ry     beta= 0.70
     Davidson diagonalization with overlap
     ethr =  3.14E-12,  avg # of iterations =  1.5

     negative rho (up, down):  2.245E-03 1.147E-03

     Magnetic moment per site  (integrated on atomic sphere of radius R)
     atom   1 (R=0.100)  charge=  6.1223  magn=  1.7470
     atom   2 (R=0.100)  charge=  6.1232  magn=  1.7392
     atom   3 (R=0.100)  charge=  6.1222  magn=  1.7463
     atom   4 (R=0.100)  charge=  6.1220  magn=  1.7470
     atom   5 (R=0.100)  charge=  6.1221  magn=  1.7468
     atom   6 (R=0.100)  charge=  6.1220  magn=  1.7513
     atom   7 (R=0.100)  charge=  6.1221  magn=  1.7537
     atom   8 (R=0.100)  charge=  6.1223  magn=  1.7468
     atom   9 (R=0.100)  charge=  6.1220  magn=  1.7472
     atom  10 (R=0.100)  charge=  6.1268  magn=  1.6737
     atom  11 (R=0.100)  charge=  6.1263  magn=  1.6715
     atom  12 (R=0.100)  charge=  6.1261  magn=  1.6746
     atom  13 (R=0.100)  charge=  6.1263  magn=  1.6719
     atom  14 (R=0.100)  charge=  6.1264  magn=  1.6760
     atom  15 (R=0.100)  charge=  6.1261  magn=  1.6800
     atom  16 (R=0.100)  charge=  6.1261  magn=  1.6741
     atom  17 (R=0.100)  charge=  6.1261  magn=  1.6798
     atom  18 (R=0.100)  charge=  6.1256  magn=  1.6766
     atom  19 (R=0.100)  charge=  6.1252  magn=  1.6819
     atom  20 (R=0.100)  charge=  6.1220  magn=  1.7001
     atom  21 (R=0.100)  charge=  6.1246  magn=  1.6745
     atom  22 (R=0.100)  charge=  6.1249  magn=  1.6859
     atom  23 (R=0.100)  charge=  6.1244  magn=  1.6746
     atom  24 (R=0.100)  charge=  6.1245  magn=  1.6859
     atom  25 (R=0.100)  charge=  6.1262  magn=  1.6873
     atom  26 (R=0.100)  charge=  6.1252  magn=  1.6820
     atom  27 (R=0.100)  charge=  6.1249  magn=  1.6861
     atom  28 (R=0.100)  charge=  6.1249  magn=  1.7579
     atom  29 (R=0.100)  charge=  6.1425  magn=  1.4989
     atom  30 (R=0.100)  charge=  6.1242  magn=  1.7595
     atom  31 (R=0.100)  charge=  6.1425  magn=  1.5080
     atom  32 (R=0.100)  charge=  6.1494  magn=  1.2520
     atom  33 (R=0.100)  charge=  6.1240  magn=  1.7361
     atom  34 (R=0.100)  charge=  6.1242  magn=  1.7601
     atom  35 (R=0.100)  charge=  6.1238  magn=  1.7358
     atom  36 (R=0.100)  charge=  6.1203  magn=  1.7518
     atom  37 (R=0.065)  charge=  1.0384  magn= -0.0216
     atom  38 (R=0.068)  charge=  3.1139  magn=  0.0105
     atom  39 (R=0.065)  charge=  0.5283  magn=  0.0058

     total cpu time spent up to now is     1016.2 secs

     End of self-consistent calculation

 ------ SPIN UP ------------


          k = 0.0000 0.0000 0.0000 ( 51087 PWs)   bands (ev):

   -21.5850 -10.7814  -7.5705  -6.9797  -6.2996  -5.7467  -5.4556  -4.7059
    -4.6820  -4.6807  -4.6786  -4.6627  -4.6430  -4.6174  -4.3114  -4.1487
    -4.1472  -4.1453  -4.1201  -4.0966  -4.0834  -3.6342  -3.6270  -3.6265
    -3.6177  -3.6056  -3.5724  -3.5039  -3.5023  -3.4992  -3.4948  -3.4899
    -3.4531  -3.4269  -3.4240  -3.1299  -3.1126  -3.1109  -3.1068  -3.0952
    -3.0600  -3.0445  -3.0402  -3.0390  -3.0329  -3.0269  -3.0243  -2.8816
    -2.8792  -2.8596  -2.8290  -2.8093  -2.8059  -2.8031  -2.7883  -2.7777
    -2.7742  -2.7712  -2.7674  -2.6748  -2.6727  -2.6647  -2.6621  -2.6596
    -2.5990  -2.3746  -2.1416  -2.1351  -2.1338  -2.1192  -2.1069  -2.0272
    -2.0136  -1.9976  -1.9812  -1.9697  -1.9653  -1.9586  -1.9551  -1.9546
    -1.9412  -1.8973  -1.8925  -1.8459  -1.8449  -1.8356  -1.8281  -1.8178
    -1.8084  -1.8054  -1.8041  -1.8003  -1.7841  -1.7778  -1.7736  -1.7662
    -1.7621  -1.7619  -1.7594  -1.7570  -1.7566  -1.7500  -1.7491  -1.7457
    -1.7449  -1.7033  -1.6728  -1.6717  -1.6631  -1.5976  -1.5946  -1.5431
    -1.3549  -1.3342  -1.3007  -1.2994  -1.2952  -1.2931  -1.2818  -1.2795
    -1.2673  -1.2650  -1.2267  -1.2171  -1.2126  -1.1540  -1.0901  -1.0833
    -1.0538  -1.0510  -0.9657  -0.9107  -0.8967  -0.8772  -0.8741  -0.8567
    -0.8121  -0.8069  -0.8058  -0.7998  -0.7982  -0.7748  -0.6887  -0.6831
    -0.5797  -0.5678  -0.5637  -0.5620  -0.5289  -0.5227  -0.5048  -0.4991
    -0.4980  -0.4935  -0.4850  -0.4840  -0.4808  -0.4789  -0.4769  -0.4678
    -0.4663  -0.4657  -0.4485  -0.4310  -0.4234  -0.4164  -0.4094  -0.4046
    -0.4007  -0.3907  -0.3728  -0.3660  -0.3607  -0.3405  -0.3360  -0.3332
    -0.3258  -0.3199  -0.3148  -0.3078  -0.2934  -0.2671  -0.2631  -0.2579
    -0.2556  -0.2521  -0.2491  -0.2380  -0.2330  -0.2282  -0.1851  -0.1819
    -0.1697  -0.1675  -0.1023  -0.0987  -0.0968  -0.0861  -0.0825  -0.0782
     0.3529   1.0869

          k = 0.0000 0.2309 0.0000 ( 51134 PWs)   bands (ev):

   -21.5850 -10.7800  -7.4294  -6.9649  -6.2152  -5.7402  -5.4935  -5.3370
    -4.9249  -4.9144  -4.5486  -4.4124  -4.3406  -4.3360  -4.2715  -4.2194
    -4.1741  -4.1428  -4.0682  -4.0173  -4.0049  -3.7518  -3.6390  -3.6294
    -3.5567  -3.5281  -3.5132  -3.5091  -3.5061  -3.4931  -3.4791  -3.4606
    -3.4304  -3.3945  -3.3810  -3.3546  -3.3520  -3.1797  -3.1326  -3.1255
    -3.0884  -3.0714  -3.0664  -3.0579  -3.0031  -2.9651  -2.9375  -2.9174
    -2.9020  -2.8965  -2.8761  -2.8623  -2.7721  -2.7651  -2.7371  -2.7103
    -2.6953  -2.6743  -2.6622  -2.6446  -2.6402  -2.6125  -2.5937  -2.5885
    -2.5285  -2.3783  -2.2560  -2.2398  -2.2210  -2.2069  -2.1587  -2.1087
    -2.0961  -2.0877  -2.0785  -2.0682  -2.0576  -2.0435  -2.0226  -1.9901
    -1.9595  -1.9555  -1.9350  -1.8949  -1.8924  -1.8872  -1.8737  -1.8615
    -1.8544  -1.8493  -1.8435  -1.8402  -1.8263  -1.8190  -1.7659  -1.7559
    -1.7428  -1.7306  -1.6812  -1.6642  -1.6575  -1.6498  -1.6406  -1.6322
    -1.6212  -1.6098  -1.6055  -1.6022  -1.5957  -1.5723  -1.5539  -1.5478
    -1.5362  -1.5282  -1.4896  -1.4487  -1.4376  -1.3822  -1.3274  -1.3236
    -1.3145  -1.3094  -1.3012  -1.2975  -1.2899  -1.2832  -1.1945  -1.1535
    -1.1302  -1.1109  -1.0364  -1.0334  -1.0140  -0.9707  -0.9449  -0.9357
    -0.8896  -0.8609  -0.8384  -0.8137  -0.8010  -0.7944  -0.7564  -0.7507
    -0.7309  -0.7180  -0.7017  -0.6674  -0.6644  -0.6471  -0.6428  -0.6327
    -0.5982  -0.5687  -0.5623  -0.5575  -0.5371  -0.5128  -0.4993  -0.4961
    -0.4895  -0.4782  -0.4763  -0.4645  -0.4369  -0.4347  -0.4261  -0.4000
    -0.3697  -0.3568  -0.3390  -0.3297  -0.3050  -0.2979  -0.2660  -0.2472
    -0.2393  -0.2370  -0.2298  -0.2204  -0.2045  -0.1987  -0.1859  -0.1607
    -0.1430  -0.0999  -0.0977  -0.0923  -0.0704  -0.0676  -0.0271  -0.0198
    -0.0043   0.0355   0.2502   0.2780   0.3624   0.4632   0.5294   0.5697
     0.6081   0.8047

          k = 0.0000 0.4619 0.0000 ( 51204 PWs)   bands (ev):

   -21.5850 -10.7779  -7.0936  -6.8653  -6.2921  -6.0215  -5.6011  -5.3452
    -5.0652  -5.0477  -4.9241  -4.2262  -4.1747  -4.1689  -4.1330  -4.0962
    -3.9836  -3.9789  -3.9365  -3.8519  -3.8481  -3.8389  -3.7308  -3.6717
    -3.6654  -3.6527  -3.6506  -3.5973  -3.5475  -3.5399  -3.5316  -3.3841
    -3.3801  -3.3652  -3.3573  -3.3336  -3.3288  -3.2467  -3.2197  -3.2153
    -3.2087  -3.2044  -3.0956  -3.0236  -2.9894  -2.9276  -2.8962  -2.8795
    -2.8633  -2.8328  -2.8182  -2.8163  -2.8092  -2.7768  -2.7351  -2.7187
    -2.6979  -2.6557  -2.6467  -2.5530  -2.5071  -2.5023  -2.4848  -2.4481
    -2.3978  -2.3784  -2.3704  -2.3573  -2.3091  -2.2560  -2.2350  -2.2201
    -2.2174  -2.2133  -2.1952  -2.1799  -2.1705  -2.1641  -2.1254  -2.1162
    -2.0781  -2.0664  -2.0467  -2.0303  -1.9885  -1.9853  -1.9456  -1.9069
    -1.8913  -1.8852  -1.8581  -1.8437  -1.8117  -1.7866  -1.7826  -1.7736
    -1.7638  -1.7428  -1.7369  -1.7176  -1.7114  -1.6956  -1.6803  -1.6658
    -1.6457  -1.6371  -1.5934  -1.5638  -1.5319  -1.5070  -1.4866  -1.4819
    -1.4608  -1.4445  -1.4162  -1.3767  -1.3715  -1.3552  -1.3409  -1.3380
    -1.3321  -1.3233  -1.3124  -1.3084  -1.3032  -1.2989  -1.2854  -1.2726
    -1.2606  -1.2368  -1.1675  -1.1363  -1.1162  -1.1040  -1.0823  -1.0684
    -1.0474  -0.9942  -0.9812  -0.9587  -0.9537  -0.9048  -0.8853  -0.8347
    -0.8287  -0.8000  -0.7824  -0.7549  -0.7450  -0.7308  -0.6969  -0.6604
    -0.6232  -0.5836  -0.5679  -0.5633  -0.5611  -0.5568  -0.5433  -0.5348
    -0.5213  -0.5033  -0.4412  -0.4080  -0.3969  -0.3928  -0.3857  -0.3824
    -0.3668  -0.3460  -0.3343  -0.3316  -0.3248  -0.3050  -0.2303  -0.2146
    -0.2089  -0.2025  -0.1767  -0.1373  -0.1128  -0.0981  -0.0741  -0.0473
    -0.0407   0.0032   0.0072   0.0266   0.0291   0.0310   0.0438   0.0729
     0.1417   0.1618   0.2884   0.8608   1.0728   1.1892   1.2671   1.3259
     1.4665   1.6353

          k = 0.2000-0.1155 0.0000 ( 51134 PWs)   bands (ev):

   -21.5850 -10.7801  -7.4294  -6.9650  -6.2148  -5.7388  -5.4942  -5.3381
    -4.9250  -4.9136  -4.5492  -4.4129  -4.3406  -4.3359  -4.2717  -4.2194
    -4.1736  -4.1426  -4.0686  -4.0173  -4.0046  -3.7520  -3.6389  -3.6294
    -3.5568  -3.5281  -3.5130  -3.5092  -3.5059  -3.4931  -3.4791  -3.4607
    -3.4301  -3.3947  -3.3807  -3.3546  -3.3517  -3.1787  -3.1334  -3.1256
    -3.0901  -3.0713  -3.0665  -3.0578  -3.0020  -2.9669  -2.9373  -2.9171
    -2.9017  -2.8966  -2.8760  -2.8626  -2.7728  -2.7652  -2.7383  -2.7101
    -2.6957  -2.6741  -2.6618  -2.6443  -2.6383  -2.6124  -2.5933  -2.5882
    -2.5290  -2.3791  -2.2557  -2.2400  -2.2208  -2.2068  -2.1589  -2.1090
    -2.0962  -2.0875  -2.0784  -2.0680  -2.0577  -2.0435  -2.0221  -1.9903
    -1.9592  -1.9553  -1.9347  -1.8947  -1.8923  -1.8864  -1.8734  -1.8617
    -1.8548  -1.8490  -1.8435  -1.8405  -1.8263  -1.8187  -1.7667  -1.7555
    -1.7426  -1.7314  -1.6810  -1.6642  -1.6572  -1.6496  -1.6403  -1.6326
    -1.6216  -1.6094  -1.6055  -1.6021  -1.5957  -1.5726  -1.5533  -1.5477
    -1.5360  -1.5281  -1.4889  -1.4494  -1.4378  -1.3821  -1.3272  -1.3238
    -1.3144  -1.3094  -1.3015  -1.2975  -1.2898  -1.2831  -1.1951  -1.1519
    -1.1296  -1.1105  -1.0365  -1.0335  -1.0140  -0.9711  -0.9449  -0.9361
    -0.8901  -0.8611  -0.8395  -0.8142  -0.8010  -0.7943  -0.7556  -0.7506
    -0.7308  -0.7180  -0.7013  -0.6680  -0.6646  -0.6471  -0.6429  -0.6326
    -0.5991  -0.5680  -0.5624  -0.5572  -0.5381  -0.5120  -0.4992  -0.4960
    -0.4892  -0.4779  -0.4763  -0.4644  -0.4361  -0.4350  -0.4263  -0.4018
    -0.3702  -0.3564  -0.3391  -0.3291  -0.3048  -0.2976  -0.2658  -0.2473
    -0.2397  -0.2367  -0.2297  -0.2209  -0.2039  -0.1985  -0.1859  -0.1604
    -0.1429  -0.1001  -0.0977  -0.0925  -0.0706  -0.0677  -0.0264  -0.0199
    -0.0046   0.0358   0.2507   0.2782   0.3609   0.4640   0.5289   0.5722
     0.6097   0.7970

          k = 0.2000 0.1155 0.0000 ( 51134 PWs)   bands (ev):

   -21.5850 -10.7802  -7.4316  -6.9666  -6.2073  -5.7152  -5.4627  -5.4072
    -4.9210  -4.9010  -4.5543  -4.4304  -4.3412  -4.3333  -4.2737  -4.2235
    -4.1613  -4.1347  -4.0777  -4.0072  -4.0066  -3.7526  -3.6353  -3.6347
    -3.5551  -3.5309  -3.5092  -3.5090  -3.5050  -3.4962  -3.4765  -3.4613
    -3.4286  -3.3924  -3.3828  -3.3520  -3.3505  -3.1630  -3.1379  -3.1284
    -3.1003  -3.0735  -3.0698  -3.0640  -2.9945  -2.9661  -2.9477  -2.9142
    -2.8985  -2.8957  -2.8765  -2.8685  -2.7835  -2.7698  -2.7507  -2.7130
    -2.6975  -2.6669  -2.6662  -2.6428  -2.6232  -2.5981  -2.5942  -2.5847
    -2.5381  -2.3835  -2.2662  -2.2442  -2.2276  -2.1979  -2.1516  -2.1020
    -2.0950  -2.0927  -2.0766  -2.0720  -2.0637  -2.0383  -2.0147  -1.9838
    -1.9695  -1.9498  -1.9229  -1.8963  -1.8908  -1.8875  -1.8762  -1.8594
    -1.8538  -1.8529  -1.8436  -1.8421  -1.8226  -1.7988  -1.7753  -1.7680
    -1.7428  -1.7116  -1.6749  -1.6566  -1.6541  -1.6502  -1.6353  -1.6291
    -1.6222  -1.6141  -1.6093  -1.5987  -1.5952  -1.5826  -1.5548  -1.5521
    -1.5356  -1.5272  -1.4811  -1.4667  -1.4383  -1.3948  -1.3245  -1.3203
    -1.3196  -1.3107  -1.3014  -1.2965  -1.2904  -1.2872  -1.1605  -1.1432
    -1.1372  -1.1064  -1.0357  -1.0351  -1.0100  -0.9779  -0.9462  -0.9391
    -0.8831  -0.8513  -0.8372  -0.8152  -0.8091  -0.7971  -0.7561  -0.7551
    -0.7272  -0.7169  -0.7003  -0.6672  -0.6603  -0.6521  -0.6475  -0.6358
    -0.5998  -0.5697  -0.5610  -0.5544  -0.5375  -0.5042  -0.4993  -0.4926
    -0.4883  -0.4746  -0.4709  -0.4620  -0.4422  -0.4408  -0.4247  -0.4208
    -0.3678  -0.3487  -0.3354  -0.3285  -0.3034  -0.3024  -0.2640  -0.2457
    -0.2420  -0.2323  -0.2318  -0.2199  -0.2047  -0.1994  -0.1852  -0.1626
    -0.1416  -0.1044  -0.0985  -0.0960  -0.0697  -0.0694  -0.0227  -0.0163
     0.0026   0.0327   0.2476   0.2743   0.3217   0.4556   0.5164   0.5596
     0.6577   0.7372

          k = 0.2000 0.3464 0.0000 ( 51202 PWs)   bands (ev):

   -21.5850 -10.7785  -7.1871  -6.9140  -6.0975  -5.8030  -5.7488  -5.5325
    -5.3985  -4.6425  -4.5807  -4.3465  -4.3363  -4.2841  -4.1291  -4.1232
    -4.0335  -4.0282  -4.0092  -3.8918  -3.8666  -3.7545  -3.7442  -3.6845
    -3.6360  -3.5490  -3.5442  -3.5145  -3.4954  -3.4845  -3.4754  -3.4539
    -3.4414  -3.4249  -3.3952  -3.3736  -3.3291  -3.3002  -3.2906  -3.1755
    -3.1582  -3.0743  -3.0640  -3.0320  -3.0234  -3.0120  -2.9238  -2.9094
    -2.8639  -2.8401  -2.8335  -2.8290  -2.7801  -2.7699  -2.7497  -2.7376
    -2.7257  -2.6343  -2.6029  -2.5525  -2.5436  -2.5248  -2.5168  -2.4863
    -2.4772  -2.3691  -2.3357  -2.2905  -2.2763  -2.2361  -2.2152  -2.2010
    -2.1918  -2.1764  -2.1648  -2.1547  -2.1351  -2.1202  -2.1146  -2.1013
    -2.0834  -2.0601  -2.0129  -1.9834  -1.9271  -1.9198  -1.9071  -1.8844
    -1.8704  -1.8462  -1.8393  -1.8087  -1.7968  -1.7786  -1.7671  -1.7641
    -1.7488  -1.7414  -1.7265  -1.7174  -1.7094  -1.6977  -1.6821  -1.6652
    -1.6577  -1.6398  -1.6010  -1.5898  -1.5724  -1.5520  -1.5285  -1.5241
    -1.5019  -1.4932  -1.4835  -1.4493  -1.4224  -1.4203  -1.3960  -1.3583
    -1.3514  -1.3470  -1.3424  -1.3141  -1.3042  -1.3033  -1.2838  -1.2452
    -1.1993  -1.1810  -1.1674  -1.1234  -1.0497  -1.0454  -1.0299  -0.9418
    -0.9176  -0.9098  -0.9028  -0.8978  -0.8840  -0.8752  -0.8576  -0.8543
    -0.8259  -0.8052  -0.7801  -0.7493  -0.7404  -0.7307  -0.7124  -0.7056
    -0.6767  -0.6649  -0.6332  -0.6246  -0.6175  -0.5906  -0.5243  -0.4643
    -0.4603  -0.4289  -0.4225  -0.4140  -0.4024  -0.3850  -0.3792  -0.3710
    -0.3625  -0.3408  -0.2909  -0.2779  -0.2637  -0.2582  -0.2159  -0.2068
    -0.1939  -0.1904  -0.1840  -0.1638  -0.1531  -0.1455  -0.1430  -0.1217
    -0.1179  -0.0562  -0.0287  -0.0200  -0.0171   0.0289   0.0362   0.0494
     0.3583   0.3703   0.4467   0.5394   0.6579   0.7183   1.0332   1.1952
     1.2750   1.4304

          k = 0.2000-0.5774 0.0000 ( 51262 PWs)   bands (ev):

   -21.5850 -10.7773  -7.0329  -6.5479  -6.5084  -6.0108  -5.8255  -5.5327
    -5.1595  -5.0773  -4.6652  -4.3287  -4.0904  -4.0476  -3.9424  -3.9126
    -3.9103  -3.8890  -3.8837  -3.8517  -3.8075  -3.7991  -3.7950  -3.7873
    -3.7157  -3.6783  -3.6488  -3.6407  -3.6196  -3.6117  -3.4959  -3.4671
    -3.4606  -3.4479  -3.4351  -3.3938  -3.3052  -3.2937  -3.1953  -3.1737
    -3.1679  -3.0970  -3.0828  -3.0693  -3.0408  -2.9712  -2.9571  -2.9496
    -2.8867  -2.8780  -2.8156  -2.7662  -2.7456  -2.7281  -2.6957  -2.6699
    -2.6239  -2.5894  -2.5764  -2.5669  -2.5596  -2.5299  -2.5194  -2.4459
    -2.3911  -2.3755  -2.3637  -2.3517  -2.3169  -2.2890  -2.2544  -2.2378
    -2.2117  -2.1897  -2.1806  -2.1714  -2.1629  -2.1354  -2.1127  -2.0954
    -2.0912  -2.0773  -2.0652  -2.0416  -2.0363  -2.0144  -1.9653  -1.9527
    -1.9372  -1.9045  -1.8759  -1.8555  -1.8092  -1.8077  -1.8009  -1.7720
    -1.7622  -1.7445  -1.7423  -1.7337  -1.7238  -1.7034  -1.6891  -1.6700
    -1.6192  -1.6046  -1.5917  -1.5881  -1.5727  -1.5670  -1.5629  -1.5507
    -1.5409  -1.5313  -1.5156  -1.4876  -1.4692  -1.4377  -1.4331  -1.4009
    -1.3494  -1.3368  -1.3010  -1.2931  -1.2882  -1.2705  -1.2609  -1.2038
    -1.1904  -1.1773  -1.1678  -1.1061  -1.0752  -1.0495  -1.0324  -1.0122
    -1.0004  -0.9871  -0.9743  -0.9578  -0.9276  -0.9160  -0.8900  -0.8639
    -0.8436  -0.8307  -0.8180  -0.7980  -0.7836  -0.7494  -0.7260  -0.7122
    -0.6962  -0.6875  -0.6837  -0.6610  -0.6313  -0.6093  -0.5936  -0.4979
    -0.4266  -0.4137  -0.4110  -0.4033  -0.3935  -0.3897  -0.3790  -0.3637
    -0.3323  -0.3274  -0.3179  -0.3094  -0.2678  -0.2542  -0.1915  -0.1869
    -0.1753  -0.1643  -0.1450  -0.1356  -0.1016  -0.0866  -0.0797  -0.0714
    -0.0605   0.0065   0.0113   0.0157   0.0326   0.0376   0.0610   0.0940
     0.2280   0.3997   0.4893   0.7271   1.2184   1.3065   1.4594   1.6198
     1.8072   1.8758

          k = 0.2000-0.3464 0.0000 ( 51202 PWs)   bands (ev):

   -21.5850 -10.7783  -7.1741  -6.9249  -6.1054  -5.8304  -5.7522  -5.5370
    -5.3551  -4.6570  -4.5627  -4.3477  -4.3368  -4.2818  -4.1282  -4.1234
    -4.0338  -4.0237  -4.0018  -3.8934  -3.8769  -3.7545  -3.7430  -3.6892
    -3.6377  -3.5509  -3.5452  -3.5153  -3.4931  -3.4848  -3.4793  -3.4568
    -3.4401  -3.4263  -3.4073  -3.3701  -3.3289  -3.2943  -3.2837  -3.1803
    -3.1656  -3.0692  -3.0590  -3.0369  -3.0253  -3.0113  -2.9201  -2.8639
    -2.8580  -2.8492  -2.8342  -2.8241  -2.7769  -2.7730  -2.7440  -2.7373
    -2.7258  -2.6110  -2.6075  -2.5752  -2.5514  -2.5305  -2.5044  -2.4887
    -2.4705  -2.3809  -2.3423  -2.2921  -2.2681  -2.2358  -2.2193  -2.1972
    -2.1881  -2.1806  -2.1655  -2.1544  -2.1386  -2.1237  -2.1159  -2.0949
    -2.0926  -2.0626  -2.0108  -1.9868  -1.9280  -1.9259  -1.8967  -1.8794
    -1.8764  -1.8519  -1.8378  -1.8122  -1.8024  -1.7811  -1.7701  -1.7618
    -1.7451  -1.7426  -1.7356  -1.7177  -1.7063  -1.7044  -1.6808  -1.6682
    -1.6513  -1.6357  -1.6215  -1.5876  -1.5766  -1.5563  -1.5324  -1.5274
    -1.5086  -1.4922  -1.4893  -1.4433  -1.4244  -1.4156  -1.3966  -1.3723
    -1.3500  -1.3463  -1.3397  -1.3196  -1.3081  -1.2959  -1.2814  -1.2377
    -1.2032  -1.1763  -1.1714  -1.1267  -1.0607  -1.0445  -1.0321  -0.9320
    -0.9185  -0.9116  -0.8996  -0.8940  -0.8817  -0.8784  -0.8605  -0.8377
    -0.8192  -0.8075  -0.7809  -0.7505  -0.7441  -0.7297  -0.7159  -0.7036
    -0.6811  -0.6489  -0.6410  -0.6236  -0.6181  -0.5913  -0.5097  -0.4734
    -0.4570  -0.4307  -0.4256  -0.4180  -0.4009  -0.3869  -0.3794  -0.3677
    -0.3627  -0.3460  -0.2830  -0.2806  -0.2611  -0.2590  -0.2217  -0.2029
    -0.1946  -0.1911  -0.1865  -0.1633  -0.1492  -0.1465  -0.1398  -0.1287
    -0.1147  -0.0526  -0.0273  -0.0170  -0.0160   0.0308   0.0393   0.0538
     0.3404   0.3711   0.4645   0.5304   0.6236   0.7246   1.1299   1.2196
     1.2627   1.4586

          k = 0.4000-0.2309 0.0000 ( 51204 PWs)   bands (ev):

   -21.5850 -10.7780  -7.0941  -6.8648  -6.2909  -6.0209  -5.5993  -5.3485
    -5.0654  -5.0465  -4.9257  -4.2266  -4.1745  -4.1683  -4.1332  -4.0966
    -3.9835  -3.9788  -3.9368  -3.8519  -3.8482  -3.8388  -3.7311  -3.6717
    -3.6652  -3.6527  -3.6504  -3.5974  -3.5477  -3.5396  -3.5315  -3.3840
    -3.3799  -3.3652  -3.3566  -3.3337  -3.3281  -3.2459  -3.2204  -3.2156
    -3.2090  -3.2048  -3.0956  -3.0261  -2.9897  -2.9287  -2.8966  -2.8800
    -2.8634  -2.8334  -2.8183  -2.8162  -2.8085  -2.7777  -2.7336  -2.7187
    -2.6978  -2.6560  -2.6471  -2.5520  -2.5072  -2.5026  -2.4843  -2.4482
    -2.3979  -2.3783  -2.3707  -2.3570  -2.3085  -2.2563  -2.2326  -2.2206
    -2.2170  -2.2130  -2.1945  -2.1795  -2.1699  -2.1642  -2.1261  -2.1159
    -2.0782  -2.0657  -2.0464  -2.0301  -1.9887  -1.9850  -1.9457  -1.9060
    -1.8909  -1.8852  -1.8586  -1.8435  -1.8117  -1.7869  -1.7827  -1.7735
    -1.7643  -1.7427  -1.7371  -1.7175  -1.7113  -1.6954  -1.6804  -1.6657
    -1.6458  -1.6374  -1.5931  -1.5638  -1.5327  -1.5073  -1.4865  -1.4830
    -1.4604  -1.4447  -1.4149  -1.3768  -1.3712  -1.3543  -1.3413  -1.3376
    -1.3321  -1.3225  -1.3130  -1.3082  -1.3035  -1.2985  -1.2853  -1.2724
    -1.2608  -1.2363  -1.1682  -1.1363  -1.1161  -1.1037  -1.0827  -1.0686
    -1.0467  -0.9937  -0.9812  -0.9590  -0.9538  -0.9051  -0.8852  -0.8346
    -0.8287  -0.8009  -0.7819  -0.7554  -0.7452  -0.7311  -0.6977  -0.6615
    -0.6219  -0.5837  -0.5679  -0.5631  -0.5612  -0.5567  -0.5435  -0.5345
    -0.5209  -0.5046  -0.4412  -0.4083  -0.3968  -0.3930  -0.3854  -0.3829
    -0.3664  -0.3465  -0.3347  -0.3323  -0.3242  -0.3038  -0.2301  -0.2146
    -0.2090  -0.2023  -0.1766  -0.1373  -0.1128  -0.0982  -0.0749  -0.0471
    -0.0400   0.0031   0.0071   0.0265   0.0291   0.0312   0.0449   0.0726
     0.1418   0.1618   0.2857   0.8640   1.0654   1.1890   1.2674   1.3254
     1.4645   1.6367

          k = 0.4000 0.0000 0.0000 ( 51202 PWs)   bands (ev):

   -21.5850 -10.7785  -7.1873  -6.9137  -6.0968  -5.8014  -5.7489  -5.5330
    -5.3999  -4.6416  -4.5820  -4.3463  -4.3360  -4.2845  -4.1291  -4.1234
    -4.0336  -4.0284  -4.0096  -3.8918  -3.8662  -3.7544  -3.7446  -3.6841
    -3.6358  -3.5492  -3.5440  -3.5148  -3.4951  -3.4845  -3.4757  -3.4536
    -3.4414  -3.4250  -3.3932  -3.3739  -3.3291  -3.3014  -3.2908  -3.1754
    -3.1580  -3.0749  -3.0641  -3.0321  -3.0231  -3.0118  -2.9275  -2.9102
    -2.8637  -2.8399  -2.8329  -2.8290  -2.7804  -2.7701  -2.7492  -2.7377
    -2.7260  -2.6346  -2.6028  -2.5525  -2.5423  -2.5236  -2.5172  -2.4856
    -2.4777  -2.3688  -2.3354  -2.2907  -2.2767  -2.2363  -2.2148  -2.2015
    -2.1914  -2.1764  -2.1648  -2.1543  -2.1351  -2.1205  -2.1151  -2.1020
    -2.0821  -2.0596  -2.0130  -1.9833  -1.9267  -1.9195  -1.9060  -1.8851
    -1.8707  -1.8463  -1.8393  -1.8092  -1.7978  -1.7784  -1.7670  -1.7640
    -1.7485  -1.7415  -1.7264  -1.7170  -1.7096  -1.6977  -1.6823  -1.6653
    -1.6578  -1.6398  -1.6005  -1.5890  -1.5721  -1.5518  -1.5284  -1.5242
    -1.5014  -1.4926  -1.4824  -1.4493  -1.4223  -1.4198  -1.3960  -1.3581
    -1.3514  -1.3472  -1.3422  -1.3144  -1.3046  -1.3020  -1.2839  -1.2457
    -1.1993  -1.1808  -1.1675  -1.1232  -1.0505  -1.0451  -1.0297  -0.9420
    -0.9180  -0.9100  -0.9029  -0.8984  -0.8843  -0.8747  -0.8591  -0.8547
    -0.8256  -0.8051  -0.7804  -0.7491  -0.7407  -0.7312  -0.7127  -0.7055
    -0.6768  -0.6647  -0.6332  -0.6244  -0.6173  -0.5909  -0.5251  -0.4639
    -0.4603  -0.4295  -0.4225  -0.4154  -0.4002  -0.3849  -0.3791  -0.3713
    -0.3624  -0.3405  -0.2911  -0.2782  -0.2632  -0.2580  -0.2157  -0.2072
    -0.1940  -0.1904  -0.1842  -0.1639  -0.1530  -0.1452  -0.1435  -0.1218
    -0.1174  -0.0558  -0.0284  -0.0200  -0.0173   0.0287   0.0362   0.0489
     0.3586   0.3703   0.4429   0.5447   0.6593   0.7166   1.0313   1.1951
     1.2733   1.4320

          k = 0.4000 0.2309 0.0000 ( 51204 PWs)   bands (ev):

   -21.5850 -10.7782  -7.1192  -6.8487  -6.2614  -6.0146  -5.5038  -5.4749
    -5.0656  -5.0211  -4.9613  -4.2371  -4.1721  -4.1552  -4.1239  -4.1044
    -3.9839  -3.9765  -3.9390  -3.8482  -3.8437  -3.8426  -3.7391  -3.6690
    -3.6655  -3.6529  -3.6479  -3.6000  -3.5478  -3.5393  -3.5254  -3.3889
    -3.3823  -3.3592  -3.3512  -3.3295  -3.3219  -3.2386  -3.2161  -3.2155
    -3.2097  -3.2068  -3.1021  -3.0398  -3.0044  -2.9273  -2.9068  -2.8775
    -2.8674  -2.8358  -2.8228  -2.8157  -2.8129  -2.7893  -2.7243  -2.7206
    -2.6985  -2.6658  -2.6503  -2.5433  -2.5041  -2.4986  -2.4973  -2.4427
    -2.3981  -2.3761  -2.3738  -2.3603  -2.2986  -2.2703  -2.2431  -2.2245
    -2.2159  -2.2135  -2.1876  -2.1801  -2.1681  -2.1651  -2.1359  -2.0949
    -2.0821  -2.0623  -2.0424  -2.0176  -1.9931  -1.9746  -1.9302  -1.9164
    -1.8936  -1.8866  -1.8625  -1.8431  -1.8091  -1.7837  -1.7785  -1.7780
    -1.7613  -1.7398  -1.7319  -1.7154  -1.7051  -1.6977  -1.6729  -1.6544
    -1.6471  -1.6424  -1.5920  -1.5412  -1.5176  -1.5128  -1.4923  -1.4822
    -1.4542  -1.4437  -1.4114  -1.3737  -1.3640  -1.3546  -1.3441  -1.3387
    -1.3293  -1.3267  -1.3147  -1.3104  -1.3058  -1.3044  -1.2838  -1.2696
    -1.2425  -1.2224  -1.1862  -1.1338  -1.1164  -1.0952  -1.0908  -1.0447
    -1.0419  -0.9945  -0.9847  -0.9595  -0.9544  -0.8993  -0.8977  -0.8501
    -0.8327  -0.8008  -0.7793  -0.7674  -0.7481  -0.7264  -0.6975  -0.6641
    -0.6240  -0.5947  -0.5727  -0.5633  -0.5577  -0.5477  -0.5399  -0.5302
    -0.5151  -0.5067  -0.4513  -0.4102  -0.4043  -0.3925  -0.3826  -0.3821
    -0.3595  -0.3412  -0.3332  -0.3290  -0.3264  -0.3014  -0.2292  -0.2128
    -0.2094  -0.2034  -0.1722  -0.1418  -0.1130  -0.0977  -0.0758  -0.0492
    -0.0455   0.0033   0.0057   0.0262   0.0275   0.0305   0.0595   0.0788
     0.1409   0.1582   0.2298   0.9292   0.9956   1.1334   1.2582   1.2821
     1.4865   1.6452

          k = 0.4000-0.6928 0.0000 ( 51262 PWs)   bands (ev):

   -21.5850 -10.7775  -7.0513  -6.5352  -6.4801  -6.0351  -5.8291  -5.4360
    -5.2669  -5.0899  -4.6362  -4.3254  -4.0925  -4.0531  -3.9554  -3.9117
    -3.9095  -3.8904  -3.8803  -3.8546  -3.8030  -3.7992  -3.7962  -3.7841
    -3.7182  -3.6797  -3.6484  -3.6372  -3.6196  -3.6155  -3.4906  -3.4619
    -3.4589  -3.4480  -3.4278  -3.3821  -3.3143  -3.2859  -3.1985  -3.1726
    -3.1702  -3.1106  -3.0857  -3.0707  -3.0422  -2.9660  -2.9626  -2.9489
    -2.8843  -2.8747  -2.8371  -2.7745  -2.7531  -2.7331  -2.6889  -2.6689
    -2.6161  -2.5922  -2.5797  -2.5710  -2.5606  -2.5272  -2.5208  -2.4448
    -2.3817  -2.3757  -2.3662  -2.3551  -2.3120  -2.2916  -2.2731  -2.2283
    -2.2185  -2.1876  -2.1794  -2.1713  -2.1546  -2.1345  -2.1108  -2.0975
    -2.0864  -2.0780  -2.0725  -2.0436  -2.0381  -1.9814  -1.9693  -1.9492
    -1.9392  -1.9271  -1.8668  -1.8543  -1.8193  -1.7989  -1.7813  -1.7743
    -1.7560  -1.7486  -1.7386  -1.7308  -1.7185  -1.6930  -1.6865  -1.6631
    -1.6085  -1.6042  -1.5931  -1.5788  -1.5699  -1.5659  -1.5638  -1.5501
    -1.5424  -1.5355  -1.5189  -1.4915  -1.4718  -1.4349  -1.4306  -1.4115
    -1.3526  -1.3335  -1.3041  -1.2878  -1.2821  -1.2713  -1.2606  -1.2081
    -1.1959  -1.1812  -1.1728  -1.0984  -1.0640  -1.0514  -1.0312  -1.0144
    -1.0032  -0.9776  -0.9639  -0.9589  -0.9324  -0.9237  -0.8764  -0.8720
    -0.8348  -0.8286  -0.8139  -0.7984  -0.7766  -0.7580  -0.7241  -0.7181
    -0.7100  -0.6899  -0.6814  -0.6689  -0.6328  -0.6119  -0.5900  -0.5035
    -0.4242  -0.4140  -0.4120  -0.3981  -0.3920  -0.3875  -0.3809  -0.3695
    -0.3346  -0.3245  -0.3190  -0.3120  -0.2581  -0.2543  -0.1937  -0.1870
    -0.1828  -0.1612  -0.1419  -0.1320  -0.0997  -0.0843  -0.0792  -0.0709
    -0.0677   0.0063   0.0090   0.0264   0.0324   0.0360   0.0597   0.0922
     0.1615   0.4083   0.5341   0.7487   1.1607   1.3061   1.4090   1.7152
     1.7347   1.8151

          k = 0.4000-0.4619 0.0000 ( 51262 PWs)   bands (ev):

   -21.5850 -10.7774  -7.0333  -6.5471  -6.5078  -6.0116  -5.8256  -5.5293
    -5.1649  -5.0763  -4.6639  -4.3286  -4.0906  -4.0479  -3.9435  -3.9126
    -3.9103  -3.8889  -3.8836  -3.8517  -3.8073  -3.7991  -3.7950  -3.7873
    -3.7159  -3.6780  -3.6488  -3.6404  -3.6197  -3.6118  -3.4964  -3.4666
    -3.4606  -3.4476  -3.4344  -3.3932  -3.3044  -3.2943  -3.1959  -3.1743
    -3.1681  -3.0980  -3.0826  -3.0692  -3.0409  -2.9718  -2.9572  -2.9494
    -2.8869  -2.8778  -2.8165  -2.7672  -2.7457  -2.7281  -2.6946  -2.6701
    -2.6236  -2.5895  -2.5767  -2.5670  -2.5593  -2.5302  -2.5193  -2.4458
    -2.3901  -2.3761  -2.3641  -2.3518  -2.3169  -2.2890  -2.2538  -2.2371
    -2.2095  -2.1904  -2.1804  -2.1710  -2.1632  -2.1362  -2.1129  -2.0953
    -2.0911  -2.0773  -2.0653  -2.0406  -2.0362  -2.0129  -1.9652  -1.9524
    -1.9371  -1.9052  -1.8762  -1.8562  -1.8093  -1.8074  -1.8006  -1.7721
    -1.7624  -1.7443  -1.7423  -1.7340  -1.7242  -1.7036  -1.6888  -1.6695
    -1.6191  -1.6041  -1.5915  -1.5883  -1.5727  -1.5668  -1.5626  -1.5505
    -1.5410  -1.5312  -1.5165  -1.4877  -1.4694  -1.4378  -1.4331  -1.4007
    -1.3494  -1.3363  -1.3016  -1.2930  -1.2878  -1.2701  -1.2608  -1.2042
    -1.1902  -1.1773  -1.1683  -1.1059  -1.0755  -1.0493  -1.0315  -1.0118
    -1.0002  -0.9873  -0.9746  -0.9581  -0.9278  -0.9159  -0.8901  -0.8637
    -0.8435  -0.8305  -0.8181  -0.7970  -0.7842  -0.7504  -0.7260  -0.7119
    -0.6965  -0.6874  -0.6836  -0.6619  -0.6317  -0.6093  -0.5929  -0.4986
    -0.4263  -0.4134  -0.4110  -0.4032  -0.3936  -0.3897  -0.3796  -0.3640
    -0.3321  -0.3275  -0.3182  -0.3090  -0.2667  -0.2545  -0.1915  -0.1867
    -0.1759  -0.1641  -0.1449  -0.1357  -0.1012  -0.0866  -0.0795  -0.0713
    -0.0619   0.0062   0.0117   0.0184   0.0329   0.0376   0.0610   0.0940
     0.2226   0.4000   0.4910   0.7261   1.2205   1.3067   1.4608   1.6208
     1.8027   1.8712

 ------ SPIN DOWN ----------


          k = 0.0000 0.0000 0.0000 ( 51087 PWs)   bands (ev):

   -21.5672 -10.8162  -7.6977  -6.9210  -6.3544  -5.7209  -5.4484  -4.5119
    -4.4845  -4.4842  -4.4835  -4.4619  -4.4439  -4.3436  -3.6153  -3.6093
    -3.6088  -3.5789  -3.5672  -3.5566  -3.4290  -2.6772  -2.6615  -2.6608
    -2.6416  -2.6363  -2.5752  -2.2953  -2.2058  -2.1950  -2.1904  -2.1895
    -2.1837  -2.0046  -1.9984  -1.9701  -1.9123  -1.9039  -1.9005  -1.8784
    -1.8160  -1.8137  -1.7599  -1.7595  -1.7225  -1.6689  -1.6475  -1.6464
    -1.6229  -1.5330  -1.4519  -1.3950  -1.3859  -1.3816  -1.3596  -1.3571
    -1.3558  -1.3505  -1.3367  -1.3110  -1.3004  -1.2789  -1.2770  -1.2743
    -1.2497  -1.1531  -0.8881  -0.7192  -0.7173  -0.7016  -0.7012  -0.5422
    -0.4858  -0.4385  -0.3978  -0.3796  -0.3744  -0.3735  -0.3609  -0.3564
    -0.3150  -0.3081  -0.2900  -0.2791  -0.2770  -0.2715  -0.2295  -0.2161
    -0.2046  -0.1876  -0.1783  -0.1764  -0.1394  -0.1308  -0.1260  -0.1207
    -0.1172  -0.1142  -0.0981  -0.0931  -0.0891  -0.0883  -0.0264  -0.0032
     0.0429   0.0662   0.0669   0.1044   0.1178   0.1317   0.1328   0.1358
     0.1386   0.1414   0.1442   0.1444   0.2180   0.2181   0.2766   0.2938
     0.3105   0.3178   0.3289   0.3320   0.4976   0.5145   0.5525   0.5602
     0.5905   0.6185   0.6213   0.6258   0.6973   0.8888   0.8939   0.9535
     0.9570   1.0956   1.1165   1.1530   1.1642   1.1826   1.1870   1.1942
     1.3293   1.3401   1.3448   1.3543   1.3593   1.3661   1.3691   1.3961
     1.4142   1.4376   1.4486   1.4549   1.4806   1.4829   1.4962   1.5064
     1.5112   1.5120   1.5181   1.5448   1.5470   1.5725   1.5957   1.6127
     1.6142   1.6283   1.6327   1.6372   1.6420   1.6437   1.6503   1.6851
     1.6856   1.7123   1.7169   1.7184   1.7325   1.7349   1.7423   1.7666
     1.7741   1.7819   1.7839   1.7884   1.7903   1.7943   1.8008   1.8063
     1.8193   1.8394   1.8640   1.8669   2.0117   2.0161   2.0200   2.0216
     2.0227   2.0239

          k = 0.0000 0.2309 0.0000 ( 51134 PWs)   bands (ev):

   -21.5672 -10.8148  -7.5520  -6.9074  -6.2610  -5.7434  -5.4935  -5.3467
    -4.8617  -4.8515  -4.3346  -4.1992  -3.9353  -3.9315  -3.8272  -3.7961
    -3.6427  -3.3806  -3.2545  -3.2438  -3.1511  -2.8753  -2.6693  -2.6514
    -2.6081  -2.5590  -2.5387  -2.3544  -2.2584  -2.2280  -2.2247  -2.2159
    -2.1838  -2.1475  -2.1388  -2.1228  -2.0974  -1.9870  -1.9589  -1.9327
    -1.8714  -1.8649  -1.8113  -1.7052  -1.6895  -1.6712  -1.6391  -1.5734
    -1.5239  -1.4898  -1.4632  -1.4343  -1.4076  -1.3928  -1.3726  -1.3666
    -1.3621  -1.3379  -1.2853  -1.2446  -1.2280  -1.2172  -1.1921  -1.1702
    -1.1003  -1.0427  -0.9215  -0.7701  -0.7582  -0.7486  -0.7109  -0.6429
    -0.6073  -0.5875  -0.5411  -0.5209  -0.4323  -0.4165  -0.3966  -0.3795
    -0.3514  -0.3464  -0.3372  -0.3288  -0.3146  -0.2994  -0.2615  -0.2306
    -0.1954  -0.1791  -0.1684  -0.1654  -0.1467  -0.1223  -0.1100  -0.0964
    -0.0907  -0.0805  -0.0710  -0.0655  -0.0641  -0.0595  -0.0423  -0.0199
     0.0138   0.0221   0.0309   0.0369   0.0587   0.0818   0.0907   0.1059
     0.1397   0.1529   0.1795   0.2032   0.2351   0.2456   0.2532   0.2847
     0.4048   0.4227   0.4736   0.4847   0.5141   0.5289   0.5465   0.5636
     0.5772   0.5850   0.5992   0.6056   0.7805   0.8668   0.8925   0.9285
     0.9316   0.9493   0.9688   0.9812   1.0264   1.0486   1.1160   1.1245
     1.1427   1.1873   1.2013   1.2399   1.2523   1.2923   1.2979   1.3067
     1.3558   1.3907   1.4065   1.4218   1.4285   1.4484   1.4681   1.4829
     1.5075   1.5355   1.5526   1.5731   1.5873   1.5993   1.6108   1.6433
     1.6675   1.6759   1.6793   1.6889   1.6948   1.7081   1.7597   1.7656
     1.7699   1.7767   1.8121   1.8225   1.8328   1.8526   1.8600   1.8681
     1.8820   1.9203   1.9230   1.9370   1.9516   1.9577   1.9629   1.9847
     1.9870   2.0085   2.0114   2.0258   2.1042   2.1187   2.1281   2.1632
     2.1947   2.2178

          k = 0.0000 0.4619 0.0000 ( 51204 PWs)   bands (ev):

   -21.5672 -10.8125  -7.1473  -6.8726  -6.3864  -6.0352  -5.6306  -5.3556
    -5.0778  -5.0536  -4.9120  -3.9986  -3.9522  -3.8526  -3.3647  -3.3171
    -3.3115  -3.2007  -3.0415  -2.9932  -2.8686  -2.8623  -2.7194  -2.7140
    -2.6479  -2.6424  -2.6047  -2.5560  -2.4825  -2.4670  -2.4343  -2.4006
    -2.3912  -2.2151  -2.1828  -2.1354  -2.0969  -2.0444  -1.9835  -1.9756
    -1.9635  -1.9468  -1.8394  -1.6953  -1.6639  -1.6445  -1.6197  -1.5733
    -1.4536  -1.4450  -1.4307  -1.4163  -1.4095  -1.3875  -1.3752  -1.3682
    -1.3202  -1.2751  -1.2597  -1.2495  -1.2320  -1.1887  -1.0905  -1.0055
    -0.9685  -0.8971  -0.8783  -0.7938  -0.7841  -0.7532  -0.7181  -0.7107
    -0.6902  -0.6778  -0.6451  -0.6126  -0.5928  -0.5495  -0.5225  -0.5073
    -0.4745  -0.4411  -0.4258  -0.4151  -0.3977  -0.3724  -0.3179  -0.2650
    -0.2336  -0.2317  -0.2025  -0.1695  -0.1444  -0.1238  -0.1155  -0.0802
    -0.0604  -0.0527  -0.0361  -0.0197  -0.0139  -0.0085   0.0072   0.0300
     0.0467   0.0733   0.0795   0.0903   0.0987   0.1039   0.1245   0.1446
     0.1505   0.1736   0.2019   0.2895   0.2964   0.3023   0.3348   0.3496
     0.3557   0.3786   0.3810   0.4469   0.4524   0.4678   0.4851   0.5002
     0.5335   0.5449   0.5670   0.5728   0.6082   0.6851   0.7472   0.7833
     0.7860   0.8196   0.8666   0.9658   0.9753   1.0159   1.0350   1.0506
     1.0516   1.1038   1.1173   1.1318   1.1582   1.2006   1.2418   1.3191
     1.3349   1.3717   1.3936   1.4216   1.4391   1.4574   1.4709   1.4938
     1.5175   1.5369   1.5598   1.6067   1.6262   1.6449   1.6593   1.6852
     1.6907   1.6992   1.7335   1.7485   1.7587   1.7744   1.7827   1.8160
     1.8250   1.8636   1.8898   1.9140   1.9285   1.9533   1.9624   1.9709
     1.9803   1.9926   2.0112   2.0162   2.0214   2.0491   2.0511   2.0528
     2.0623   2.1019   2.1897   2.2693   2.3118   2.3857   2.4936   2.7214
     2.7785   2.8290

          k = 0.2000-0.1155 0.0000 ( 51134 PWs)   bands (ev):

   -21.5672 -10.8148  -7.5520  -6.9075  -6.2605  -5.7418  -5.4945  -5.3480
    -4.8615  -4.8509  -4.3353  -4.1998  -3.9353  -3.9314  -3.8270  -3.7952
    -3.6428  -3.3806  -3.2547  -3.2435  -3.1513  -2.8761  -2.6693  -2.6507
    -2.6089  -2.5594  -2.5377  -2.3545  -2.2584  -2.2280  -2.2252  -2.2159
    -2.1840  -2.1468  -2.1389  -2.1228  -2.0972  -1.9865  -1.9591  -1.9340
    -1.8713  -1.8646  -1.8129  -1.7048  -1.6895  -1.6712  -1.6372  -1.5752
    -1.5235  -1.4899  -1.4629  -1.4342  -1.4080  -1.3923  -1.3725  -1.3671
    -1.3618  -1.3358  -1.2854  -1.2440  -1.2275  -1.2173  -1.1929  -1.1700
    -1.1001  -1.0439  -0.9210  -0.7701  -0.7587  -0.7485  -0.7106  -0.6430
    -0.6075  -0.5874  -0.5411  -0.5209  -0.4324  -0.4161  -0.3966  -0.3795
    -0.3515  -0.3464  -0.3375  -0.3288  -0.3147  -0.2991  -0.2615  -0.2305
    -0.1955  -0.1790  -0.1682  -0.1655  -0.1466  -0.1212  -0.1104  -0.0962
    -0.0909  -0.0804  -0.0709  -0.0656  -0.0640  -0.0594  -0.0424  -0.0199
     0.0135   0.0225   0.0304   0.0369   0.0592   0.0815   0.0908   0.1063
     0.1403   0.1527   0.1801   0.2037   0.2348   0.2455   0.2533   0.2845
     0.4042   0.4238   0.4724   0.4847   0.5116   0.5288   0.5480   0.5633
     0.5765   0.5849   0.5997   0.6054   0.7826   0.8657   0.8945   0.9271
     0.9313   0.9493   0.9697   0.9804   1.0244   1.0500   1.1132   1.1214
     1.1422   1.1862   1.2027   1.2380   1.2525   1.2902   1.2982   1.3091
     1.3560   1.3900   1.4069   1.4218   1.4286   1.4501   1.4692   1.4855
     1.5080   1.5348   1.5528   1.5736   1.5890   1.5988   1.6108   1.6418
     1.6675   1.6764   1.6794   1.6887   1.6951   1.7078   1.7594   1.7655
     1.7699   1.7768   1.8122   1.8226   1.8324   1.8522   1.8599   1.8682
     1.8819   1.9206   1.9229   1.9377   1.9512   1.9575   1.9639   1.9844
     1.9870   2.0088   2.0116   2.0258   2.1044   2.1185   2.1281   2.1606
     2.1952   2.2183

          k = 0.2000 0.1155 0.0000 ( 51134 PWs)   bands (ev):

   -21.5672 -10.8149  -7.5532  -6.9112  -6.2520  -5.7125  -5.4601  -5.4285
    -4.8525  -4.8399  -4.3416  -4.2213  -3.9339  -3.9335  -3.8154  -3.7816
    -3.6448  -3.3803  -3.2516  -3.2409  -3.1573  -2.8860  -2.6699  -2.6474
    -2.6041  -2.5596  -2.5364  -2.3332  -2.2825  -2.2291  -2.2284  -2.2134
    -2.1921  -2.1413  -2.1394  -2.1170  -2.1030  -1.9700  -1.9592  -1.9550
    -1.8707  -1.8515  -1.8050  -1.7505  -1.6738  -1.6727  -1.6229  -1.5505
    -1.5491  -1.4890  -1.4696  -1.4440  -1.4103  -1.3821  -1.3782  -1.3653
    -1.3600  -1.3062  -1.2821  -1.2443  -1.2351  -1.2213  -1.1933  -1.1686
    -1.1105  -1.0198  -0.9410  -0.7613  -0.7581  -0.7331  -0.7069  -0.6461
    -0.6287  -0.5770  -0.5502  -0.5200  -0.4346  -0.4068  -0.4000  -0.3727
    -0.3552  -0.3470  -0.3371  -0.3223  -0.3210  -0.2959  -0.2613  -0.2543
    -0.1897  -0.1703  -0.1681  -0.1641  -0.1482  -0.1175  -0.1097  -0.0938
    -0.0842  -0.0816  -0.0771  -0.0680  -0.0655  -0.0568  -0.0342  -0.0215
     0.0179   0.0222   0.0337   0.0366   0.0656   0.0816   0.0938   0.0969
     0.1396   0.1522   0.1920   0.2029   0.2329   0.2371   0.2536   0.2850
     0.4102   0.4305   0.4525   0.4832   0.4907   0.5405   0.5502   0.5552
     0.5668   0.5892   0.5995   0.6068   0.7870   0.8709   0.8989   0.9208
     0.9377   0.9406   0.9686   0.9813   1.0117   1.0720   1.0805   1.1140
     1.1241   1.1956   1.2097   1.2424   1.2612   1.2751   1.2980   1.3302
     1.3499   1.3989   1.4129   1.4181   1.4327   1.4490   1.4763   1.4795
     1.5094   1.5326   1.5487   1.5814   1.5860   1.6123   1.6176   1.6418
     1.6547   1.6748   1.6820   1.6892   1.6997   1.7014   1.7549   1.7582
     1.7703   1.7757   1.8180   1.8223   1.8317   1.8555   1.8586   1.8680
     1.8792   1.9229   1.9250   1.9327   1.9486   1.9571   1.9584   1.9811
     1.9882   2.0142   2.0154   2.0242   2.1046   2.1135   2.1240   2.1511
     2.1989   2.2138

          k = 0.2000 0.3464 0.0000 ( 51202 PWs)   bands (ev):

   -21.5672 -10.8131  -7.2777  -6.8858  -6.1130  -5.8792  -5.8278  -5.5430
    -5.4028  -4.5938  -4.4960  -4.1318  -4.1135  -3.9976  -3.2953  -3.2884
    -3.2818  -3.2712  -3.1641  -3.0833  -2.9922  -2.9720  -2.9258  -2.6176
    -2.5606  -2.5354  -2.5297  -2.4520  -2.4297  -2.4150  -2.3586  -2.3271
    -2.3154  -2.3090  -2.2926  -2.1705  -2.1459  -2.0482  -1.9381  -1.9281
    -1.8932  -1.8754  -1.8138  -1.7984  -1.7363  -1.6482  -1.6035  -1.5844
    -1.4770  -1.4528  -1.4170  -1.4147  -1.4051  -1.3874  -1.3746  -1.3500
    -1.3370  -1.2889  -1.2759  -1.2307  -1.1803  -1.1404  -1.0796  -1.0322
    -0.9649  -0.9402  -0.9107  -0.8212  -0.7387  -0.7227  -0.6979  -0.6728
    -0.6530  -0.6357  -0.6266  -0.5953  -0.5518  -0.5329  -0.5177  -0.4944
    -0.4829  -0.4536  -0.4434  -0.4307  -0.3851  -0.3267  -0.2737  -0.2579
[...]
     atom    8 type  1   force =    -0.00163936   -0.00189586   -0.10490187
     atom    9 type  1   force =     0.00054861   -0.00025597   -0.10639449
     atom   10 type  1   force =     0.00163225    0.00086377   -0.00952267
     atom   11 type  1   force =     0.00018677   -0.00180546   -0.01025450
     atom   12 type  1   force =    -0.00151121    0.00028143   -0.01047671
     atom   13 type  1   force =    -0.00129312    0.00111019   -0.01006073
     atom   14 type  1   force =     0.00053003    0.00027326   -0.00701444
     atom   15 type  1   force =     0.00059571    0.00056113   -0.01009008
     atom   16 type  1   force =    -0.00051133   -0.00137290   -0.01071795
     atom   17 type  1   force =     0.00095744    0.00035255   -0.00996201
     atom   18 type  1   force =     0.00009749    0.00009335   -0.01018095
     atom   19 type  1   force =    -0.00345186   -0.00322073    0.00905878
     atom   20 type  1   force =    -0.00561706   -0.00360104    0.00166573
     atom   21 type  1   force =     0.00964530   -0.00568021    0.00172273
     atom   22 type  1   force =     0.00251472    0.00336447    0.01134207
     atom   23 type  1   force =    -0.00011457    0.01112078    0.00183739
     atom   24 type  1   force =    -0.00285855   -0.00179638    0.01858377
     atom   25 type  1   force =     0.00038875    0.00015604    0.02057631
     atom   26 type  1   force =    -0.00439322   -0.00126266    0.00915010
     atom   27 type  1   force =     0.00395419    0.00076417    0.01200205
     atom   28 type  1   force =     0.02151052    0.01295115    0.13888962
     atom   29 type  1   force =    -0.02955834    0.03996884    0.15508057
     atom   30 type  1   force =    -0.01005631    0.00715359    0.12394385
     atom   31 type  1   force =     0.02124692   -0.04610159    0.16139937
     atom   32 type  1   force =    -0.04844940   -0.03085229    0.19775536
     atom   33 type  1   force =     0.00349335   -0.00188985    0.12210709
     atom   34 type  1   force =     0.00085144   -0.01131312    0.12339009
     atom   35 type  1   force =     0.00046839    0.00388356    0.12086635
     atom   36 type  1   force =     0.00006433   -0.00015084    0.10387009
     atom   37 type  2   force =    -0.08222965   -0.03583051    0.25643144
     atom   38 type  3   force =     1.60366645    0.84397146   -1.88541017
     atom   39 type  4   force =    -0.04313340   -0.02414290   -0.02766682
     The ionic contribution  to forces
     atom    1 type  1   force =    -0.00935643    0.00041695 -111.19626688
     atom    2 type  1   force =     0.00060447    0.00021660 -111.21387940
     atom    3 type  1   force =     0.00875192   -0.00022885 -111.19505567
     atom    4 type  1   force =    -0.00453863    0.00857926 -111.19457925
     atom    5 type  1   force =     0.00429120    0.00774697 -111.19507785
     atom    6 type  1   force =     0.00024746    0.00026133 -111.18608615
     atom    7 type  1   force =    -0.00085409   -0.00048078 -111.18603398
     atom    8 type  1   force =    -0.00420263   -0.00836373 -111.19606047
     atom    9 type  1   force =     0.00505673   -0.00814775 -111.19435142
     atom   10 type  1   force =    -0.05216165   -0.03071021  -40.14509328
     atom   11 type  1   force =     0.00631075   -0.07346103  -40.23834129
     atom   12 type  1   force =     0.04584864   -0.03125560  -40.13242031
     atom   13 type  1   force =    -0.05995383    0.04147057  -40.24017539
     atom   14 type  1   force =     0.06241889    0.03559899  -40.23559283
     atom   15 type  1   force =    -0.00245918    0.01424800  -40.11763980
     atom   16 type  1   force =    -0.00363538    0.05606593  -40.13314087
     atom   17 type  1   force =     0.01148463   -0.00844271  -40.11665322
     atom   18 type  1   force =    -0.00785061   -0.00351247  -40.10955596
     atom   19 type  1   force =    -0.46422397    0.02425908   31.27829047
     atom   20 type  1   force =     0.02847402    0.00910468   30.27772954
     atom   21 type  1   force =     0.43452100   -0.01481412   31.34154308
     atom   22 type  1   force =    -0.22034666    0.41883534   31.36740326
     atom   23 type  1   force =     0.20965408    0.38631399   31.34059464
     atom   24 type  1   force =     0.01104386    0.01186273   31.72299847
     atom   25 type  1   force =    -0.04182112   -0.02373935   31.72508233
     atom   26 type  1   force =    -0.20493348   -0.41602844   31.28902587
     atom   27 type  1   force =     0.24675583   -0.39632697   31.37840879
     atom   28 type  1   force =    -2.02125326   -1.19641592  103.34782783
     atom   29 type  1   force =     0.49171212   -4.83385209   99.38979191
     atom   30 type  1   force =     1.54945881   -1.06340393  104.01057874
     atom   31 type  1   force =    -3.92799051    2.83258595   99.23383450
     atom   32 type  1   force =     4.29652656    2.46502298   98.90848150
     atom   33 type  1   force =    -0.12121685    0.39475185  104.28484686
     atom   34 type  1   force =    -0.12553279    1.90370500  103.99317091
     atom   35 type  1   force =     0.29541874   -0.26716751  104.31081978
     atom   36 type  1   force =    -0.17560036   -0.06225255  104.47024877
     atom   37 type  2   force =     3.91946403    1.98139620   53.81735571
     atom   38 type  3   force =    -6.00969428   -3.16653277   89.53062855
     atom   39 type  4   force =     1.82958200    1.01269439   15.20734253
     The local contribution  to forces
     atom    1 type  1   force =     0.01215575    0.00128080  111.30309657
     atom    2 type  1   force =    -0.00036031    0.00003638  111.31585775
     atom    3 type  1   force =    -0.01130076    0.00102814  111.30011474
     atom    4 type  1   force =     0.00416121   -0.01031020  111.30258533
     atom    5 type  1   force =    -0.00497983   -0.01033688  111.29997479
     atom    6 type  1   force =     0.00078667    0.00038802  111.29154410
     atom    7 type  1   force =    -0.00057886   -0.00038666  111.29312373
     atom    8 type  1   force =     0.00713590    0.00992346  111.30321761
     atom    9 type  1   force =    -0.00681236    0.00853642  111.30249231
     atom   10 type  1   force =     0.05050390    0.02987848   40.13603614
     atom   11 type  1   force =    -0.00661283    0.07551939   40.22844663
     atom   12 type  1   force =    -0.04368774    0.03179094   40.12481898
     atom   13 type  1   force =     0.06160664   -0.04269062   40.23026671
     atom   14 type  1   force =    -0.06327785   -0.03593667   40.22220609
     atom   15 type  1   force =     0.00186389   -0.01543157   40.10825601
     atom   16 type  1   force =     0.00516465   -0.05451040   40.12554018
     atom   17 type  1   force =    -0.01293424    0.00836562   40.10729892
     atom   18 type  1   force =     0.00778229    0.00339199   40.09987034
     atom   19 type  1   force =     0.46464120   -0.02199991  -31.26750704
     atom   20 type  1   force =    -0.02256065   -0.00529263  -30.26445420
     atom   21 type  1   force =    -0.44171244    0.02018628  -31.32315315
     atom   22 type  1   force =     0.21724907   -0.42166925  -31.35668588
     atom   23 type  1   force =    -0.20851627   -0.39551181  -31.32206466
     atom   24 type  1   force =    -0.00761671   -0.00970162  -31.71760050
     atom   25 type  1   force =     0.04172390    0.02373817  -31.71974946
     atom   26 type  1   force =     0.20679716    0.41513971  -31.27883866
     atom   27 type  1   force =    -0.25033491    0.39483452  -31.36838116
     atom   28 type  1   force =     1.99142026    1.17838763 -103.49741480
     atom   29 type  1   force =    -0.45764064    4.77201856  -99.55201855
     atom   30 type  1   force =    -1.53096388    1.04542307 -104.14514230
     atom   31 type  1   force =     3.88896367   -2.77177049  -99.40385930
     atom   32 type  1   force =    -4.22804167   -2.42198338  -99.10362084
     atom   33 type  1   force =     0.12101717   -0.39070768 -104.42055480
     atom   34 type  1   force =     0.12009525   -1.87969335 -104.12713516
     atom   35 type  1   force =    -0.29227269    0.26540028 -104.44494693
     atom   36 type  1   force =     0.17387444    0.06180504 -104.58350632
     atom   37 type  2   force =    -3.83824899   -1.94617802  -54.07256934
     atom   38 type  3   force =     4.42315739    2.33177762  -87.65309922
     atom   39 type  4   force =    -1.78405206   -0.98713420  -15.19073372
     The core correction contribution to forces
     atom    1 type  1   force =     0.00018106    0.00001611    0.01002497
     atom    2 type  1   force =     0.00003559    0.00005066    0.00984499
     atom    3 type  1   force =    -0.00010021    0.00008368    0.01029000
     atom    4 type  1   force =    -0.00004480   -0.00007563    0.01012437
     atom    5 type  1   force =    -0.00000568   -0.00015781    0.01030080
     atom    6 type  1   force =     0.00006660    0.00004479    0.00961765
     atom    7 type  1   force =    -0.00000037    0.00000544    0.01057309
     atom    8 type  1   force =     0.00011251    0.00012591    0.01001885
     atom    9 type  1   force =    -0.00008091    0.00001112    0.01009894
     atom   10 type  1   force =    -0.00028087   -0.00017266   -0.00178524
     atom   11 type  1   force =     0.00001599   -0.00014993   -0.00177719
     atom   12 type  1   force =     0.00033112   -0.00027450   -0.00206763
     atom   13 type  1   force =    -0.00011638    0.00006730   -0.00174509
     atom   14 type  1   force =     0.00010085    0.00006433   -0.00166566
     atom   15 type  1   force =     0.00011084    0.00004929   -0.00189189
     atom   16 type  1   force =    -0.00006570    0.00042970   -0.00207476
     atom   17 type  1   force =     0.00008450    0.00005931   -0.00185558
     atom   18 type  1   force =    -0.00011620   -0.00005517   -0.00144978
     atom   19 type  1   force =     0.00012706   -0.00027111    0.00146518
     atom   20 type  1   force =     0.00050727    0.00039413    0.00218940
     atom   21 type  1   force =     0.00018578    0.00000268    0.00070814
     atom   22 type  1   force =    -0.00009262    0.00000186    0.00143920
     atom   23 type  1   force =     0.00010682    0.00020602    0.00077422
     atom   24 type  1   force =     0.00010596    0.00007006    0.00203066
     atom   25 type  1   force =     0.00045971    0.00026075    0.00222097
     atom   26 type  1   force =    -0.00021657    0.00025193    0.00148675
     atom   27 type  1   force =    -0.00006792   -0.00005829    0.00148648
     atom   28 type  1   force =     0.00204437    0.00121854   -0.00789603
     atom   29 type  1   force =    -0.00049470    0.00986523   -0.00174429
     atom   30 type  1   force =    -0.00267131    0.00322107   -0.00863891
     atom   31 type  1   force =     0.00884050   -0.00572982   -0.00104417
     atom   32 type  1   force =    -0.01942627   -0.01152533    0.01663509
     atom   33 type  1   force =    -0.00168658   -0.00018059   -0.00823729
     atom   34 type  1   force =     0.00141383   -0.00388567   -0.00866234
     atom   35 type  1   force =    -0.00101047   -0.00146639   -0.00839225
     atom   36 type  1   force =    -0.00033105   -0.00018645   -0.01059209
     atom   37 type  2   force =    -0.00077038   -0.00055427   -0.00218327
     atom   38 type  3   force =    -0.01301069   -0.00686680    0.01550043
     atom   39 type  4   force =     0.00000000    0.00000000    0.00000000
     The Hubbard contrib.    to forces
     atom    1 type  1   force =     0.00000000    0.00000000    0.00000000
     atom    2 type  1   force =     0.00000000    0.00000000    0.00000000
     atom    3 type  1   force =     0.00000000    0.00000000    0.00000000
     atom    4 type  1   force =     0.00000000    0.00000000    0.00000000
     atom    5 type  1   force =     0.00000000    0.00000000    0.00000000
     atom    6 type  1   force =     0.00000000    0.00000000    0.00000000
     atom    7 type  1   force =     0.00000000    0.00000000    0.00000000
     atom    8 type  1   force =     0.00000000    0.00000000    0.00000000
     atom    9 type  1   force =     0.00000000    0.00000000    0.00000000
     atom   10 type  1   force =     0.00000000    0.00000000    0.00000000
     atom   11 type  1   force =     0.00000000    0.00000000    0.00000000
     atom   12 type  1   force =     0.00000000    0.00000000    0.00000000
     atom   13 type  1   force =     0.00000000    0.00000000    0.00000000
     atom   14 type  1   force =     0.00000000    0.00000000    0.00000000
     atom   15 type  1   force =     0.00000000    0.00000000    0.00000000
     atom   16 type  1   force =     0.00000000    0.00000000    0.00000000
     atom   17 type  1   force =     0.00000000    0.00000000    0.00000000
     atom   18 type  1   force =     0.00000000    0.00000000    0.00000000
     atom   19 type  1   force =     0.00000000    0.00000000    0.00000000
     atom   20 type  1   force =     0.00000000    0.00000000    0.00000000
     atom   21 type  1   force =     0.00000000    0.00000000    0.00000000
     atom   22 type  1   force =     0.00000000    0.00000000    0.00000000
     atom   23 type  1   force =     0.00000000    0.00000000    0.00000000
     atom   24 type  1   force =     0.00000000    0.00000000    0.00000000
     atom   25 type  1   force =     0.00000000    0.00000000    0.00000000
     atom   26 type  1   force =     0.00000000    0.00000000    0.00000000
     atom   27 type  1   force =     0.00000000    0.00000000    0.00000000
     atom   28 type  1   force =     0.00000000    0.00000000    0.00000000
     atom   29 type  1   force =     0.00000000    0.00000000    0.00000000
     atom   30 type  1   force =     0.00000000    0.00000000    0.00000000
     atom   31 type  1   force =     0.00000000    0.00000000    0.00000000
     atom   32 type  1   force =     0.00000000    0.00000000    0.00000000
     atom   33 type  1   force =     0.00000000    0.00000000    0.00000000
     atom   34 type  1   force =     0.00000000    0.00000000    0.00000000
     atom   35 type  1   force =     0.00000000    0.00000000    0.00000000
     atom   36 type  1   force =     0.00000000    0.00000000    0.00000000
     atom   37 type  2   force =     0.00000000    0.00000000    0.00000000
     atom   38 type  3   force =     0.00000000    0.00000000    0.00000000
     atom   39 type  4   force =     0.00000000    0.00000000    0.00000000
     The SCF correction term to forces
     atom    1 type  1   force =    -0.00000000    0.00000000    0.00000000
     atom    2 type  1   force =     0.00000000    0.00000000    0.00000000
     atom    3 type  1   force =    -0.00000000    0.00000000    0.00000000
     atom    4 type  1   force =     0.00000000    0.00000000    0.00000000
     atom    5 type  1   force =     0.00000000   -0.00000000    0.00000000
     atom    6 type  1   force =    -0.00000000    0.00000000    0.00000000
     atom    7 type  1   force =    -0.00000000   -0.00000000    0.00000000
     atom    8 type  1   force =     0.00000000   -0.00000000    0.00000000
     atom    9 type  1   force =     0.00000000    0.00000000    0.00000000
     atom   10 type  1   force =     0.00000000    0.00000000    0.00000000
     atom   11 type  1   force =     0.00000000    0.00000000    0.00000000
     atom   12 type  1   force =    -0.00000000    0.00000000    0.00000000
     atom   13 type  1   force =     0.00000000    0.00000000    0.00000000
     atom   14 type  1   force =    -0.00000000   -0.00000000    0.00000000
     atom   15 type  1   force =    -0.00000000    0.00000000    0.00000000
     atom   16 type  1   force =    -0.00000000   -0.00000000    0.00000000
     atom   17 type  1   force =     0.00000000   -0.00000000    0.00000000
     atom   18 type  1   force =    -0.00000000   -0.00000000    0.00000000
     atom   19 type  1   force =     0.00000000    0.00000000    0.00000000
     atom   20 type  1   force =    -0.00000000   -0.00000000    0.00000000
     atom   21 type  1   force =     0.00000000   -0.00000000    0.00000000
     atom   22 type  1   force =    -0.00000000   -0.00000000    0.00000000
     atom   23 type  1   force =    -0.00000000   -0.00000000    0.00000000
     atom   24 type  1   force =     0.00000000    0.00000000    0.00000000
     atom   25 type  1   force =    -0.00000000    0.00000000    0.00000000
     atom   26 type  1   force =     0.00000000    0.00000000    0.00000000
     atom   27 type  1   force =    -0.00000000   -0.00000000    0.00000000
     atom   28 type  1   force =    -0.00000000    0.00000000    0.00000000
     atom   29 type  1   force =    -0.00000000   -0.00000000    0.00000000
     atom   30 type  1   force =     0.00000000   -0.00000000    0.00000000
     atom   31 type  1   force =    -0.00000000   -0.00000000    0.00000000
     atom   32 type  1   force =    -0.00000000   -0.00000000    0.00000000
     atom   33 type  1   force =     0.00000000   -0.00000000    0.00000000
     atom   34 type  1   force =    -0.00000000    0.00000000    0.00000000
     atom   35 type  1   force =     0.00000000    0.00000000    0.00000000
     atom   36 type  1   force =     0.00000000   -0.00000000    0.00000000
     atom   37 type  2   force =    -0.00001161   -0.00000740    0.00000671
     atom   38 type  3   force =    -0.00000341   -0.00000087   -0.00000804
     atom   39 type  4   force =    -0.00000099   -0.00000125    0.00000284

     Total force =     0.014694     Total SCF correction =     0.000018

     Writing all to output data dir ./pwscf.save/

     init_run     :     15.28s CPU     15.76s WALL (       1 calls)
     electrons    :    979.48s CPU   1000.28s WALL (       1 calls)
     forces       :      3.46s CPU      3.56s WALL (       1 calls)

     Called by init_run:
     wfcinit      :      8.45s CPU      8.80s WALL (       1 calls)
     potinit      :      5.73s CPU      5.84s WALL (       1 calls)
     hinit0       :      0.84s CPU      0.85s WALL (       1 calls)

     Called by electrons:
     c_bands      :    811.74s CPU    826.45s WALL (      57 calls)
     sum_band     :    108.58s CPU    113.44s WALL (      57 calls)
     v_of_rho     :     15.03s CPU     15.54s WALL (      58 calls)
     newd         :      3.31s CPU      3.37s WALL (      58 calls)
     PAW_pot      :     14.53s CPU     14.70s WALL (      58 calls)
     mix_rho      :     31.29s CPU     31.67s WALL (      57 calls)
     vdW_kernel   :      4.87s CPU      4.90s WALL (       1 calls)

     Called by c_bands:
     init_us_2    :      9.80s CPU     10.01s WALL (    3016 calls)
     init_us_2:cp :      9.78s CPU     10.01s WALL (    3016 calls)
     cegterg      :    782.16s CPU    796.07s WALL (    1482 calls)

     Called by *egterg:
     cdiaghg      :    213.01s CPU    214.59s WALL (    4614 calls)
     h_psi        :    379.19s CPU    389.34s WALL (    4640 calls)
     s_psi        :     40.84s CPU     41.51s WALL (    4640 calls)
     g_psi        :      1.05s CPU      1.08s WALL (    3132 calls)

     Called by h_psi:
     h_psi:calbec :     62.30s CPU     64.27s WALL (    4640 calls)
     vloc_psi     :    273.07s CPU    279.95s WALL (    4640 calls)
     add_vuspsi   :     41.11s CPU     42.38s WALL (    4640 calls)

     General routines
     calbec       :     91.95s CPU     95.40s WALL (    6226 calls)
     fft          :      7.38s CPU      7.90s WALL (    5239 calls)
     ffts         :     17.22s CPU     17.45s WALL (   25310 calls)
     fftw         :    317.23s CPU    326.29s WALL ( 1531988 calls)
     interpolate  :      0.41s CPU      0.41s WALL (     116 calls)

     Parallel routines

     PWSCF        :  16m49.83s CPU  17m17.20s WALL


   This run was terminated on:  10:37:38  17Dec2025            

=------------------------------------------------------------------------------=
   JOB DONE.
=------------------------------------------------------------------------------=
