
     Program PWSCF v.7.1 starts on 21Nov2025 at 13:35:12 
        Git branch: heads/qe-7.1
        Last git commit: 48ba0178f8fede6d020eb786884699a9f063f55d-dirty
        Last git commit date: Fri Jan 27 14:22:33 2023 +0000
        Last git commit subject: Merge branch 'fix_hubbard' into 'develop'

     This program is part of the open-source Quantum ESPRESSO suite
     for quantum simulation of materials; please cite
         "P. Giannozzi et al., J. Phys.:Condens. Matter 21 395502 (2009);
         "P. Giannozzi et al., J. Phys.:Condens. Matter 29 465901 (2017);
         "P. Giannozzi et al., J. Chem. Phys. 152 154105 (2020);
          URL http://www.quantum-espresso.org", 
     in publications or presentations arising from this work. More details at
     http://www.quantum-espresso.org/quote

     Parallel version (MPI), running on    96 processors

     MPI processes distributed on     2 nodes
     55546 MiB available memory on the printing compute node when the environment starts

     Reading input from espresso.pwi
Warning: card &CELL ignored
Warning: card / ignored
Warning: card &FCP ignored
Warning: card / ignored
Warning: card &RISM ignored
Warning: card / ignored

     Current dimensions of program PWSCF are:
     Max number of different atomic species (ntypx) = 10
     Max number of k-points (npk) =  40000
     Max angular momentum in pseudopotentials (lmaxx) =  4
     file Co.pbe-n-kjpaw_psl.1.0.0.UPF: wavefunction(s)  4S 3D renormalized
     file C.pbe-n-kjpaw_psl.1.0.0.UPF: wavefunction(s)  2S 2P renormalized
     file O.pbe-nl-kjpaw_psl.1.0.0.UPF: wavefunction(s)  2S 2P renormalized
     file H.pbe-kjpaw_psl.1.0.0.UPF: wavefunction(s)  1S renormalized

     **************************************************************************
     Initializing libbeef V0.1.2 with the BEEF-vdW functional.
     Citation: Wellendorff et al., PRB 85, 235149 (2012).
     **************************************************************************


     IMPORTANT: XC functional enforced from input :
     Exchange-correlation= BEEF-VDW
                           (   1   4  43  14   2   0   0)
     Any further DFT definition will be discarded
     Please, verify this is what you really want


     R & G space division:  proc/nbgrp/npool/nimage =      96
     Subspace diagonalization in iterative solution of the eigenvalue problem:
     one sub-group per band group will be used
     custom distributed-memory algorithm (size of sub-group:  2*  2 procs)


     Parallelization info
     --------------------
     sticks:   dense  smooth     PW     G-vecs:    dense   smooth      PW
     Min          43      23      6                 7829     3049     440
     Max          44      24      7                 7845     3068     465
     Sum        4153    2221    613               752179   293251   42993

     Using Slab Decomposition



     bravais-lattice index     =            0
     lattice parameter (alat)  =      14.1729  a.u.
     unit-cell volume          =    8574.3059 (a.u.)^3
     number of atoms/cell      =           39
     number of atomic types    =            4
     number of electrons       =       335.00
     number of Kohn-Sham states=          202
     kinetic-energy cutoff     =      40.0000  Ry
     charge density cutoff     =     300.0000  Ry
     scf convergence threshold =      1.0E-06
     mixing beta               =       0.7000
     number of iterations used =            8  local-TF  mixing
     Exchange-correlation= BEEF-VDW
                           (   1   4  43  14   2   0   0)

     celldm(1)=  14.172946  celldm(2)=   0.000000  celldm(3)=   0.000000
     celldm(4)=   0.000000  celldm(5)=   0.000000  celldm(6)=   0.000000

     crystal axes: (cart. coord. in units of alat)
               a(1) = (   1.000000   0.000000   0.000000 )  
               a(2) = (   0.500000   0.866025   0.000000 )  
               a(3) = (   0.000000   0.000000   3.477667 )  

     reciprocal axes: (cart. coord. in units 2 pi/alat)
               b(1) = (  1.000000 -0.577350  0.000000 )  
               b(2) = (  0.000000  1.154701  0.000000 )  
               b(3) = (  0.000000  0.000000  0.287549 )  


     PseudoPot. # 1 for Co read from file:
     /users/kbadger1/espresso/pseudo/pslibrary.1.0.0/pbe/PSEUDOPOTENTIALS/Co.pbe-n-kjpaw_psl.1.0.0.UPF
     MD5 check sum: 88af6ec42553d4236c267fdfcb472151
     Pseudo is Projector augmented-wave + core cor, Zval =  9.0
     Generated using 'atomic' code by A. Dal Corso  v.7.0
     Shape of augmentation charge: PSQ
     Using radial grid of 1193 points,  6 beta functions with: 
                l(1) =   0
                l(2) =   0
                l(3) =   1
                l(4) =   1
                l(5) =   2
                l(6) =   2
     Q(r) pseudized with 0 coefficients 


     PseudoPot. # 2 for C  read from file:
     /users/kbadger1/espresso/pseudo/pslibrary.1.0.0/pbe/PSEUDOPOTENTIALS/C.pbe-n-kjpaw_psl.1.0.0.UPF
     MD5 check sum: 6408e75cdba28732cea38a4db8498ce4
     Pseudo is Projector augmented-wave + core cor, Zval =  4.0
     Generated using 'atomic' code by A. Dal Corso  v.7.0
     Shape of augmentation charge: PSQ
     Using radial grid of 1073 points,  4 beta functions with: 
                l(1) =   0
                l(2) =   0
                l(3) =   1
                l(4) =   1
     Q(r) pseudized with 0 coefficients 


     PseudoPot. # 3 for O  read from file:
     /users/kbadger1/espresso/pseudo/pslibrary.1.0.0/pbe/PSEUDOPOTENTIALS/O.pbe-nl-kjpaw_psl.1.0.0.UPF
     MD5 check sum: f0439fab3598ca4e468f064226030408
     Pseudo is Projector augmented-wave + core cor, Zval =  6.0
     Generated using 'atomic' code by A. Dal Corso  v.7.0
     Shape of augmentation charge: PSQ
     Using radial grid of 1095 points,  4 beta functions with: 
                l(1) =   0
                l(2) =   0
                l(3) =   1
                l(4) =   1
     Q(r) pseudized with 0 coefficients 


     PseudoPot. # 4 for H  read from file:
     /users/kbadger1/espresso/pseudo/pslibrary.1.0.0/pbe/PSEUDOPOTENTIALS/H.pbe-kjpaw_psl.1.0.0.UPF
     MD5 check sum: fe4c6fa958fa6d3815bf5d2419cbf1df
     Pseudo is Projector augmented-wave, Zval =  1.0
     Generated using 'atomic' code by A. Dal Corso  v.7.0
     Shape of augmentation charge: PSQ
     Using radial grid of  929 points,  2 beta functions with: 
                l(1) =   0
                l(2) =   0
     Q(r) pseudized with 0 coefficients 


     atomic species   valence    mass     pseudopotential
        Co             9.00    58.93319     Co( 1.00)
        C              4.00    12.00000     C ( 1.00)
        O              6.00    15.99491     O ( 1.00)
        H              1.00     1.00783     H ( 1.00)

     Starting magnetic structure 
     atomic species   magnetization
        Co           1.000
        C            1.000
        O            0.000
        H            0.000

     No symmetry found



   Cartesian axes

     site n.     atom                  positions (alat units)
         1           Co  tau(   1) = (   0.0000000   0.1924501   1.3333333  )
         2           Co  tau(   2) = (   0.3333333   0.1924501   1.3333333  )
         3           Co  tau(   3) = (   0.6666667   0.1924501   1.3333333  )
         4           Co  tau(   4) = (   0.1666667   0.4811252   1.3333333  )
         5           Co  tau(   5) = (   0.5000000   0.4811252   1.3333333  )
         6           Co  tau(   6) = (   0.8333333   0.4811252   1.3333333  )
         7           Co  tau(   7) = (   0.3333333   0.7698004   1.3333333  )
         8           Co  tau(   8) = (   0.6666667   0.7698004   1.3333333  )
         9           Co  tau(   9) = (   1.0000000   0.7698004   1.3333333  )
        10           Co  tau(  10) = (   0.0000000   0.0000000   1.6036667  )
        11           Co  tau(  11) = (   0.3333333   0.0000000   1.6036667  )
        12           Co  tau(  12) = (   0.6666667   0.0000000   1.6036667  )
        13           Co  tau(  13) = (   0.1666667   0.2886751   1.6036667  )
        14           Co  tau(  14) = (   0.5000000   0.2886751   1.6036667  )
        15           Co  tau(  15) = (   0.8333333   0.2886751   1.6036667  )
        16           Co  tau(  16) = (   0.3333333   0.5773503   1.6036667  )
        17           Co  tau(  17) = (   0.6666667   0.5773503   1.6036667  )
        18           Co  tau(  18) = (   1.0000000   0.5773503   1.6036667  )
        19           Co  tau(  19) = (   0.0000000   0.1924501   1.8740000  )
        20           Co  tau(  20) = (   0.3333333   0.1924501   1.8740000  )
        21           Co  tau(  21) = (   0.6666667   0.1924501   1.8740000  )
        22           Co  tau(  22) = (   0.1666667   0.4811252   1.8740000  )
        23           Co  tau(  23) = (   0.5000000   0.4811252   1.8740000  )
        24           Co  tau(  24) = (   0.8333333   0.4811252   1.8740000  )
        25           Co  tau(  25) = (   0.3333333   0.7698004   1.8740000  )
        26           Co  tau(  26) = (   0.6666667   0.7698004   1.8740000  )
        27           Co  tau(  27) = (   1.0000000   0.7698004   1.8740000  )
        28           Co  tau(  28) = (   0.0000000   0.0000000   2.1443333  )
        29           Co  tau(  29) = (   0.3333333   0.0000000   2.1443333  )
        30           Co  tau(  30) = (   0.6666667   0.0000000   2.1443333  )
        31           Co  tau(  31) = (   0.1666667   0.2886751   2.1443333  )
        32           Co  tau(  32) = (   0.5000000   0.2886751   2.1443333  )
        33           Co  tau(  33) = (   0.8333333   0.2886751   2.1443333  )
        34           Co  tau(  34) = (   0.3333333   0.5773503   2.1443333  )
        35           Co  tau(  35) = (   0.6666667   0.5773503   2.1443333  )
        36           Co  tau(  36) = (   1.0000000   0.5773503   2.1443333  )
        37           C   tau(  37) = (   0.3363565   0.1959487   2.3223876  )
        38           O   tau(  38) = (   0.2989138   0.1759552   2.4766724  )
        39           H   tau(  39) = (   0.5639274   0.3207403   2.3334485  )

     number of k points=    13  Marzari-Vanderbilt smearing, width (Ry)=  0.0010
                       cart. coord. in units 2pi/alat
        k(    1) = (   0.0000000   0.0000000   0.0000000), wk =   0.0400000
        k(    2) = (   0.0000000   0.2309401   0.0000000), wk =   0.0800000
        k(    3) = (   0.0000000   0.4618802   0.0000000), wk =   0.0800000
        k(    4) = (   0.2000000  -0.1154701   0.0000000), wk =   0.0800000
        k(    5) = (   0.2000000   0.1154701   0.0000000), wk =   0.0800000
        k(    6) = (   0.2000000   0.3464102   0.0000000), wk =   0.0800000
        k(    7) = (   0.2000000  -0.5773503   0.0000000), wk =   0.0800000
        k(    8) = (   0.2000000  -0.3464102   0.0000000), wk =   0.0800000
        k(    9) = (   0.4000000  -0.2309401   0.0000000), wk =   0.0800000
        k(   10) = (   0.4000000   0.0000000   0.0000000), wk =   0.0800000
        k(   11) = (   0.4000000   0.2309401   0.0000000), wk =   0.0800000
        k(   12) = (   0.4000000  -0.6928203   0.0000000), wk =   0.0800000
        k(   13) = (   0.4000000  -0.4618802   0.0000000), wk =   0.0800000

     Dense  grid:   752179 G-vectors     FFT dimensions: (  80,  80, 288)

     Smooth grid:   293251 G-vectors     FFT dimensions: (  60,  60, 200)

     Estimated max dynamical RAM per process >      84.82 MB

     Estimated total dynamical RAM >       7.95 GB
     Generating pointlists ...
     new r_m :   0.0834 (alat units)  1.1821 (a.u.) for type    1
     new r_m :   0.0660 (alat units)  0.9355 (a.u.) for type    2
     new r_m :   0.0660 (alat units)  0.9355 (a.u.) for type    3
     new r_m :   0.0834 (alat units)  1.1821 (a.u.) for type    4

     Initial potential from superposition of free atoms

     starting charge     334.9897, renormalised to     335.0000

     negative rho (up, down):  3.057E-03 4.615E-04


     %%%%%%%%%%%%%%%%%%%%%%%%%%%%%%%%%%%%%%%%%%%%%%%%%%%%%%%%%%%%%%%%%%%%%%%%
     %                                                                      %
     % You are using vdW-DF, which was implemented by the Thonhauser group. %
     % Please cite the following two papers that made this development      %
     % possible and the two reviews that describe the various versions:     %
     %                                                                      %
     %   T. Thonhauser et al., PRL 115, 136402 (2015).                      %
     %   T. Thonhauser et al., PRB 76, 125112 (2007).                       %
     %   K. Berland et al., Rep. Prog. Phys. 78, 066501 (2015).             %
     %   D.C. Langreth et al., J. Phys.: Condens. Matter 21, 084203 (2009). %
     %                                                                      %
     % If you are calculating stress with vdW-DF, please also cite:         %
     %                                                                      %
     %   R. Sabatini et al., J. Phys.: Condens. Matter 24, 424209 (2012).   %
     %   C.M. Frostenson et al., Electr. Struct. 4, 014001 (2022).          %
     %                                                                      %
     %%%%%%%%%%%%%%%%%%%%%%%%%%%%%%%%%%%%%%%%%%%%%%%%%%%%%%%%%%%%%%%%%%%%%%%%

     %%%%%%%%%%%%%%%%%%%%%%%%%%%%%%%%%%%%%%%%%%%%%%%%%%%%%%%%%%%%%%%%%%%%%%%%
     %                                                                      %
     %  vdW-DF NEWS:                                                        %
     %                                                                      %
     %  * vdW-DF3 is now available. DOI: 10.1021/acs.jctc.0c00471           %
     %    use with input_dft = 'vdW-DF3-opt1' or 'vdW-DF3-opt2'             %
     %                                                                      %
     %  * Unscreened and range-separated hybrid vdW-DF-cx functionals       %
     %    DOI: 10.1063/1.4986522 and 10.1088/1361-648X/ac2ad2               %
     %    use with input_dft = 'vdW-DF-cx0'    and 'vdW-DF-ahcx'            %
     %  * Unscreened and range-separated hybrid vdW-DF2-b86r functionals    %
     %    DOI: 10.1063/1.4986522 and DOI: 10.1103/PhysRevX.12.041003        %
     %    use with input_dft = 'vdW-DF2-br0' and 'vdW-DF2-ahbr'             %
     %                                                                      %
     %%%%%%%%%%%%%%%%%%%%%%%%%%%%%%%%%%%%%%%%%%%%%%%%%%%%%%%%%%%%%%%%%%%%%%%%


     Starting wfcs are  333 randomized atomic wfcs
     Checking if some PAW data can be deallocated... 

     total cpu time spent up to now is       11.6 secs

     per-process dynamical memory:   212.4 Mb

     Self-consistent Calculation

     iteration #  1     ecut=    40.00 Ry     beta= 0.70
     Davidson diagonalization with overlap
     ethr =  1.00E-02,  avg # of iterations =  2.0

     negative rho (up, down):  6.546E-05 1.297E-06

     total cpu time spent up to now is       26.4 secs

     total energy              =   -6052.94405866 Ry
     estimated scf accuracy    <      39.32038649 Ry

     total magnetization       =    69.00 Bohr mag/cell
     absolute magnetization    =    81.33 Bohr mag/cell

     iteration #  2     ecut=    40.00 Ry     beta= 0.70
     Davidson diagonalization with overlap
     ethr =  1.00E-02,  avg # of iterations =  1.0

     negative rho (up, down):  2.756E-05 8.074E-07

     total cpu time spent up to now is       38.6 secs

     total energy              =   -6052.39849287 Ry
     estimated scf accuracy    <      25.32443537 Ry

     total magnetization       =    68.86 Bohr mag/cell
     absolute magnetization    =    76.79 Bohr mag/cell

     iteration #  3     ecut=    40.00 Ry     beta= 0.70
     Davidson diagonalization with overlap
     ethr =  7.56E-03,  avg # of iterations =  1.0

     negative rho (up, down):  1.308E-06 2.667E-06

     total cpu time spent up to now is       50.9 secs

     total energy              =   -6055.00368436 Ry
     estimated scf accuracy    <      82.70625567 Ry

     total magnetization       =    66.29 Bohr mag/cell
     absolute magnetization    =    73.60 Bohr mag/cell

     iteration #  4     ecut=    40.00 Ry     beta= 0.70
     Davidson diagonalization with overlap
     ethr =  7.56E-03,  avg # of iterations =  1.0

     negative rho (up, down):  1.434E-06 6.822E-07

     total cpu time spent up to now is       63.0 secs

     total energy              =   -6056.26838689 Ry
     estimated scf accuracy    <       5.12159428 Ry

     total magnetization       =    60.28 Bohr mag/cell
     absolute magnetization    =    70.10 Bohr mag/cell

     iteration #  5     ecut=    40.00 Ry     beta= 0.70
     Davidson diagonalization with overlap
     ethr =  1.53E-03,  avg # of iterations =  1.2

     negative rho (up, down):  1.422E-06 5.689E-07

     total cpu time spent up to now is       74.7 secs

     total energy              =   -6056.28451084 Ry
     estimated scf accuracy    <       2.45918219 Ry

     total magnetization       =    59.89 Bohr mag/cell
     absolute magnetization    =    69.38 Bohr mag/cell

     iteration #  6     ecut=    40.00 Ry     beta= 0.70
     Davidson diagonalization with overlap
     ethr =  7.34E-04,  avg # of iterations =  1.7

     negative rho (up, down):  1.650E-06 7.994E-07

     total cpu time spent up to now is       87.7 secs

     total energy              =   -6056.39442373 Ry
     estimated scf accuracy    <       0.58374336 Ry

     total magnetization       =    59.57 Bohr mag/cell
     absolute magnetization    =    68.75 Bohr mag/cell

     iteration #  7     ecut=    40.00 Ry     beta= 0.70
     Davidson diagonalization with overlap
     ethr =  1.74E-04,  avg # of iterations =  6.0

     negative rho (up, down):  1.418E-06 6.975E-07

     total cpu time spent up to now is      104.8 secs

     total energy              =   -6056.44005656 Ry
     estimated scf accuracy    <       0.70924013 Ry

     total magnetization       =    59.64 Bohr mag/cell
     absolute magnetization    =    68.48 Bohr mag/cell

     iteration #  8     ecut=    40.00 Ry     beta= 0.70
     Davidson diagonalization with overlap
     ethr =  1.74E-04,  avg # of iterations =  1.6

     negative rho (up, down):  1.067E-06 5.110E-07

     total cpu time spent up to now is      117.2 secs

     total energy              =   -6056.45347662 Ry
     estimated scf accuracy    <       0.15836793 Ry

     total magnetization       =    59.66 Bohr mag/cell
     absolute magnetization    =    68.33 Bohr mag/cell

     iteration #  9     ecut=    40.00 Ry     beta= 0.70
     Davidson diagonalization with overlap
     c_bands:  1 eigenvalues not converged
     c_bands:  2 eigenvalues not converged
     ethr =  4.73E-05,  avg # of iterations =  8.8

     negative rho (up, down):  6.526E-07 3.548E-07

     total cpu time spent up to now is      137.7 secs

     total energy              =   -6056.45194050 Ry
     estimated scf accuracy    <       0.14764012 Ry

     total magnetization       =    60.13 Bohr mag/cell
     absolute magnetization    =    68.37 Bohr mag/cell

     iteration # 10     ecut=    40.00 Ry     beta= 0.70
     Davidson diagonalization with overlap
     ethr =  4.41E-05,  avg # of iterations =  2.3

     negative rho (up, down):  3.221E-07 2.090E-07

     total cpu time spent up to now is      150.4 secs

     total energy              =   -6056.45750804 Ry
     estimated scf accuracy    <       0.18341572 Ry

     total magnetization       =    60.12 Bohr mag/cell
     absolute magnetization    =    68.21 Bohr mag/cell

     iteration # 11     ecut=    40.00 Ry     beta= 0.70
     Davidson diagonalization with overlap
     ethr =  4.41E-05,  avg # of iterations =  1.6

     negative rho (up, down):  2.526E-07 1.641E-07

     total cpu time spent up to now is      162.6 secs

     total energy              =   -6056.45761149 Ry
     estimated scf accuracy    <       0.12075997 Ry

     total magnetization       =    60.12 Bohr mag/cell
     absolute magnetization    =    68.06 Bohr mag/cell

     iteration # 12     ecut=    40.00 Ry     beta= 0.70
     Davidson diagonalization with overlap
     ethr =  3.60E-05,  avg # of iterations =  1.9

     negative rho (up, down):  5.395E-07 2.189E-07

     total cpu time spent up to now is      175.1 secs

     total energy              =   -6056.46096274 Ry
     estimated scf accuracy    <       0.08321475 Ry

     total magnetization       =    60.12 Bohr mag/cell
     absolute magnetization    =    67.93 Bohr mag/cell

     iteration # 13     ecut=    40.00 Ry     beta= 0.70
     Davidson diagonalization with overlap
     ethr =  2.48E-05,  avg # of iterations =  1.3

     negative rho (up, down):  6.133E-08 2.127E-08

     total cpu time spent up to now is      187.6 secs

     total energy              =   -6056.45912386 Ry
     estimated scf accuracy    <       0.09569654 Ry

     total magnetization       =    60.12 Bohr mag/cell
     absolute magnetization    =    67.90 Bohr mag/cell

     iteration # 14     ecut=    40.00 Ry     beta= 0.70
     Davidson diagonalization with overlap
     ethr =  2.48E-05,  avg # of iterations =  2.0

     negative rho (up, down):  1.327E-04 2.345E-05

     total cpu time spent up to now is      200.1 secs

     total energy              =   -6056.45443935 Ry
     estimated scf accuracy    <       0.08903132 Ry

     total magnetization       =    60.12 Bohr mag/cell
     absolute magnetization    =    67.93 Bohr mag/cell

     iteration # 15     ecut=    40.00 Ry     beta= 0.70
     Davidson diagonalization with overlap
     ethr =  2.48E-05,  avg # of iterations =  1.7

     negative rho (up, down):  8.548E-03 6.752E-03

     total cpu time spent up to now is      212.1 secs

     total energy              =   -6056.45255648 Ry
     estimated scf accuracy    <       0.12023142 Ry

     total magnetization       =    60.12 Bohr mag/cell
     absolute magnetization    =    67.86 Bohr mag/cell

     iteration # 16     ecut=    40.00 Ry     beta= 0.70
     Davidson diagonalization with overlap
     ethr =  2.48E-05,  avg # of iterations =  1.2

     negative rho (up, down):  1.433E-02 1.239E-02

     total cpu time spent up to now is      223.8 secs

     total energy              =   -6056.45441170 Ry
     estimated scf accuracy    <       0.02158806 Ry

     total magnetization       =    60.12 Bohr mag/cell
     absolute magnetization    =    67.83 Bohr mag/cell

     iteration # 17     ecut=    40.00 Ry     beta= 0.70
     Davidson diagonalization with overlap
     c_bands:  1 eigenvalues not converged
     c_bands:  3 eigenvalues not converged
     c_bands:  1 eigenvalues not converged
     c_bands:  3 eigenvalues not converged
     c_bands:  1 eigenvalues not converged
     c_bands:  1 eigenvalues not converged
     c_bands:  3 eigenvalues not converged
     c_bands:  1 eigenvalues not converged
     c_bands:  3 eigenvalues not converged
     c_bands:  3 eigenvalues not converged
     c_bands:  2 eigenvalues not converged
     c_bands:  4 eigenvalues not converged
     ethr =  6.44E-06,  avg # of iterations = 13.9

     negative rho (up, down):  1.687E-02 1.526E-02

     total cpu time spent up to now is      248.8 secs

     total energy              =   -6056.45431409 Ry
     estimated scf accuracy    <       0.04044576 Ry

     total magnetization       =    60.12 Bohr mag/cell
     absolute magnetization    =    67.76 Bohr mag/cell

     iteration # 18     ecut=    40.00 Ry     beta= 0.70
     Davidson diagonalization with overlap
     ethr =  6.44E-06,  avg # of iterations =  2.6

     negative rho (up, down):  1.599E-02 1.426E-02

     total cpu time spent up to now is      261.6 secs

     total energy              =   -6056.45524499 Ry
     estimated scf accuracy    <       0.04046035 Ry

     total magnetization       =    60.12 Bohr mag/cell
     absolute magnetization    =    67.74 Bohr mag/cell

     iteration # 19     ecut=    40.00 Ry     beta= 0.70
     Davidson diagonalization with overlap
     ethr =  6.44E-06,  avg # of iterations =  1.0

     negative rho (up, down):  1.728E-02 1.561E-02

     total cpu time spent up to now is      272.9 secs

     total energy              =   -6056.45492895 Ry
     estimated scf accuracy    <       0.00934823 Ry

     total magnetization       =    60.12 Bohr mag/cell
     absolute magnetization    =    67.73 Bohr mag/cell

     iteration # 20     ecut=    40.00 Ry     beta= 0.70
     Davidson diagonalization with overlap
     c_bands:  2 eigenvalues not converged
     ethr =  2.79E-06,  avg # of iterations =  2.8

     negative rho (up, down):  2.177E-02 2.016E-02

     total cpu time spent up to now is      286.3 secs

     total energy              =   -6056.45445139 Ry
     estimated scf accuracy    <       0.01281420 Ry

     total magnetization       =    60.12 Bohr mag/cell
     absolute magnetization    =    67.71 Bohr mag/cell

     iteration # 21     ecut=    40.00 Ry     beta= 0.70
     Davidson diagonalization with overlap
     ethr =  2.79E-06,  avg # of iterations =  1.7

     negative rho (up, down):  1.917E-02 1.771E-02

     total cpu time spent up to now is      299.2 secs

     total energy              =   -6056.45466311 Ry
     estimated scf accuracy    <       0.00678813 Ry

     total magnetization       =    60.12 Bohr mag/cell
     absolute magnetization    =    67.69 Bohr mag/cell

     iteration # 22     ecut=    40.00 Ry     beta= 0.70
     Davidson diagonalization with overlap
     ethr =  2.03E-06,  avg # of iterations =  1.9

     negative rho (up, down):  1.810E-02 1.677E-02

     total cpu time spent up to now is      311.7 secs

     total energy              =   -6056.45464017 Ry
     estimated scf accuracy    <       0.01060626 Ry

     total magnetization       =    60.12 Bohr mag/cell
     absolute magnetization    =    67.68 Bohr mag/cell

     iteration # 23     ecut=    40.00 Ry     beta= 0.70
     Davidson diagonalization with overlap
     ethr =  2.03E-06,  avg # of iterations =  1.2

     negative rho (up, down):  9.587E-03 8.645E-03

     total cpu time spent up to now is      323.3 secs

     total energy              =   -6056.45490432 Ry
     estimated scf accuracy    <       0.00177412 Ry

     total magnetization       =    60.12 Bohr mag/cell
     absolute magnetization    =    67.69 Bohr mag/cell

     iteration # 24     ecut=    40.00 Ry     beta= 0.70
     Davidson diagonalization with overlap
     ethr =  5.30E-07,  avg # of iterations =  2.9

     negative rho (up, down):  6.945E-03 6.220E-03

     total cpu time spent up to now is      336.8 secs

     total energy              =   -6056.45525859 Ry
     estimated scf accuracy    <       0.00454025 Ry

     total magnetization       =    60.12 Bohr mag/cell
     absolute magnetization    =    67.70 Bohr mag/cell

     iteration # 25     ecut=    40.00 Ry     beta= 0.70
     Davidson diagonalization with overlap
     ethr =  5.30E-07,  avg # of iterations =  1.8

     negative rho (up, down):  8.820E-03 8.053E-03

     total cpu time spent up to now is      349.2 secs

     total energy              =   -6056.45530178 Ry
     estimated scf accuracy    <       0.00135560 Ry

     total magnetization       =    60.12 Bohr mag/cell
     absolute magnetization    =    67.71 Bohr mag/cell

     iteration # 26     ecut=    40.00 Ry     beta= 0.70
     Davidson diagonalization with overlap
     ethr =  4.05E-07,  avg # of iterations =  1.6

     negative rho (up, down):  5.940E-03 5.175E-03

     total cpu time spent up to now is      361.9 secs

     total energy              =   -6056.45543586 Ry
     estimated scf accuracy    <       0.00062365 Ry

     total magnetization       =    60.12 Bohr mag/cell
     absolute magnetization    =    67.70 Bohr mag/cell

     iteration # 27     ecut=    40.00 Ry     beta= 0.70
     Davidson diagonalization with overlap
     c_bands:  1 eigenvalues not converged
     ethr =  1.86E-07,  avg # of iterations =  3.0

     negative rho (up, down):  5.274E-03 4.473E-03

     total cpu time spent up to now is      375.1 secs

     total energy              =   -6056.45546416 Ry
     estimated scf accuracy    <       0.00056806 Ry

     total magnetization       =    60.12 Bohr mag/cell
     absolute magnetization    =    67.70 Bohr mag/cell

     iteration # 28     ecut=    40.00 Ry     beta= 0.70
     Davidson diagonalization with overlap
     ethr =  1.70E-07,  avg # of iterations =  1.2

     negative rho (up, down):  4.814E-03 3.995E-03

     total cpu time spent up to now is      386.9 secs

     total energy              =   -6056.45545126 Ry
     estimated scf accuracy    <       0.00019289 Ry

     total magnetization       =    60.12 Bohr mag/cell
     absolute magnetization    =    67.70 Bohr mag/cell

     iteration # 29     ecut=    40.00 Ry     beta= 0.70
     Davidson diagonalization with overlap
     ethr =  5.76E-08,  avg # of iterations =  2.8

     negative rho (up, down):  2.691E-03 1.616E-03

     total cpu time spent up to now is      400.0 secs

     total energy              =   -6056.45549909 Ry
     estimated scf accuracy    <       0.00006154 Ry

     total magnetization       =    60.12 Bohr mag/cell
     absolute magnetization    =    67.70 Bohr mag/cell

     iteration # 30     ecut=    40.00 Ry     beta= 0.70
     Davidson diagonalization with overlap
     ethr =  1.84E-08,  avg # of iterations =  6.7

     negative rho (up, down):  2.653E-03 1.510E-03

     total cpu time spent up to now is      419.0 secs

     total energy              =   -6056.45552938 Ry
     estimated scf accuracy    <       0.00011253 Ry

     total magnetization       =    60.12 Bohr mag/cell
     absolute magnetization    =    67.70 Bohr mag/cell

     iteration # 31     ecut=    40.00 Ry     beta= 0.70
     Davidson diagonalization with overlap
     ethr =  1.84E-08,  avg # of iterations =  1.8

     negative rho (up, down):  2.675E-03 1.550E-03

     total cpu time spent up to now is      431.5 secs

     total energy              =   -6056.45553915 Ry
     estimated scf accuracy    <       0.00001383 Ry

     total magnetization       =    60.12 Bohr mag/cell
     absolute magnetization    =    67.70 Bohr mag/cell

     iteration # 32     ecut=    40.00 Ry     beta= 0.70
     Davidson diagonalization with overlap
     ethr =  4.13E-09,  avg # of iterations =  5.3

     negative rho (up, down):  2.570E-03 1.473E-03

     total cpu time spent up to now is      447.8 secs

     total energy              =   -6056.45554122 Ry
     estimated scf accuracy    <       0.00003185 Ry

     total magnetization       =    60.12 Bohr mag/cell
     absolute magnetization    =    67.70 Bohr mag/cell

     iteration # 33     ecut=    40.00 Ry     beta= 0.70
     Davidson diagonalization with overlap
     ethr =  4.13E-09,  avg # of iterations =  1.9

     negative rho (up, down):  2.548E-03 1.489E-03

     total cpu time spent up to now is      460.3 secs

     total energy              =   -6056.45554213 Ry
     estimated scf accuracy    <       0.00000651 Ry

     total magnetization       =    60.12 Bohr mag/cell
     absolute magnetization    =    67.70 Bohr mag/cell

     iteration # 34     ecut=    40.00 Ry     beta= 0.70
     Davidson diagonalization with overlap
     ethr =  1.94E-09,  avg # of iterations =  3.4

     negative rho (up, down):  2.544E-03 1.492E-03

     total cpu time spent up to now is      474.0 secs

     total energy              =   -6056.45554201 Ry
     estimated scf accuracy    <       0.00000880 Ry

     total magnetization       =    60.12 Bohr mag/cell
     absolute magnetization    =    67.70 Bohr mag/cell

     iteration # 35     ecut=    40.00 Ry     beta= 0.70
     Davidson diagonalization with overlap
     ethr =  1.94E-09,  avg # of iterations =  1.6

     negative rho (up, down):  2.513E-03 1.429E-03

     total cpu time spent up to now is      487.0 secs

     total energy              =   -6056.45554244 Ry
     estimated scf accuracy    <       0.00000534 Ry

     total magnetization       =    60.12 Bohr mag/cell
     absolute magnetization    =    67.69 Bohr mag/cell

     iteration # 36     ecut=    40.00 Ry     beta= 0.70
     Davidson diagonalization with overlap
     ethr =  1.59E-09,  avg # of iterations =  1.5

     negative rho (up, down):  2.501E-03 1.439E-03

     total cpu time spent up to now is      499.1 secs

     total energy              =   -6056.45554200 Ry
     estimated scf accuracy    <       0.00000628 Ry

     total magnetization       =    60.12 Bohr mag/cell
     absolute magnetization    =    67.69 Bohr mag/cell

     iteration # 37     ecut=    40.00 Ry     beta= 0.70
     Davidson diagonalization with overlap
     ethr =  1.59E-09,  avg # of iterations =  2.0

     negative rho (up, down):  2.475E-03 1.404E-03

     total cpu time spent up to now is      511.6 secs

     total energy              =   -6056.45554188 Ry
     estimated scf accuracy    <       0.00001071 Ry

     total magnetization       =    60.12 Bohr mag/cell
     absolute magnetization    =    67.69 Bohr mag/cell

     iteration # 38     ecut=    40.00 Ry     beta= 0.70
     Davidson diagonalization with overlap
     ethr =  1.59E-09,  avg # of iterations =  1.1

     negative rho (up, down):  2.424E-03 1.348E-03

     total cpu time spent up to now is      523.2 secs

     total energy              =   -6056.45554233 Ry
     estimated scf accuracy    <       0.00000249 Ry

     total magnetization       =    60.12 Bohr mag/cell
     absolute magnetization    =    67.69 Bohr mag/cell

     iteration # 39     ecut=    40.00 Ry     beta= 0.70
     Davidson diagonalization with overlap
     ethr =  7.45E-10,  avg # of iterations =  1.8

     negative rho (up, down):  2.399E-03 1.331E-03

     total cpu time spent up to now is      535.8 secs

     total energy              =   -6056.45554217 Ry
     estimated scf accuracy    <       0.00000273 Ry

     total magnetization       =    60.12 Bohr mag/cell
     absolute magnetization    =    67.69 Bohr mag/cell

     iteration # 40     ecut=    40.00 Ry     beta= 0.70
     Davidson diagonalization with overlap
     ethr =  7.45E-10,  avg # of iterations =  1.5

     negative rho (up, down):  2.243E-03 1.155E-03

     Magnetic moment per site  (integrated on atomic sphere of radius R)
     atom   1 (R=0.083)  charge=  5.3033  magn=  1.5710
     atom   2 (R=0.083)  charge=  5.3070  magn=  1.5455
     atom   3 (R=0.083)  charge=  5.3052  magn=  1.5656
     atom   4 (R=0.083)  charge=  5.3058  magn=  1.5677
     atom   5 (R=0.083)  charge=  5.3051  magn=  1.5656
     atom   6 (R=0.083)  charge=  5.3058  magn=  1.5702
     atom   7 (R=0.083)  charge=  5.3031  magn=  1.5750
     atom   8 (R=0.083)  charge=  5.3032  magn=  1.5711
     atom   9 (R=0.083)  charge=  5.3058  magn=  1.5675
     atom  10 (R=0.083)  charge=  5.2960  magn=  1.5060
     atom  11 (R=0.083)  charge=  5.2979  magn=  1.5091
     atom  12 (R=0.083)  charge=  5.2975  magn=  1.5147
     atom  13 (R=0.083)  charge=  5.2979  magn=  1.5091
     atom  14 (R=0.083)  charge=  5.2991  magn=  1.5007
     atom  15 (R=0.083)  charge=  5.2978  magn=  1.5178
     atom  16 (R=0.083)  charge=  5.2974  magn=  1.5147
     atom  17 (R=0.083)  charge=  5.2978  magn=  1.5178
     atom  18 (R=0.083)  charge=  5.2988  magn=  1.5108
     atom  19 (R=0.083)  charge=  5.2964  magn=  1.4902
     atom  20 (R=0.083)  charge=  5.2966  magn=  1.5005
     atom  21 (R=0.083)  charge=  5.2972  magn=  1.4958
     atom  22 (R=0.083)  charge=  5.2978  magn=  1.5028
     atom  23 (R=0.083)  charge=  5.2972  magn=  1.4943
     atom  24 (R=0.083)  charge=  5.2968  magn=  1.5281
     atom  25 (R=0.083)  charge=  5.2960  magn=  1.5080
     atom  26 (R=0.083)  charge=  5.2963  magn=  1.4908
     atom  27 (R=0.083)  charge=  5.2978  magn=  1.5031
     atom  28 (R=0.083)  charge=  5.3031  magn=  1.5942
     atom  29 (R=0.083)  charge=  5.3121  magn=  1.3019
     atom  30 (R=0.083)  charge=  5.3052  magn=  1.5982
     atom  31 (R=0.083)  charge=  5.3124  magn=  1.2908
     atom  32 (R=0.083)  charge=  5.3039  magn=  0.7471
     atom  33 (R=0.083)  charge=  5.3040  magn=  1.5688
     atom  34 (R=0.083)  charge=  5.3053  magn=  1.5981
     atom  35 (R=0.083)  charge=  5.3040  magn=  1.5707
     atom  36 (R=0.083)  charge=  5.3048  magn=  1.5735
     atom  37 (R=0.066)  charge=  1.0653  magn= -0.0232
     atom  38 (R=0.066)  charge=  2.9606  magn= -0.0372
     atom  39 (R=0.083)  charge=  0.6953  magn= -0.0177

     total cpu time spent up to now is      548.2 secs

     End of self-consistent calculation

 ------ SPIN UP ------------


          k = 0.0000 0.0000 0.0000 ( 36693 PWs)   bands (ev):

   -21.7650  -9.4116  -7.6425  -6.3816  -5.8476  -5.7756  -5.4331  -4.8386
    -4.8180  -4.8137  -4.8093  -4.7738  -4.7673  -4.7418  -4.4301  -4.2770
    -4.2730  -4.2727  -4.2232  -4.2208  -4.2059  -3.7574  -3.7528  -3.7493
    -3.7470  -3.7229  -3.6886  -3.6391  -3.6210  -3.6203  -3.6058  -3.6033
    -3.5510  -3.5390  -3.5125  -3.3417  -3.2361  -3.2322  -3.2290  -3.2224
    -3.1675  -3.1642  -3.1582  -3.1529  -3.1435  -3.1378  -3.1264  -3.1189
    -3.0026  -3.0011  -2.9298  -2.9223  -2.9175  -2.9108  -2.9090  -2.9039
    -2.9027  -2.8951  -2.8867  -2.8512  -2.7937  -2.7812  -2.7785  -2.7717
    -2.6849  -2.6409  -2.2816  -2.2490  -2.2477  -2.2436  -2.2377  -2.1480
    -2.1173  -2.1159  -2.0959  -2.0855  -2.0757  -2.0735  -2.0659  -2.0566
    -2.0174  -2.0169  -1.9680  -1.9638  -1.9563  -1.9542  -1.9459  -1.9420
    -1.9285  -1.9254  -1.9248  -1.9206  -1.9133  -1.8950  -1.8899  -1.8854
    -1.8802  -1.8784  -1.8735  -1.8707  -1.8705  -1.8691  -1.8662  -1.8611
    -1.8387  -1.8148  -1.8109  -1.7865  -1.7782  -1.7112  -1.7099  -1.6058
    -1.5205  -1.4307  -1.4236  -1.4209  -1.4196  -1.3952  -1.3879  -1.3794
    -1.3777  -1.3661  -1.3513  -1.3281  -1.3233  -1.2270  -1.1961  -1.1927
    -1.1695  -1.1628  -1.0894  -1.0322  -1.0107  -0.9901  -0.9759  -0.9404
    -0.9380  -0.9240  -0.9226  -0.9191  -0.9181  -0.8657  -0.8002  -0.7833
    -0.6921  -0.6872  -0.6823  -0.6747  -0.6484  -0.6398  -0.6271  -0.6198
    -0.6195  -0.6140  -0.6100  -0.6066  -0.6019  -0.5930  -0.5897  -0.5796
    -0.5793  -0.5720  -0.5607  -0.5416  -0.5415  -0.5400  -0.5272  -0.5170
    -0.5125  -0.5013  -0.4976  -0.4834  -0.4782  -0.4763  -0.4697  -0.4643
    -0.4528  -0.4495  -0.4301  -0.4092  -0.3917  -0.3813  -0.3780  -0.3712
    -0.3624  -0.3555  -0.3360  -0.3282  -0.3209  -0.2958  -0.2924  -0.2889
    -0.2720  -0.2703  -0.2134  -0.2123  -0.2098  -0.1924  -0.1419  -0.1340
     0.4678   0.8628

          k = 0.0000 0.2309 0.0000 ( 36641 PWs)   bands (ev):

   -21.7650  -9.4028  -7.4996  -6.2797  -5.8814  -5.7642  -5.5614  -5.3721
    -5.0499  -5.0315  -4.6784  -4.5470  -4.4682  -4.4613  -4.3959  -4.3430
    -4.2917  -4.2617  -4.1891  -4.1318  -4.1289  -3.8663  -3.7646  -3.7480
    -3.6868  -3.6733  -3.6363  -3.6267  -3.6200  -3.6134  -3.5977  -3.5784
    -3.5455  -3.5099  -3.4840  -3.4709  -3.4496  -3.3296  -3.2671  -3.2458
    -3.2357  -3.1906  -3.1867  -3.1730  -3.1513  -3.0911  -3.0563  -3.0482
    -3.0186  -3.0137  -3.0089  -2.9768  -2.9490  -2.8836  -2.8727  -2.8463
    -2.8066  -2.7995  -2.7810  -2.7759  -2.7447  -2.7218  -2.7126  -2.6926
    -2.6565  -2.6032  -2.3672  -2.3606  -2.3370  -2.3290  -2.3025  -2.2221
    -2.2134  -2.2002  -2.1911  -2.1819  -2.1750  -2.1616  -2.1410  -2.0885
    -2.0801  -2.0646  -2.0449  -2.0098  -2.0088  -2.0030  -1.9867  -1.9778
    -1.9724  -1.9669  -1.9569  -1.9494  -1.9360  -1.9159  -1.8907  -1.8655
    -1.8563  -1.8325  -1.7868  -1.7790  -1.7704  -1.7639  -1.7567  -1.7501
    -1.7374  -1.7316  -1.7257  -1.7214  -1.7016  -1.6896  -1.6723  -1.6692
    -1.6477  -1.6355  -1.6225  -1.5589  -1.5419  -1.4765  -1.4472  -1.4433
    -1.4302  -1.4209  -1.4131  -1.4103  -1.3835  -1.3693  -1.3189  -1.2507
    -1.2308  -1.2179  -1.1562  -1.1464  -1.1277  -1.0888  -1.0643  -1.0434
    -1.0165  -0.9639  -0.9576  -0.9422  -0.9123  -0.9076  -0.8727  -0.8626
    -0.8414  -0.8293  -0.8128  -0.7873  -0.7770  -0.7670  -0.7592  -0.7476
    -0.7097  -0.6897  -0.6830  -0.6797  -0.6539  -0.6425  -0.6187  -0.6102
    -0.6045  -0.5962  -0.5894  -0.5796  -0.5557  -0.5482  -0.5376  -0.5287
    -0.4897  -0.4668  -0.4568  -0.4284  -0.4166  -0.3948  -0.3799  -0.3626
    -0.3495  -0.3386  -0.3344  -0.3272  -0.3130  -0.3037  -0.2961  -0.2517
    -0.2189  -0.2127  -0.2112  -0.1891  -0.1790  -0.1540  -0.1352  -0.1236
    -0.0510   0.0141   0.1445   0.1672   0.2463   0.3258   0.4272   0.4467
     0.4730   0.8004

          k = 0.0000 0.4619 0.0000 ( 36606 PWs)   bands (ev):

   -21.7650  -9.3887  -7.0793  -6.4235  -6.0465  -5.8718  -5.6484  -5.3792
    -5.1884  -5.1517  -5.0332  -4.3648  -4.2952  -4.2883  -4.2576  -4.2169
    -4.1119  -4.1023  -4.0590  -3.9726  -3.9649  -3.9580  -3.8796  -3.7903
    -3.7865  -3.7743  -3.7691  -3.7184  -3.6744  -3.6608  -3.6226  -3.5352
    -3.4995  -3.4835  -3.4711  -3.4513  -3.4289  -3.3668  -3.3388  -3.3332
    -3.3221  -3.3059  -3.2537  -3.2030  -3.1067  -3.0930  -3.0134  -3.0077
    -2.9811  -2.9617  -2.9406  -2.9323  -2.9147  -2.8880  -2.8766  -2.8319
    -2.8247  -2.7873  -2.7577  -2.7454  -2.6282  -2.6182  -2.5885  -2.5636
    -2.5305  -2.5088  -2.4831  -2.4711  -2.4462  -2.3965  -2.3406  -2.3370
    -2.3315  -2.3213  -2.3106  -2.2936  -2.2778  -2.2701  -2.2588  -2.2250
    -2.2016  -2.1684  -2.1540  -2.1418  -2.1053  -2.0983  -2.0628  -2.0132
    -2.0016  -1.9969  -1.9732  -1.9586  -1.9421  -1.9052  -1.8962  -1.8846
    -1.8765  -1.8578  -1.8507  -1.8329  -1.8148  -1.8077  -1.7990  -1.7771
    -1.7661  -1.7404  -1.7028  -1.6883  -1.6247  -1.6144  -1.6003  -1.5892
    -1.5720  -1.5547  -1.5346  -1.5012  -1.4873  -1.4660  -1.4605  -1.4529
    -1.4506  -1.4453  -1.4313  -1.4275  -1.4226  -1.4032  -1.3905  -1.3838
    -1.3729  -1.3475  -1.2775  -1.2521  -1.2378  -1.2178  -1.1995  -1.1839
    -1.1550  -1.0989  -1.0814  -1.0756  -1.0584  -1.0284  -0.9968  -0.9461
    -0.9416  -0.9119  -0.9080  -0.8877  -0.8669  -0.8365  -0.8146  -0.7641
    -0.7498  -0.7073  -0.7011  -0.6850  -0.6803  -0.6753  -0.6606  -0.6576
    -0.6338  -0.6250  -0.5369  -0.5236  -0.5161  -0.5101  -0.5012  -0.4800
    -0.4698  -0.4616  -0.4454  -0.4391  -0.4072  -0.3936  -0.3475  -0.3336
    -0.3194  -0.3013  -0.2758  -0.2395  -0.2286  -0.2022  -0.1916  -0.1580
    -0.1133  -0.1103  -0.1057  -0.0895  -0.0855  -0.0820  -0.0674  -0.0054
     0.0219   0.0865   0.4759   0.6706   0.9570   1.1168   1.1461   1.3361
     1.4833   1.5383

          k = 0.2000-0.1155 0.0000 ( 36641 PWs)   bands (ev):

   -21.7650  -9.4027  -7.4996  -6.2802  -5.8856  -5.7594  -5.5595  -5.3745
    -5.0501  -5.0309  -4.6787  -4.5461  -4.4683  -4.4612  -4.3961  -4.3427
    -4.2922  -4.2619  -4.1886  -4.1321  -4.1294  -3.8661  -3.7661  -3.7476
    -3.6855  -3.6704  -3.6371  -3.6270  -3.6201  -3.6134  -3.5988  -3.5787
    -3.5445  -3.5103  -3.4839  -3.4711  -3.4499  -3.3312  -3.2665  -3.2461
    -3.2356  -3.1907  -3.1870  -3.1727  -3.1513  -3.0927  -3.0563  -3.0481
    -3.0185  -3.0136  -3.0088  -2.9768  -2.9476  -2.8836  -2.8730  -2.8466
    -2.8068  -2.7977  -2.7811  -2.7760  -2.7443  -2.7221  -2.7126  -2.6919
    -2.6559  -2.6041  -2.3672  -2.3607  -2.3372  -2.3286  -2.3023  -2.2221
    -2.2134  -2.2002  -2.1909  -2.1824  -2.1747  -2.1616  -2.1393  -2.0888
    -2.0803  -2.0648  -2.0449  -2.0097  -2.0089  -2.0029  -1.9870  -1.9778
    -1.9725  -1.9672  -1.9569  -1.9493  -1.9354  -1.9167  -1.8901  -1.8656
    -1.8564  -1.8315  -1.7874  -1.7790  -1.7704  -1.7637  -1.7568  -1.7496
    -1.7374  -1.7318  -1.7258  -1.7214  -1.7020  -1.6896  -1.6721  -1.6691
    -1.6483  -1.6362  -1.6226  -1.5599  -1.5427  -1.4773  -1.4471  -1.4433
    -1.4301  -1.4211  -1.4130  -1.4105  -1.3856  -1.3674  -1.3162  -1.2511
    -1.2299  -1.2175  -1.1563  -1.1462  -1.1272  -1.0892  -1.0646  -1.0441
    -1.0147  -0.9643  -0.9580  -0.9431  -0.9132  -0.9078  -0.8732  -0.8630
    -0.8418  -0.8289  -0.8114  -0.7870  -0.7773  -0.7677  -0.7596  -0.7463
    -0.7103  -0.6896  -0.6830  -0.6798  -0.6533  -0.6421  -0.6185  -0.6100
    -0.6045  -0.5959  -0.5892  -0.5795  -0.5560  -0.5485  -0.5372  -0.5296
    -0.4893  -0.4659  -0.4563  -0.4283  -0.4168  -0.3959  -0.3793  -0.3627
    -0.3497  -0.3386  -0.3339  -0.3270  -0.3129  -0.3037  -0.2962  -0.2507
    -0.2189  -0.2119  -0.2109  -0.1890  -0.1789  -0.1543  -0.1355  -0.1234
    -0.0519   0.0139   0.1442   0.1675   0.2439   0.3243   0.4265   0.4468
     0.4740   0.7983

          k = 0.2000 0.1155 0.0000 ( 36641 PWs)   bands (ev):

   -21.7650  -9.4021  -7.5004  -6.2877  -5.9226  -5.7135  -5.4973  -5.4456
    -5.0490  -5.0229  -4.6781  -4.5429  -4.4669  -4.4596  -4.4010  -4.3390
    -4.2897  -4.2697  -4.1918  -4.1304  -4.1280  -3.8697  -3.7548  -3.7489
    -3.6965  -3.6678  -3.6299  -3.6267  -3.6213  -3.6179  -3.5936  -3.5890
    -3.5341  -3.5087  -3.4895  -3.4684  -3.4541  -3.3616  -3.2606  -3.2463
    -3.2274  -3.1914  -3.1843  -3.1718  -3.1594  -3.0653  -3.0555  -3.0486
    -3.0157  -3.0079  -3.0061  -2.9851  -2.9646  -2.8876  -2.8744  -2.8409
    -2.8133  -2.7897  -2.7789  -2.7664  -2.7501  -2.7141  -2.7133  -2.7061
    -2.6348  -2.6121  -2.3673  -2.3648  -2.3310  -2.3260  -2.3035  -2.2217
    -2.2150  -2.2065  -2.1886  -2.1796  -2.1791  -2.1629  -2.1276  -2.0880
    -2.0838  -2.0666  -2.0311  -2.0082  -2.0049  -2.0039  -1.9899  -1.9765
    -1.9702  -1.9694  -1.9607  -1.9472  -1.9271  -1.9163  -1.8928  -1.8673
    -1.8644  -1.8184  -1.7937  -1.7750  -1.7730  -1.7620  -1.7575  -1.7555
    -1.7354  -1.7321  -1.7262  -1.7215  -1.7155  -1.6934  -1.6727  -1.6666
    -1.6491  -1.6453  -1.6116  -1.5571  -1.5459  -1.4902  -1.4486  -1.4378
    -1.4307  -1.4195  -1.4102  -1.4094  -1.3853  -1.3680  -1.2747  -1.2711
    -1.2458  -1.2136  -1.1533  -1.1521  -1.1189  -1.1026  -1.0647  -1.0638
    -0.9988  -0.9678  -0.9634  -0.9318  -0.9238  -0.9125  -0.8750  -0.8652
    -0.8488  -0.8270  -0.8080  -0.7842  -0.7810  -0.7707  -0.7678  -0.7412
    -0.7062  -0.6907  -0.6811  -0.6706  -0.6566  -0.6335  -0.6178  -0.6096
    -0.6043  -0.5928  -0.5900  -0.5783  -0.5614  -0.5486  -0.5461  -0.5369
    -0.4814  -0.4586  -0.4424  -0.4401  -0.4107  -0.4095  -0.3760  -0.3622
    -0.3576  -0.3406  -0.3343  -0.3156  -0.3116  -0.3039  -0.2955  -0.2456
    -0.2129  -0.2095  -0.2084  -0.1854  -0.1811  -0.1312  -0.1226  -0.1195
    -0.0533  -0.0113   0.1459   0.1675   0.2054   0.3203   0.4279   0.4395
     0.4682   0.7714

          k = 0.2000 0.3464 0.0000 ( 36608 PWs)   bands (ev):

   -21.7650  -9.3905  -7.2192  -6.1330  -6.0489  -5.9223  -5.6999  -5.5885
    -5.3884  -4.7653  -4.6882  -4.4772  -4.4630  -4.4153  -4.2551  -4.2465
    -4.1515  -4.1430  -4.1272  -4.0189  -3.9953  -3.8721  -3.8586  -3.7995
    -3.7622  -3.7089  -3.6639  -3.6499  -3.6154  -3.6075  -3.5926  -3.5797
    -3.5613  -3.5492  -3.5052  -3.4763  -3.4458  -3.4205  -3.3817  -3.3461
    -3.2694  -3.2239  -3.1888  -3.1587  -3.1424  -3.1270  -3.0594  -3.0250
    -2.9896  -2.9644  -2.9524  -2.9429  -2.9173  -2.8918  -2.8739  -2.8589
    -2.8322  -2.7914  -2.7342  -2.6774  -2.6586  -2.6475  -2.6355  -2.5989
    -2.5785  -2.5425  -2.4778  -2.4078  -2.3889  -2.3639  -2.3420  -2.3174
    -2.2999  -2.2923  -2.2870  -2.2650  -2.2420  -2.2344  -2.2251  -2.2162
    -2.2037  -2.1666  -2.1403  -2.0879  -2.0416  -2.0324  -2.0145  -1.9969
    -1.9755  -1.9649  -1.9455  -1.9302  -1.9171  -1.8887  -1.8820  -1.8747
    -1.8605  -1.8593  -1.8441  -1.8264  -1.8240  -1.8142  -1.7962  -1.7907
    -1.7623  -1.7432  -1.7180  -1.6961  -1.6909  -1.6653  -1.6437  -1.6409
    -1.6239  -1.6063  -1.5916  -1.5649  -1.5366  -1.5311  -1.5056  -1.4818
    -1.4763  -1.4606  -1.4505  -1.4275  -1.4222  -1.4087  -1.3946  -1.3576
    -1.3193  -1.3070  -1.2860  -1.2281  -1.1775  -1.1579  -1.1432  -1.0723
    -1.0388  -1.0265  -1.0184  -1.0065  -1.0010  -0.9910  -0.9714  -0.9661
    -0.9443  -0.9230  -0.9063  -0.8648  -0.8517  -0.8433  -0.8220  -0.8153
    -0.7936  -0.7723  -0.7493  -0.7441  -0.7381  -0.7238  -0.6216  -0.5856
    -0.5676  -0.5465  -0.5378  -0.5343  -0.5150  -0.5051  -0.4926  -0.4837
    -0.4561  -0.4267  -0.4037  -0.3921  -0.3768  -0.3644  -0.3228  -0.3198
    -0.3082  -0.3069  -0.2956  -0.2757  -0.2624  -0.2550  -0.2442  -0.2262
    -0.2144  -0.1474  -0.1338  -0.1289  -0.0860  -0.0747  -0.0340   0.0632
     0.2389   0.2575   0.3098   0.4571   0.5750   0.6626   1.0151   1.1398
     1.2646   1.4102

          k = 0.2000-0.5774 0.0000 ( 36660 PWs)   bands (ev):

   -21.7650  -9.3841  -6.6951  -6.6554  -6.1037  -5.9422  -5.7972  -5.5548
    -5.2297  -5.1683  -4.7690  -4.4578  -4.2125  -4.1661  -4.0928  -4.0474
    -4.0294  -4.0114  -4.0018  -3.9852  -3.9304  -3.9256  -3.9187  -3.9081
    -3.8451  -3.8027  -3.7712  -3.7584  -3.7397  -3.7252  -3.6332  -3.5919
    -3.5771  -3.5616  -3.5518  -3.4822  -3.4295  -3.3752  -3.3305  -3.2915
    -3.2849  -3.2649  -3.1978  -3.1868  -3.1606  -3.1297  -3.0773  -3.0681
    -3.0312  -3.0024  -2.9469  -2.9003  -2.8706  -2.8458  -2.8336  -2.7857
    -2.7687  -2.7093  -2.6996  -2.6844  -2.6741  -2.6563  -2.6401  -2.5925
    -2.5296  -2.4895  -2.4798  -2.4650  -2.4529  -2.4047  -2.3904  -2.3446
    -2.3349  -2.2966  -2.2841  -2.2837  -2.2699  -2.2506  -2.2291  -2.2164
    -2.2007  -2.1907  -2.1769  -2.1556  -2.1499  -2.1126  -2.0768  -2.0615
    -2.0519  -2.0322  -1.9773  -1.9610  -1.9386  -1.9182  -1.9009  -1.8947
    -1.8718  -1.8613  -1.8505  -1.8452  -1.8283  -1.8096  -1.8037  -1.7877
    -1.7444  -1.7204  -1.7110  -1.6997  -1.6891  -1.6812  -1.6733  -1.6623
    -1.6581  -1.6496  -1.6273  -1.5935  -1.5711  -1.5564  -1.5464  -1.5139
    -1.4632  -1.4572  -1.4240  -1.4066  -1.3963  -1.3841  -1.3753  -1.3357
    -1.3105  -1.2975  -1.2666  -1.2217  -1.1838  -1.1665  -1.1526  -1.1322
    -1.1100  -1.1044  -1.0919  -1.0666  -1.0453  -1.0305  -1.0141  -0.9973
    -0.9530  -0.9382  -0.9277  -0.9156  -0.9023  -0.8688  -0.8400  -0.8287
    -0.8192  -0.7943  -0.7863  -0.7715  -0.7672  -0.7402  -0.7006  -0.5792
    -0.5462  -0.5338  -0.5230  -0.5205  -0.5061  -0.5018  -0.4816  -0.4723
    -0.4486  -0.4390  -0.4301  -0.4132  -0.3703  -0.3246  -0.3008  -0.2931
    -0.2767  -0.2739  -0.2501  -0.2396  -0.2150  -0.2004  -0.1950  -0.1788
    -0.1667  -0.1107  -0.1071  -0.0961  -0.0849  -0.0648  -0.0519   0.0082
     0.1814   0.2889   0.5499   0.8899   1.0960   1.1922   1.3125   1.5516
     1.7028   1.7454

          k = 0.2000-0.3464 0.0000 ( 36608 PWs)   bands (ev):

   -21.7650  -9.3915  -7.2165  -6.1238  -6.0025  -5.9449  -5.7375  -5.6173
    -5.3577  -4.7636  -4.6868  -4.4804  -4.4612  -4.4242  -4.2493  -4.2470
    -4.1512  -4.1434  -4.1309  -4.0191  -3.9925  -3.8718  -3.8546  -3.8057
    -3.7786  -3.7021  -3.6629  -3.6382  -3.6228  -3.6093  -3.5964  -3.5738
    -3.5594  -3.5506  -3.4982  -3.4559  -3.4475  -3.4141  -3.3865  -3.3265
    -3.2696  -3.2395  -3.1869  -3.1669  -3.1373  -3.1272  -3.0777  -3.0250
    -2.9850  -2.9707  -2.9525  -2.9329  -2.9217  -2.8931  -2.8657  -2.8495
    -2.8304  -2.8142  -2.7227  -2.7050  -2.6617  -2.6515  -2.6156  -2.6049
    -2.5844  -2.5480  -2.4722  -2.4064  -2.3854  -2.3622  -2.3423  -2.3134
    -2.2984  -2.2925  -2.2877  -2.2663  -2.2413  -2.2374  -2.2258  -2.2075
    -2.2041  -2.1712  -2.1471  -2.1135  -2.0424  -2.0298  -2.0121  -1.9922
    -1.9809  -1.9606  -1.9559  -1.9284  -1.9041  -1.8925  -1.8866  -1.8814
    -1.8630  -1.8570  -1.8507  -1.8323  -1.8181  -1.8177  -1.7971  -1.7816
    -1.7636  -1.7438  -1.7297  -1.6972  -1.6900  -1.6749  -1.6484  -1.6384
    -1.6294  -1.5990  -1.5897  -1.5621  -1.5372  -1.5185  -1.5014  -1.4854
    -1.4599  -1.4584  -1.4560  -1.4351  -1.4223  -1.4027  -1.3942  -1.3441
    -1.3235  -1.2885  -1.2722  -1.2244  -1.1720  -1.1557  -1.1506  -1.0568
    -1.0432  -1.0329  -1.0111  -1.0066  -0.9997  -0.9873  -0.9781  -0.9530
    -0.9432  -0.9341  -0.9061  -0.8615  -0.8580  -0.8401  -0.8213  -0.8113
    -0.7926  -0.7848  -0.7601  -0.7438  -0.7373  -0.7215  -0.6144  -0.5913
    -0.5784  -0.5490  -0.5431  -0.5265  -0.5133  -0.4984  -0.4971  -0.4808
    -0.4565  -0.4303  -0.3978  -0.3862  -0.3781  -0.3678  -0.3282  -0.3210
    -0.3084  -0.3050  -0.2989  -0.2729  -0.2591  -0.2517  -0.2489  -0.2288
    -0.2256  -0.1524  -0.1308  -0.1282  -0.0860  -0.0737  -0.0532   0.0796
     0.2212   0.2525   0.2911   0.5107   0.5384   0.6750   1.0562   1.1475
     1.2739   1.3870

          k = 0.4000-0.2309 0.0000 ( 36606 PWs)   bands (ev):

   -21.7650  -9.3885  -7.0796  -6.4246  -6.0482  -5.8736  -5.6408  -5.3824
    -5.1886  -5.1503  -5.0342  -4.3643  -4.2961  -4.2890  -4.2574  -4.2167
    -4.1117  -4.1022  -4.0601  -3.9733  -3.9652  -3.9577  -3.8761  -3.7904
    -3.7867  -3.7740  -3.7690  -3.7183  -3.6727  -3.6609  -3.6205  -3.5382
    -3.4996  -3.4843  -3.4712  -3.4513  -3.4287  -3.3679  -3.3391  -3.3335
    -3.3222  -3.3061  -3.2558  -3.2047  -3.1066  -3.0927  -3.0133  -3.0070
    -2.9810  -2.9605  -2.9402  -2.9325  -2.9147  -2.8898  -2.8736  -2.8320
    -2.8250  -2.7886  -2.7564  -2.7430  -2.6284  -2.6174  -2.5876  -2.5640
    -2.5307  -2.5086  -2.4834  -2.4710  -2.4458  -2.3966  -2.3404  -2.3369
    -2.3315  -2.3209  -2.3102  -2.2936  -2.2768  -2.2702  -2.2605  -2.2241
    -2.2010  -2.1685  -2.1543  -2.1418  -2.1046  -2.0987  -2.0648  -2.0133
    -2.0016  -1.9973  -1.9730  -1.9583  -1.9418  -1.9053  -1.8958  -1.8847
    -1.8768  -1.8574  -1.8508  -1.8328  -1.8153  -1.8076  -1.7999  -1.7770
    -1.7656  -1.7407  -1.7028  -1.6887  -1.6255  -1.6152  -1.6002  -1.5882
    -1.5719  -1.5546  -1.5344  -1.5010  -1.4874  -1.4661  -1.4607  -1.4532
    -1.4501  -1.4448  -1.4314  -1.4275  -1.4228  -1.4039  -1.3904  -1.3828
    -1.3723  -1.3472  -1.2788  -1.2513  -1.2377  -1.2183  -1.1999  -1.1832
    -1.1544  -1.0995  -1.0817  -1.0761  -1.0563  -1.0289  -0.9975  -0.9474
    -0.9440  -0.9129  -0.9077  -0.8879  -0.8670  -0.8348  -0.8131  -0.7667
    -0.7503  -0.7065  -0.7007  -0.6847  -0.6802  -0.6752  -0.6603  -0.6574
    -0.6331  -0.6249  -0.5368  -0.5234  -0.5160  -0.5109  -0.5010  -0.4801
    -0.4689  -0.4604  -0.4452  -0.4395  -0.4075  -0.3934  -0.3470  -0.3337
    -0.3192  -0.3018  -0.2741  -0.2391  -0.2287  -0.2019  -0.1915  -0.1580
    -0.1131  -0.1102  -0.1057  -0.0892  -0.0856  -0.0821  -0.0671  -0.0053
     0.0220   0.0858   0.4736   0.6706   0.9563   1.1153   1.1459   1.3305
     1.4836   1.5441

          k = 0.4000 0.0000 0.0000 ( 36608 PWs)   bands (ev):

   -21.7650  -9.3904  -7.2194  -6.1341  -6.0509  -5.9214  -5.6983  -5.5853
    -5.3911  -4.7643  -4.6887  -4.4772  -4.4632  -4.4153  -4.2551  -4.2467
    -4.1515  -4.1431  -4.1270  -4.0189  -3.9966  -3.8717  -3.8594  -3.7994
    -3.7604  -3.7061  -3.6640  -3.6514  -3.6152  -3.6072  -3.5932  -3.5793
    -3.5613  -3.5485  -3.5048  -3.4776  -3.4454  -3.4207  -3.3827  -3.3488
    -3.2696  -3.2243  -3.1886  -3.1578  -3.1423  -3.1270  -3.0596  -3.0251
    -2.9900  -2.9641  -2.9522  -2.9433  -2.9176  -2.8922  -2.8723  -2.8594
    -2.8336  -2.7889  -2.7344  -2.6753  -2.6584  -2.6471  -2.6347  -2.5989
    -2.5792  -2.5427  -2.4779  -2.4078  -2.3881  -2.3637  -2.3420  -2.3177
    -2.2992  -2.2925  -2.2871  -2.2650  -2.2422  -2.2346  -2.2260  -2.2164
    -2.2012  -2.1667  -2.1412  -2.0883  -2.0416  -2.0321  -2.0152  -1.9968
    -1.9758  -1.9662  -1.9445  -1.9299  -1.9174  -1.8887  -1.8821  -1.8747
    -1.8602  -1.8584  -1.8451  -1.8262  -1.8242  -1.8142  -1.7969  -1.7910
    -1.7620  -1.7425  -1.7162  -1.6963  -1.6906  -1.6658  -1.6434  -1.6405
    -1.6239  -1.6061  -1.5918  -1.5656  -1.5371  -1.5307  -1.5050  -1.4821
    -1.4763  -1.4607  -1.4504  -1.4272  -1.4226  -1.4091  -1.3953  -1.3584
    -1.3189  -1.3072  -1.2875  -1.2264  -1.1773  -1.1574  -1.1438  -1.0735
    -1.0385  -1.0264  -1.0186  -1.0072  -1.0008  -0.9909  -0.9716  -0.9672
    -0.9440  -0.9225  -0.9063  -0.8646  -0.8509  -0.8431  -0.8219  -0.8151
    -0.7930  -0.7725  -0.7496  -0.7452  -0.7389  -0.7234  -0.6216  -0.5856
    -0.5676  -0.5464  -0.5380  -0.5343  -0.5142  -0.5053  -0.4924  -0.4835
    -0.4569  -0.4259  -0.4044  -0.3920  -0.3767  -0.3638  -0.3225  -0.3191
    -0.3081  -0.3070  -0.2955  -0.2757  -0.2626  -0.2550  -0.2439  -0.2261
    -0.2141  -0.1472  -0.1339  -0.1289  -0.0862  -0.0747  -0.0338   0.0626
     0.2404   0.2576   0.3104   0.4548   0.5770   0.6626   1.0091   1.1409
     1.2627   1.4088

          k = 0.4000 0.2309 0.0000 ( 36606 PWs)   bands (ev):

   -21.7650  -9.3869  -7.0838  -6.4382  -6.0695  -5.8817  -5.5086  -5.4698
    -5.1908  -5.1318  -5.0440  -4.3591  -4.3148  -4.2844  -4.2595  -4.2192
    -4.1093  -4.1000  -4.0613  -3.9696  -3.9640  -3.9603  -3.8530  -3.7904
    -3.7850  -3.7703  -3.7689  -3.7130  -3.6620  -3.6592  -3.6327  -3.5653
    -3.5027  -3.4928  -3.4805  -3.4497  -3.4392  -3.3892  -3.3426  -3.3354
    -3.3244  -3.3066  -3.2592  -3.1583  -3.1074  -3.0691  -3.0144  -2.9912
    -2.9856  -2.9704  -2.9420  -2.9374  -2.9266  -2.9038  -2.8510  -2.8324
    -2.8279  -2.7932  -2.7639  -2.7153  -2.6175  -2.6043  -2.6000  -2.5676
    -2.5346  -2.4945  -2.4831  -2.4769  -2.4645  -2.3927  -2.3498  -2.3373
    -2.3321  -2.3231  -2.3083  -2.2930  -2.2756  -2.2733  -2.2530  -2.2069
    -2.1875  -2.1739  -2.1642  -2.1467  -2.0999  -2.0911  -2.0513  -2.0252
    -2.0022  -1.9970  -1.9724  -1.9600  -1.9323  -1.9013  -1.8883  -1.8873
    -1.8695  -1.8540  -1.8526  -1.8283  -1.8178  -1.8095  -1.8083  -1.7804
    -1.7608  -1.7389  -1.7015  -1.6907  -1.6442  -1.6207  -1.5994  -1.5751
    -1.5655  -1.5518  -1.5333  -1.4889  -1.4867  -1.4749  -1.4643  -1.4586
    -1.4496  -1.4457  -1.4327  -1.4277  -1.4262  -1.4121  -1.4037  -1.3748
    -1.3566  -1.3394  -1.3093  -1.2467  -1.2309  -1.2212  -1.2025  -1.1777
    -1.1590  -1.1168  -1.0962  -1.0769  -1.0683  -1.0161  -1.0145  -0.9751
    -0.9492  -0.9150  -0.8989  -0.8965  -0.8649  -0.8292  -0.7957  -0.7746
    -0.7401  -0.7081  -0.6991  -0.6879  -0.6778  -0.6683  -0.6659  -0.6427
    -0.6313  -0.6267  -0.5315  -0.5255  -0.5104  -0.5101  -0.4958  -0.4893
    -0.4657  -0.4558  -0.4474  -0.4307  -0.4210  -0.3873  -0.3438  -0.3270
    -0.3246  -0.3036  -0.2617  -0.2368  -0.2266  -0.1982  -0.1892  -0.1564
    -0.1138  -0.1081  -0.1004  -0.0881  -0.0813  -0.0790  -0.0544  -0.0201
     0.0217   0.0834   0.4287   0.8266   0.8753   1.0590   1.1503   1.2120
     1.5060   1.6356

          k = 0.4000-0.6928 0.0000 ( 36660 PWs)   bands (ev):

   -21.7650  -9.3830  -6.7110  -6.6526  -6.0793  -5.9184  -5.8954  -5.4329
    -5.2682  -5.1885  -4.7712  -4.4567  -4.2246  -4.1689  -4.0933  -4.0343
    -4.0294  -4.0081  -3.9965  -3.9746  -3.9356  -3.9259  -3.9188  -3.9059
    -3.8473  -3.7832  -3.7702  -3.7607  -3.7380  -3.7303  -3.6377  -3.5886
    -3.5743  -3.5632  -3.5558  -3.5033  -3.4615  -3.3956  -3.3259  -3.2910
    -3.2801  -3.2434  -3.1999  -3.1838  -3.1614  -3.0793  -3.0756  -3.0718
    -3.0546  -3.0025  -2.9710  -2.9035  -2.8682  -2.8420  -2.8210  -2.7822
    -2.7555  -2.7083  -2.6974  -2.6905  -2.6783  -2.6624  -2.6114  -2.6081
    -2.5303  -2.4895  -2.4793  -2.4654  -2.4508  -2.4108  -2.4013  -2.3444
    -2.3346  -2.2985  -2.2900  -2.2736  -2.2649  -2.2476  -2.2269  -2.2046
    -2.1990  -2.1870  -2.1676  -2.1575  -2.1492  -2.1216  -2.0810  -2.0660
    -2.0504  -2.0365  -1.9807  -1.9549  -1.9247  -1.9160  -1.9097  -1.8995
    -1.8694  -1.8619  -1.8511  -1.8350  -1.8314  -1.8123  -1.7920  -1.7696
    -1.7419  -1.7179  -1.7094  -1.7023  -1.6842  -1.6836  -1.6814  -1.6654
    -1.6575  -1.6536  -1.6308  -1.6073  -1.5659  -1.5525  -1.5397  -1.5289
    -1.4681  -1.4622  -1.4299  -1.4047  -1.3922  -1.3830  -1.3703  -1.3527
    -1.3081  -1.3009  -1.2705  -1.2346  -1.1712  -1.1700  -1.1602  -1.1275
    -1.1160  -1.0961  -1.0860  -1.0811  -1.0570  -1.0365  -1.0015  -0.9796
    -0.9532  -0.9468  -0.9354  -0.9093  -0.8986  -0.8775  -0.8488  -0.8399
    -0.8119  -0.7991  -0.7869  -0.7633  -0.7555  -0.7354  -0.7063  -0.5883
    -0.5422  -0.5331  -0.5270  -0.5101  -0.5069  -0.4979  -0.4807  -0.4626
    -0.4495  -0.4381  -0.4362  -0.4230  -0.3623  -0.3066  -0.3039  -0.2926
    -0.2792  -0.2698  -0.2542  -0.2271  -0.2116  -0.2007  -0.1908  -0.1780
    -0.1752  -0.1294  -0.1064  -0.0960  -0.0841  -0.0669  -0.0526   0.0085
     0.1896   0.2940   0.6017   0.9132   0.9865   1.1899   1.2666   1.6098
     1.6962   1.7402

          k = 0.4000-0.4619 0.0000 ( 36660 PWs)   bands (ev):

   -21.7650  -9.3840  -6.6966  -6.6548  -6.1025  -5.9415  -5.8044  -5.5454
    -5.2325  -5.1692  -4.7686  -4.4579  -4.2130  -4.1661  -4.0950  -4.0457
    -4.0294  -4.0111  -4.0016  -3.9849  -3.9310  -3.9254  -3.9187  -3.9079
    -3.8459  -3.7994  -3.7712  -3.7584  -3.7400  -3.7247  -3.6335  -3.5921
    -3.5761  -3.5611  -3.5521  -3.4822  -3.4316  -3.3788  -3.3302  -3.2911
    -3.2849  -3.2648  -3.1980  -3.1864  -3.1606  -3.1303  -3.0776  -3.0679
    -3.0314  -3.0026  -2.9454  -2.9004  -2.8696  -2.8456  -2.8341  -2.7852
    -2.7676  -2.7092  -2.6999  -2.6848  -2.6748  -2.6566  -2.6399  -2.5897
    -2.5299  -2.4891  -2.4797  -2.4655  -2.4530  -2.4050  -2.3896  -2.3450
    -2.3345  -2.2965  -2.2837  -2.2828  -2.2707  -2.2516  -2.2297  -2.2153
    -2.2004  -2.1906  -2.1767  -2.1557  -2.1501  -2.1119  -2.0771  -2.0618
    -2.0523  -2.0360  -1.9771  -1.9610  -1.9377  -1.9180  -1.9008  -1.8944
    -1.8720  -1.8613  -1.8505  -1.8456  -1.8279  -1.8090  -1.8031  -1.7863
    -1.7445  -1.7204  -1.7108  -1.6999  -1.6892  -1.6812  -1.6729  -1.6620
    -1.6578  -1.6497  -1.6274  -1.5948  -1.5713  -1.5557  -1.5469  -1.5146
    -1.4635  -1.4572  -1.4255  -1.4062  -1.3964  -1.3834  -1.3752  -1.3361
    -1.3104  -1.2975  -1.2686  -1.2192  -1.1835  -1.1664  -1.1530  -1.1326
    -1.1098  -1.1045  -1.0922  -1.0658  -1.0454  -1.0312  -1.0139  -0.9967
    -0.9528  -0.9393  -0.9279  -0.9158  -0.9016  -0.8685  -0.8396  -0.8294
    -0.8198  -0.7942  -0.7855  -0.7719  -0.7673  -0.7398  -0.7016  -0.5790
    -0.5462  -0.5339  -0.5233  -0.5200  -0.5057  -0.5016  -0.4821  -0.4717
    -0.4486  -0.4391  -0.4309  -0.4132  -0.3693  -0.3240  -0.3009  -0.2926
    -0.2770  -0.2740  -0.2499  -0.2391  -0.2149  -0.2004  -0.1948  -0.1788
    -0.1667  -0.1112  -0.1071  -0.0959  -0.0849  -0.0646  -0.0519   0.0078
     0.1806   0.2895   0.5519   0.8912   1.0881   1.1932   1.3094   1.5559
     1.7026   1.7442

 ------ SPIN DOWN ----------


          k = 0.0000 0.0000 0.0000 ( 36693 PWs)   bands (ev):

   -21.8463  -9.5024  -7.7721  -6.4642  -5.8877  -5.7684  -5.4609  -4.6492
    -4.6201  -4.6161  -4.6145  -4.5722  -4.5685  -4.4839  -3.7537  -3.7476
    -3.7382  -3.7188  -3.7032  -3.6921  -3.5950  -3.0944  -2.8009  -2.7952
    -2.7903  -2.7755  -2.7001  -2.5825  -2.3298  -2.3277  -2.3180  -2.3157
    -2.3002  -2.2610  -2.1286  -2.1270  -2.0623  -2.0300  -2.0293  -2.0277
    -1.9437  -1.9424  -1.8939  -1.8923  -1.8334  -1.8063  -1.7979  -1.7763
    -1.7588  -1.7221  -1.5455  -1.5339  -1.5246  -1.5153  -1.4979  -1.4935
    -1.4875  -1.4874  -1.4582  -1.4530  -1.4237  -1.4086  -1.4071  -1.4037
    -1.3192  -1.2720  -0.8890  -0.8726  -0.8406  -0.8346  -0.8239  -0.7680
    -0.6525  -0.6099  -0.5354  -0.5251  -0.5101  -0.5037  -0.4932  -0.4851
    -0.4521  -0.4431  -0.4258  -0.4173  -0.4111  -0.4108  -0.3552  -0.3484
    -0.3275  -0.3150  -0.3032  -0.2965  -0.2760  -0.2659  -0.2606  -0.2534
    -0.2460  -0.2407  -0.2328  -0.2306  -0.2231  -0.2229  -0.1501  -0.1491
    -0.1401  -0.0903  -0.0713  -0.0395  -0.0113  -0.0098   0.0024   0.0054
     0.0073   0.0126   0.0130   0.0410   0.0889   0.0895   0.1399   0.1653
     0.1736   0.1767   0.1921   0.2096   0.3100   0.3698   0.4140   0.4152
     0.4583   0.4870   0.4944   0.4966   0.5710   0.7146   0.7245   0.8080
     0.8262   0.8933   0.9453   0.9798   1.0254   1.0552   1.0591   1.0632
     1.1589   1.1660   1.2172   1.2223   1.2333   1.2379   1.2407   1.2660
     1.2844   1.2874   1.3124   1.3220   1.3349   1.3461   1.3511   1.3711
     1.3835   1.3851   1.3895   1.3906   1.4112   1.4488   1.4559   1.4689
     1.4702   1.4895   1.4914   1.5082   1.5118   1.5212   1.5246   1.5573
     1.5584   1.5803   1.5838   1.5860   1.6007   1.6053   1.6113   1.6439
     1.6482   1.6512   1.6564   1.6593   1.6685   1.6731   1.6811   1.6875
     1.6924   1.7327   1.7329   1.8802   1.8804   1.8857   1.8877   1.8888
     1.8956   1.9846

          k = 0.0000 0.2309 0.0000 ( 36641 PWs)   bands (ev):

   -21.8463  -9.4937  -7.6286  -6.3577  -5.9237  -5.7807  -5.5738  -5.3991
    -4.9830  -4.9670  -4.4703  -4.3492  -4.0662  -4.0616  -3.9555  -3.9184
    -3.7742  -3.5462  -3.4094  -3.3772  -3.3005  -3.1471  -2.9253  -2.7792
    -2.7588  -2.7215  -2.6550  -2.5859  -2.4308  -2.3604  -2.3540  -2.3480
    -2.3128  -2.2926  -2.2692  -2.2659  -2.2238  -2.2013  -2.0906  -2.0830
    -1.9997  -1.9951  -1.9656  -1.8497  -1.8309  -1.8027  -1.7884  -1.6958
    -1.6641  -1.6468  -1.5904  -1.5623  -1.5454  -1.5275  -1.5035  -1.5009
    -1.4867  -1.4759  -1.4028  -1.3786  -1.3657  -1.3459  -1.3177  -1.2663
    -1.2417  -1.1488  -0.9718  -0.9428  -0.8900  -0.8859  -0.8289  -0.7753
    -0.7435  -0.7117  -0.6704  -0.6519  -0.6275  -0.5609  -0.5373  -0.5278
    -0.4844  -0.4785  -0.4666  -0.4628  -0.4492  -0.4215  -0.4170  -0.3784
    -0.3285  -0.3127  -0.3002  -0.2975  -0.2861  -0.2634  -0.2450  -0.2287
    -0.2194  -0.2103  -0.2052  -0.1996  -0.1983  -0.1944  -0.1760  -0.1499
    -0.1252  -0.1117  -0.1014  -0.0915  -0.0798  -0.0565  -0.0380  -0.0205
    -0.0012   0.0179   0.0436   0.0744   0.1019   0.1124   0.1237   0.1563
     0.2678   0.2825   0.2967   0.3462   0.3808   0.3846   0.4161   0.4342
     0.4387   0.4528   0.4700   0.4770   0.6029   0.6910   0.7356   0.7937
     0.8015   0.8178   0.8334   0.8419   0.8918   0.9035   0.9495   0.9818
     1.0208   1.0371   1.0534   1.1004   1.1169   1.1374   1.1622   1.1966
     1.2211   1.2392   1.2699   1.2819   1.2903   1.3078   1.3398   1.3504
     1.3699   1.3953   1.4230   1.4371   1.4597   1.4704   1.4883   1.4996
     1.5340   1.5463   1.5512   1.5551   1.5762   1.6237   1.6323   1.6361
     1.6471   1.6648   1.6739   1.7037   1.7063   1.7249   1.7273   1.7342
     1.7483   1.7942   1.7989   1.8145   1.8193   1.8279   1.8399   1.8521
     1.8720   1.8766   1.8878   1.9092   1.9703   1.9881   1.9938   2.0477
     2.0704   2.1128

          k = 0.0000 0.4619 0.0000 ( 36606 PWs)   bands (ev):

   -21.8463  -9.4799  -7.2033  -6.5253  -6.1030  -5.9126  -5.6872  -5.4066
    -5.1956  -5.1525  -5.0220  -4.1489  -4.0748  -3.9855  -3.5675  -3.4488
    -3.4409  -3.3352  -3.2415  -3.1439  -3.0438  -2.9957  -2.9436  -2.8445
    -2.8400  -2.7714  -2.7293  -2.7023  -2.6442  -2.5996  -2.5803  -2.5426
    -2.5057  -2.4382  -2.3118  -2.2958  -2.2254  -2.2142  -2.1081  -2.1031
    -2.0948  -2.0862  -2.0517  -1.8307  -1.8000  -1.7880  -1.7520  -1.7299
    -1.5895  -1.5724  -1.5640  -1.5479  -1.5431  -1.5157  -1.5103  -1.4976
    -1.4716  -1.4047  -1.3943  -1.3747  -1.3561  -1.3403  -1.1963  -1.1632
    -1.0706  -1.0248  -0.9529  -0.9322  -0.9178  -0.8831  -0.8558  -0.8488
    -0.8315  -0.8077  -0.7905  -0.7544  -0.7146  -0.6786  -0.6678  -0.6379
    -0.6034  -0.5938  -0.5615  -0.5511  -0.5143  -0.4974  -0.4491  -0.3953
    -0.3783  -0.3622  -0.3379  -0.3203  -0.2840  -0.2677  -0.2475  -0.2337
    -0.1936  -0.1921  -0.1752  -0.1515  -0.1429  -0.1390  -0.1266  -0.1026
    -0.0848  -0.0634  -0.0560  -0.0450  -0.0345  -0.0299  -0.0138   0.0022
     0.0191   0.0464   0.0768   0.1322   0.1587   0.1664   0.1812   0.2202
     0.2295   0.2404   0.2486   0.2984   0.3157   0.3341   0.3526   0.3559
     0.4081   0.4113   0.4259   0.4453   0.4809   0.5469   0.6091   0.6270
     0.6706   0.7004   0.7173   0.7875   0.8250   0.8708   0.8937   0.9050
     0.9268   0.9496   0.9715   0.9893   1.0067   1.0885   1.1444   1.1912
     1.2020   1.2135   1.2601   1.2766   1.3114   1.3254   1.3438   1.3635
     1.3934   1.4071   1.4172   1.4754   1.4943   1.5074   1.5444   1.5549
     1.5672   1.5700   1.6003   1.6092   1.6299   1.6438   1.6536   1.6803
     1.6904   1.7426   1.7701   1.7854   1.7991   1.8177   1.8241   1.8499
     1.8545   1.8740   1.8820   1.8934   1.9143   1.9182   1.9267   1.9317
     1.9735   2.0180   2.0479   2.1412   2.1563   2.2340   2.5613   2.6233
     2.6700   2.6987

          k = 0.2000-0.1155 0.0000 ( 36641 PWs)   bands (ev):

   -21.8463  -9.4937  -7.6286  -6.3582  -5.9275  -5.7756  -5.5728  -5.4014
    -4.9829  -4.9667  -4.4709  -4.3475  -4.0662  -4.0618  -3.9571  -3.9182
    -3.7741  -3.5464  -3.4114  -3.3774  -3.2972  -3.1435  -2.9304  -2.7793
    -2.7560  -2.7236  -2.6554  -2.5837  -2.4310  -2.3605  -2.3539  -2.3480
    -2.3132  -2.2928  -2.2691  -2.2660  -2.2239  -2.2017  -2.0903  -2.0833
    -1.9999  -1.9953  -1.9650  -1.8502  -1.8303  -1.8028  -1.7870  -1.6962
    -1.6643  -1.6472  -1.5902  -1.5623  -1.5454  -1.5269  -1.5038  -1.5011
    -1.4866  -1.4748  -1.4035  -1.3787  -1.3654  -1.3452  -1.3181  -1.2683
    -1.2406  -1.1491  -0.9717  -0.9434  -0.8904  -0.8859  -0.8286  -0.7752
    -0.7445  -0.7122  -0.6708  -0.6515  -0.6271  -0.5616  -0.5368  -0.5272
    -0.4845  -0.4791  -0.4660  -0.4625  -0.4493  -0.4228  -0.4178  -0.3786
    -0.3262  -0.3129  -0.3002  -0.2977  -0.2860  -0.2624  -0.2449  -0.2291
    -0.2196  -0.2099  -0.2052  -0.1996  -0.1984  -0.1943  -0.1762  -0.1499
    -0.1249  -0.1112  -0.1014  -0.0914  -0.0808  -0.0574  -0.0378  -0.0207
    -0.0002   0.0182   0.0442   0.0750   0.1016   0.1126   0.1237   0.1563
     0.2672   0.2826   0.2968   0.3459   0.3803   0.3846   0.4159   0.4333
     0.4386   0.4527   0.4706   0.4769   0.6023   0.6942   0.7336   0.7935
     0.8012   0.8179   0.8336   0.8417   0.8909   0.9027   0.9490   0.9819
     1.0199   1.0393   1.0531   1.1008   1.1177   1.1379   1.1622   1.1953
     1.2211   1.2385   1.2704   1.2819   1.2902   1.3082   1.3399   1.3505
     1.3699   1.3950   1.4224   1.4375   1.4600   1.4707   1.4890   1.5003
     1.5339   1.5463   1.5513   1.5551   1.5756   1.6234   1.6320   1.6360
     1.6468   1.6647   1.6739   1.7039   1.7063   1.7246   1.7274   1.7344
     1.7481   1.7943   1.7988   1.8149   1.8193   1.8280   1.8402   1.8519
     1.8717   1.8768   1.8877   1.9090   1.9703   1.9880   1.9940   2.0476
     2.0703   2.1116

          k = 0.2000 0.1155 0.0000 ( 36641 PWs)   bands (ev):

   -21.8463  -9.4931  -7.6295  -6.3657  -5.9633  -5.7209  -5.5150  -5.4756
    -4.9788  -4.9648  -4.4749  -4.3378  -4.0629  -4.0628  -3.9482  -3.9364
    -3.7736  -3.5470  -3.4111  -3.3843  -3.2933  -3.1210  -2.9490  -2.8032
    -2.7408  -2.6949  -2.6887  -2.5654  -2.4428  -2.3588  -2.3547  -2.3433
    -2.3166  -2.2902  -2.2693  -2.2581  -2.2260  -2.2038  -2.0908  -2.0865
    -2.0026  -1.9972  -1.9439  -1.8449  -1.8329  -1.8018  -1.7997  -1.6820
    -1.6618  -1.6574  -1.5801  -1.5747  -1.5528  -1.5208  -1.5042  -1.4977
    -1.4971  -1.4255  -1.4216  -1.3908  -1.3615  -1.3513  -1.3163  -1.2849
    -1.2379  -1.1413  -0.9770  -0.9417  -0.8885  -0.8753  -0.8087  -0.8017
    -0.7643  -0.6994  -0.6628  -0.6586  -0.6352  -0.5627  -0.5440  -0.5168
    -0.4886  -0.4802  -0.4715  -0.4549  -0.4546  -0.4253  -0.4239  -0.3766
    -0.3176  -0.3127  -0.3011  -0.2953  -0.2903  -0.2588  -0.2441  -0.2253
    -0.2183  -0.2098  -0.2073  -0.2022  -0.1982  -0.1978  -0.1624  -0.1513
    -0.1239  -0.1150  -0.0983  -0.0965  -0.0804  -0.0540  -0.0372  -0.0308
     0.0047   0.0123   0.0696   0.0752   0.0961   0.0994   0.1239   0.1567
     0.2350   0.3035   0.3116   0.3434   0.3689   0.3918   0.3999   0.4257
     0.4372   0.4610   0.4723   0.4754   0.6387   0.6941   0.7173   0.7855
     0.8047   0.8102   0.8381   0.8516   0.8815   0.9106   0.9272   0.9658
     0.9905   1.0542   1.0738   1.1012   1.1126   1.1494   1.1639   1.1770
     1.2120   1.2578   1.2764   1.2878   1.2946   1.3120   1.3422   1.3475
     1.3680   1.4004   1.4220   1.4509   1.4567   1.4747   1.4919   1.5007
     1.5174   1.5444   1.5515   1.5601   1.5684   1.6200   1.6248   1.6348
     1.6501   1.6629   1.6809   1.7064   1.7101   1.7212   1.7284   1.7346
     1.7488   1.7940   1.8010   1.8150   1.8169   1.8292   1.8332   1.8494
     1.8736   1.8822   1.8856   1.8911   1.9690   1.9859   1.9953   2.0372
     2.0760   2.1178

          k = 0.2000 0.3464 0.0000 ( 36608 PWs)   bands (ev):

   -21.8463  -9.4817  -7.3456  -6.1990  -6.1112  -5.9970  -5.7433  -5.6048
    -5.4235  -4.7186  -4.5993  -4.2634  -4.2414  -4.1449  -3.4873  -3.4260
    -3.4100  -3.4079  -3.3580  -3.2481  -3.1504  -3.1152  -3.0753  -2.8615
    -2.7410  -2.6635  -2.6568  -2.6358  -2.5735  -2.5488  -2.5243  -2.4576
    -2.4492  -2.4373  -2.4026  -2.3556  -2.2942  -2.2370  -2.0748  -2.0631
    -2.0301  -2.0008  -1.9562  -1.9305  -1.9233  -1.7768  -1.7271  -1.7078
    -1.6346  -1.5903  -1.5477  -1.5440  -1.5290  -1.5220  -1.5021  -1.4880
    -1.4643  -1.4503  -1.4029  -1.3704  -1.3260  -1.2844  -1.1968  -1.1549
    -1.0879  -1.0632  -0.9723  -0.9571  -0.8908  -0.8608  -0.8400  -0.8118
    -0.7902  -0.7689  -0.7519  -0.7201  -0.6923  -0.6707  -0.6574  -0.6303
    -0.6152  -0.5911  -0.5772  -0.5593  -0.5394  -0.4651  -0.4143  -0.3969
    -0.3875  -0.3739  -0.3431  -0.3327  -0.3055  -0.2824  -0.2671  -0.2532
    -0.2398  -0.2196  -0.2118  -0.1922  -0.1810  -0.1592  -0.1490  -0.1176
    -0.1099  -0.0945  -0.0819  -0.0692  -0.0594  -0.0496  -0.0349  -0.0224
     0.0208   0.0565   0.0661   0.0827   0.1750   0.1965   0.2166   0.2395
     0.2655   0.2945   0.3081   0.3169   0.3509   0.3870   0.3950   0.4033
     0.4140   0.4363   0.4778   0.4883   0.5518   0.6071   0.6499   0.6962
     0.7501   0.7801   0.8195   0.8490   0.8603   0.8707   0.8768   0.9012
     0.9149   0.9302   0.9419   0.9619   0.9988   1.0473   1.0849   1.1196
     1.1354   1.1582   1.1878   1.2050   1.2128   1.2651   1.2715   1.3153
     1.3627   1.4224   1.4578   1.5015   1.5253   1.5395   1.5574   1.5694
     1.5773   1.5888   1.6128   1.6210   1.6651   1.6863   1.6941   1.6994
     1.7131   1.7466   1.7502   1.7628   1.7702   1.7948   1.8043   1.8265
     1.8301   1.8410   1.8472   1.8625   1.8756   1.8925   1.9253   1.9581
     1.9729   1.9876   2.0664   2.0977   2.2026   2.2413   2.3379   2.4842
     2.5388   2.5611

          k = 0.2000-0.5774 0.0000 ( 36660 PWs)   bands (ev):

   -21.8463  -9.4755  -6.8098  -6.7691  -6.1829  -5.9827  -5.8444  -5.6024
    -5.2556  -5.1874  -4.7252  -4.3085  -3.8168  -3.7015  -3.4589  -3.4480
    -3.4257  -3.2686  -3.1961  -3.0902  -3.0322  -3.0239  -2.9833  -2.8957
    -2.8873  -2.8661  -2.8498  -2.8304  -2.7136  -2.6279  -2.5081  -2.4896
    -2.4735  -2.4451  -2.4250  -2.3948  -2.3688  -2.2817  -2.2518  -2.0683
    -1.9723  -1.9442  -1.9423  -1.9252  -1.8586  -1.7813  -1.7089  -1.7022
    -1.6639  -1.6465  -1.6446  -1.5450  -1.4946  -1.4858  -1.4746  -1.4609
    -1.4227  -1.3609  -1.3326  -1.3115  -1.2599  -1.2419  -1.2255  -1.1239
    -1.0841  -1.0193  -0.9574  -0.9313  -0.9283  -0.8738  -0.8560  -0.8357
    -0.8099  -0.7954  -0.7680  -0.7355  -0.7171  -0.6793  -0.6509  -0.6378
    -0.6309  -0.6025  -0.5886  -0.5771  -0.5616  -0.5603  -0.5243  -0.4966
    -0.4915  -0.4535  -0.4382  -0.4109  -0.3782  -0.3567  -0.3247  -0.2781
    -0.2507  -0.2340  -0.2071  -0.1920  -0.1602  -0.1504  -0.1375  -0.1167
    -0.0827  -0.0602  -0.0442  -0.0274  -0.0091   0.0034   0.0482   0.0922
     0.1161   0.1369   0.1459   0.1549   0.1819   0.1914   0.2218   0.2388
     0.2602   0.2638   0.3182   0.3395   0.3619   0.3717   0.3994   0.4223
     0.4362   0.4509   0.4679   0.4941   0.5050   0.5203   0.5361   0.5694
     0.6226   0.6727   0.7250   0.7527   0.7951   0.8184   0.8498   0.8623
     0.8751   0.8932   0.9077   0.9619   0.9954   1.0531   1.0644   1.0878
     1.1105   1.1205   1.1719   1.1929   1.2149   1.2327   1.2631   1.3065
     1.3753   1.4310   1.4751   1.4772   1.5306   1.5662   1.5924   1.6047
     1.6178   1.6260   1.6385   1.6482   1.6768   1.6970   1.7059   1.7164
     1.7557   1.7780   1.7874   1.7963   1.8029   1.8058   1.8164   1.8207
     1.8381   1.8744   1.8844   1.9058   1.9139   1.9315   1.9387   1.9623
     2.0210   2.0932   2.2075   2.3191   2.4577   2.6543   2.7517   2.8178
     2.8450   2.9258

          k = 0.2000-0.3464 0.0000 ( 36608 PWs)   bands (ev):

   -21.8463  -9.4827  -7.3428  -6.1861  -6.0707  -6.0205  -5.7820  -5.6317
    -5.3911  -4.7126  -4.6000  -4.2671  -4.2406  -4.1535  -3.4728  -3.4252
    -3.4165  -3.4085  -3.3467  -3.2767  -3.1326  -3.1217  -3.0773  -2.8455
    -2.7396  -2.6744  -2.6596  -2.6251  -2.5638  -2.5577  -2.5304  -2.4620
    -2.4508  -2.4387  -2.4070  -2.3456  -2.2945  -2.2322  -2.0688  -2.0648
    -2.0416  -1.9996  -1.9815  -1.9342  -1.9128  -1.7708  -1.7261  -1.7151
    -1.6344  -1.5746  -1.5528  -1.5476  -1.5293  -1.5170  -1.5091  -1.4918
    -1.4809  -1.4509  -1.4069  -1.3796  -1.3263  -1.2683  -1.1736  -1.1657
    -1.0999  -1.0606  -0.9802  -0.9293  -0.8777  -0.8594  -0.8421  -0.8081
    -0.7949  -0.7706  -0.7523  -0.7194  -0.6944  -0.6635  -0.6581  -0.6384
    -0.6106  -0.6004  -0.5759  -0.5694  -0.5285  -0.4644  -0.4132  -0.4036
    -0.3857  -0.3755  -0.3470  -0.3244  -0.2897  -0.2882  -0.2745  -0.2530
    -0.2356  -0.2281  -0.2116  -0.1943  -0.1757  -0.1498  -0.1344  -0.1260
    -0.1157  -0.0971  -0.0923  -0.0622  -0.0574  -0.0409  -0.0361  -0.0226
     0.0257   0.0592   0.0690   0.0862   0.1537   0.1907   0.2188   0.2466
     0.2614   0.2764   0.3138   0.3401   0.3477   0.3876   0.3938   0.4064
     0.4125   0.4445   0.4737   0.4898   0.5435   0.5858   0.6695   0.7062
     0.7420   0.7662   0.8370   0.8583   0.8613   0.8730   0.8801   0.9034
     0.9121   0.9343   0.9525   0.9602   1.0007   1.0427   1.0755   1.0950
     1.1410   1.1640   1.1842   1.2118   1.2195   1.2514   1.2809   1.3276
     1.3379   1.4141   1.4720   1.5103   1.5173   1.5503   1.5558   1.5633
     1.5811   1.5910   1.6128   1.6185   1.6644   1.6828   1.6926   1.7010
     1.7232   1.7403   1.7488   1.7622   1.7711   1.7921   1.8046   1.8225
     1.8301   1.8397   1.8466   1.8638   1.8706   1.8859   1.9273   1.9579
     1.9713   2.0104   2.0629   2.0943   2.1883   2.2357   2.3847   2.4815
     2.5128   2.5712

          k = 0.4000-0.2309 0.0000 ( 36606 PWs)   bands (ev):

   -21.8463  -9.4798  -7.2036  -6.5262  -6.1048  -5.9138  -5.6803  -5.4101
    -5.1957  -5.1512  -5.0226  -4.1473  -4.0763  -3.9864  -3.5650  -3.4486
    -3.4410  -3.3365  -3.2390  -3.1426  -3.0471  -2.9959  -2.9431  -2.8446
    -2.8402  -2.7713  -2.7306  -2.6988  -2.6452  -2.5996  -2.5795  -2.5433
    -2.5055  -2.4404  -2.3112  -2.2954  -2.2259  -2.2142  -2.1086  -2.1034
    -2.0948  -2.0865  -2.0511  -1.8309  -1.8003  -1.7880  -1.7517  -1.7268
    -1.5895  -1.5719  -1.5646  -1.5480  -1.5436  -1.5158  -1.5104  -1.4976
    -1.4707  -1.4048  -1.3945  -1.3744  -1.3543  -1.3403  -1.1958  -1.1653
    -1.0705  -1.0254  -0.9597  -0.9331  -0.9184  -0.8810  -0.8557  -0.8492
    -0.8315  -0.8082  -0.7905  -0.7538  -0.7135  -0.6791  -0.6683  -0.6377
    -0.6029  -0.5942  -0.5619  -0.5507  -0.5151  -0.4967  -0.4484  -0.3954
    -0.3796  -0.3626  -0.3373  -0.3194  -0.2826  -0.2649  -0.2476  -0.2327
    -0.1937  -0.1923  -0.1753  -0.1510  -0.1431  -0.1388  -0.1267  -0.1030
    -0.0850  -0.0633  -0.0556  -0.0446  -0.0343  -0.0300  -0.0140   0.0019
     0.0194   0.0462   0.0769   0.1330   0.1585   0.1665   0.1811   0.2205
     0.2297   0.2402   0.2486   0.2984   0.3149   0.3335   0.3524   0.3562
     0.4089   0.4113   0.4258   0.4455   0.4808   0.5457   0.6093   0.6272
     0.6694   0.7003   0.7177   0.7868   0.8244   0.8702   0.8930   0.9054
     0.9268   0.9497   0.9721   0.9894   1.0070   1.0914   1.1430   1.1907
     1.2014   1.2129   1.2609   1.2764   1.3118   1.3254   1.3437   1.3632
     1.3932   1.4070   1.4171   1.4751   1.4958   1.5077   1.5447   1.5550
     1.5666   1.5698   1.6004   1.6086   1.6301   1.6437   1.6538   1.6803
     1.6903   1.7396   1.7705   1.7849   1.7991   1.8173   1.8240   1.8497
     1.8545   1.8736   1.8826   1.8935   1.9144   1.9181   1.9267   1.9318
     1.9736   2.0168   2.0478   2.1412   2.1597   2.2334   2.5620   2.6224
     2.6692   2.6986

          k = 0.4000 0.0000 0.0000 ( 36608 PWs)   bands (ev):

   -21.8463  -9.4816  -7.3458  -6.2002  -6.1129  -5.9961  -5.7413  -5.6023
[...]
     atom    8 type  1   force =     0.00004659   -0.00137457   -0.10388547
     atom    9 type  1   force =    -0.00120864    0.00071148   -0.10462361
     atom   10 type  1   force =    -0.00018344   -0.00001924   -0.01505452
     atom   11 type  1   force =     0.00131694   -0.00198149   -0.00794962
     atom   12 type  1   force =    -0.00101699    0.00042395   -0.01006962
     atom   13 type  1   force =    -0.00108205    0.00209377   -0.00791137
     atom   14 type  1   force =     0.00066764    0.00038060   -0.00609658
     atom   15 type  1   force =    -0.00000252    0.00098325   -0.00966879
     atom   16 type  1   force =    -0.00016735   -0.00110487   -0.01018221
     atom   17 type  1   force =     0.00081957   -0.00056051   -0.00973038
     atom   18 type  1   force =    -0.00076405   -0.00044566   -0.01146544
     atom   19 type  1   force =    -0.00416470   -0.00333211    0.00584306
     atom   20 type  1   force =    -0.00918574   -0.00550161   -0.00207742
     atom   21 type  1   force =     0.01499348   -0.00881886   -0.00338763
     atom   22 type  1   force =     0.00051933    0.00378285    0.00730426
     atom   23 type  1   force =    -0.00006036    0.01736959   -0.00344845
     atom   24 type  1   force =    -0.00065907   -0.00029694    0.01401354
     atom   25 type  1   force =    -0.00025350   -0.00010358    0.01689674
     atom   26 type  1   force =    -0.00494935   -0.00201022    0.00618683
     atom   27 type  1   force =     0.00347022   -0.00145657    0.00723903
     atom   28 type  1   force =     0.00557702    0.00325344    0.12427364
     atom   29 type  1   force =    -0.00411016    0.04435160    0.11993402
     atom   30 type  1   force =    -0.00258697    0.00801423    0.13161421
     atom   31 type  1   force =     0.03697681   -0.02617379    0.12086044
     atom   32 type  1   force =    -0.07596091   -0.04380449    0.05205472
     atom   33 type  1   force =    -0.00618429    0.00196927    0.12593772
     atom   34 type  1   force =     0.00456958   -0.00608463    0.13090329
     atom   35 type  1   force =    -0.00045234   -0.00648822    0.12590465
     atom   36 type  1   force =    -0.00059854   -0.00032974    0.10555400
     atom   37 type  2   force =    -0.04713808   -0.02839134    0.37332959
     atom   38 type  3   force =     0.64244816    0.34210378   -2.58497911
     atom   39 type  4   force =    -0.00778135   -0.00393675   -0.02792492
     The ionic contribution  to forces
     atom    1 type  1   force =    -0.00855545   -0.00022823 -111.16597805
     atom    2 type  1   force =    -0.00081835   -0.00059245 -111.18484056
     atom    3 type  1   force =     0.00937383   -0.00099494 -111.16761543
     atom    4 type  1   force =    -0.00498880    0.00831172 -111.16552277
     atom    5 type  1   force =     0.00392795    0.00865766 -111.16764510
     atom    6 type  1   force =     0.00106083    0.00071290 -111.15775460
     atom    7 type  1   force =    -0.00024316   -0.00012332 -111.15666448
     atom    8 type  1   force =    -0.00437241   -0.00733611 -111.16580359
     atom    9 type  1   force =     0.00461557   -0.00840724 -111.16531628
     atom   10 type  1   force =    -0.04752629   -0.02791975  -40.10446451
     atom   11 type  1   force =    -0.00087866   -0.07449640  -40.20296477
     atom   12 type  1   force =     0.04840648   -0.03556678  -40.10609774
     atom   13 type  1   force =    -0.06456782    0.03581159  -40.20460134
     atom   14 type  1   force =     0.05715299    0.03256912  -40.21964246
     atom   15 type  1   force =     0.00740861    0.01076606  -40.09251310
     atom   16 type  1   force =    -0.00616242    0.06038437  -40.10680010
     atom   17 type  1   force =     0.01337172    0.00171141  -40.09170443
     atom   18 type  1   force =    -0.00720661   -0.00326038  -40.07957251
     atom   19 type  1   force =    -0.42321023   -0.00779735   31.37946534
     atom   20 type  1   force =    -0.04119607   -0.03111287   30.30638382
     atom   21 type  1   force =     0.46527163   -0.05785348   31.29656694
     atom   22 type  1   force =    -0.24095814    0.40449693   31.40331958
     atom   23 type  1   force =     0.18763261    0.43418362   31.29642742
     atom   24 type  1   force =     0.05253148    0.03481885   31.72366287
     atom   25 type  1   force =    -0.01192994   -0.00634388   31.77251280
     atom   26 type  1   force =    -0.21304876   -0.36396353   31.38751169
     atom   27 type  1   force =     0.22493480   -0.40666231   31.41361080
     atom   28 type  1   force =    -1.67335208   -0.98314293  103.86234437
     atom   29 type  1   force =     0.07973804   -4.96149176   99.75796148
     atom   30 type  1   force =     1.61224664   -1.19574638  103.97611480
     atom   31 type  1   force =    -4.29967831    2.53357995   99.62073569
     atom   32 type  1   force =     3.59621956    2.07405553   98.29779304
     atom   33 type  1   force =     0.38380479    0.23735143  104.19836024
     atom   34 type  1   force =    -0.20520859    2.02433515  103.95978633
     atom   35 type  1   force =     0.39834621    0.22640470  104.22276054
     atom   36 type  1   force =    -0.16953755   -0.06708978  104.49581777
     atom   37 type  2   force =     1.62908961    0.84003685   51.61970177
     atom   38 type  3   force =    -2.45855518   -1.32103109   90.31639961
     atom   39 type  4   force =     1.10686148    0.59297308   15.39826492
     The local contribution  to forces
     atom    1 type  1   force =     0.00935350    0.00089654  111.27238845
     atom    2 type  1   force =     0.00394888    0.00232498  111.29599086
     atom    3 type  1   force =    -0.01289908    0.00237116  111.27511383
     atom    4 type  1   force =     0.00435587   -0.00754786  111.27143948
     atom    5 type  1   force =    -0.00443092   -0.01236294  111.27508528
     atom    6 type  1   force =     0.00055699    0.00024415  111.26134847
     atom    7 type  1   force =    -0.00056388   -0.00037764  111.26124788
     atom    8 type  1   force =     0.00538053    0.00766668  111.27210594
     atom    9 type  1   force =    -0.00431258    0.00754746  111.27135537
     atom   10 type  1   force =     0.04780967    0.02808409   40.10124867
     atom   11 type  1   force =    -0.00098672    0.07455188   40.19257362
     atom   12 type  1   force =    -0.04662362    0.03525795   40.09951941
     atom   13 type  1   force =     0.06368592   -0.03742932   40.19409704
     atom   14 type  1   force =    -0.05698470   -0.03245764   40.20574129
     atom   15 type  1   force =    -0.00692432   -0.01204416   40.08173302
     atom   16 type  1   force =     0.00672775   -0.05868729   40.10033460
     atom   17 type  1   force =    -0.01423054   -0.00062019   40.08101300
     atom   18 type  1   force =     0.00811461    0.00377038   40.06959924
     atom   19 type  1   force =     0.42446459    0.00879341  -31.36790445
     atom   20 type  1   force =     0.05046935    0.03666203  -30.29543123
     atom   21 type  1   force =    -0.47932417    0.06433359  -31.27879979
     atom   22 type  1   force =     0.24187643   -0.40597345  -31.39367256
     atom   23 type  1   force =    -0.18914858   -0.44959740  -31.27843997
     atom   24 type  1   force =    -0.05118518   -0.03409025  -31.71364000
     atom   25 type  1   force =     0.01151799    0.00604250  -31.76324084
     atom   26 type  1   force =     0.21463439    0.36461653  -31.37602990
     atom   27 type  1   force =    -0.22584539    0.40815889  -31.40389262
     atom   28 type  1   force =     1.66261145    0.97673882 -103.99525150
     atom   29 type  1   force =    -0.07692432    4.89231202  -99.88385816
     atom   30 type  1   force =    -1.60225798    1.17818375 -104.11594051
     atom   31 type  1   force =     4.23919206   -2.49517729  -99.74947523
     atom   32 type  1   force =    -3.51595841   -2.02780496  -98.31204093
     atom   33 type  1   force =    -0.37576624   -0.23999373 -104.33047134
     atom   34 type  1   force =     0.19623745   -2.00701836 -104.09898404
     atom   35 type  1   force =    -0.39744952   -0.21760791 -104.35517769
     atom   36 type  1   force =     0.17099665    0.06796825 -104.61072091
     atom   37 type  2   force =    -1.58603108   -0.81425935  -51.99372224
     atom   38 type  3   force =     1.83009413    0.98585489  -87.74763269
     atom   39 type  4   force =    -1.07514651   -0.57577339  -15.38452795
     The core correction contribution to forces
     atom    1 type  1   force =    -0.00010618   -0.00000907    0.01021589
     atom    2 type  1   force =     0.00037946    0.00021492    0.00932687
     atom    3 type  1   force =    -0.00023467    0.00005300    0.01048267
     atom    4 type  1   force =     0.00003857    0.00011379    0.01011193
     atom    5 type  1   force =    -0.00006295   -0.00022528    0.01049561
     atom    6 type  1   force =     0.00022478    0.00012918    0.00998795
     atom    7 type  1   force =     0.00011569    0.00006007    0.01062935
     atom    8 type  1   force =    -0.00004867   -0.00008760    0.01021750
     atom    9 type  1   force =     0.00010389   -0.00002423    0.01011392
     atom   10 type  1   force =    -0.00023911   -0.00013558   -0.00183139
     atom   11 type  1   force =    -0.00004264   -0.00037633   -0.00189375
     atom   12 type  1   force =     0.00018709   -0.00023152   -0.00183478
     atom   13 type  1   force =    -0.00035278    0.00016452   -0.00190143
     atom   14 type  1   force =     0.00033770    0.00020423   -0.00154696
     atom   15 type  1   force =     0.00007625    0.00007154   -0.00188302
     atom   16 type  1   force =    -0.00011711    0.00027959   -0.00183568
     atom   17 type  1   force =     0.00010177    0.00003329   -0.00188573
     atom   18 type  1   force =     0.00010174    0.00005054   -0.00168770
     atom   19 type  1   force =     0.00009979   -0.00042111    0.00176119
     atom   20 type  1   force =    -0.00093889   -0.00050887    0.00036155
     atom   21 type  1   force =     0.00107881   -0.00068826    0.00037333
     atom   22 type  1   force =     0.00011215    0.00066330    0.00133937
     atom   23 type  1   force =    -0.00006863    0.00132593    0.00032325
     atom   24 type  1   force =     0.00024662    0.00014097    0.00214175
     atom   25 type  1   force =     0.00024584    0.00014174    0.00205535
     atom   26 type  1   force =    -0.00031678    0.00027250    0.00178979
     atom   27 type  1   force =     0.00063031   -0.00026195    0.00133317
     atom   28 type  1   force =     0.00187158    0.00110205   -0.00935504
     atom   29 type  1   force =     0.00080769    0.00944758   -0.00477387
     atom   30 type  1   force =    -0.00300050    0.00405370   -0.00785036
     atom   31 type  1   force =     0.00872742   -0.00405380   -0.00453483
     atom   32 type  1   force =    -0.01085704   -0.00644082    0.00129908
     atom   33 type  1   force =    -0.00507151    0.00079599   -0.00720992
     atom   34 type  1   force =     0.00184709   -0.00462233   -0.00795927
     atom   35 type  1   force =    -0.00171209   -0.00466656   -0.00733132
     atom   36 type  1   force =    -0.00037047   -0.00024761   -0.01103015
     atom   37 type  2   force =    -0.00034009    0.00007446   -0.00227953
     atom   38 type  3   force =    -0.00490243   -0.00260640    0.01926892
     atom   39 type  4   force =     0.00000000    0.00000000    0.00000000
     The Hubbard contrib.    to forces
     atom    1 type  1   force =     0.00000000    0.00000000    0.00000000
     atom    2 type  1   force =     0.00000000    0.00000000    0.00000000
     atom    3 type  1   force =     0.00000000    0.00000000    0.00000000
     atom    4 type  1   force =     0.00000000    0.00000000    0.00000000
     atom    5 type  1   force =     0.00000000    0.00000000    0.00000000
     atom    6 type  1   force =     0.00000000    0.00000000    0.00000000
     atom    7 type  1   force =     0.00000000    0.00000000    0.00000000
     atom    8 type  1   force =     0.00000000    0.00000000    0.00000000
     atom    9 type  1   force =     0.00000000    0.00000000    0.00000000
     atom   10 type  1   force =     0.00000000    0.00000000    0.00000000
     atom   11 type  1   force =     0.00000000    0.00000000    0.00000000
     atom   12 type  1   force =     0.00000000    0.00000000    0.00000000
     atom   13 type  1   force =     0.00000000    0.00000000    0.00000000
     atom   14 type  1   force =     0.00000000    0.00000000    0.00000000
     atom   15 type  1   force =     0.00000000    0.00000000    0.00000000
     atom   16 type  1   force =     0.00000000    0.00000000    0.00000000
     atom   17 type  1   force =     0.00000000    0.00000000    0.00000000
     atom   18 type  1   force =     0.00000000    0.00000000    0.00000000
     atom   19 type  1   force =     0.00000000    0.00000000    0.00000000
     atom   20 type  1   force =     0.00000000    0.00000000    0.00000000
     atom   21 type  1   force =     0.00000000    0.00000000    0.00000000
     atom   22 type  1   force =     0.00000000    0.00000000    0.00000000
     atom   23 type  1   force =     0.00000000    0.00000000    0.00000000
     atom   24 type  1   force =     0.00000000    0.00000000    0.00000000
     atom   25 type  1   force =     0.00000000    0.00000000    0.00000000
     atom   26 type  1   force =     0.00000000    0.00000000    0.00000000
     atom   27 type  1   force =     0.00000000    0.00000000    0.00000000
     atom   28 type  1   force =     0.00000000    0.00000000    0.00000000
     atom   29 type  1   force =     0.00000000    0.00000000    0.00000000
     atom   30 type  1   force =     0.00000000    0.00000000    0.00000000
     atom   31 type  1   force =     0.00000000    0.00000000    0.00000000
     atom   32 type  1   force =     0.00000000    0.00000000    0.00000000
     atom   33 type  1   force =     0.00000000    0.00000000    0.00000000
     atom   34 type  1   force =     0.00000000    0.00000000    0.00000000
     atom   35 type  1   force =     0.00000000    0.00000000    0.00000000
     atom   36 type  1   force =     0.00000000    0.00000000    0.00000000
     atom   37 type  2   force =     0.00000000    0.00000000    0.00000000
     atom   38 type  3   force =     0.00000000    0.00000000    0.00000000
     atom   39 type  4   force =     0.00000000    0.00000000    0.00000000
     The SCF correction term to forces
     atom    1 type  1   force =     0.00000000   -0.00000000    0.00000000
     atom    2 type  1   force =    -0.00000000   -0.00000000    0.00000000
     atom    3 type  1   force =    -0.00000000   -0.00000000    0.00000000
     atom    4 type  1   force =     0.00000000   -0.00000000    0.00000000
     atom    5 type  1   force =    -0.00000000    0.00000000    0.00000000
     atom    6 type  1   force =     0.00000000    0.00000000    0.00000000
     atom    7 type  1   force =    -0.00000000   -0.00000000    0.00000000
     atom    8 type  1   force =     0.00000000    0.00000000    0.00000000
     atom    9 type  1   force =    -0.00000000    0.00000000    0.00000000
     atom   10 type  1   force =    -0.00000000   -0.00000000    0.00000000
     atom   11 type  1   force =    -0.00000000    0.00000000    0.00000000
     atom   12 type  1   force =     0.00000000   -0.00000000    0.00000000
     atom   13 type  1   force =     0.00000000   -0.00000000    0.00000000
     atom   14 type  1   force =    -0.00000000   -0.00000000    0.00000000
     atom   15 type  1   force =     0.00000000   -0.00000000    0.00000000
     atom   16 type  1   force =    -0.00000000    0.00000000    0.00000000
     atom   17 type  1   force =    -0.00000000    0.00000000    0.00000000
     atom   18 type  1   force =     0.00000000    0.00000000    0.00000000
     atom   19 type  1   force =    -0.00000000   -0.00000000   -0.00000000
     atom   20 type  1   force =    -0.00000000   -0.00000000   -0.00000000
     atom   21 type  1   force =     0.00000000    0.00000000   -0.00000000
     atom   22 type  1   force =    -0.00000000    0.00000000   -0.00000000
     atom   23 type  1   force =     0.00000000    0.00000000   -0.00000000
     atom   24 type  1   force =     0.00000000    0.00000000   -0.00000000
     atom   25 type  1   force =     0.00000000    0.00000000   -0.00000000
     atom   26 type  1   force =    -0.00000000   -0.00000000   -0.00000000
     atom   27 type  1   force =    -0.00000000   -0.00000000   -0.00000000
     atom   28 type  1   force =     0.00000000    0.00000000   -0.00000000
     atom   29 type  1   force =    -0.00000000   -0.00000000   -0.00000000
     atom   30 type  1   force =    -0.00000000    0.00000000   -0.00000000
     atom   31 type  1   force =    -0.00000000   -0.00000000   -0.00000000
     atom   32 type  1   force =     0.00000000   -0.00000000   -0.00000000
     atom   33 type  1   force =     0.00000000    0.00000000   -0.00000000
     atom   34 type  1   force =    -0.00000000    0.00000000   -0.00000000
     atom   35 type  1   force =     0.00000000    0.00000000   -0.00000000
     atom   36 type  1   force =    -0.00000000   -0.00000000   -0.00000000
     atom   37 type  2   force =    -0.00001611   -0.00003799   -0.00001484
     atom   38 type  3   force =    -0.00001265   -0.00002218    0.00004061
     atom   39 type  4   force =     0.00000741   -0.00000323   -0.00000644

     Total force =     0.033130     Total SCF correction =     0.000066

     Writing all to output data dir ./pwscf.save/

     init_run     :     10.86s CPU     11.24s WALL (       1 calls)
     electrons    :    530.04s CPU    536.86s WALL (       1 calls)
     forces       :      2.91s CPU      2.97s WALL (       1 calls)

     Called by init_run:
     wfcinit      :      7.58s CPU      7.85s WALL (       1 calls)
     potinit      :      2.17s CPU      2.26s WALL (       1 calls)
     hinit0       :      0.84s CPU      0.85s WALL (       1 calls)

     Called by electrons:
     c_bands      :    448.67s CPU    453.78s WALL (      40 calls)
     sum_band     :     54.23s CPU     55.06s WALL (      40 calls)
     v_of_rho     :      7.16s CPU      7.55s WALL (      41 calls)
     newd         :      2.19s CPU      2.23s WALL (      41 calls)
     PAW_pot      :     10.41s CPU     10.52s WALL (      41 calls)
     mix_rho      :      8.79s CPU      8.96s WALL (      40 calls)
     vdW_kernel   :      1.12s CPU      1.13s WALL (       1 calls)

     Called by c_bands:
     init_us_2    :      5.06s CPU      5.16s WALL (    2132 calls)
     init_us_2:cp :      5.05s CPU      5.15s WALL (    2132 calls)
     cegterg      :    435.19s CPU    439.88s WALL (    1040 calls)

     Called by *egterg:
     cdiaghg      :    161.45s CPU    162.49s WALL (    3734 calls)
     h_psi        :    190.53s CPU    193.44s WALL (    3760 calls)
     s_psi        :     22.51s CPU     22.75s WALL (    3760 calls)
     g_psi        :      0.45s CPU      0.45s WALL (    2694 calls)

     Called by h_psi:
     h_psi:calbec :     30.56s CPU     31.05s WALL (    3760 calls)
     vloc_psi     :    135.31s CPU    137.47s WALL (    3760 calls)
     add_vuspsi   :     23.55s CPU     23.82s WALL (    3760 calls)

     General routines
     calbec       :     44.89s CPU     45.55s WALL (    4904 calls)
     fft          :      4.39s CPU      4.76s WALL (    3726 calls)
     ffts         :      5.56s CPU      5.68s WALL (   14785 calls)
     fftw         :    153.69s CPU    156.17s WALL ( 1085780 calls)
     interpolate  :      0.50s CPU      0.51s WALL (      82 calls)

     Parallel routines

     PWSCF        :   9m 8.19s CPU   9m20.05s WALL


   This run was terminated on:  13:44:32  21Nov2025            

=------------------------------------------------------------------------------=
   JOB DONE.
=------------------------------------------------------------------------------=
