
     Program PWSCF v.7.1 starts on 11Dec2025 at  6:19:58 
        Git branch: heads/qe-7.1
        Last git commit: 48ba0178f8fede6d020eb786884699a9f063f55d-dirty
        Last git commit date: Fri Jan 27 14:22:33 2023 +0000
        Last git commit subject: Merge branch 'fix_hubbard' into 'develop'

     This program is part of the open-source Quantum ESPRESSO suite
     for quantum simulation of materials; please cite
         "P. Giannozzi et al., J. Phys.:Condens. Matter 21 395502 (2009);
         "P. Giannozzi et al., J. Phys.:Condens. Matter 29 465901 (2017);
         "P. Giannozzi et al., J. Chem. Phys. 152 154105 (2020);
          URL http://www.quantum-espresso.org", 
     in publications or presentations arising from this work. More details at
     http://www.quantum-espresso.org/quote

     Parallel version (MPI), running on    96 processors

     MPI processes distributed on     2 nodes
     34659 MiB available memory on the printing compute node when the environment starts

     Reading input from espresso.pwi
Warning: card &CELL ignored
Warning: card / ignored
Warning: card &FCP ignored
Warning: card / ignored
Warning: card &RISM ignored
Warning: card / ignored

     Current dimensions of program PWSCF are:
     Max number of different atomic species (ntypx) = 10
     Max number of k-points (npk) =  40000
     Max angular momentum in pseudopotentials (lmaxx) =  4
     file Co.pbe-n-kjpaw_psl.1.0.0.UPF: wavefunction(s)  4S 3D renormalized
     file C.pbe-n-kjpaw_psl.1.0.0.UPF: wavefunction(s)  2S 2P renormalized
     file O.pbe-nl-kjpaw_psl.1.0.0.UPF: wavefunction(s)  2S 2P renormalized
     file H.pbe-kjpaw_psl.1.0.0.UPF: wavefunction(s)  1S renormalized

     **************************************************************************
     Initializing libbeef V0.1.2 with the BEEF-vdW functional.
     Citation: Wellendorff et al., PRB 85, 235149 (2012).
     **************************************************************************


     IMPORTANT: XC functional enforced from input :
     Exchange-correlation= BEEF-VDW
                           (   1   4  43  14   2   0   0)
     Any further DFT definition will be discarded
     Please, verify this is what you really want


     R & G space division:  proc/nbgrp/npool/nimage =      96
     Subspace diagonalization in iterative solution of the eigenvalue problem:
     one sub-group per band group will be used
     custom distributed-memory algorithm (size of sub-group:  2*  2 procs)


     Parallelization info
     --------------------
     sticks:   dense  smooth     PW     G-vecs:    dense   smooth      PW
     Min          43      28      7                 7829     4248     595
     Max          44      29      8                 7845     4281     630
     Sum        4153    2773    757               752179   409445   59217

     Using Slab Decomposition



     bravais-lattice index     =            0
     lattice parameter (alat)  =      14.1729  a.u.
     unit-cell volume          =    8574.3059 (a.u.)^3
     number of atoms/cell      =           39
     number of atomic types    =            4
     number of electrons       =       335.00
     number of Kohn-Sham states=          202
     kinetic-energy cutoff     =      50.0000  Ry
     charge density cutoff     =     300.0000  Ry
     scf convergence threshold =      1.0E-08
     mixing beta               =       0.7000
     number of iterations used =            8  local-TF  mixing
     Exchange-correlation= BEEF-VDW
                           (   1   4  43  14   2   0   0)

     celldm(1)=  14.172946  celldm(2)=   0.000000  celldm(3)=   0.000000
     celldm(4)=   0.000000  celldm(5)=   0.000000  celldm(6)=   0.000000

     crystal axes: (cart. coord. in units of alat)
               a(1) = (   1.000000   0.000000   0.000000 )  
               a(2) = (   0.500000   0.866025   0.000000 )  
               a(3) = (   0.000000   0.000000   3.477667 )  

     reciprocal axes: (cart. coord. in units 2 pi/alat)
               b(1) = (  1.000000 -0.577350  0.000000 )  
               b(2) = (  0.000000  1.154701  0.000000 )  
               b(3) = (  0.000000  0.000000  0.287549 )  


     PseudoPot. # 1 for Co read from file:
     /users/kbadger1/espresso/pseudo/pslibrary.1.0.0/pbe/PSEUDOPOTENTIALS/Co.pbe-n-kjpaw_psl.1.0.0.UPF
     MD5 check sum: 88af6ec42553d4236c267fdfcb472151
     Pseudo is Projector augmented-wave + core cor, Zval =  9.0
     Generated using 'atomic' code by A. Dal Corso  v.7.0
     Shape of augmentation charge: PSQ
     Using radial grid of 1193 points,  6 beta functions with: 
                l(1) =   0
                l(2) =   0
                l(3) =   1
                l(4) =   1
                l(5) =   2
                l(6) =   2
     Q(r) pseudized with 0 coefficients 


     PseudoPot. # 2 for C  read from file:
     /users/kbadger1/espresso/pseudo/pslibrary.1.0.0/pbe/PSEUDOPOTENTIALS/C.pbe-n-kjpaw_psl.1.0.0.UPF
     MD5 check sum: 6408e75cdba28732cea38a4db8498ce4
     Pseudo is Projector augmented-wave + core cor, Zval =  4.0
     Generated using 'atomic' code by A. Dal Corso  v.7.0
     Shape of augmentation charge: PSQ
     Using radial grid of 1073 points,  4 beta functions with: 
                l(1) =   0
                l(2) =   0
                l(3) =   1
                l(4) =   1
     Q(r) pseudized with 0 coefficients 


     PseudoPot. # 3 for O  read from file:
     /users/kbadger1/espresso/pseudo/pslibrary.1.0.0/pbe/PSEUDOPOTENTIALS/O.pbe-nl-kjpaw_psl.1.0.0.UPF
     MD5 check sum: f0439fab3598ca4e468f064226030408
     Pseudo is Projector augmented-wave + core cor, Zval =  6.0
     Generated using 'atomic' code by A. Dal Corso  v.7.0
     Shape of augmentation charge: PSQ
     Using radial grid of 1095 points,  4 beta functions with: 
                l(1) =   0
                l(2) =   0
                l(3) =   1
                l(4) =   1
     Q(r) pseudized with 0 coefficients 


     PseudoPot. # 4 for H  read from file:
     /users/kbadger1/espresso/pseudo/pslibrary.1.0.0/pbe/PSEUDOPOTENTIALS/H.pbe-kjpaw_psl.1.0.0.UPF
     MD5 check sum: fe4c6fa958fa6d3815bf5d2419cbf1df
     Pseudo is Projector augmented-wave, Zval =  1.0
     Generated using 'atomic' code by A. Dal Corso  v.7.0
     Shape of augmentation charge: PSQ
     Using radial grid of  929 points,  2 beta functions with: 
                l(1) =   0
                l(2) =   0
     Q(r) pseudized with 0 coefficients 


     atomic species   valence    mass     pseudopotential
        Co             9.00    58.93319     Co( 1.00)
        C              4.00    12.00000     C ( 1.00)
        O              6.00    15.99491     O ( 1.00)
        H              1.00     1.00783     H ( 1.00)

     Starting magnetic structure 
     atomic species   magnetization
        Co           1.000
        C            1.000
        O            0.000
        H            0.000

     No symmetry found



   Cartesian axes

     site n.     atom                  positions (alat units)
         1           Co  tau(   1) = (   0.0000000   0.1924501   1.3333333  )
         2           Co  tau(   2) = (   0.3333333   0.1924501   1.3333333  )
         3           Co  tau(   3) = (   0.6666667   0.1924501   1.3333333  )
         4           Co  tau(   4) = (   0.1666667   0.4811252   1.3333333  )
         5           Co  tau(   5) = (   0.5000000   0.4811252   1.3333333  )
         6           Co  tau(   6) = (   0.8333333   0.4811252   1.3333333  )
         7           Co  tau(   7) = (   0.3333333   0.7698004   1.3333333  )
         8           Co  tau(   8) = (   0.6666667   0.7698004   1.3333333  )
         9           Co  tau(   9) = (   1.0000000   0.7698004   1.3333333  )
        10           Co  tau(  10) = (   0.0000000   0.0000000   1.6036667  )
        11           Co  tau(  11) = (   0.3333333   0.0000000   1.6036667  )
        12           Co  tau(  12) = (   0.6666667   0.0000000   1.6036667  )
        13           Co  tau(  13) = (   0.1666667   0.2886751   1.6036667  )
        14           Co  tau(  14) = (   0.5000000   0.2886751   1.6036667  )
        15           Co  tau(  15) = (   0.8333333   0.2886751   1.6036667  )
        16           Co  tau(  16) = (   0.3333333   0.5773503   1.6036667  )
        17           Co  tau(  17) = (   0.6666667   0.5773503   1.6036667  )
        18           Co  tau(  18) = (   1.0000000   0.5773503   1.6036667  )
        19           Co  tau(  19) = (   0.0000000   0.1924501   1.8740000  )
        20           Co  tau(  20) = (   0.3333333   0.1924501   1.8740000  )
        21           Co  tau(  21) = (   0.6666667   0.1924501   1.8740000  )
        22           Co  tau(  22) = (   0.1666667   0.4811252   1.8740000  )
        23           Co  tau(  23) = (   0.5000000   0.4811252   1.8740000  )
        24           Co  tau(  24) = (   0.8333333   0.4811252   1.8740000  )
        25           Co  tau(  25) = (   0.3333333   0.7698004   1.8740000  )
        26           Co  tau(  26) = (   0.6666667   0.7698004   1.8740000  )
        27           Co  tau(  27) = (   1.0000000   0.7698004   1.8740000  )
        28           Co  tau(  28) = (   0.0000000   0.0000000   2.1443333  )
        29           Co  tau(  29) = (   0.3333333   0.0000000   2.1443333  )
        30           Co  tau(  30) = (   0.6666667   0.0000000   2.1443333  )
        31           Co  tau(  31) = (   0.1666667   0.2886751   2.1443333  )
        32           Co  tau(  32) = (   0.5000000   0.2886751   2.1443333  )
        33           Co  tau(  33) = (   0.8333333   0.2886751   2.1443333  )
        34           Co  tau(  34) = (   0.3333333   0.5773503   2.1443333  )
        35           Co  tau(  35) = (   0.6666667   0.5773503   2.1443333  )
        36           Co  tau(  36) = (   1.0000000   0.5773503   2.1443333  )
        37           C   tau(  37) = (   0.3391222   0.1956761   2.3254638  )
        38           O   tau(  38) = (   0.3314198   0.1913963   2.4844034  )
        39           H   tau(  39) = (   0.6636665   0.3831609   2.2745637  )

     number of k points=    13  Marzari-Vanderbilt smearing, width (Ry)=  0.0010
                       cart. coord. in units 2pi/alat
        k(    1) = (   0.0000000   0.0000000   0.0000000), wk =   0.0400000
        k(    2) = (   0.0000000   0.2309401   0.0000000), wk =   0.0800000
        k(    3) = (   0.0000000   0.4618802   0.0000000), wk =   0.0800000
        k(    4) = (   0.2000000  -0.1154701   0.0000000), wk =   0.0800000
        k(    5) = (   0.2000000   0.1154701   0.0000000), wk =   0.0800000
        k(    6) = (   0.2000000   0.3464102   0.0000000), wk =   0.0800000
        k(    7) = (   0.2000000  -0.5773503   0.0000000), wk =   0.0800000
        k(    8) = (   0.2000000  -0.3464102   0.0000000), wk =   0.0800000
        k(    9) = (   0.4000000  -0.2309401   0.0000000), wk =   0.0800000
        k(   10) = (   0.4000000   0.0000000   0.0000000), wk =   0.0800000
        k(   11) = (   0.4000000   0.2309401   0.0000000), wk =   0.0800000
        k(   12) = (   0.4000000  -0.6928203   0.0000000), wk =   0.0800000
        k(   13) = (   0.4000000  -0.4618802   0.0000000), wk =   0.0800000

     Dense  grid:   752179 G-vectors     FFT dimensions: (  80,  80, 288)

     Smooth grid:   409445 G-vectors     FFT dimensions: (  64,  64, 225)

     Estimated max dynamical RAM per process >      99.02 MB

     Estimated total dynamical RAM >       9.28 GB
     Generating pointlists ...
     new r_m :   0.0947 (alat units)  1.3418 (a.u.) for type    1
     new r_m :   0.0657 (alat units)  0.9306 (a.u.) for type    2
     new r_m :   0.0657 (alat units)  0.9306 (a.u.) for type    3
     new r_m :   0.0947 (alat units)  1.3418 (a.u.) for type    4

     Initial potential from superposition of free atoms

     starting charge     334.9897, renormalised to     335.0000

     negative rho (up, down):  3.058E-03 4.513E-04


     %%%%%%%%%%%%%%%%%%%%%%%%%%%%%%%%%%%%%%%%%%%%%%%%%%%%%%%%%%%%%%%%%%%%%%%%
     %                                                                      %
     % You are using vdW-DF, which was implemented by the Thonhauser group. %
     % Please cite the following two papers that made this development      %
     % possible and the two reviews that describe the various versions:     %
     %                                                                      %
     %   T. Thonhauser et al., PRL 115, 136402 (2015).                      %
     %   T. Thonhauser et al., PRB 76, 125112 (2007).                       %
     %   K. Berland et al., Rep. Prog. Phys. 78, 066501 (2015).             %
     %   D.C. Langreth et al., J. Phys.: Condens. Matter 21, 084203 (2009). %
     %                                                                      %
     % If you are calculating stress with vdW-DF, please also cite:         %
     %                                                                      %
     %   R. Sabatini et al., J. Phys.: Condens. Matter 24, 424209 (2012).   %
     %   C.M. Frostenson et al., Electr. Struct. 4, 014001 (2022).          %
     %                                                                      %
     %%%%%%%%%%%%%%%%%%%%%%%%%%%%%%%%%%%%%%%%%%%%%%%%%%%%%%%%%%%%%%%%%%%%%%%%

     %%%%%%%%%%%%%%%%%%%%%%%%%%%%%%%%%%%%%%%%%%%%%%%%%%%%%%%%%%%%%%%%%%%%%%%%
     %                                                                      %
     %  vdW-DF NEWS:                                                        %
     %                                                                      %
     %  * vdW-DF3 is now available. DOI: 10.1021/acs.jctc.0c00471           %
     %    use with input_dft = 'vdW-DF3-opt1' or 'vdW-DF3-opt2'             %
     %                                                                      %
     %  * Unscreened and range-separated hybrid vdW-DF-cx functionals       %
     %    DOI: 10.1063/1.4986522 and 10.1088/1361-648X/ac2ad2               %
     %    use with input_dft = 'vdW-DF-cx0'    and 'vdW-DF-ahcx'            %
     %  * Unscreened and range-separated hybrid vdW-DF2-b86r functionals    %
     %    DOI: 10.1063/1.4986522 and DOI: 10.1103/PhysRevX.12.041003        %
     %    use with input_dft = 'vdW-DF2-br0' and 'vdW-DF2-ahbr'             %
     %                                                                      %
     %%%%%%%%%%%%%%%%%%%%%%%%%%%%%%%%%%%%%%%%%%%%%%%%%%%%%%%%%%%%%%%%%%%%%%%%


     Starting wfcs are  333 randomized atomic wfcs
     Checking if some PAW data can be deallocated... 

     total cpu time spent up to now is       12.4 secs

     per-process dynamical memory:   230.3 Mb

     Self-consistent Calculation

     iteration #  1     ecut=    50.00 Ry     beta= 0.70
     Davidson diagonalization with overlap
     ethr =  1.00E-02,  avg # of iterations =  2.0

     negative rho (up, down):  3.409E-05 7.595E-08

     total cpu time spent up to now is       35.9 secs

     total energy              =   -6053.14449192 Ry
     estimated scf accuracy    <      38.90744495 Ry

     total magnetization       =    69.00 Bohr mag/cell
     absolute magnetization    =    81.25 Bohr mag/cell

     iteration #  2     ecut=    50.00 Ry     beta= 0.70
     Davidson diagonalization with overlap
     ethr =  1.00E-02,  avg # of iterations =  1.0

     negative rho (up, down):  4.989E-06 4.807E-08

     total cpu time spent up to now is       51.5 secs

     total energy              =   -6052.73710017 Ry
     estimated scf accuracy    <      23.81727566 Ry

     total magnetization       =    69.00 Bohr mag/cell
     absolute magnetization    =    76.88 Bohr mag/cell

     iteration #  3     ecut=    50.00 Ry     beta= 0.70
     Davidson diagonalization with overlap
     ethr =  7.11E-03,  avg # of iterations =  1.4

     negative rho (up, down):  3.206E-08 0.000E+00

     total cpu time spent up to now is       68.5 secs

     total energy              =   -6055.19693082 Ry
     estimated scf accuracy    <      85.67435568 Ry

     total magnetization       =    66.12 Bohr mag/cell
     absolute magnetization    =    73.51 Bohr mag/cell

     iteration #  4     ecut=    50.00 Ry     beta= 0.70
     Davidson diagonalization with overlap
     ethr =  7.11E-03,  avg # of iterations =  1.0

     total cpu time spent up to now is       82.9 secs

     total energy              =   -6056.46235476 Ry
     estimated scf accuracy    <       5.33320017 Ry

     total magnetization       =    60.18 Bohr mag/cell
     absolute magnetization    =    70.07 Bohr mag/cell

     iteration #  5     ecut=    50.00 Ry     beta= 0.70
     Davidson diagonalization with overlap
     ethr =  1.59E-03,  avg # of iterations =  1.2

     total cpu time spent up to now is       98.9 secs

     total energy              =   -6056.45734384 Ry
     estimated scf accuracy    <       2.05677445 Ry

     total magnetization       =    60.36 Bohr mag/cell
     absolute magnetization    =    69.77 Bohr mag/cell

     iteration #  6     ecut=    50.00 Ry     beta= 0.70
     Davidson diagonalization with overlap
     ethr =  6.14E-04,  avg # of iterations =  2.0

     total cpu time spent up to now is      116.0 secs

     total energy              =   -6056.55734243 Ry
     estimated scf accuracy    <       0.86656850 Ry

     total magnetization       =    59.92 Bohr mag/cell
     absolute magnetization    =    69.06 Bohr mag/cell

     iteration #  7     ecut=    50.00 Ry     beta= 0.70
     Davidson diagonalization with overlap
     ethr =  2.59E-04,  avg # of iterations =  4.3

     total cpu time spent up to now is      132.8 secs

     total energy              =   -6056.58752809 Ry
     estimated scf accuracy    <       0.58244364 Ry

     total magnetization       =    60.10 Bohr mag/cell
     absolute magnetization    =    68.86 Bohr mag/cell

     iteration #  8     ecut=    50.00 Ry     beta= 0.70
     Davidson diagonalization with overlap
     ethr =  1.74E-04,  avg # of iterations =  1.7

     total cpu time spent up to now is      150.3 secs

     total energy              =   -6056.61151969 Ry
     estimated scf accuracy    <       0.14147546 Ry

     total magnetization       =    60.13 Bohr mag/cell
     absolute magnetization    =    68.74 Bohr mag/cell

     iteration #  9     ecut=    50.00 Ry     beta= 0.70
     Davidson diagonalization with overlap
     c_bands:  2 eigenvalues not converged
     c_bands:  3 eigenvalues not converged
     ethr =  4.22E-05,  avg # of iterations =  8.9

     total cpu time spent up to now is      176.0 secs

     total energy              =   -6056.62005178 Ry
     estimated scf accuracy    <       0.12812601 Ry

     total magnetization       =    60.38 Bohr mag/cell
     absolute magnetization    =    68.56 Bohr mag/cell

     iteration # 10     ecut=    50.00 Ry     beta= 0.70
     Davidson diagonalization with overlap
     ethr =  3.82E-05,  avg # of iterations =  2.0

     total cpu time spent up to now is      192.0 secs

     total energy              =   -6056.62401015 Ry
     estimated scf accuracy    <       0.14840268 Ry

     total magnetization       =    60.59 Bohr mag/cell
     absolute magnetization    =    68.57 Bohr mag/cell

     iteration # 11     ecut=    50.00 Ry     beta= 0.70
     Davidson diagonalization with overlap
     ethr =  3.82E-05,  avg # of iterations =  1.2

     total cpu time spent up to now is      208.1 secs

     total energy              =   -6056.61940672 Ry
     estimated scf accuracy    <       0.11529666 Ry

     total magnetization       =    60.51 Bohr mag/cell
     absolute magnetization    =    68.45 Bohr mag/cell

     iteration # 12     ecut=    50.00 Ry     beta= 0.70
     Davidson diagonalization with overlap
     ethr =  3.44E-05,  avg # of iterations =  1.7

     negative rho (up, down):  3.298E-08 0.000E+00

     total cpu time spent up to now is      223.1 secs

     total energy              =   -6056.61970815 Ry
     estimated scf accuracy    <       0.07615574 Ry

     total magnetization       =    60.40 Bohr mag/cell
     absolute magnetization    =    68.26 Bohr mag/cell

     iteration # 13     ecut=    50.00 Ry     beta= 0.70
     Davidson diagonalization with overlap
     ethr =  2.27E-05,  avg # of iterations =  1.5

     total cpu time spent up to now is      240.1 secs

     total energy              =   -6056.62023502 Ry
     estimated scf accuracy    <       0.11429846 Ry

     total magnetization       =    60.45 Bohr mag/cell
     absolute magnetization    =    68.25 Bohr mag/cell

     iteration # 14     ecut=    50.00 Ry     beta= 0.70
     Davidson diagonalization with overlap
     ethr =  2.27E-05,  avg # of iterations =  1.2

     negative rho (up, down):  8.136E-03 6.631E-03

     total cpu time spent up to now is      254.6 secs

     total energy              =   -6056.61433068 Ry
     estimated scf accuracy    <       0.07486967 Ry

     total magnetization       =    60.48 Bohr mag/cell
     absolute magnetization    =    68.24 Bohr mag/cell

     iteration # 15     ecut=    50.00 Ry     beta= 0.70
     Davidson diagonalization with overlap
     ethr =  2.23E-05,  avg # of iterations =  1.4

     negative rho (up, down):  1.975E-02 1.792E-02

     total cpu time spent up to now is      271.1 secs

     total energy              =   -6056.61066882 Ry
     estimated scf accuracy    <       0.03752031 Ry

     total magnetization       =    60.37 Bohr mag/cell
     absolute magnetization    =    68.12 Bohr mag/cell

     iteration # 16     ecut=    50.00 Ry     beta= 0.70
     Davidson diagonalization with overlap
     c_bands:  1 eigenvalues not converged
     c_bands:  4 eigenvalues not converged
     c_bands:  1 eigenvalues not converged
     c_bands:  1 eigenvalues not converged
     c_bands:  4 eigenvalues not converged
     ethr =  1.12E-05,  avg # of iterations =  5.8

     negative rho (up, down):  2.498E-02 2.300E-02

     total cpu time spent up to now is      290.5 secs

     total energy              =   -6056.61093488 Ry
     estimated scf accuracy    <       0.03150894 Ry

     total magnetization       =    60.39 Bohr mag/cell
     absolute magnetization    =    68.12 Bohr mag/cell

     iteration # 17     ecut=    50.00 Ry     beta= 0.70
     Davidson diagonalization with overlap
     ethr =  9.41E-06,  avg # of iterations =  2.3

     negative rho (up, down):  1.736E-02 1.579E-02

     total cpu time spent up to now is      308.1 secs

     total energy              =   -6056.61092579 Ry
     estimated scf accuracy    <       0.01856368 Ry

     total magnetization       =    60.39 Bohr mag/cell
     absolute magnetization    =    68.11 Bohr mag/cell

     iteration # 18     ecut=    50.00 Ry     beta= 0.70
     Davidson diagonalization with overlap
     c_bands:  1 eigenvalues not converged
     c_bands:  2 eigenvalues not converged
     ethr =  5.54E-06,  avg # of iterations =  4.2

     negative rho (up, down):  1.085E-02 9.531E-03

     total cpu time spent up to now is      327.9 secs

     total energy              =   -6056.61032258 Ry
     estimated scf accuracy    <       0.01028316 Ry

     total magnetization       =    60.44 Bohr mag/cell
     absolute magnetization    =    68.13 Bohr mag/cell

     iteration # 19     ecut=    50.00 Ry     beta= 0.70
     Davidson diagonalization with overlap
     c_bands:  1 eigenvalues not converged
     ethr =  3.07E-06,  avg # of iterations =  4.7

     negative rho (up, down):  9.729E-03 8.727E-03

     total cpu time spent up to now is      345.8 secs

     total energy              =   -6056.60868290 Ry
     estimated scf accuracy    <       0.02297374 Ry

     total magnetization       =    60.42 Bohr mag/cell
     absolute magnetization    =    68.11 Bohr mag/cell

     iteration # 20     ecut=    50.00 Ry     beta= 0.70
     Davidson diagonalization with overlap
     ethr =  3.07E-06,  avg # of iterations =  1.9

     negative rho (up, down):  1.431E-02 1.362E-02

     total cpu time spent up to now is      363.4 secs

     total energy              =   -6056.60826403 Ry
     estimated scf accuracy    <       0.01631723 Ry

     total magnetization       =    60.47 Bohr mag/cell
     absolute magnetization    =    68.13 Bohr mag/cell

     iteration # 21     ecut=    50.00 Ry     beta= 0.70
     Davidson diagonalization with overlap
     ethr =  3.07E-06,  avg # of iterations =  1.5

     negative rho (up, down):  1.248E-02 1.191E-02

     total cpu time spent up to now is      378.3 secs

     total energy              =   -6056.60867910 Ry
     estimated scf accuracy    <       0.00270845 Ry

     total magnetization       =    60.46 Bohr mag/cell
     absolute magnetization    =    68.12 Bohr mag/cell

     iteration # 22     ecut=    50.00 Ry     beta= 0.70
     Davidson diagonalization with overlap
     c_bands:  1 eigenvalues not converged
     ethr =  8.08E-07,  avg # of iterations =  3.3

     negative rho (up, down):  9.175E-03 8.623E-03

     total cpu time spent up to now is      397.0 secs

     total energy              =   -6056.60874119 Ry
     estimated scf accuracy    <       0.00298627 Ry

     total magnetization       =    60.44 Bohr mag/cell
     absolute magnetization    =    68.11 Bohr mag/cell

     iteration # 23     ecut=    50.00 Ry     beta= 0.70
     Davidson diagonalization with overlap
     ethr =  8.08E-07,  avg # of iterations =  1.5

     negative rho (up, down):  8.551E-03 8.015E-03

     total cpu time spent up to now is      411.9 secs

     total energy              =   -6056.60878595 Ry
     estimated scf accuracy    <       0.00297140 Ry

     total magnetization       =    60.45 Bohr mag/cell
     absolute magnetization    =    68.12 Bohr mag/cell

     iteration # 24     ecut=    50.00 Ry     beta= 0.70
     Davidson diagonalization with overlap
     ethr =  8.08E-07,  avg # of iterations =  1.3

     negative rho (up, down):  5.312E-03 4.666E-03

     total cpu time spent up to now is      428.5 secs

     total energy              =   -6056.60858121 Ry
     estimated scf accuracy    <       0.00283354 Ry

     total magnetization       =    60.46 Bohr mag/cell
     absolute magnetization    =    68.12 Bohr mag/cell

     iteration # 25     ecut=    50.00 Ry     beta= 0.70
     Davidson diagonalization with overlap
     ethr =  8.08E-07,  avg # of iterations =  1.3

     negative rho (up, down):  3.557E-03 2.856E-03

     total cpu time spent up to now is      443.2 secs

     total energy              =   -6056.60872228 Ry
     estimated scf accuracy    <       0.00129452 Ry

     total magnetization       =    60.45 Bohr mag/cell
     absolute magnetization    =    68.12 Bohr mag/cell

     iteration # 26     ecut=    50.00 Ry     beta= 0.70
     Davidson diagonalization with overlap
     ethr =  3.86E-07,  avg # of iterations =  2.3

     negative rho (up, down):  2.830E-03 2.088E-03

     total cpu time spent up to now is      460.8 secs

     total energy              =   -6056.60883283 Ry
     estimated scf accuracy    <       0.00183775 Ry

     total magnetization       =    60.44 Bohr mag/cell
     absolute magnetization    =    68.11 Bohr mag/cell

     iteration # 27     ecut=    50.00 Ry     beta= 0.70
     Davidson diagonalization with overlap
     ethr =  3.86E-07,  avg # of iterations =  1.8

     negative rho (up, down):  1.917E-03 1.113E-03

     total cpu time spent up to now is      478.5 secs

     total energy              =   -6056.60881984 Ry
     estimated scf accuracy    <       0.00277333 Ry

     total magnetization       =    60.44 Bohr mag/cell
     absolute magnetization    =    68.10 Bohr mag/cell

     iteration # 28     ecut=    50.00 Ry     beta= 0.70
     Davidson diagonalization with overlap
     ethr =  3.86E-07,  avg # of iterations =  1.0

     negative rho (up, down):  1.128E-03 3.991E-04

     total cpu time spent up to now is      492.3 secs

     total energy              =   -6056.60890933 Ry
     estimated scf accuracy    <       0.00083753 Ry

     total magnetization       =    60.45 Bohr mag/cell
     absolute magnetization    =    68.11 Bohr mag/cell

     iteration # 29     ecut=    50.00 Ry     beta= 0.70
     Davidson diagonalization with overlap
     ethr =  2.50E-07,  avg # of iterations =  1.8

     negative rho (up, down):  9.839E-04 2.992E-04

     total cpu time spent up to now is      510.6 secs

     total energy              =   -6056.60886929 Ry
     estimated scf accuracy    <       0.00255813 Ry

     total magnetization       =    60.45 Bohr mag/cell
     absolute magnetization    =    68.10 Bohr mag/cell

     iteration # 30     ecut=    50.00 Ry     beta= 0.70
     Davidson diagonalization with overlap
     ethr =  2.50E-07,  avg # of iterations =  1.3

     negative rho (up, down):  9.897E-04 2.449E-04

     total cpu time spent up to now is      524.9 secs

     total energy              =   -6056.60902172 Ry
     estimated scf accuracy    <       0.00073846 Ry

     total magnetization       =    60.44 Bohr mag/cell
     absolute magnetization    =    68.10 Bohr mag/cell

     iteration # 31     ecut=    50.00 Ry     beta= 0.70
     Davidson diagonalization with overlap
     ethr =  2.20E-07,  avg # of iterations =  1.3

     negative rho (up, down):  1.361E-03 4.743E-04

     total cpu time spent up to now is      542.6 secs

     total energy              =   -6056.60907281 Ry
     estimated scf accuracy    <       0.00013266 Ry

     total magnetization       =    60.45 Bohr mag/cell
     absolute magnetization    =    68.10 Bohr mag/cell

     iteration # 32     ecut=    50.00 Ry     beta= 0.70
     Davidson diagonalization with overlap
     ethr =  3.96E-08,  avg # of iterations =  5.0

     negative rho (up, down):  1.788E-03 8.524E-04

     total cpu time spent up to now is      560.2 secs

     total energy              =   -6056.60908033 Ry
     estimated scf accuracy    <       0.00004435 Ry

     total magnetization       =    60.44 Bohr mag/cell
     absolute magnetization    =    68.10 Bohr mag/cell

     iteration # 33     ecut=    50.00 Ry     beta= 0.70
     Davidson diagonalization with overlap
     ethr =  1.32E-08,  avg # of iterations =  4.9

     negative rho (up, down):  1.874E-03 9.013E-04

     total cpu time spent up to now is      581.6 secs

     total energy              =   -6056.60908918 Ry
     estimated scf accuracy    <       0.00001677 Ry

     total magnetization       =    60.45 Bohr mag/cell
     absolute magnetization    =    68.10 Bohr mag/cell

     iteration # 34     ecut=    50.00 Ry     beta= 0.70
     Davidson diagonalization with overlap
     ethr =  5.01E-09,  avg # of iterations =  3.7

     negative rho (up, down):  2.038E-03 1.030E-03

     total cpu time spent up to now is      601.5 secs

     total energy              =   -6056.60909366 Ry
     estimated scf accuracy    <       0.00001568 Ry

     total magnetization       =    60.44 Bohr mag/cell
     absolute magnetization    =    68.10 Bohr mag/cell

     iteration # 35     ecut=    50.00 Ry     beta= 0.70
     Davidson diagonalization with overlap
     ethr =  4.68E-09,  avg # of iterations =  1.5

     negative rho (up, down):  2.212E-03 1.195E-03

     total cpu time spent up to now is      616.6 secs

     total energy              =   -6056.60909511 Ry
     estimated scf accuracy    <       0.00000875 Ry

     total magnetization       =    60.44 Bohr mag/cell
     absolute magnetization    =    68.09 Bohr mag/cell

     iteration # 36     ecut=    50.00 Ry     beta= 0.70
     Davidson diagonalization with overlap
     ethr =  2.61E-09,  avg # of iterations =  2.7

     negative rho (up, down):  2.261E-03 1.226E-03

     total cpu time spent up to now is      635.2 secs

     total energy              =   -6056.60909682 Ry
     estimated scf accuracy    <       0.00000540 Ry

     total magnetization       =    60.44 Bohr mag/cell
     absolute magnetization    =    68.09 Bohr mag/cell

     iteration # 37     ecut=    50.00 Ry     beta= 0.70
     Davidson diagonalization with overlap
     ethr =  1.61E-09,  avg # of iterations =  2.8

     negative rho (up, down):  2.307E-03 1.253E-03

     total cpu time spent up to now is      651.3 secs

     total energy              =   -6056.60909816 Ry
     estimated scf accuracy    <       0.00000474 Ry

     total magnetization       =    60.44 Bohr mag/cell
     absolute magnetization    =    68.09 Bohr mag/cell

     iteration # 38     ecut=    50.00 Ry     beta= 0.70
     Davidson diagonalization with overlap
     ethr =  1.42E-09,  avg # of iterations =  1.8

     negative rho (up, down):  2.251E-03 1.187E-03

     total cpu time spent up to now is      668.9 secs

     total energy              =   -6056.60909879 Ry
     estimated scf accuracy    <       0.00000194 Ry

     total magnetization       =    60.44 Bohr mag/cell
     absolute magnetization    =    68.09 Bohr mag/cell

     iteration # 39     ecut=    50.00 Ry     beta= 0.70
     Davidson diagonalization with overlap
     ethr =  5.79E-10,  avg # of iterations =  4.7

     negative rho (up, down):  2.242E-03 1.160E-03

     total cpu time spent up to now is      689.2 secs

     total energy              =   -6056.60909943 Ry
     estimated scf accuracy    <       0.00000272 Ry

     total magnetization       =    60.44 Bohr mag/cell
     absolute magnetization    =    68.09 Bohr mag/cell

     iteration # 40     ecut=    50.00 Ry     beta= 0.70
     Davidson diagonalization with overlap
     ethr =  5.79E-10,  avg # of iterations =  2.5

     negative rho (up, down):  2.194E-03 1.120E-03

     total cpu time spent up to now is      705.9 secs

     total energy              =   -6056.60909925 Ry
     estimated scf accuracy    <       0.00000093 Ry

     total magnetization       =    60.44 Bohr mag/cell
     absolute magnetization    =    68.09 Bohr mag/cell

     iteration # 41     ecut=    50.00 Ry     beta= 0.70
     Davidson diagonalization with overlap
     ethr =  2.77E-10,  avg # of iterations =  2.8

     negative rho (up, down):  2.221E-03 1.132E-03

     total cpu time spent up to now is      725.1 secs

     total energy              =   -6056.60909945 Ry
     estimated scf accuracy    <       0.00000433 Ry

     total magnetization       =    60.44 Bohr mag/cell
     absolute magnetization    =    68.09 Bohr mag/cell

     iteration # 42     ecut=    50.00 Ry     beta= 0.70
     Davidson diagonalization with overlap
     ethr =  2.77E-10,  avg # of iterations =  2.2

     negative rho (up, down):  2.233E-03 1.140E-03

     total cpu time spent up to now is      741.1 secs

     total energy              =   -6056.60909960 Ry
     estimated scf accuracy    <       0.00000088 Ry

     total magnetization       =    60.44 Bohr mag/cell
     absolute magnetization    =    68.09 Bohr mag/cell

     iteration # 43     ecut=    50.00 Ry     beta= 0.70
     Davidson diagonalization with overlap
     ethr =  2.62E-10,  avg # of iterations =  1.8

     negative rho (up, down):  2.235E-03 1.143E-03

     total cpu time spent up to now is      758.5 secs

     total energy              =   -6056.60909964 Ry
     estimated scf accuracy    <       0.00000012 Ry

     total magnetization       =    60.44 Bohr mag/cell
     absolute magnetization    =    68.09 Bohr mag/cell

     iteration # 44     ecut=    50.00 Ry     beta= 0.70
     Davidson diagonalization with overlap
     ethr =  3.57E-11,  avg # of iterations =  8.4

     negative rho (up, down):  2.244E-03 1.152E-03

     total cpu time spent up to now is      789.8 secs

     total energy              =   -6056.60909971 Ry
     estimated scf accuracy    <       0.00000013 Ry

     total magnetization       =    60.44 Bohr mag/cell
     absolute magnetization    =    68.09 Bohr mag/cell

     iteration # 45     ecut=    50.00 Ry     beta= 0.70
     Davidson diagonalization with overlap
     ethr =  3.57E-11,  avg # of iterations =  2.0

     negative rho (up, down):  2.246E-03 1.153E-03

     total cpu time spent up to now is      808.4 secs

     total energy              =   -6056.60909972 Ry
     estimated scf accuracy    <       0.00000006 Ry

     total magnetization       =    60.44 Bohr mag/cell
     absolute magnetization    =    68.09 Bohr mag/cell

     iteration # 46     ecut=    50.00 Ry     beta= 0.70
     Davidson diagonalization with overlap
     ethr =  1.71E-11,  avg # of iterations =  1.6

     negative rho (up, down):  2.247E-03 1.154E-03

     total cpu time spent up to now is      823.2 secs

     total energy              =   -6056.60909972 Ry
     estimated scf accuracy    <       0.00000001 Ry

     total magnetization       =    60.44 Bohr mag/cell
     absolute magnetization    =    68.09 Bohr mag/cell

     iteration # 47     ecut=    50.00 Ry     beta= 0.70
     Davidson diagonalization with overlap
     ethr =  4.04E-12,  avg # of iterations =  5.9

     negative rho (up, down):  2.248E-03 1.156E-03

     total cpu time spent up to now is      847.9 secs

     total energy              =   -6056.60909973 Ry
     estimated scf accuracy    <       0.00000001 Ry

     total magnetization       =    60.44 Bohr mag/cell
     absolute magnetization    =    68.09 Bohr mag/cell

     iteration # 48     ecut=    50.00 Ry     beta= 0.70
     Davidson diagonalization with overlap
     ethr =  4.04E-12,  avg # of iterations =  2.0

     negative rho (up, down):  2.251E-03 1.159E-03

     Magnetic moment per site  (integrated on atomic sphere of radius R)
     atom   1 (R=0.095)  charge=  5.8769  magn=  1.6986
     atom   2 (R=0.095)  charge=  5.8795  magn=  1.6812
     atom   3 (R=0.095)  charge=  5.8775  magn=  1.6942
     atom   4 (R=0.095)  charge=  5.8771  magn=  1.6969
     atom   5 (R=0.095)  charge=  5.8775  magn=  1.6943
     atom   6 (R=0.095)  charge=  5.8770  magn=  1.6987
     atom   7 (R=0.095)  charge=  5.8773  magn=  1.7033
     atom   8 (R=0.095)  charge=  5.8769  magn=  1.6987
     atom   9 (R=0.095)  charge=  5.8771  magn=  1.6969
     atom  10 (R=0.095)  charge=  5.8737  magn=  1.6332
     atom  11 (R=0.095)  charge=  5.8754  magn=  1.6291
     atom  12 (R=0.095)  charge=  5.8748  magn=  1.6356
     atom  13 (R=0.095)  charge=  5.8754  magn=  1.6291
     atom  14 (R=0.095)  charge=  5.8762  magn=  1.6282
     atom  15 (R=0.095)  charge=  5.8751  magn=  1.6371
     atom  16 (R=0.095)  charge=  5.8748  magn=  1.6356
     atom  17 (R=0.095)  charge=  5.8751  magn=  1.6371
     atom  18 (R=0.095)  charge=  5.8759  magn=  1.6376
     atom  19 (R=0.095)  charge=  5.8740  magn=  1.5990
     atom  20 (R=0.095)  charge=  5.8735  magn=  1.6530
     atom  21 (R=0.095)  charge=  5.8758  magn=  1.6281
     atom  22 (R=0.095)  charge=  5.8754  magn=  1.6171
     atom  23 (R=0.095)  charge=  5.8758  magn=  1.6281
     atom  24 (R=0.095)  charge=  5.8737  magn=  1.6591
     atom  25 (R=0.095)  charge=  5.8734  magn=  1.6325
     atom  26 (R=0.095)  charge=  5.8740  magn=  1.5989
     atom  27 (R=0.095)  charge=  5.8754  magn=  1.6171
     atom  28 (R=0.095)  charge=  5.8745  magn=  1.7343
     atom  29 (R=0.095)  charge=  5.8898  magn=  1.4080
     atom  30 (R=0.095)  charge=  5.8759  magn=  1.7431
     atom  31 (R=0.095)  charge=  5.8898  magn=  1.4090
     atom  32 (R=0.095)  charge=  5.8953  magn=  1.1787
     atom  33 (R=0.095)  charge=  5.8773  magn=  1.6043
     atom  34 (R=0.095)  charge=  5.8759  magn=  1.7432
     atom  35 (R=0.095)  charge=  5.8773  magn=  1.6043
     atom  36 (R=0.095)  charge=  5.8746  magn=  1.7202
     atom  37 (R=0.066)  charge=  1.0526  magn= -0.0226
     atom  38 (R=0.066)  charge=  2.9359  magn= -0.0444
     atom  39 (R=0.095)  charge=  0.9380  magn= -0.0163

     total cpu time spent up to now is      862.7 secs

     End of self-consistent calculation

 ------ SPIN UP ------------


          k = 0.0000 0.0000 0.0000 ( 51087 PWs)   bands (ev):

   -21.8490  -9.2739  -7.6820  -6.5674  -5.8139  -5.6781  -5.4005  -5.2397
    -4.8501  -4.8420  -4.8377  -4.8179  -4.7943  -4.7916  -4.6593  -4.3907
    -4.3073  -4.3061  -4.2790  -4.2593  -4.2462  -4.1100  -3.7886  -3.7884
    -3.7780  -3.7662  -3.7372  -3.7080  -3.6576  -3.6556  -3.6512  -3.6477
    -3.6117  -3.5780  -3.5765  -3.4754  -3.2772  -3.2681  -3.2654  -3.2606
    -3.2038  -3.2030  -3.1974  -3.1945  -3.1901  -3.1789  -3.1731  -3.1167
    -3.0396  -3.0344  -2.9708  -2.9632  -2.9584  -2.9525  -2.9472  -2.9392
    -2.9292  -2.9172  -2.9101  -2.8803  -2.8307  -2.8199  -2.8178  -2.8174
    -2.7485  -2.6075  -2.3296  -2.2904  -2.2884  -2.2855  -2.2853  -2.1832
    -2.1573  -2.1511  -2.1432  -2.1293  -2.1165  -2.1113  -2.1063  -2.1053
    -2.0613  -2.0606  -2.0081  -2.0049  -2.0036  -1.9963  -1.9876  -1.9778
    -1.9726  -1.9644  -1.9616  -1.9533  -1.9485  -1.9328  -1.9286  -1.9199
    -1.9146  -1.9140  -1.9139  -1.9132  -1.9123  -1.9042  -1.9009  -1.8862
    -1.8776  -1.8591  -1.8502  -1.8430  -1.8383  -1.7610  -1.7588  -1.6799
    -1.5279  -1.4733  -1.4623  -1.4622  -1.4609  -1.4539  -1.4238  -1.4202
    -1.4181  -1.4178  -1.4144  -1.3701  -1.3690  -1.2400  -1.2348  -1.2221
    -1.2104  -1.1568  -1.0910  -1.0698  -1.0635  -1.0216  -0.9957  -0.9810
    -0.9749  -0.9701  -0.9688  -0.9554  -0.9168  -0.8802  -0.8435  -0.8372
    -0.7392  -0.7317  -0.7182  -0.7086  -0.6985  -0.6797  -0.6794  -0.6589
    -0.6572  -0.6493  -0.6483  -0.6483  -0.6446  -0.6301  -0.6288  -0.6250
    -0.6168  -0.6147  -0.5971  -0.5944  -0.5845  -0.5839  -0.5734  -0.5664
    -0.5485  -0.5442  -0.5394  -0.5210  -0.5189  -0.5158  -0.5107  -0.5074
    -0.4973  -0.4894  -0.4763  -0.4728  -0.4523  -0.4242  -0.4215  -0.4133
    -0.4086  -0.4039  -0.4014  -0.3979  -0.3859  -0.3550  -0.3387  -0.3291
    -0.3270  -0.3167  -0.2630  -0.2565  -0.2547  -0.2411  -0.2379  -0.2120
     0.5178   0.6985

          k = 0.0000 0.2309 0.0000 ( 51134 PWs)   bands (ev):

   -21.8490  -9.2630  -7.5420  -6.4762  -5.8594  -5.6972  -5.5364  -5.3557
    -5.2175  -5.0593  -5.0344  -4.6411  -4.5200  -4.4948  -4.4830  -4.4274
    -4.3413  -4.3022  -4.2395  -4.1945  -4.1614  -4.0902  -3.8990  -3.7902
    -3.7821  -3.7132  -3.6738  -3.6609  -3.6596  -3.6501  -3.6436  -3.6150
    -3.6039  -3.5539  -3.5273  -3.5120  -3.5056  -3.4429  -3.2940  -3.2856
    -3.2753  -3.2285  -3.2234  -3.2129  -3.1853  -3.1263  -3.0917  -3.0751
    -3.0575  -3.0518  -3.0441  -3.0156  -2.9708  -2.9216  -2.9160  -2.8860
    -2.8503  -2.8389  -2.8174  -2.8132  -2.7851  -2.7499  -2.7468  -2.7350
    -2.7075  -2.6100  -2.4085  -2.3991  -2.3745  -2.3532  -2.3431  -2.2611
    -2.2516  -2.2362  -2.2299  -2.2206  -2.2136  -2.2013  -2.1828  -2.1257
    -2.1217  -2.1040  -2.0878  -2.0467  -2.0459  -2.0392  -2.0268  -2.0156
    -2.0103  -2.0072  -2.0021  -1.9909  -1.9810  -1.9728  -1.9395  -1.8994
    -1.8909  -1.8804  -1.8322  -1.8187  -1.8103  -1.8051  -1.7993  -1.7895
    -1.7826  -1.7787  -1.7676  -1.7612  -1.7581  -1.7285  -1.7216  -1.7065
    -1.6967  -1.6845  -1.6407  -1.6005  -1.5907  -1.4932  -1.4890  -1.4851
    -1.4730  -1.4601  -1.4537  -1.4471  -1.4270  -1.3916  -1.3605  -1.2944
    -1.2639  -1.2084  -1.1938  -1.1741  -1.1664  -1.1198  -1.1035  -1.0897
    -1.0551  -1.0103  -0.9925  -0.9838  -0.9592  -0.9538  -0.9148  -0.9087
    -0.8773  -0.8712  -0.8586  -0.8420  -0.8324  -0.8108  -0.8007  -0.7961
    -0.7339  -0.7237  -0.7197  -0.7136  -0.6921  -0.6717  -0.6539  -0.6482
    -0.6429  -0.6352  -0.6295  -0.6194  -0.5998  -0.5941  -0.5865  -0.5724
    -0.5306  -0.5110  -0.4996  -0.4882  -0.4655  -0.4545  -0.4259  -0.4016
    -0.3948  -0.3848  -0.3782  -0.3710  -0.3526  -0.3431  -0.3335  -0.2959
    -0.2701  -0.2581  -0.2514  -0.2319  -0.2211  -0.2026  -0.1928  -0.1779
    -0.1253  -0.0475   0.0723   0.1258   0.1619   0.2571   0.3794   0.4036
     0.4433   0.7772

          k = 0.0000 0.4619 0.0000 ( 51204 PWs)   bands (ev):

   -21.8490  -9.2458  -7.1309  -6.5028  -6.1976  -5.8550  -5.5678  -5.3888
    -5.2343  -5.1494  -5.1368  -4.9467  -4.3470  -4.3273  -4.2958  -4.2563
    -4.2162  -4.1391  -4.1330  -4.0440  -4.0044  -3.9976  -3.9802  -3.8408
    -3.8220  -3.8186  -3.8067  -3.8041  -3.7352  -3.7042  -3.6953  -3.5918
    -3.5353  -3.5252  -3.5059  -3.4935  -3.4795  -3.4446  -3.3796  -3.3722
    -3.3604  -3.3476  -3.3038  -3.2321  -3.1477  -3.1151  -3.0551  -3.0414
    -3.0196  -2.9942  -2.9742  -2.9596  -2.9497  -2.9417  -2.9229  -2.8727
    -2.8617  -2.8416  -2.7993  -2.7734  -2.6695  -2.6531  -2.6302  -2.6109
    -2.5646  -2.5445  -2.5195  -2.5107  -2.4910  -2.4273  -2.3819  -2.3783
    -2.3727  -2.3586  -2.3532  -2.3309  -2.3184  -2.3075  -2.2810  -2.2642
    -2.2487  -2.2141  -2.1962  -2.1759  -2.1487  -2.1286  -2.0814  -2.0591
    -2.0414  -2.0261  -2.0125  -1.9894  -1.9781  -1.9448  -1.9328  -1.9251
    -1.9101  -1.8993  -1.8847  -1.8698  -1.8585  -1.8574  -1.8528  -1.8200
    -1.8044  -1.7725  -1.7464  -1.7432  -1.6770  -1.6562  -1.6400  -1.6280
    -1.6105  -1.5908  -1.5583  -1.5374  -1.5315  -1.5081  -1.5061  -1.4974
    -1.4938  -1.4810  -1.4727  -1.4639  -1.4547  -1.4517  -1.4342  -1.4270
    -1.4177  -1.3717  -1.3073  -1.2957  -1.2801  -1.2739  -1.2425  -1.2294
    -1.2064  -1.1507  -1.1297  -1.1172  -1.0753  -1.0650  -1.0317  -1.0006
    -0.9894  -0.9735  -0.9412  -0.9307  -0.9124  -0.8827  -0.8590  -0.8054
    -0.7633  -0.7457  -0.7303  -0.7205  -0.7189  -0.7090  -0.7017  -0.6929
    -0.6755  -0.6483  -0.5701  -0.5658  -0.5553  -0.5479  -0.5431  -0.5197
    -0.5126  -0.4985  -0.4888  -0.4792  -0.4772  -0.4492  -0.3891  -0.3730
    -0.3641  -0.3524  -0.3246  -0.2732  -0.2678  -0.2409  -0.2335  -0.1977
    -0.1631  -0.1552  -0.1498  -0.1331  -0.1266  -0.1241  -0.1135  -0.0715
    -0.0213  -0.0013   0.4160   0.5994   0.8869   1.0713   1.1094   1.2671
     1.4583   1.4971

          k = 0.2000-0.1155 0.0000 ( 51134 PWs)   bands (ev):

   -21.8490  -9.2630  -7.5420  -6.4762  -5.8594  -5.6972  -5.5363  -5.3557
    -5.2176  -5.0592  -5.0344  -4.6411  -4.5199  -4.4948  -4.4830  -4.4274
    -4.3413  -4.3023  -4.2395  -4.1945  -4.1614  -4.0902  -3.8990  -3.7902
    -3.7821  -3.7132  -3.6738  -3.6609  -3.6596  -3.6501  -3.6436  -3.6150
    -3.6040  -3.5539  -3.5273  -3.5120  -3.5056  -3.4429  -3.2940  -3.2856
    -3.2753  -3.2285  -3.2234  -3.2130  -3.1853  -3.1263  -3.0917  -3.0751
    -3.0575  -3.0518  -3.0441  -3.0156  -2.9708  -2.9216  -2.9160  -2.8860
    -2.8503  -2.8389  -2.8174  -2.8132  -2.7851  -2.7499  -2.7468  -2.7349
    -2.7075  -2.6100  -2.4085  -2.3991  -2.3745  -2.3532  -2.3431  -2.2611
    -2.2516  -2.2361  -2.2299  -2.2206  -2.2136  -2.2013  -2.1828  -2.1257
    -2.1218  -2.1040  -2.0878  -2.0467  -2.0459  -2.0392  -2.0268  -2.0156
    -2.0103  -2.0072  -2.0021  -1.9909  -1.9810  -1.9728  -1.9396  -1.8994
    -1.8908  -1.8804  -1.8322  -1.8187  -1.8103  -1.8051  -1.7993  -1.7895
    -1.7827  -1.7787  -1.7676  -1.7612  -1.7581  -1.7285  -1.7216  -1.7065
    -1.6967  -1.6846  -1.6407  -1.6005  -1.5907  -1.4932  -1.4890  -1.4851
    -1.4730  -1.4600  -1.4537  -1.4470  -1.4269  -1.3916  -1.3607  -1.2943
    -1.2639  -1.2084  -1.1938  -1.1741  -1.1665  -1.1197  -1.1035  -1.0897
    -1.0552  -1.0102  -0.9925  -0.9838  -0.9592  -0.9538  -0.9147  -0.9087
    -0.8773  -0.8712  -0.8586  -0.8420  -0.8325  -0.8108  -0.8007  -0.7962
    -0.7339  -0.7237  -0.7197  -0.7136  -0.6921  -0.6717  -0.6539  -0.6482
    -0.6429  -0.6352  -0.6294  -0.6194  -0.5998  -0.5941  -0.5865  -0.5724
    -0.5306  -0.5111  -0.4995  -0.4882  -0.4655  -0.4544  -0.4259  -0.4016
    -0.3948  -0.3848  -0.3782  -0.3710  -0.3526  -0.3431  -0.3335  -0.2959
    -0.2701  -0.2581  -0.2514  -0.2319  -0.2211  -0.2026  -0.1928  -0.1779
    -0.1253  -0.0475   0.0723   0.1258   0.1619   0.2571   0.3795   0.4036
     0.4433   0.7771

          k = 0.2000 0.1155 0.0000 ( 51134 PWs)   bands (ev):

   -21.8490  -9.2618  -7.5436  -6.4806  -5.9030  -5.6757  -5.4607  -5.4148
    -5.1960  -5.0672  -5.0467  -4.6049  -4.5192  -4.4901  -4.4854  -4.4260
    -4.3462  -4.3238  -4.2390  -4.2030  -4.1672  -4.0650  -3.9025  -3.7957
    -3.7735  -3.7029  -3.6680  -3.6613  -3.6591  -3.6574  -3.6393  -3.6347
    -3.5758  -3.5521  -3.5462  -3.5134  -3.5062  -3.4456  -3.3015  -3.2812
    -3.2796  -3.2287  -3.2280  -3.2134  -3.1820  -3.1286  -3.0968  -3.0679
    -3.0562  -3.0517  -3.0470  -3.0250  -2.9658  -2.9210  -2.9149  -2.8885
    -2.8541  -2.8316  -2.8180  -2.8134  -2.7989  -2.7493  -2.7473  -2.7335
    -2.6834  -2.6105  -2.4103  -2.3921  -2.3737  -2.3561  -2.3476  -2.2606
    -2.2534  -2.2440  -2.2290  -2.2215  -2.2154  -2.2025  -2.1658  -2.1259
    -2.1210  -2.1053  -2.0879  -2.0482  -2.0441  -2.0420  -2.0320  -2.0153
    -2.0098  -2.0086  -2.0028  -1.9918  -1.9762  -1.9712  -1.9465  -1.8952
    -1.8898  -1.8750  -1.8279  -1.8259  -1.8149  -1.8072  -1.7973  -1.7966
    -1.7840  -1.7799  -1.7694  -1.7604  -1.7530  -1.7489  -1.7115  -1.7101
    -1.6920  -1.6915  -1.6422  -1.6095  -1.5933  -1.5091  -1.4930  -1.4791
    -1.4689  -1.4648  -1.4538  -1.4493  -1.4298  -1.3967  -1.3032  -1.3030
    -1.2578  -1.2055  -1.1939  -1.1676  -1.1647  -1.1430  -1.1029  -1.0998
    -1.0518  -1.0057  -0.9996  -0.9749  -0.9587  -0.9528  -0.9144  -0.9131
    -0.8818  -0.8728  -0.8573  -0.8400  -0.8333  -0.8126  -0.8080  -0.7945
    -0.7300  -0.7284  -0.7184  -0.7024  -0.7007  -0.6725  -0.6554  -0.6497
    -0.6435  -0.6376  -0.6295  -0.6033  -0.6030  -0.5987  -0.5848  -0.5745
    -0.5283  -0.5033  -0.4969  -0.4879  -0.4717  -0.4546  -0.4228  -0.4051
    -0.3940  -0.3840  -0.3785  -0.3686  -0.3527  -0.3422  -0.3341  -0.2940
    -0.2632  -0.2605  -0.2509  -0.2316  -0.2216  -0.2014  -0.1803  -0.1679
    -0.1246  -0.0833   0.1000   0.1228   0.1708   0.2438   0.3834   0.4035
     0.4319   0.7285

          k = 0.2000 0.3464 0.0000 ( 51202 PWs)   bands (ev):

   -21.8490  -9.2475  -7.2689  -6.3494  -6.0649  -5.9391  -5.6933  -5.4673
    -5.3652  -5.1798  -4.7643  -4.6266  -4.5039  -4.4901  -4.3468  -4.2818
    -4.2759  -4.1811  -4.1762  -4.0904  -4.0501  -3.9824  -3.9086  -3.8839
    -3.8359  -3.7903  -3.7005  -3.6806  -3.6549  -3.6484  -3.6394  -3.6237
    -3.5985  -3.5916  -3.5453  -3.5322  -3.4880  -3.4586  -3.4513  -3.3953
    -3.3098  -3.2615  -3.2258  -3.1961  -3.1781  -3.1689  -3.1053  -3.0642
    -3.0288  -2.9933  -2.9876  -2.9783  -2.9548  -2.9282  -2.9136  -2.8976
    -2.8883  -2.8517  -2.7729  -2.7236  -2.7009  -2.6814  -2.6605  -2.6444
    -2.6175  -2.5589  -2.5155  -2.4475  -2.4280  -2.3995  -2.3850  -2.3546
    -2.3429  -2.3334  -2.3296  -2.3080  -2.2826  -2.2741  -2.2679  -2.2546
    -2.2421  -2.1992  -2.1752  -2.1351  -2.0842  -2.0716  -2.0517  -2.0361
    -2.0225  -2.0072  -1.9772  -1.9692  -1.9515  -1.9356  -1.9218  -1.9153
    -1.9087  -1.9011  -1.8956  -1.8699  -1.8655  -1.8588  -1.8378  -1.8305
    -1.8142  -1.7900  -1.7661  -1.7350  -1.7276  -1.6928  -1.6867  -1.6781
    -1.6633  -1.6600  -1.6201  -1.5868  -1.5787  -1.5605  -1.5467  -1.5207
    -1.5152  -1.5050  -1.4878  -1.4699  -1.4539  -1.4467  -1.4290  -1.3777
    -1.3666  -1.3459  -1.3272  -1.2378  -1.2211  -1.1977  -1.1863  -1.1105
    -1.0832  -1.0713  -1.0582  -1.0502  -1.0471  -1.0425  -1.0117  -1.0079
    -0.9854  -0.9705  -0.9492  -0.9109  -0.8943  -0.8792  -0.8761  -0.8566
    -0.8287  -0.8094  -0.8005  -0.7869  -0.7783  -0.7556  -0.6329  -0.6225
    -0.5970  -0.5893  -0.5804  -0.5691  -0.5526  -0.5426  -0.5328  -0.5219
    -0.5099  -0.4821  -0.4552  -0.4438  -0.4210  -0.4134  -0.3689  -0.3539
    -0.3483  -0.3416  -0.3382  -0.3144  -0.3033  -0.2955  -0.2921  -0.2791
    -0.2624  -0.1907  -0.1789  -0.1758  -0.1296  -0.1259  -0.1067   0.0405
     0.1547   0.2147   0.2437   0.3908   0.4974   0.6207   0.9475   1.1137
     1.2137   1.4772

          k = 0.2000-0.5774 0.0000 ( 51262 PWs)   bands (ev):

   -21.8490  -9.2401  -6.7866  -6.6869  -6.1963  -6.0250  -5.7908  -5.4937
    -5.2619  -5.1946  -5.0011  -4.7044  -4.4809  -4.2442  -4.2012  -4.0743
    -4.0657  -4.0588  -4.0380  -4.0292  -3.9790  -3.9585  -3.9547  -3.9494
    -3.9329  -3.8620  -3.8075  -3.7975  -3.7778  -3.7745  -3.7123  -3.6259
    -3.6200  -3.6107  -3.5878  -3.5440  -3.5066  -3.4565  -3.3684  -3.3272
    -3.3202  -3.2885  -3.2376  -3.2222  -3.1948  -3.1406  -3.1079  -3.1047
    -3.0618  -3.0414  -3.0045  -2.9438  -2.9155  -2.8876  -2.8659  -2.8311
    -2.8053  -2.7463  -2.7409  -2.7325  -2.7160  -2.7038  -2.6833  -2.6313
    -2.5727  -2.5288  -2.5169  -2.5088  -2.4721  -2.4457  -2.4281  -2.3827
    -2.3759  -2.3399  -2.3269  -2.3192  -2.3065  -2.2880  -2.2724  -2.2655
    -2.2461  -2.2352  -2.2216  -2.1940  -2.1909  -2.1576  -2.1171  -2.1065
    -2.0910  -2.0638  -2.0245  -1.9928  -1.9721  -1.9533  -1.9428  -1.9351
    -1.9167  -1.9051  -1.8969  -1.8890  -1.8722  -1.8510  -1.8436  -1.7854
    -1.7794  -1.7585  -1.7522  -1.7447  -1.7265  -1.7214  -1.7123  -1.6987
    -1.6906  -1.6858  -1.6624  -1.6414  -1.6030  -1.5937  -1.5673  -1.5263
    -1.5069  -1.4964  -1.4713  -1.4442  -1.4339  -1.4223  -1.4169  -1.3913
    -1.3519  -1.3498  -1.3189  -1.2810  -1.2180  -1.2060  -1.1879  -1.1727
    -1.1495  -1.1444  -1.1394  -1.1126  -1.0894  -1.0778  -1.0652  -1.0372
    -0.9974  -0.9914  -0.9697  -0.9539  -0.9368  -0.8961  -0.8876  -0.8698
    -0.8683  -0.8431  -0.8409  -0.8202  -0.7907  -0.7694  -0.7506  -0.5957
    -0.5790  -0.5727  -0.5675  -0.5562  -0.5467  -0.5423  -0.5325  -0.4932
    -0.4902  -0.4791  -0.4675  -0.4469  -0.4123  -0.3597  -0.3443  -0.3359
    -0.3213  -0.3122  -0.2997  -0.2867  -0.2555  -0.2429  -0.2378  -0.2259
    -0.2217  -0.1662  -0.1482  -0.1421  -0.1276  -0.1186  -0.0964  -0.0666
     0.1158   0.2413   0.4890   0.8917   1.0049   1.1569   1.2306   1.5193
     1.6331   1.7111

          k = 0.2000-0.3464 0.0000 ( 51202 PWs)   bands (ev):

   -21.8490  -9.2495  -7.2640  -6.3464  -6.0200  -5.9500  -5.6966  -5.5376
    -5.3372  -5.1698  -4.7235  -4.7029  -4.4978  -4.4831  -4.3443  -4.2830
    -4.2759  -4.1817  -4.1785  -4.0753  -4.0353  -4.0221  -3.9123  -3.8857
    -3.8366  -3.7917  -3.6995  -3.6749  -3.6688  -3.6488  -3.6382  -3.6121
    -3.6003  -3.5945  -3.5442  -3.5332  -3.4917  -3.4504  -3.4385  -3.4039
    -3.3124  -3.2557  -3.2258  -3.1960  -3.1814  -3.1607  -3.0914  -3.0662
    -3.0129  -3.0061  -2.9839  -2.9721  -2.9626  -2.9324  -2.9060  -2.9014
    -2.8801  -2.8479  -2.7636  -2.7332  -2.7062  -2.6905  -2.6617  -2.6404
    -2.6231  -2.5573  -2.5138  -2.4507  -2.4145  -2.3984  -2.3864  -2.3543
    -2.3487  -2.3319  -2.3306  -2.3007  -2.2842  -2.2737  -2.2674  -2.2496
    -2.2424  -2.2057  -2.1717  -2.1534  -2.0859  -2.0731  -2.0504  -2.0310
    -2.0252  -2.0011  -1.9857  -1.9711  -1.9515  -1.9342  -1.9204  -1.9169
    -1.9085  -1.9024  -1.8908  -1.8719  -1.8607  -1.8597  -1.8358  -1.8208
    -1.8156  -1.8027  -1.7728  -1.7324  -1.7292  -1.6948  -1.6844  -1.6727
    -1.6692  -1.6579  -1.5994  -1.5891  -1.5820  -1.5538  -1.5316  -1.5191
    -1.5116  -1.5032  -1.4958  -1.4701  -1.4540  -1.4435  -1.4371  -1.3802
    -1.3668  -1.3362  -1.3202  -1.2495  -1.2140  -1.1993  -1.1663  -1.1140
    -1.0907  -1.0736  -1.0651  -1.0553  -1.0501  -1.0395  -1.0143  -0.9960
    -0.9932  -0.9706  -0.9561  -0.9101  -0.8976  -0.8855  -0.8679  -0.8581
    -0.8301  -0.8171  -0.7928  -0.7851  -0.7744  -0.7534  -0.6391  -0.6270
    -0.5963  -0.5892  -0.5793  -0.5664  -0.5485  -0.5441  -0.5396  -0.5200
    -0.5120  -0.4829  -0.4612  -0.4371  -0.4204  -0.4149  -0.3723  -0.3553
    -0.3450  -0.3429  -0.3394  -0.3161  -0.3018  -0.2994  -0.2879  -0.2799
    -0.2619  -0.1907  -0.1798  -0.1759  -0.1276  -0.1256  -0.1144   0.0653
     0.1038   0.2154   0.2293   0.4447   0.5018   0.6116   0.9652   1.1108
     1.2157   1.3880

          k = 0.4000-0.2309 0.0000 ( 51204 PWs)   bands (ev):

   -21.8490  -9.2458  -7.1309  -6.5028  -6.1976  -5.8550  -5.5678  -5.3887
    -5.2345  -5.1493  -5.1368  -4.9467  -4.3470  -4.3273  -4.2959  -4.2563
    -4.2162  -4.1391  -4.1331  -4.0440  -4.0044  -3.9976  -3.9802  -3.8408
    -3.8220  -3.8186  -3.8067  -3.8041  -3.7352  -3.7042  -3.6953  -3.5917
    -3.5353  -3.5252  -3.5059  -3.4935  -3.4795  -3.4446  -3.3796  -3.3722
    -3.3603  -3.3476  -3.3037  -3.2321  -3.1477  -3.1151  -3.0551  -3.0414
    -3.0196  -2.9942  -2.9742  -2.9595  -2.9498  -2.9417  -2.9229  -2.8727
    -2.8617  -2.8416  -2.7993  -2.7734  -2.6695  -2.6531  -2.6302  -2.6109
    -2.5646  -2.5445  -2.5195  -2.5107  -2.4910  -2.4273  -2.3819  -2.3783
    -2.3727  -2.3586  -2.3533  -2.3309  -2.3184  -2.3075  -2.2811  -2.2643
    -2.2487  -2.2141  -2.1962  -2.1759  -2.1487  -2.1286  -2.0814  -2.0591
    -2.0415  -2.0261  -2.0125  -1.9894  -1.9781  -1.9448  -1.9328  -1.9251
    -1.9101  -1.8993  -1.8847  -1.8698  -1.8585  -1.8574  -1.8528  -1.8200
    -1.8044  -1.7725  -1.7464  -1.7432  -1.6770  -1.6562  -1.6400  -1.6280
    -1.6106  -1.5908  -1.5583  -1.5374  -1.5315  -1.5081  -1.5061  -1.4973
    -1.4938  -1.4810  -1.4726  -1.4639  -1.4547  -1.4517  -1.4342  -1.4270
    -1.4178  -1.3716  -1.3072  -1.2958  -1.2801  -1.2739  -1.2425  -1.2294
    -1.2063  -1.1507  -1.1297  -1.1172  -1.0753  -1.0649  -1.0316  -1.0005
    -0.9894  -0.9736  -0.9412  -0.9307  -0.9124  -0.8828  -0.8590  -0.8054
    -0.7633  -0.7457  -0.7303  -0.7205  -0.7189  -0.7090  -0.7017  -0.6929
    -0.6756  -0.6483  -0.5701  -0.5659  -0.5553  -0.5479  -0.5431  -0.5198
    -0.5126  -0.4985  -0.4888  -0.4792  -0.4772  -0.4491  -0.3892  -0.3730
    -0.3641  -0.3524  -0.3247  -0.2732  -0.2678  -0.2409  -0.2335  -0.1977
    -0.1631  -0.1552  -0.1498  -0.1331  -0.1266  -0.1241  -0.1135  -0.0715
    -0.0214  -0.0014   0.4162   0.5993   0.8867   1.0713   1.1094   1.2671
     1.4584   1.4970

          k = 0.4000 0.0000 0.0000 ( 51202 PWs)   bands (ev):

   -21.8490  -9.2475  -7.2689  -6.3494  -6.0649  -5.9391  -5.6933  -5.4672
    -5.3652  -5.1799  -4.7643  -4.6266  -4.5039  -4.4900  -4.3467  -4.2818
    -4.2759  -4.1811  -4.1762  -4.0904  -4.0501  -3.9824  -3.9086  -3.8839
    -3.8359  -3.7903  -3.7005  -3.6806  -3.6549  -3.6484  -3.6394  -3.6237
    -3.5985  -3.5916  -3.5453  -3.5322  -3.4880  -3.4586  -3.4513  -3.3953
    -3.3098  -3.2615  -3.2258  -3.1961  -3.1781  -3.1690  -3.1053  -3.0642
    -3.0288  -2.9933  -2.9876  -2.9783  -2.9548  -2.9282  -2.9136  -2.8976
    -2.8883  -2.8516  -2.7729  -2.7236  -2.7009  -2.6814  -2.6605  -2.6445
    -2.6175  -2.5589  -2.5155  -2.4475  -2.4280  -2.3995  -2.3850  -2.3546
    -2.3429  -2.3334  -2.3296  -2.3080  -2.2826  -2.2741  -2.2679  -2.2546
    -2.2422  -2.1991  -2.1752  -2.1351  -2.0842  -2.0716  -2.0517  -2.0361
    -2.0225  -2.0072  -1.9772  -1.9692  -1.9514  -1.9356  -1.9219  -1.9153
    -1.9087  -1.9011  -1.8956  -1.8699  -1.8655  -1.8588  -1.8379  -1.8305
    -1.8142  -1.7899  -1.7662  -1.7350  -1.7276  -1.6928  -1.6867  -1.6782
    -1.6632  -1.6599  -1.6201  -1.5868  -1.5787  -1.5605  -1.5468  -1.5207
    -1.5152  -1.5050  -1.4878  -1.4698  -1.4539  -1.4467  -1.4290  -1.3777
    -1.3666  -1.3459  -1.3272  -1.2378  -1.2211  -1.1976  -1.1863  -1.1105
    -1.0832  -1.0712  -1.0582  -1.0502  -1.0471  -1.0426  -1.0117  -1.0079
    -0.9854  -0.9705  -0.9492  -0.9109  -0.8944  -0.8792  -0.8761  -0.8566
    -0.8287  -0.8094  -0.8005  -0.7869  -0.7783  -0.7556  -0.6329  -0.6225
    -0.5970  -0.5894  -0.5805  -0.5690  -0.5526  -0.5426  -0.5328  -0.5219
    -0.5098  -0.4821  -0.4552  -0.4438  -0.4210  -0.4134  -0.3689  -0.3539
    -0.3483  -0.3416  -0.3382  -0.3144  -0.3033  -0.2955  -0.2921  -0.2791
    -0.2624  -0.1908  -0.1789  -0.1758  -0.1296  -0.1259  -0.1067   0.0405
     0.1546   0.2147   0.2437   0.3910   0.4974   0.6208   0.9475   1.1137
     1.2138   1.4763

          k = 0.4000 0.2309 0.0000 ( 51204 PWs)   bands (ev):

   -21.8490  -9.2425  -7.1396  -6.5135  -6.2084  -5.9008  -5.4435  -5.4289
    -5.2258  -5.1552  -5.1500  -4.9327  -4.3521  -4.3178  -4.3178  -4.2549
    -4.2135  -4.1399  -4.1337  -4.0240  -4.0032  -4.0004  -3.9225  -3.8499
    -3.8218  -3.8127  -3.8055  -3.8055  -3.7144  -3.6991  -3.6735  -3.6506
    -3.5395  -3.5341  -3.5197  -3.4931  -3.4874  -3.4408  -3.3805  -3.3719
    -3.3596  -3.3536  -3.3068  -3.2358  -3.1501  -3.1084  -3.0574  -3.0311
    -3.0287  -2.9876  -2.9783  -2.9684  -2.9623  -2.9289  -2.9188  -2.8772
    -2.8649  -2.8431  -2.8076  -2.7619  -2.6651  -2.6470  -2.6456  -2.6001
    -2.5710  -2.5416  -2.5199  -2.5182  -2.5016  -2.4310  -2.3803  -2.3789
    -2.3707  -2.3663  -2.3472  -2.3285  -2.3150  -2.3137  -2.2846  -2.2532
    -2.2335  -2.2192  -2.2049  -2.1876  -2.1384  -2.1308  -2.0737  -2.0632
    -2.0388  -2.0253  -2.0137  -2.0032  -1.9761  -1.9386  -1.9316  -1.9285
    -1.9153  -1.8991  -1.8837  -1.8700  -1.8682  -1.8539  -1.8537  -1.8223
    -1.8028  -1.7898  -1.7452  -1.7449  -1.6840  -1.6584  -1.6386  -1.6274
    -1.5916  -1.5859  -1.5491  -1.5371  -1.5337  -1.5117  -1.5051  -1.5027
    -1.4923  -1.4885  -1.4749  -1.4624  -1.4575  -1.4529  -1.4230  -1.4224
    -1.3921  -1.3834  -1.3345  -1.2985  -1.2779  -1.2663  -1.2400  -1.2364
    -1.1968  -1.1508  -1.1304  -1.1127  -1.0942  -1.0543  -1.0518  -1.0098
    -0.9881  -0.9666  -0.9434  -0.9325  -0.9068  -0.8798  -0.8578  -0.8198
    -0.7434  -0.7389  -0.7350  -0.7237  -0.7183  -0.7025  -0.6968  -0.6836
    -0.6770  -0.6628  -0.5707  -0.5672  -0.5549  -0.5484  -0.5406  -0.5125
    -0.5087  -0.4975  -0.4911  -0.4789  -0.4653  -0.4520  -0.3879  -0.3730
    -0.3619  -0.3525  -0.3186  -0.2740  -0.2678  -0.2365  -0.2336  -0.1979
    -0.1783  -0.1514  -0.1513  -0.1289  -0.1276  -0.1221  -0.0948  -0.0816
    -0.0208  -0.0001   0.4103   0.6522   0.8317   1.0241   1.1133   1.1931
     1.4541   1.6030

          k = 0.4000-0.6928 0.0000 ( 51262 PWs)   bands (ev):

   -21.8490  -9.2380  -6.8113  -6.6758  -6.2005  -5.9408  -5.9291  -5.4134
    -5.2184  -5.1965  -5.0493  -4.7124  -4.4832  -4.2447  -4.1973  -4.0688
    -4.0653  -4.0425  -4.0367  -4.0097  -3.9720  -3.9588  -3.9533  -3.9501
    -3.9378  -3.8241  -3.8108  -3.7943  -3.7838  -3.7688  -3.7219  -3.6465
    -3.6223  -3.6101  -3.5947  -3.5757  -3.5065  -3.4536  -3.3628  -3.3278
    -3.3255  -3.2835  -3.2291  -3.2240  -3.1940  -3.1463  -3.1106  -3.1078
    -3.0730  -3.0266  -3.0119  -2.9432  -2.9160  -2.8895  -2.8701  -2.8272
    -2.8013  -2.7465  -2.7418  -2.7347  -2.7151  -2.7127  -2.6680  -2.6504
    -2.5639  -2.5263  -2.5203  -2.5001  -2.4905  -2.4537  -2.4332  -2.3809
    -2.3706  -2.3383  -2.3357  -2.3134  -2.3077  -2.2827  -2.2754  -2.2582
    -2.2436  -2.2310  -2.2043  -2.1969  -2.1890  -2.1796  -2.1183  -2.1088
    -2.0974  -2.0543  -2.0261  -1.9886  -1.9756  -1.9577  -1.9420  -1.9265
    -1.9176  -1.9108  -1.9044  -1.8790  -1.8682  -1.8616  -1.8446  -1.7827
    -1.7693  -1.7621  -1.7506  -1.7327  -1.7269  -1.7214  -1.7049  -1.6998
    -1.6990  -1.6814  -1.6652  -1.6552  -1.5964  -1.5925  -1.5764  -1.5246
    -1.5118  -1.4954  -1.4690  -1.4426  -1.4352  -1.4272  -1.4103  -1.4018
    -1.3522  -1.3488  -1.3147  -1.2798  -1.2201  -1.2106  -1.1971  -1.1732
    -1.1515  -1.1432  -1.1312  -1.1070  -1.1002  -1.0841  -1.0583  -1.0298
    -1.0019  -0.9900  -0.9688  -0.9506  -0.9396  -0.8999  -0.8873  -0.8832
    -0.8632  -0.8426  -0.8356  -0.8163  -0.7844  -0.7709  -0.7525  -0.5850
    -0.5816  -0.5746  -0.5677  -0.5577  -0.5518  -0.5361  -0.5346  -0.4934
    -0.4879  -0.4799  -0.4699  -0.4443  -0.4104  -0.3568  -0.3432  -0.3288
    -0.3157  -0.3150  -0.3012  -0.2595  -0.2511  -0.2462  -0.2378  -0.2283
    -0.2231  -0.2103  -0.1482  -0.1421  -0.1263  -0.1205  -0.0961  -0.0640
     0.1413   0.2488   0.5450   0.7276   1.0722   1.1546   1.2105   1.5566
     1.6646   1.7036

          k = 0.4000-0.4619 0.0000 ( 51262 PWs)   bands (ev):

   -21.8490  -9.2401  -6.7865  -6.6869  -6.1963  -6.0250  -5.7907  -5.4937
    -5.2618  -5.1947  -5.0010  -4.7045  -4.4809  -4.2442  -4.2012  -4.0743
    -4.0657  -4.0588  -4.0380  -4.0292  -3.9790  -3.9585  -3.9547  -3.9494
    -3.9329  -3.8620  -3.8075  -3.7975  -3.7778  -3.7745  -3.7123  -3.6259
    -3.6200  -3.6107  -3.5878  -3.5440  -3.5066  -3.4565  -3.3684  -3.3272
    -3.3203  -3.2884  -3.2376  -3.2222  -3.1948  -3.1406  -3.1079  -3.1047
    -3.0618  -3.0414  -3.0045  -2.9438  -2.9155  -2.8876  -2.8659  -2.8311
    -2.8053  -2.7463  -2.7409  -2.7325  -2.7160  -2.7038  -2.6833  -2.6313
    -2.5727  -2.5288  -2.5169  -2.5088  -2.4721  -2.4457  -2.4281  -2.3827
    -2.3759  -2.3399  -2.3269  -2.3192  -2.3064  -2.2880  -2.2724  -2.2656
    -2.2461  -2.2352  -2.2217  -2.1939  -2.1909  -2.1576  -2.1171  -2.1065
    -2.0909  -2.0638  -2.0245  -1.9928  -1.9721  -1.9534  -1.9428  -1.9351
    -1.9167  -1.9051  -1.8969  -1.8890  -1.8722  -1.8510  -1.8436  -1.7854
    -1.7794  -1.7585  -1.7522  -1.7447  -1.7265  -1.7214  -1.7123  -1.6987
    -1.6906  -1.6857  -1.6624  -1.6414  -1.6031  -1.5937  -1.5673  -1.5264
    -1.5068  -1.4963  -1.4713  -1.4442  -1.4339  -1.4223  -1.4169  -1.3913
    -1.3520  -1.3498  -1.3189  -1.2810  -1.2180  -1.2059  -1.1880  -1.1727
    -1.1496  -1.1444  -1.1394  -1.1125  -1.0894  -1.0778  -1.0652  -1.0372
    -0.9974  -0.9913  -0.9697  -0.9539  -0.9368  -0.8961  -0.8876  -0.8698
    -0.8683  -0.8431  -0.8409  -0.8202  -0.7907  -0.7694  -0.7505  -0.5957
    -0.5790  -0.5726  -0.5676  -0.5562  -0.5467  -0.5422  -0.5325  -0.4932
    -0.4902  -0.4791  -0.4675  -0.4469  -0.4123  -0.3597  -0.3443  -0.3360
    -0.3214  -0.3122  -0.2997  -0.2867  -0.2554  -0.2429  -0.2378  -0.2260
    -0.2217  -0.1660  -0.1482  -0.1421  -0.1276  -0.1186  -0.0964  -0.0666
     0.1158   0.2413   0.4890   0.8917   1.0050   1.1568   1.2307   1.5194
     1.6331   1.7111

 ------ SPIN DOWN ----------


          k = 0.0000 0.0000 0.0000 ( 51087 PWs)   bands (ev):

   -21.9458  -9.3629  -7.8160  -6.6303  -5.8034  -5.6393  -5.4473  -5.1840
    -4.6576  -4.6460  -4.6453  -4.6106  -4.6033  -4.5813  -4.2598  -3.7752
    -3.7743  -3.7529  -3.7307  -3.7293  -3.6561  -3.3516  -2.8342  -2.8300
    -2.8151  -2.8104  -2.7206  -2.6161  -2.3679  -2.3605  -2.3525  -2.3511
    -2.3167  -2.2322  -2.1627  -2.1599  -2.0913  -2.0654  -2.0635  -2.0625
    -1.9795  -1.9740  -1.9267  -1.9263  -1.8395  -1.8367  -1.8186  -1.8126
    -1.7692  -1.7316  -1.5597  -1.5560  -1.5520  -1.5488  -1.5405  -1.5397
    -1.5221  -1.5218  -1.4938  -1.4766  -1.4501  -1.4478  -1.4429  -1.4400
    -1.3734  -1.2813  -0.9011  -0.8871  -0.8706  -0.8663  -0.8241  -0.7603
    -0.6847  -0.6539  -0.5652  -0.5594  -0.5427  -0.5416  -0.5280  -0.5034
    -0.4889  -0.4803  -0.4678  -0.4601  -0.4480  -0.4468  -0.4094  -0.3823
    -0.3642  -0.3445  -0.3398  -0.3209  -0.3087  -0.3045  -0.2974  -0.2880
    -0.2803  -0.2783  -0.2682  -0.2592  -0.2577  -0.2488  -0.2191  -0.1739
    -0.1731  -0.1423  -0.1168  -0.0590  -0.0567  -0.0457  -0.0387  -0.0303
    -0.0278  -0.0238  -0.0204   0.0515   0.0521   0.0615   0.0971   0.1318
     0.1330   0.1402   0.1553   0.1974   0.3033   0.3375   0.3763   0.3855
     0.4373   0.4449   0.4512   0.4593   0.6383   0.6824   0.6847   0.7850
     0.7855   0.8747   0.8992   1.0034   1.0120   1.0211   1.0228   1.0375
     1.0968   1.1075   1.1684   1.1805   1.1985   1.2000   1.2057   1.2344
     1.2453   1.2493   1.2589   1.2742   1.2920   1.3047   1.3159   1.3296
     1.3380   1.3503   1.3523   1.3627   1.3675   1.4136   1.4152   1.4164
     1.4346   1.4368   1.4492   1.4609   1.4762   1.4829   1.4890   1.5235
     1.5291   1.5415   1.5458   1.5479   1.5572   1.5643   1.5673   1.6087
     1.6112   1.6162   1.6182   1.6233   1.6265   1.6372   1.6493   1.6501
     1.6557   1.6993   1.7002   1.8422   1.8481   1.8482   1.8538   1.8560
     1.8583   2.0677

          k = 0.0000 0.2309 0.0000 ( 51134 PWs)   bands (ev):

   -21.9458  -9.3522  -7.6750  -6.5304  -5.8781  -5.6863  -5.5472  -5.3932
    -5.1715  -4.9978  -4.9402  -4.4514  -4.1724  -4.0927  -4.0719  -3.9518
    -3.8581  -3.7951  -3.4763  -3.4097  -3.3666  -3.2790  -2.9678  -2.8194
    -2.7840  -2.7476  -2.6851  -2.6253  -2.4631  -2.3934  -2.3875  -2.3760
    -2.3439  -2.3069  -2.3050  -2.2945  -2.2427  -2.2107  -2.1234  -2.1225
    -2.0330  -2.0302  -1.9707  -1.8706  -1.8487  -1.8370  -1.8137  -1.7218
    -1.6925  -1.6615  -1.6209  -1.5944  -1.5702  -1.5534  -1.5409  -1.5396
    -1.5227  -1.5057  -1.4344  -1.4121  -1.4068  -1.3843  -1.3507  -1.3044
    -1.2606  -1.1736  -0.9790  -0.9344  -0.9221  -0.9160  -0.8486  -0.8105
    -0.7694  -0.7371  -0.6989  -0.6702  -0.6505  -0.5985  -0.5744  -0.5583
    -0.5307  -0.5204  -0.5039  -0.4954  -0.4897  -0.4695  -0.4403  -0.4052
    -0.3612  -0.3377  -0.3342  -0.3251  -0.3178  -0.2930  -0.2704  -0.2640
    -0.2607  -0.2505  -0.2465  -0.2404  -0.2350  -0.2324  -0.2030  -0.1783
    -0.1599  -0.1533  -0.1338  -0.1255  -0.1148  -0.1006  -0.0760  -0.0542
    -0.0459  -0.0224   0.0061   0.0443   0.0740   0.0892   0.1155   0.1197
     0.2317   0.2534   0.2694   0.3115   0.3392   0.3515   0.3800   0.4047
     0.4160   0.4274   0.4303   0.4380   0.6117   0.6612   0.7211   0.7608
     0.7744   0.7776   0.7921   0.8060   0.8465   0.8762   0.9039   0.9431
     1.0017   1.0065   1.0362   1.0603   1.0787   1.1013   1.1203   1.1513
     1.1846   1.2162   1.2329   1.2369   1.2546   1.2628   1.3059   1.3126
     1.3232   1.3480   1.3866   1.4031   1.4172   1.4260   1.4538   1.4640
     1.4960   1.5061   1.5099   1.5168   1.5389   1.5871   1.5944   1.6031
     1.6098   1.6325   1.6412   1.6708   1.6815   1.6866   1.6923   1.6940
     1.7154   1.7594   1.7646   1.7766   1.7805   1.7908   1.7994   1.8168
     1.8371   1.8405   1.8461   1.8835   1.9354   1.9493   1.9525   2.0157
     2.0322   2.0955

          k = 0.0000 0.4619 0.0000 ( 51204 PWs)   bands (ev):

   -21.9458  -9.3352  -7.2572  -6.5965  -6.2395  -5.8640  -5.6054  -5.4245
    -5.2607  -5.1628  -5.1100  -4.8260  -4.1274  -4.0445  -3.8327  -3.4833
    -3.4732  -3.4133  -3.3537  -3.1749  -3.1000  -3.0293  -3.0002  -2.8797
    -2.8732  -2.8093  -2.7655  -2.7079  -2.6642  -2.6335  -2.6215  -2.5758
    -2.5543  -2.4404  -2.3519  -2.3340  -2.2592  -2.2327  -2.1421  -2.1370
    -2.1239  -2.0983  -2.0597  -1.8459  -1.8283  -1.8157  -1.7851  -1.7319
    -1.6197  -1.6116  -1.6013  -1.5822  -1.5734  -1.5487  -1.5438  -1.5162
    -1.4991  -1.4363  -1.4327  -1.4130  -1.3857  -1.3620  -1.2292  -1.1957
    -1.0900  -1.0601  -0.9748  -0.9481  -0.9398  -0.9020  -0.8899  -0.8771
    -0.8626  -0.8331  -0.8032  -0.7846  -0.7407  -0.7162  -0.6966  -0.6529
    -0.6382  -0.6160  -0.6018  -0.5879  -0.5560  -0.5150  -0.4858  -0.4235
    -0.4143  -0.3992  -0.3832  -0.3486  -0.3112  -0.3002  -0.2798  -0.2553
    -0.2277  -0.2240  -0.2111  -0.1963  -0.1887  -0.1793  -0.1449  -0.1376
    -0.1204  -0.1085  -0.0964  -0.0786  -0.0709  -0.0638  -0.0534  -0.0259
    -0.0170   0.0048   0.0656   0.1016   0.1246   0.1296   0.1449   0.1845
     0.1949   0.2011   0.2352   0.2656   0.2831   0.2991   0.3196   0.3255
     0.3712   0.3864   0.3963   0.4045   0.4440   0.5372   0.5628   0.5884
     0.6457   0.6566   0.6889   0.7501   0.8018   0.8298   0.8542   0.8720
     0.8955   0.9143   0.9248   0.9537   0.9750   1.0606   1.1417   1.1530
     1.1646   1.1965   1.2234   1.2298   1.2611   1.2831   1.3053   1.3256
     1.3523   1.3651   1.3774   1.4366   1.4611   1.4726   1.5093   1.5224
     1.5310   1.5353   1.5537   1.5667   1.5913   1.6050   1.6148   1.6421
     1.6511   1.6885   1.7401   1.7530   1.7727   1.7789   1.7885   1.8087
     1.8151   1.8432   1.8469   1.8582   1.8758   1.8819   1.8894   1.8952
     1.9378   1.9929   2.0555   2.1032   2.1245   2.1886   2.5307   2.5921
     2.6333   2.6842

          k = 0.2000-0.1155 0.0000 ( 51134 PWs)   bands (ev):

   -21.9458  -9.3522  -7.6750  -6.5304  -5.8781  -5.6863  -5.5473  -5.3932
    -5.1715  -4.9978  -4.9402  -4.4514  -4.1723  -4.0927  -4.0718  -3.9518
    -3.8581  -3.7951  -3.4763  -3.4097  -3.3666  -3.2790  -2.9678  -2.8195
    -2.7840  -2.7476  -2.6851  -2.6254  -2.4631  -2.3934  -2.3875  -2.3760
    -2.3439  -2.3069  -2.3051  -2.2945  -2.2427  -2.2107  -2.1234  -2.1225
    -2.0330  -2.0302  -1.9707  -1.8707  -1.8487  -1.8370  -1.8137  -1.7218
    -1.6925  -1.6615  -1.6209  -1.5945  -1.5702  -1.5534  -1.5409  -1.5396
    -1.5227  -1.5057  -1.4344  -1.4121  -1.4068  -1.3843  -1.3506  -1.3043
    -1.2606  -1.1735  -0.9791  -0.9344  -0.9221  -0.9160  -0.8486  -0.8106
    -0.7693  -0.7371  -0.6989  -0.6702  -0.6505  -0.5985  -0.5744  -0.5583
    -0.5308  -0.5204  -0.5040  -0.4954  -0.4897  -0.4695  -0.4403  -0.4052
    -0.3612  -0.3377  -0.3342  -0.3250  -0.3177  -0.2930  -0.2704  -0.2640
    -0.2606  -0.2505  -0.2465  -0.2404  -0.2350  -0.2324  -0.2030  -0.1783
    -0.1599  -0.1533  -0.1338  -0.1255  -0.1148  -0.1006  -0.0760  -0.0542
    -0.0459  -0.0224   0.0060   0.0442   0.0741   0.0892   0.1155   0.1197
     0.2317   0.2535   0.2692   0.3114   0.3391   0.3514   0.3801   0.4047
     0.4160   0.4274   0.4303   0.4379   0.6118   0.6610   0.7212   0.7608
     0.7744   0.7776   0.7921   0.8060   0.8464   0.8761   0.9040   0.9431
     1.0018   1.0064   1.0362   1.0602   1.0787   1.1013   1.1203   1.1517
     1.1846   1.2161   1.2329   1.2369   1.2546   1.2628   1.3059   1.3126
     1.3232   1.3480   1.3866   1.4031   1.4172   1.4260   1.4538   1.4639
     1.4960   1.5061   1.5099   1.5168   1.5389   1.5872   1.5944   1.6031
     1.6098   1.6325   1.6412   1.6708   1.6815   1.6866   1.6923   1.6940
     1.7154   1.7594   1.7646   1.7766   1.7805   1.7908   1.7994   1.8168
     1.8371   1.8405   1.8461   1.8835   1.9354   1.9493   1.9525   2.0157
     2.0323   2.0967

          k = 0.2000 0.1155 0.0000 ( 51134 PWs)   bands (ev):

   -21.9458  -9.3510  -7.6765  -6.5348  -5.9205  -5.6626  -5.4633  -5.4582
    -5.1449  -4.9950  -4.9765  -4.3705  -4.2192  -4.0941  -4.0743  -3.9854
    -3.8498  -3.7920  -3.4876  -3.4210  -3.3254  -3.2589  -2.9829  -2.8406
    -2.7941  -2.7302  -2.7159  -2.5886  -2.4684  -2.3937  -2.3858  -2.3621
    -2.3548  -2.3165  -2.3045  -2.3038  -2.2640  -2.1834  -2.1227  -2.1214
    -2.0323  -2.0314  -1.9706  -1.8781  -1.8439  -1.8341  -1.8129  -1.7153
    -1.6975  -1.6630  -1.6151  -1.6034  -1.5701  -1.5572  -1.5390  -1.5382
    -1.5352  -1.4866  -1.4524  -1.4094  -1.4006  -1.3850  -1.3477  -1.3058
    -1.2421  -1.1867  -0.9844  -0.9379  -0.9235  -0.9160  -0.8411  -0.8182
    -0.8098  -0.7020  -0.6887  -0.6839  -0.6499  -0.5954  -0.5823  -0.5567
    -0.5384  -0.5148  -0.5071  -0.4922  -0.4850  -0.4633  -0.4615  -0.3887
    -0.3528  -0.3426  -0.3358  -0.3290  -0.3114  -0.2799  -0.2758  -0.2681
    -0.2615  -0.2495  -0.2473  -0.2401  -0.2368  -0.2325  -0.1959  -0.1899
    -0.1608  -0.1529  -0.1322  -0.1307  -0.1205  -0.0982  -0.0731  -0.0658
    -0.0401  -0.0231   0.0192   0.0623   0.0650   0.0873   0.1073   0.1183
     0.1992   0.2712   0.3031   0.3041   0.3481   0.3609   0.3711   0.4003
     0.4168   0.4225   0.4335   0.4392   0.6481   0.6538   0.6932   0.7562
     0.7780   0.7824   0.8010   0.8040   0.8519   0.8844   0.8875   0.9493
     0.9724   1.0160   1.0467   1.0617   1.0726   1.1080   1.1271   1.1311
     1.1706   1.2209   1.2265   1.2436   1.2650   1.2650   1.3065   1.3095
     1.3242   1.3537   1.3912   1.4083   1.4165   1.4244   1.4490   1.4645
     1.4923   1.5078   1.5140   1.5229   1.5308   1.5822   1.5869   1.5999
     1.6131   1.6337   1.6377   1.6710   1.6817   1.6895   1.6936   1.6937
     1.7156   1.7600   1.7651   1.7767   1.7790   1.7906   1.8007   1.8154
     1.8384   1.8390   1.8455   1.8674   1.9351   1.9483   1.9534   2.0142
     2.0379   2.0833

          k = 0.2000 0.3464 0.0000 ( 51202 PWs)   bands (ev):

   -21.9458  -9.3370  -7.3979  -6.3837  -6.1304  -6.0215  -5.7014  -5.4783
    -5.4116  -5.1265  -4.7013  -4.4789  -4.2818  -4.2720  -3.9337  -3.4565
    -3.4467  -3.4412  -3.4249  -3.2854  -3.1657  -3.1416  -3.1191  -2.9420
    -2.7777  -2.7007  -2.6927  -2.6754  -2.6052  -2.5792  -2.5653  -2.4947
    -2.4841  -2.4764  -2.4394  -2.3369  -2.3256  -2.2570  -2.1034  -2.0912
    -2.0673  -2.0085  -1.9821  -1.9668  -1.9359  -1.8109  -1.7549  -1.7443
    -1.6362  -1.6236  -1.5820  -1.5776  -1.5697  -1.5528  -1.5439  -1.5179
    -1.4998  -1.4918  -1.4389  -1.3946  -1.3594  -1.3128  -1.2111  -1.1785
    -1.1237  -1.0831  -1.0078  -0.9617  -0.9105  -0.8859  -0.8779  -0.8537
    -0.8267  -0.7909  -0.7800  -0.7391  -0.7166  -0.7017  -0.6860  -0.6659
    -0.6532  -0.6327  -0.6160  -0.5881  -0.5465  -0.4832  -0.4487  -0.4341
    -0.4282  -0.3906  -0.3677  -0.3507  -0.3375  -0.3126  -0.3043  -0.2940
    -0.2740  -0.2605  -0.2491  -0.2264  -0.2190  -0.2028  -0.1794  -0.1511
    -0.1335  -0.1274  -0.1193  -0.1054  -0.0979  -0.0899  -0.0756  -0.0611
     0.0162   0.0292   0.0320   0.0554   0.1415   0.1608   0.1812   0.2108
     0.2289   0.2611   0.2821   0.2885   0.3208   0.3448   0.3613   0.3673
     0.3716   0.4052   0.4364   0.4684   0.5096   0.5895   0.6291   0.6677
     0.7232   0.7526   0.7840   0.8101   0.8189   0.8299   0.8478   0.8660
     0.8783   0.8938   0.9014   0.9214   0.9616   1.0239   1.0512   1.0806
     1.1093   1.1283   1.1397   1.1558   1.1779   1.2281   1.2419   1.2841
     1.3203   1.3958   1.4215   1.4716   1.4900   1.4977   1.5122   1.5290
     1.5479   1.5495   1.5708   1.5786   1.6388   1.6540   1.6583   1.6623
     1.6781   1.7071   1.7201   1.7345   1.7431   1.7551   1.7613   1.7866
     1.7960   1.8013   1.8111   1.8241   1.8352   1.8502   1.8898   1.9196
     1.9305   1.9662   2.0186   2.0585   2.1646   2.1985   2.2994   2.4863
     2.5181   2.5312

          k = 0.2000-0.5774 0.0000 ( 51262 PWs)   bands (ev):

   -21.9458  -9.3296  -6.8925  -6.8084  -6.2528  -6.0662  -5.8161  -5.5406
    -5.2844  -5.2470  -4.9173  -4.5821  -4.3233  -3.7696  -3.5140  -3.4766
    -3.4735  -3.3820  -3.2318  -3.1411  -3.0689  -3.0576  -3.0546  -2.9227
    -2.9153  -2.9036  -2.8828  -2.8732  -2.7594  -2.6470  -2.5396  -2.5232
    -2.5133  -2.4774  -2.4525  -2.4342  -2.3998  -2.3331  -2.2069  -2.0736
    -1.9941  -1.9840  -1.9688  -1.9223  -1.8953  -1.8099  -1.7493  -1.7313
    -1.6975  -1.6851  -1.6768  -1.5823  -1.5329  -1.5156  -1.5072  -1.4803
    -1.4523  -1.3964  -1.3612  -1.3405  -1.3026  -1.2764  -1.2634  -1.1614
    -1.1147  -1.0222  -0.9826  -0.9645  -0.9538  -0.8986  -0.8866  -0.8440
    -0.8288  -0.8100  -0.7747  -0.7676  -0.7582  -0.7056  -0.7020  -0.6748
    -0.6545  -0.6357  -0.6264  -0.6159  -0.6029  -0.5892  -0.5563  -0.5356
    -0.5235  -0.4876  -0.4546  -0.4391  -0.4122  -0.3787  -0.3547  -0.3026
    -0.2857  -0.2561  -0.2356  -0.2158  -0.1950  -0.1863  -0.1707  -0.1477
    -0.0995  -0.0953  -0.0742  -0.0568  -0.0436  -0.0292   0.0115   0.0563
     0.0873   0.1014   0.1103   0.1178   0.1286   0.1550   0.1879   0.2156
     0.2233   0.2445   0.2877   0.2921   0.3205   0.3409   0.3618   0.3870
     0.3930   0.4120   0.4343   0.4513   0.4645   0.4798   0.4986   0.5466
     0.5911   0.6415   0.7082   0.7284   0.7571   0.7789   0.8054   0.8173
     0.8429   0.8540   0.8700   0.9310   0.9814   1.0114   1.0232   1.0495
     1.0749   1.0882   1.1343   1.1599   1.1769   1.2000   1.2203   1.2767
     1.3693   1.3982   1.4287   1.4371   1.4865   1.5297   1.5649   1.5678
     1.5771   1.5904   1.5977   1.6137   1.6382   1.6589   1.6680   1.6790
     1.7215   1.7448   1.7519   1.7649   1.7674   1.7696   1.7794   1.7836
     1.8022   1.8327   1.8422   1.8705   1.8779   1.8960   1.9006   1.9194
     1.9821   2.0589   2.2065   2.3374   2.4202   2.6318   2.6965   2.7792
     2.8283   2.9086

          k = 0.2000-0.3464 0.0000 ( 51202 PWs)   bands (ev):

   -21.9458  -9.3388  -7.3936  -6.3802  -6.0890  -6.0364  -5.6936  -5.5517
    -5.3876  -5.1246  -4.6320  -4.5908  -4.2749  -4.2486  -3.9274  -3.4518
    -3.4477  -3.4424  -3.4193  -3.3133  -3.1573  -3.1499  -3.1138  -2.9261
    -2.7767  -2.7094  -2.6972  -2.6439  -2.6127  -2.5782  -2.5729  -2.4944
    -2.4900  -2.4755  -2.4349  -2.3375  -2.3174  -2.2505  -2.1041  -2.0989
    -2.0676  -2.0269  -1.9691  -1.9571  -1.9220  -1.8120  -1.7592  -1.7342
    -1.6617  -1.6100  -1.5855  -1.5771  -1.5682  -1.5547  -1.5482  -1.5251
    -1.4990  -1.4865  -1.4319  -1.4120  -1.3666  -1.3052  -1.2138  -1.1735
    -1.1141  -1.0916  -1.0093  -0.9299  -0.9050  -0.8884  -0.8790  -0.8497
    -0.8215  -0.8001  -0.7568  -0.7293  -0.7208  -0.7068  -0.6934  -0.6599
    -0.6570  -0.6446  -0.6173  -0.6106  -0.5025  -0.4947  -0.4488  -0.4387
[...]
     atom    8 type  1   force =    -0.00051583   -0.00249792   -0.10380364
     atom    9 type  1   force =    -0.00048064    0.00082348   -0.10516200
     atom   10 type  1   force =    -0.00095108   -0.00055293   -0.01477806
     atom   11 type  1   force =     0.00143297   -0.00246501   -0.01035124
     atom   12 type  1   force =    -0.00058115    0.00149990   -0.01153960
     atom   13 type  1   force =    -0.00141578    0.00247508   -0.01035166
     atom   14 type  1   force =     0.00194603    0.00112484   -0.00523379
     atom   15 type  1   force =    -0.00039765   -0.00007692   -0.01027717
     atom   16 type  1   force =     0.00101071   -0.00125884   -0.01154511
     atom   17 type  1   force =    -0.00026017   -0.00030563   -0.01027968
     atom   18 type  1   force =    -0.00077532   -0.00044715   -0.01304602
     atom   19 type  1   force =    -0.00199250   -0.00537298   -0.00098840
     atom   20 type  1   force =    -0.00267923   -0.00152666    0.00240399
     atom   21 type  1   force =     0.00490554   -0.00703227   -0.00113563
     atom   22 type  1   force =     0.00193471    0.00483477    0.00713314
     atom   23 type  1   force =    -0.00363850    0.00775878   -0.00113411
     atom   24 type  1   force =     0.00113047    0.00065718    0.01273045
     atom   25 type  1   force =     0.00018952    0.00010909    0.01885990
     atom   26 type  1   force =    -0.00566229    0.00096025   -0.00101055
     atom   27 type  1   force =     0.00516948   -0.00074683    0.00711419
     atom   28 type  1   force =     0.00250872    0.00145870    0.12292358
     atom   29 type  1   force =     0.00406976    0.05253382    0.10834744
     atom   30 type  1   force =    -0.00643897    0.00807282    0.12908784
     atom   31 type  1   force =     0.04750066   -0.02275571    0.10864029
     atom   32 type  1   force =    -0.04541847   -0.02626449    0.06635037
     atom   33 type  1   force =    -0.00433375    0.00346938    0.08662698
     atom   34 type  1   force =     0.00375609   -0.00956387    0.12904176
     atom   35 type  1   force =     0.00084992   -0.00549561    0.08663318
     atom   36 type  1   force =    -0.00436665   -0.00252398    0.11311219
     atom   37 type  2   force =    -0.03889266   -0.02165329    0.39688799
     atom   38 type  3   force =     0.12439083    0.06899768   -2.68224301
     atom   39 type  4   force =    -0.00026332   -0.00015297   -0.02152320
     The ionic contribution  to forces
     atom    1 type  1   force =    -0.00689061   -0.00096728 -111.16532268
     atom    2 type  1   force =    -0.00183936   -0.00105799 -111.18290416
     atom    3 type  1   force =     0.00872995   -0.00235524 -111.16902150
     atom    4 type  1   force =    -0.00443964    0.00779770 -111.16480984
     atom    5 type  1   force =     0.00232190    0.00873815 -111.16901776
     atom    6 type  1   force =     0.00211774    0.00122096 -111.16023479
     atom    7 type  1   force =    -0.00024835   -0.00014551 -111.15634021
     atom    8 type  1   force =    -0.00428637   -0.00548404 -111.16532572
     atom    9 type  1   force =     0.00453473   -0.00774677 -111.16481660
     atom   10 type  1   force =    -0.04257970   -0.02457987  -40.09756558
     atom   11 type  1   force =    -0.00360766   -0.06680739  -40.19178842
     atom   12 type  1   force =     0.04618534   -0.03989468  -40.10490726
     atom   13 type  1   force =    -0.05966211    0.03030322  -40.19174193
     atom   14 type  1   force =     0.04358121    0.02518474  -40.22306738
     atom   15 type  1   force =     0.01608295    0.00309188  -40.10621029
     atom   16 type  1   force =    -0.01146013    0.05992022  -40.10487037
     atom   17 type  1   force =     0.01070072    0.01236816  -40.10621461
     atom   18 type  1   force =     0.00075980    0.00041396  -40.08263821
     atom   19 type  1   force =    -0.34514123   -0.04217480   31.41840215
     atom   20 type  1   force =    -0.08504421   -0.04884172   30.40904564
     atom   21 type  1   force =     0.42956194   -0.13596894   31.23454544
     atom   22 type  1   force =    -0.21694229    0.37686331   31.43721875
     atom   23 type  1   force =     0.09686081    0.43997844   31.23472209
     atom   24 type  1   force =     0.12000724    0.06922261   31.60289075
     atom   25 type  1   force =    -0.00860004   -0.00504781   31.78964456
     atom   26 type  1   force =    -0.20926022   -0.27784763   31.41826342
     atom   27 type  1   force =     0.21799815   -0.37649755   31.43690886
     atom   28 type  1   force =    -1.46808073   -0.84745563  104.09361321
     atom   29 type  1   force =    -0.12776676   -4.63124328  100.11272969
     atom   30 type  1   force =     1.56507143   -1.24565973  104.00709027
     atom   31 type  1   force =    -4.07188169    2.20519221  100.11666332
     atom   32 type  1   force =     3.00600722    1.73739226   99.03569858
     atom   33 type  1   force =     1.14094784   -0.33912634  103.77341641
     atom   34 type  1   force =    -0.29634397    1.97702982  104.00759741
     atom   35 type  1   force =     0.27635553    1.15720580  103.77349970
     atom   36 type  1   force =     0.02734254    0.01520746  104.49685062
     atom   37 type  2   force =     0.20480057    0.10975258   51.19757175
     atom   38 type  3   force =    -0.58435382   -0.32769940   90.07790119
     atom   39 type  4   force =     0.32846128    0.18971810   15.03252352
     The local contribution  to forces
     atom    1 type  1   force =     0.00896282    0.00118309  111.27188246
     atom    2 type  1   force =     0.00061537    0.00034128  111.29335763
     atom    3 type  1   force =    -0.00973333    0.00341014  111.27923944
     atom    4 type  1   force =     0.00327708   -0.00756346  111.27185705
     atom    5 type  1   force =    -0.00191437   -0.01014010  111.27924012
     atom    6 type  1   force =    -0.00113097   -0.00065791  111.26425313
     atom    7 type  1   force =    -0.00094361   -0.00053944  111.25881060
     atom    8 type  1   force =     0.00551219    0.00718639  111.27188379
     atom    9 type  1   force =    -0.00491388    0.00662974  111.27185888
     atom   10 type  1   force =     0.04373490    0.02524116   40.09569068
     atom   11 type  1   force =     0.00148454    0.06730364   40.18265586
     atom   12 type  1   force =    -0.04507778    0.03788118   40.09937601
     atom   13 type  1   force =     0.05902728   -0.03238770   40.18260081
     atom   14 type  1   force =    -0.04379894   -0.02531003   40.20949975
     atom   15 type  1   force =    -0.01517396   -0.00353625   40.09500379
     atom   16 type  1   force =     0.01027352   -0.05795363   40.09934606
     atom   17 type  1   force =    -0.01063291   -0.01136325   40.09500735
     atom   18 type  1   force =     0.00082474    0.00049345   40.07373051
     atom   19 type  1   force =     0.34505725    0.04468238  -31.40146048
     atom   20 type  1   force =     0.08892799    0.05106091  -30.39492379
     atom   21 type  1   force =    -0.43340524    0.13880233  -31.22149977
     atom   22 type  1   force =     0.21656914   -0.37789356  -31.42772761
     atom   23 type  1   force =    -0.09632636   -0.44472675  -31.22168577
     atom   24 type  1   force =    -0.12019569   -0.06932979  -31.59286539
     atom   25 type  1   force =     0.00784475    0.00461273  -31.78212844
     atom   26 type  1   force =     0.21140461    0.27652961  -31.40133658
     atom   27 type  1   force =    -0.21908922    0.37669970  -31.42742097
     atom   28 type  1   force =     1.46160120    0.84371040 -104.22508096
     atom   29 type  1   force =     0.12247880    4.56385864 -100.21829836
     atom   30 type  1   force =    -1.55299554    1.22828191 -104.14546918
     atom   31 type  1   force =     4.01094355   -2.17607050 -100.22258962
     atom   32 type  1   force =    -2.95774207   -1.70947212  -99.09238263
     atom   33 type  1   force =    -1.12472381    0.33022992 -103.86647451
     atom   34 type  1   force =     0.28734479   -1.95794553 -104.14593967
     atom   35 type  1   force =    -0.27594738   -1.13870467 -103.86655521
     atom   36 type  1   force =    -0.01956615   -0.01070381 -104.61963644
     atom   37 type  2   force =    -0.16673798   -0.08852342  -51.59290980
     atom   38 type  3   force =     0.46087689    0.25917302  -87.41540535
     atom   39 type  4   force =    -0.32818077   -0.18954415  -15.01101562
     The core correction contribution to forces
     atom    1 type  1   force =    -0.00008895   -0.00001245    0.01006806
     atom    2 type  1   force =     0.00018728    0.00010636    0.00862585
     atom    3 type  1   force =    -0.00004814   -0.00011201    0.01020451
     atom    4 type  1   force =    -0.00013808   -0.00007278    0.00998327
     atom    5 type  1   force =    -0.00012146    0.00001590    0.01020424
     atom    6 type  1   force =     0.00011778    0.00006863    0.01001236
     atom    7 type  1   force =     0.00014015    0.00008217    0.01033364
     atom    8 type  1   force =    -0.00005771   -0.00007045    0.01006792
     atom    9 type  1   force =    -0.00013166   -0.00008261    0.00998418
     atom   10 type  1   force =    -0.00015298   -0.00008886   -0.00187578
     atom   11 type  1   force =    -0.00011737   -0.00010894   -0.00194904
     atom   12 type  1   force =     0.00028661   -0.00038066   -0.00169929
     atom   13 type  1   force =    -0.00015279   -0.00004757   -0.00194830
     atom   14 type  1   force =     0.00022792    0.00013126   -0.00184748
     atom   15 type  1   force =    -0.00004631    0.00017054   -0.00188670
     atom   16 type  1   force =    -0.00018619    0.00043770   -0.00169951
     atom   17 type  1   force =     0.00012468   -0.00012575   -0.00188743
     atom   18 type  1   force =     0.00007387    0.00004256   -0.00158873
     atom   19 type  1   force =     0.00026572   -0.00084001    0.00123309
     atom   20 type  1   force =    -0.00094279   -0.00054241    0.00148756
     atom   21 type  1   force =     0.00092492   -0.00071826    0.00083442
     atom   22 type  1   force =    -0.00002328    0.00092159    0.00128783
     atom   23 type  1   force =    -0.00015959    0.00115847    0.00083481
     atom   24 type  1   force =     0.00032679    0.00018912    0.00225409
     atom   25 type  1   force =    -0.00000786   -0.00000481    0.00195302
     atom   26 type  1   force =    -0.00059549    0.00064943    0.00123054
     atom   27 type  1   force =     0.00078883   -0.00048219    0.00128388
     atom   28 type  1   force =     0.00206465    0.00118957   -0.00920733
     atom   29 type  1   force =     0.00006821    0.00909580   -0.00511930
     atom   30 type  1   force =    -0.00228188    0.00313737   -0.00822358
     atom   31 type  1   force =     0.00789207   -0.00448892   -0.00511195
     atom   32 type  1   force =    -0.00022843   -0.00014601   -0.00016587
     atom   33 type  1   force =    -0.00912825    0.00535233   -0.00562180
     atom   34 type  1   force =     0.00157889   -0.00353715   -0.00822570
     atom   35 type  1   force =     0.00007104   -0.01057814   -0.00562397
     atom   36 type  1   force =    -0.00153012   -0.00087918   -0.00992588
     atom   37 type  2   force =     0.00064503    0.00035205   -0.00132805
     atom   38 type  3   force =    -0.00089912   -0.00049811    0.01965199
     atom   39 type  4   force =     0.00000000    0.00000000    0.00000000
     The Hubbard contrib.    to forces
     atom    1 type  1   force =     0.00000000    0.00000000    0.00000000
     atom    2 type  1   force =     0.00000000    0.00000000    0.00000000
     atom    3 type  1   force =     0.00000000    0.00000000    0.00000000
     atom    4 type  1   force =     0.00000000    0.00000000    0.00000000
     atom    5 type  1   force =     0.00000000    0.00000000    0.00000000
     atom    6 type  1   force =     0.00000000    0.00000000    0.00000000
     atom    7 type  1   force =     0.00000000    0.00000000    0.00000000
     atom    8 type  1   force =     0.00000000    0.00000000    0.00000000
     atom    9 type  1   force =     0.00000000    0.00000000    0.00000000
     atom   10 type  1   force =     0.00000000    0.00000000    0.00000000
     atom   11 type  1   force =     0.00000000    0.00000000    0.00000000
     atom   12 type  1   force =     0.00000000    0.00000000    0.00000000
     atom   13 type  1   force =     0.00000000    0.00000000    0.00000000
     atom   14 type  1   force =     0.00000000    0.00000000    0.00000000
     atom   15 type  1   force =     0.00000000    0.00000000    0.00000000
     atom   16 type  1   force =     0.00000000    0.00000000    0.00000000
     atom   17 type  1   force =     0.00000000    0.00000000    0.00000000
     atom   18 type  1   force =     0.00000000    0.00000000    0.00000000
     atom   19 type  1   force =     0.00000000    0.00000000    0.00000000
     atom   20 type  1   force =     0.00000000    0.00000000    0.00000000
     atom   21 type  1   force =     0.00000000    0.00000000    0.00000000
     atom   22 type  1   force =     0.00000000    0.00000000    0.00000000
     atom   23 type  1   force =     0.00000000    0.00000000    0.00000000
     atom   24 type  1   force =     0.00000000    0.00000000    0.00000000
     atom   25 type  1   force =     0.00000000    0.00000000    0.00000000
     atom   26 type  1   force =     0.00000000    0.00000000    0.00000000
     atom   27 type  1   force =     0.00000000    0.00000000    0.00000000
     atom   28 type  1   force =     0.00000000    0.00000000    0.00000000
     atom   29 type  1   force =     0.00000000    0.00000000    0.00000000
     atom   30 type  1   force =     0.00000000    0.00000000    0.00000000
     atom   31 type  1   force =     0.00000000    0.00000000    0.00000000
     atom   32 type  1   force =     0.00000000    0.00000000    0.00000000
     atom   33 type  1   force =     0.00000000    0.00000000    0.00000000
     atom   34 type  1   force =     0.00000000    0.00000000    0.00000000
     atom   35 type  1   force =     0.00000000    0.00000000    0.00000000
     atom   36 type  1   force =     0.00000000    0.00000000    0.00000000
     atom   37 type  2   force =     0.00000000    0.00000000    0.00000000
     atom   38 type  3   force =     0.00000000    0.00000000    0.00000000
     atom   39 type  4   force =     0.00000000    0.00000000    0.00000000
     The SCF correction term to forces
     atom    1 type  1   force =    -0.00000000    0.00000000    0.00000000
     atom    2 type  1   force =     0.00000000   -0.00000000    0.00000000
     atom    3 type  1   force =    -0.00000000    0.00000000    0.00000000
     atom    4 type  1   force =     0.00000000   -0.00000000    0.00000000
     atom    5 type  1   force =     0.00000000   -0.00000000    0.00000000
     atom    6 type  1   force =    -0.00000000   -0.00000000    0.00000000
     atom    7 type  1   force =     0.00000000    0.00000000    0.00000000
     atom    8 type  1   force =     0.00000000   -0.00000000    0.00000000
     atom    9 type  1   force =    -0.00000000    0.00000000    0.00000000
     atom   10 type  1   force =     0.00000000   -0.00000000    0.00000000
     atom   11 type  1   force =    -0.00000000   -0.00000000    0.00000000
     atom   12 type  1   force =     0.00000000    0.00000000    0.00000000
     atom   13 type  1   force =    -0.00000000   -0.00000000    0.00000000
     atom   14 type  1   force =     0.00000000    0.00000000    0.00000000
     atom   15 type  1   force =     0.00000000   -0.00000000    0.00000000
     atom   16 type  1   force =     0.00000000    0.00000000    0.00000000
     atom   17 type  1   force =    -0.00000000    0.00000000    0.00000000
     atom   18 type  1   force =    -0.00000000   -0.00000000    0.00000000
     atom   19 type  1   force =    -0.00000000   -0.00000000    0.00000000
     atom   20 type  1   force =    -0.00000000   -0.00000000    0.00000000
     atom   21 type  1   force =     0.00000000   -0.00000000    0.00000000
     atom   22 type  1   force =    -0.00000000    0.00000000    0.00000000
     atom   23 type  1   force =     0.00000000    0.00000000    0.00000000
     atom   24 type  1   force =     0.00000000    0.00000000    0.00000000
     atom   25 type  1   force =     0.00000000    0.00000000    0.00000000
     atom   26 type  1   force =    -0.00000000   -0.00000000    0.00000000
     atom   27 type  1   force =     0.00000000   -0.00000000    0.00000000
     atom   28 type  1   force =    -0.00000000   -0.00000000   -0.00000000
     atom   29 type  1   force =    -0.00000000   -0.00000000   -0.00000000
     atom   30 type  1   force =     0.00000000   -0.00000000   -0.00000000
     atom   31 type  1   force =    -0.00000000    0.00000000   -0.00000000
     atom   32 type  1   force =     0.00000000    0.00000000   -0.00000000
     atom   33 type  1   force =     0.00000000    0.00000000   -0.00000000
     atom   34 type  1   force =    -0.00000000    0.00000000   -0.00000000
     atom   35 type  1   force =     0.00000000    0.00000000   -0.00000000
     atom   36 type  1   force =     0.00000000    0.00000000   -0.00000000
     atom   37 type  2   force =    -0.00000464   -0.00000234   -0.00000140
     atom   38 type  3   force =    -0.00000208   -0.00000091    0.00000280
     atom   39 type  4   force =     0.00000269    0.00000196    0.00000039

     Total force =     0.000318     Total SCF correction =     0.000007

     Writing all to output data dir ./pwscf.save/

     init_run     :     11.60s CPU     12.06s WALL (       1 calls)
     electrons    :    836.34s CPU    850.55s WALL (       1 calls)
     forces       :      6.87s CPU      6.93s WALL (       1 calls)

     Called by init_run:
     wfcinit      :      8.53s CPU      8.88s WALL (       1 calls)
     potinit      :      1.96s CPU      2.05s WALL (       1 calls)
     hinit0       :      0.83s CPU      0.85s WALL (       1 calls)

     Called by electrons:
     c_bands      :    695.24s CPU    707.59s WALL (      48 calls)
     sum_band     :     95.11s CPU     96.17s WALL (      48 calls)
     v_of_rho     :      9.72s CPU      9.85s WALL (      49 calls)
     newd         :      3.75s CPU      3.80s WALL (      49 calls)
     PAW_pot      :     14.75s CPU     14.93s WALL (      49 calls)
     mix_rho      :     19.13s CPU     19.39s WALL (      48 calls)
     vdW_kernel   :      1.08s CPU      1.09s WALL (       1 calls)

     Called by c_bands:
     init_us_2    :      8.16s CPU      8.27s WALL (    2548 calls)
     init_us_2:cp :      8.14s CPU      8.27s WALL (    2548 calls)
     cegterg      :    672.43s CPU    684.07s WALL (    1248 calls)

     Called by *egterg:
     cdiaghg      :    198.27s CPU    202.24s WALL (    4528 calls)
     h_psi        :    307.06s CPU    311.91s WALL (    4554 calls)
     s_psi        :     40.20s CPU     41.53s WALL (    4554 calls)
     g_psi        :      0.86s CPU      0.88s WALL (    3280 calls)

     Called by h_psi:
     h_psi:calbec :     61.65s CPU     62.45s WALL (    4554 calls)
     vloc_psi     :    202.45s CPU    205.51s WALL (    4554 calls)
     add_vuspsi   :     40.92s CPU     41.90s WALL (    4554 calls)

     General routines
     calbec       :     95.14s CPU     96.22s WALL (    5906 calls)
     fft          :      7.37s CPU      7.47s WALL (    4438 calls)
     ffts         :     10.25s CPU     10.40s WALL (   21089 calls)
     fftw         :    237.05s CPU    240.48s WALL ( 1308224 calls)
     interpolate  :      0.35s CPU      0.36s WALL (      98 calls)

     Parallel routines

     PWSCF        :  14m20.40s CPU  14m41.22s WALL


   This run was terminated on:   6:34:39  11Dec2025            

=------------------------------------------------------------------------------=
   JOB DONE.
=------------------------------------------------------------------------------=
