
     Program PWSCF v.7.1 starts on 22Feb2025 at 22:15:55 
        Git branch: heads/qe-7.1
        Last git commit: 48ba0178f8fede6d020eb786884699a9f063f55d-dirty
        Last git commit date: Fri Jan 27 14:22:33 2023 +0000
        Last git commit subject: Merge branch 'fix_hubbard' into 'develop'

     This program is part of the open-source Quantum ESPRESSO suite
     for quantum simulation of materials; please cite
         "P. Giannozzi et al., J. Phys.:Condens. Matter 21 395502 (2009);
         "P. Giannozzi et al., J. Phys.:Condens. Matter 29 465901 (2017);
         "P. Giannozzi et al., J. Chem. Phys. 152 154105 (2020);
          URL http://www.quantum-espresso.org", 
     in publications or presentations arising from this work. More details at
     http://www.quantum-espresso.org/quote

     Parallel version (MPI), running on    48 processors

     MPI processes distributed on     1 nodes
     17168 MiB available memory on the printing compute node when the environment starts

     Reading input from espresso.pwi
Warning: card &CELL ignored
Warning: card / ignored
Warning: card &FCP ignored
Warning: card / ignored
Warning: card &RISM ignored
Warning: card / ignored

     Current dimensions of program PWSCF are:
     Max number of different atomic species (ntypx) = 10
     Max number of k-points (npk) =  40000
     Max angular momentum in pseudopotentials (lmaxx) =  4
     file Pt.pbe-n-kjpaw_psl.1.0.0.UPF: wavefunction(s)  6S 5D renormalized
     file H.pbe-kjpaw_psl.1.0.0.UPF: wavefunction(s)  1S renormalized

     **************************************************************************
     Initializing libbeef V0.1.2 with the BEEF-vdW functional.
     Citation: Wellendorff et al., PRB 85, 235149 (2012).
     **************************************************************************


     IMPORTANT: XC functional enforced from input :
     Exchange-correlation= BEEF-VDW
                           (   1   4  43  14   2   0   0)
     Any further DFT definition will be discarded
     Please, verify this is what you really want


     R & G space division:  proc/nbgrp/npool/nimage =      48
     Subspace diagonalization in iterative solution of the eigenvalue problem:
     one sub-group per band group will be used
     custom distributed-memory algorithm (size of sub-group:  2*  2 procs)


     Parallelization info
     --------------------
     sticks:   dense  smooth     PW     G-vecs:    dense   smooth      PW
     Min         151      59     16                29407     7165    1028
     Max         152      60     17                29420     7176    1042
     Sum        7267    2839    769              1411785   344073   49691

     Using Slab Decomposition



     bravais-lattice index     =            0
     lattice parameter (alat)  =      16.0349  a.u.
     unit-cell volume          =   10068.6169 (a.u.)^3
     number of atoms/cell      =           37
     number of atomic types    =            2
     number of electrons       =       361.00
     number of Kohn-Sham states=          217
     kinetic-energy cutoff     =      40.0000  Ry
     charge density cutoff     =     410.0000  Ry
     scf convergence threshold =      1.0E-06
     mixing beta               =       0.7000
     number of iterations used =            8  local-TF  mixing
     Exchange-correlation= BEEF-VDW
                           (   1   4  43  14   2   0   0)

     celldm(1)=  16.034858  celldm(2)=   0.000000  celldm(3)=   0.000000
     celldm(4)=   0.000000  celldm(5)=   0.000000  celldm(6)=   0.000000

     crystal axes: (cart. coord. in units of alat)
               a(1) = (   1.000000   0.000000   0.000000 )  
               a(2) = (   0.500000   0.866025   0.000000 )  
               a(3) = (   0.000000   0.000000   2.819966 )  

     reciprocal axes: (cart. coord. in units 2 pi/alat)
               b(1) = (  1.000000 -0.577350  0.000000 )  
               b(2) = (  0.000000  1.154701  0.000000 )  
               b(3) = (  0.000000  0.000000  0.354614 )  


     PseudoPot. # 1 for Pt read from file:
     /users/kbadger1/espresso/pseudo/pslibrary.1.0.0/pbe/PSEUDOPOTENTIALS/Pt.pbe-n-kjpaw_psl.1.0.0.UPF
     MD5 check sum: 2e24a0b5bf98a4ed1a57fa81bca8c143
     Pseudo is Projector augmented-wave + core cor, Zval = 10.0
     Generated using 'atomic' code by A. Dal Corso  v.7.0
     Shape of augmentation charge: PSQ
     Using radial grid of 1277 points,  6 beta functions with: 
                l(1) =   0
                l(2) =   0
                l(3) =   1
                l(4) =   1
                l(5) =   2
                l(6) =   2
     Q(r) pseudized with 0 coefficients 


     PseudoPot. # 2 for H  read from file:
     /users/kbadger1/espresso/pseudo/pslibrary.1.0.0/pbe/PSEUDOPOTENTIALS/H.pbe-kjpaw_psl.1.0.0.UPF
     MD5 check sum: fe4c6fa958fa6d3815bf5d2419cbf1df
     Pseudo is Projector augmented-wave, Zval =  1.0
     Generated using 'atomic' code by A. Dal Corso  v.7.0
     Shape of augmentation charge: PSQ
     Using radial grid of  929 points,  2 beta functions with: 
                l(1) =   0
                l(2) =   0
     Q(r) pseudized with 0 coefficients 


     atomic species   valence    mass     pseudopotential
        Pt            10.00   195.08400     Pt( 1.00)
        H              1.00     1.00800     H ( 1.00)

     No symmetry found



   Cartesian axes

     site n.     atom                  positions (alat units)
         1           Pt  tau(   1) = (   0.0000000   0.0000000   1.0017346  )
         2           Pt  tau(   2) = (   0.3333333   0.0000000   1.0017346  )
         3           Pt  tau(   3) = (   0.6666667   0.0000000   1.0017346  )
         4           Pt  tau(   4) = (   0.1666667   0.2886751   1.0017346  )
         5           Pt  tau(   5) = (   0.5000000   0.2886751   1.0017346  )
         6           Pt  tau(   6) = (   0.8333333   0.2886751   1.0017346  )
         7           Pt  tau(   7) = (   0.3333333   0.5773503   1.0017346  )
         8           Pt  tau(   8) = (   0.6666667   0.5773503   1.0017346  )
         9           Pt  tau(   9) = (   1.0000000   0.5773503   1.0017346  )
        10           Pt  tau(  10) = (   0.1666667   0.0962250   1.2739001  )
        11           Pt  tau(  11) = (   0.5000000   0.0962250   1.2739001  )
        12           Pt  tau(  12) = (   0.8333333   0.0962250   1.2739001  )
        13           Pt  tau(  13) = (   0.3333333   0.3849002   1.2739001  )
        14           Pt  tau(  14) = (   0.6666667   0.3849002   1.2739001  )
        15           Pt  tau(  15) = (   1.0000000   0.3849002   1.2739001  )
        16           Pt  tau(  16) = (   0.5000000   0.6735753   1.2739001  )
        17           Pt  tau(  17) = (   0.8333333   0.6735753   1.2739001  )
        18           Pt  tau(  18) = (   1.1666667   0.6735753   1.2739001  )
        19           Pt  tau(  19) = (   0.0003332   0.1926642   1.5435417  )
        20           Pt  tau(  20) = (   0.3328392   0.1921738   1.5450022  )
        21           Pt  tau(  21) = (   0.6660709   0.1925276   1.5431378  )
        22           Pt  tau(  22) = (   0.1664049   0.4802824   1.5436435  )
        23           Pt  tau(  23) = (   0.4997608   0.4805977   1.5431332  )
        24           Pt  tau(  24) = (   0.8331403   0.4810331   1.5426745  )
        25           Pt  tau(  25) = (   0.3330342   0.7696399   1.5416202  )
        26           Pt  tau(  26) = (   0.6670118   0.7699977   1.5435403  )
        27           Pt  tau(  27) = (   0.9991244   0.7700150   1.5436414  )
        28           Pt  tau(  28) = (  -0.0020302  -0.0011442   1.8159015  )
        29           Pt  tau(  29) = (   0.3338275  -0.0034440   1.8243345  )
        30           Pt  tau(  30) = (   0.6674370  -0.0007248   1.8164923  )
        31           Pt  tau(  31) = (   0.1639076   0.2908723   1.8243317  )
        32           Pt  tau(  32) = (   0.5026511   0.2902425   1.8212063  )
        33           Pt  tau(  33) = (   0.8327874   0.2883573   1.8170013  )
        34           Pt  tau(  34) = (   0.3330694   0.5784301   1.8164901  )
        35           Pt  tau(  35) = (   0.6660903   0.5770867   1.8170054  )
        36           Pt  tau(  36) = (   0.9997806   0.5772601   1.8170595  )
        37           H   tau(  37) = (   0.3114333   0.1798423   1.9296194  )

     number of k points=    13  Marzari-Vanderbilt smearing, width (Ry)=  0.0200
                       cart. coord. in units 2pi/alat
        k(    1) = (   0.0000000   0.0000000   0.0000000), wk =   0.0800000
        k(    2) = (   0.0000000   0.2309401   0.0000000), wk =   0.1600000
        k(    3) = (   0.0000000   0.4618802   0.0000000), wk =   0.1600000
        k(    4) = (   0.2000000  -0.1154701   0.0000000), wk =   0.1600000
        k(    5) = (   0.2000000   0.1154701   0.0000000), wk =   0.1600000
        k(    6) = (   0.2000000   0.3464102   0.0000000), wk =   0.1600000
        k(    7) = (   0.2000000  -0.5773503   0.0000000), wk =   0.1600000
        k(    8) = (   0.2000000  -0.3464102   0.0000000), wk =   0.1600000
        k(    9) = (   0.4000000  -0.2309401   0.0000000), wk =   0.1600000
        k(   10) = (   0.4000000  -0.0000000   0.0000000), wk =   0.1600000
        k(   11) = (   0.4000000   0.2309401   0.0000000), wk =   0.1600000
        k(   12) = (   0.4000000  -0.6928203   0.0000000), wk =   0.1600000
        k(   13) = (   0.4000000  -0.4618802   0.0000000), wk =   0.1600000

     Dense  grid:  1411785 G-vectors     FFT dimensions: ( 108, 108, 300)

     Smooth grid:   344073 G-vectors     FFT dimensions: (  72,  72, 192)

     Estimated max dynamical RAM per process >     203.68 MB

     Estimated total dynamical RAM >       9.55 GB

     Initial potential from superposition of free atoms

     starting charge     360.9939, renormalised to     361.0000

     negative rho (up, down):  3.364E-03 0.000E+00


     %%%%%%%%%%%%%%%%%%%%%%%%%%%%%%%%%%%%%%%%%%%%%%%%%%%%%%%%%%%%%%%%%%%%%%%%
     %                                                                      %
     % You are using vdW-DF, which was implemented by the Thonhauser group. %
     % Please cite the following two papers that made this development      %
     % possible and the two reviews that describe the various versions:     %
     %                                                                      %
     %   T. Thonhauser et al., PRL 115, 136402 (2015).                      %
     %   T. Thonhauser et al., PRB 76, 125112 (2007).                       %
     %   K. Berland et al., Rep. Prog. Phys. 78, 066501 (2015).             %
     %   D.C. Langreth et al., J. Phys.: Condens. Matter 21, 084203 (2009). %
     %                                                                      %
     % If you are calculating stress with vdW-DF, please also cite:         %
     %                                                                      %
     %   R. Sabatini et al., J. Phys.: Condens. Matter 24, 424209 (2012).   %
     %                                                                      %
     %%%%%%%%%%%%%%%%%%%%%%%%%%%%%%%%%%%%%%%%%%%%%%%%%%%%%%%%%%%%%%%%%%%%%%%%

     %%%%%%%%%%%%%%%%%%%%%%%%%%%%%%%%%%%%%%%%%%%%%%%%%%%%%%%%%%%%%%%%%%%%%%%%
     %                                                                      %
     %  vdW-DF NEWS:                                                        %
     %                                                                      %
     %  * vdW-DF3 is now available. DOI: 10.1021/acs.jctc.0c00471           %
     %    use with input_dft = 'vdW-DF3-opt1' or 'vdW-DF3-opt2'             %
     %                                                                      %
     %  * Unscreened and range-separated hybrid vdW-DF-cx functionals       %
     %    DOI: 10.1063/1.4986522 and 10.1088/1361-648X/ac2ad2               %
     %    use with input_dft = 'vdW-DF-cx0'    and 'vdW-DF-ahcx'            %
     %  * Unscreened and range-separated hybrid vdW-DF2-b86r functionals    %
     %    DOI: 10.1063/1.4986522 and DOI: 10.1103/PhysRevX.12.041003        %
     %    use with input_dft = 'vdW-DF2-br0' and 'vdW-DF2-ahbr'             %
     %                                                                      %
     %%%%%%%%%%%%%%%%%%%%%%%%%%%%%%%%%%%%%%%%%%%%%%%%%%%%%%%%%%%%%%%%%%%%%%%%


     Starting wfcs are  325 randomized atomic wfcs
     Checking if some PAW data can be deallocated... 

     total cpu time spent up to now is       11.1 secs

     per-process dynamical memory:   208.1 Mb

     Self-consistent Calculation

     iteration #  1     ecut=    40.00 Ry     beta= 0.70
     Davidson diagonalization with overlap
     ethr =  1.00E-02,  avg # of iterations =  2.0

     Threshold (ethr) on eigenvalues was too large:
     Diagonalizing with lowered threshold

     Davidson diagonalization with overlap
     ethr =  3.68E-04,  avg # of iterations =  3.8

     negative rho (up, down):  1.776E-02 0.000E+00

     total cpu time spent up to now is       45.6 secs

     total energy              =  -27755.28345100 Ry
     estimated scf accuracy    <       1.53081379 Ry

     iteration #  2     ecut=    40.00 Ry     beta= 0.70
     Davidson diagonalization with overlap
     ethr =  4.24E-04,  avg # of iterations =  2.0

     negative rho (up, down):  1.591E-02 0.000E+00

     total cpu time spent up to now is       63.9 secs

     total energy              =  -27755.38175327 Ry
     estimated scf accuracy    <       0.80020857 Ry

     iteration #  3     ecut=    40.00 Ry     beta= 0.70
     Davidson diagonalization with overlap
     ethr =  2.22E-04,  avg # of iterations =  2.0

     negative rho (up, down):  1.055E-02 0.000E+00

     total cpu time spent up to now is       79.2 secs

     total energy              =  -27755.43267571 Ry
     estimated scf accuracy    <       0.09240626 Ry

     iteration #  4     ecut=    40.00 Ry     beta= 0.70
     Davidson diagonalization with overlap
     c_bands:  2 eigenvalues not converged
     c_bands:  1 eigenvalues not converged
     c_bands:  1 eigenvalues not converged
     c_bands:  1 eigenvalues not converged
     ethr =  2.56E-05,  avg # of iterations = 13.6

     negative rho (up, down):  7.809E-03 0.000E+00

     total cpu time spent up to now is      121.8 secs

     total energy              =  -27755.48150990 Ry
     estimated scf accuracy    <       0.08963732 Ry

     iteration #  5     ecut=    40.00 Ry     beta= 0.70
     Davidson diagonalization with overlap
     ethr =  2.48E-05,  avg # of iterations =  4.3

     negative rho (up, down):  3.440E-03 0.000E+00

     total cpu time spent up to now is      139.3 secs

     total energy              =  -27755.48124403 Ry
     estimated scf accuracy    <       0.03020229 Ry

     iteration #  6     ecut=    40.00 Ry     beta= 0.70
     Davidson diagonalization with overlap
     c_bands:  2 eigenvalues not converged
     c_bands:  1 eigenvalues not converged
     c_bands:  1 eigenvalues not converged
     c_bands:  1 eigenvalues not converged
     ethr =  8.37E-06,  avg # of iterations =  7.5

     negative rho (up, down):  1.674E-03 0.000E+00

     total cpu time spent up to now is      161.0 secs

     total energy              =  -27755.48345986 Ry
     estimated scf accuracy    <       0.00236681 Ry

     iteration #  7     ecut=    40.00 Ry     beta= 0.70
     Davidson diagonalization with overlap
     c_bands:  1 eigenvalues not converged
     ethr =  6.56E-07,  avg # of iterations = 13.9

     negative rho (up, down):  1.297E-03 0.000E+00

     total cpu time spent up to now is      198.3 secs

     total energy              =  -27755.48398874 Ry
     estimated scf accuracy    <       0.00184353 Ry

     iteration #  8     ecut=    40.00 Ry     beta= 0.70
     Davidson diagonalization with overlap
     ethr =  5.11E-07,  avg # of iterations =  2.9

     negative rho (up, down):  1.130E-03 0.000E+00

     total cpu time spent up to now is      218.3 secs

     total energy              =  -27755.48413343 Ry
     estimated scf accuracy    <       0.00020377 Ry

     iteration #  9     ecut=    40.00 Ry     beta= 0.70
     Davidson diagonalization with overlap
     ethr =  5.64E-08,  avg # of iterations =  5.1

     negative rho (up, down):  9.149E-04 0.000E+00

     total cpu time spent up to now is      251.1 secs

     total energy              =  -27755.48424060 Ry
     estimated scf accuracy    <       0.00008491 Ry

     iteration # 10     ecut=    40.00 Ry     beta= 0.70
     Davidson diagonalization with overlap
     ethr =  2.35E-08,  avg # of iterations =  5.4

     negative rho (up, down):  8.913E-04 0.000E+00

     total cpu time spent up to now is      279.1 secs

     total energy              =  -27755.48425984 Ry
     estimated scf accuracy    <       0.00008401 Ry

     iteration # 11     ecut=    40.00 Ry     beta= 0.70
     Davidson diagonalization with overlap
     ethr =  2.33E-08,  avg # of iterations =  1.6

     negative rho (up, down):  9.803E-04 0.000E+00

     total cpu time spent up to now is      293.1 secs

     total energy              =  -27755.48426520 Ry
     estimated scf accuracy    <       0.00004910 Ry

     iteration # 12     ecut=    40.00 Ry     beta= 0.70
     Davidson diagonalization with overlap
     ethr =  1.36E-08,  avg # of iterations =  1.7

     negative rho (up, down):  1.215E-03 0.000E+00

     total cpu time spent up to now is      310.8 secs

     total energy              =  -27755.48427091 Ry
     estimated scf accuracy    <       0.00001866 Ry

     iteration # 13     ecut=    40.00 Ry     beta= 0.70
     Davidson diagonalization with overlap
     ethr =  5.17E-09,  avg # of iterations =  2.1

     negative rho (up, down):  1.688E-03 0.000E+00

     total cpu time spent up to now is      325.9 secs

     total energy              =  -27755.48427575 Ry
     estimated scf accuracy    <       0.00001063 Ry

     iteration # 14     ecut=    40.00 Ry     beta= 0.70
     Davidson diagonalization with overlap
     ethr =  2.94E-09,  avg # of iterations =  2.0

     negative rho (up, down):  2.013E-03 0.000E+00

     total cpu time spent up to now is      344.8 secs

     total energy              =  -27755.48427846 Ry
     estimated scf accuracy    <       0.00000673 Ry

     iteration # 15     ecut=    40.00 Ry     beta= 0.70
     Davidson diagonalization with overlap
     ethr =  1.87E-09,  avg # of iterations =  1.9

     negative rho (up, down):  2.708E-03 0.000E+00

     total cpu time spent up to now is      364.3 secs

     total energy              =  -27755.48427601 Ry
     estimated scf accuracy    <       0.00000579 Ry

     iteration # 16     ecut=    40.00 Ry     beta= 0.70
     Davidson diagonalization with overlap
     ethr =  1.60E-09,  avg # of iterations =  1.2

     negative rho (up, down):  2.852E-03 0.000E+00

     total cpu time spent up to now is      378.0 secs

     total energy              =  -27755.48427575 Ry
     estimated scf accuracy    <       0.00000112 Ry

     iteration # 17     ecut=    40.00 Ry     beta= 0.70
     Davidson diagonalization with overlap
     ethr =  3.12E-10,  avg # of iterations =  4.4

     negative rho (up, down):  3.150E-03 0.000E+00

     total cpu time spent up to now is      404.7 secs

     End of self-consistent calculation

          k = 0.0000 0.0000 0.0000 ( 42913 PWs)   bands (ev):

    -6.3149  -5.2354  -4.5230  -3.8894  -3.8799  -3.8687  -3.8687  -3.8588
    -3.8560  -3.8479  -3.5580  -3.3230  -3.3220  -3.3053  -3.3025  -3.3006
    -3.2360  -2.8562  -2.8537  -2.8489  -2.8441  -2.8428  -2.7362  -2.6337
    -2.6307  -2.6218  -2.6208  -2.6172  -2.5254  -2.4090  -2.4053  -2.4018
    -2.3982  -2.3966  -2.3835  -2.3810  -2.3771  -2.3676  -2.3417  -2.3393
    -1.8946  -1.7853  -1.7815  -1.7577  -1.7463  -1.7155  -1.7132  -1.6982
    -1.6841  -1.6825  -1.5648  -1.5482  -1.5473  -1.4431  -1.4388  -0.9744
    -0.9726  -0.9560  -0.9554  -0.9515  -0.8949  -0.8566  -0.7864  -0.7860
    -0.7798  -0.7755  -0.7626  -0.7625  -0.7449  -0.7295  -0.7262  -0.7184
    -0.7122  -0.7119  -0.6839  -0.6767  -0.6743  -0.5540  -0.5484  -0.5442
    -0.5405  -0.5395  -0.5027  -0.3718  -0.3707  -0.3649  -0.3512  -0.3503
    -0.3424  -0.3112  -0.3040  -0.2241  -0.2151  -0.1740  -0.1699  -0.1294
    -0.1248  -0.0898  -0.0842  -0.0830   0.0032   0.0673   0.0688   0.0804
     0.0873   0.0911   0.0913   0.3258   0.5617   0.5784   0.5791   0.5910
     0.5918   0.6040   0.6244   0.6307   0.6372   0.6421   0.6502   0.7270
     0.7315   0.7822   0.8598   0.8755   0.8783   0.8797   0.8937   0.9786
     1.0008   1.0542   1.0569   1.0573   1.0592   1.2856   1.2999   1.3147
     1.3229   1.3251   1.3286   1.3865   1.3925   1.5453   1.5456   1.5592
     1.5613   1.5692   1.5731   1.7207   1.7287   1.7338   1.7429   1.7525
     1.7603   1.7621   1.7636   1.7745   1.7806   1.7830   1.7852   1.8676
     1.8784   1.8911   1.8986   1.9113   1.9282   1.9369   1.9441   1.9893
     1.9959   2.0057   2.0323   2.0339   2.0502   2.0562   2.0628   2.1263
     2.1295   2.1375   2.1511   2.1568   2.1573   2.2141   2.2379   2.2442
     2.2550   2.2609   2.2684   2.2697   2.4615   2.4681   2.5640   2.5669
     2.5732   2.5830   2.5835   2.5913   3.1313   3.4226   3.4286   3.4412
     3.4711   3.4812   3.4830   5.4277   5.7304   5.7521   5.7992   5.8069
     5.8098   7.2321   7.3113   7.3434   7.3991   7.4056   7.4068   7.5439
     7.6363

          k = 0.0000 0.2309 0.0000 ( 42996 PWs)   bands (ev):

    -6.1685  -5.1216  -4.4821  -4.3408  -3.9794  -3.9687  -3.7484  -3.6727
    -3.6311  -3.6281  -3.5267  -3.4075  -3.3708  -3.2535  -3.2377  -3.2305
    -3.1548  -2.9432  -2.8174  -2.8156  -2.7986  -2.7792  -2.7304  -2.6947
    -2.6700  -2.6375  -2.6333  -2.6148  -2.5448  -2.5318  -2.5207  -2.4349
    -2.4230  -2.4002  -2.3894  -2.2553  -2.1965  -2.1946  -2.1876  -2.1483
    -1.9418  -1.9014  -1.8966  -1.8559  -1.8173  -1.7928  -1.7832  -1.7139
    -1.6057  -1.5732  -1.5284  -1.5116  -1.4612  -1.4497  -1.4270  -1.2386
    -1.1464  -1.1424  -1.0773  -1.0552  -1.0160  -0.9856  -0.9620  -0.9483
    -0.9278  -0.9252  -0.8646  -0.8566  -0.7982  -0.7703  -0.7642  -0.7318
    -0.6819  -0.6715  -0.6536  -0.5958  -0.5898  -0.5773  -0.5337  -0.4951
    -0.4801  -0.4785  -0.4736  -0.3976  -0.3807  -0.3755  -0.3635  -0.3525
    -0.3077  -0.2913  -0.2632  -0.2387  -0.2142  -0.1997  -0.1876  -0.1547
    -0.1253  -0.1183  -0.1055  -0.0828  -0.0158   0.0448   0.0543   0.0834
     0.0871   0.0889   0.1039   0.1123   0.1579   0.1645   0.1791   0.1902
     0.3993   0.5039   0.5514   0.5772   0.5924   0.6006   0.6070   0.6307
     0.6417   0.7312   0.7971   0.8077   0.8892   0.9423   0.9469   0.9697
     0.9828   1.0070   1.0430   1.0553   1.0743   1.1582   1.1735   1.1933
     1.2044   1.2088   1.3428   1.3916   1.4144   1.4177   1.4312   1.4394
     1.4622   1.5294   1.5478   1.5781   1.5933   1.6021   1.6609   1.6681
     1.6826   1.6923   1.7733   1.7910   1.8134   1.8237   1.8594   1.9328
     1.9511   1.9593   1.9754   1.9909   2.0207   2.0338   2.0998   2.1096
     2.1648   2.1697   2.1814   2.1898   2.2223   2.2261   2.2308   2.2426
     2.2461   2.3054   2.3103   2.4523   2.4607   2.4755   2.4922   2.5080
     2.5102   2.5428   2.5675   2.5784   2.5915   2.6523   2.6913   2.7184
     2.7834   2.8775   2.8841   2.8979   2.9322   3.2722   3.3290   3.8406
     4.0440   4.0772   4.1859   4.9807   5.4019   5.4982   6.1478   6.2129
     6.2292   6.3394   6.5799   7.0125   7.1714   7.3568   7.5445   7.5716
     7.6390

          k = 0.0000 0.4619 0.0000 ( 43046 PWs)   bands (ev):

    -5.7488  -5.1334  -4.8211  -4.2565  -4.0131  -3.9973  -3.7987  -3.6446
    -3.4887  -3.3648  -3.2869  -3.2863  -3.2355  -3.1229  -3.0804  -3.0640
    -3.0607  -3.0494  -2.9107  -2.9003  -2.8988  -2.8501  -2.8469  -2.8061
    -2.7314  -2.7163  -2.7133  -2.6282  -2.4572  -2.4498  -2.4413  -2.4353
    -2.4269  -2.3269  -2.2031  -2.1921  -2.1740  -2.1486  -2.1353  -2.0395
    -1.9580  -1.8678  -1.8612  -1.8479  -1.8001  -1.7879  -1.7503  -1.7217
    -1.7102  -1.6724  -1.6474  -1.6076  -1.5003  -1.4919  -1.4622  -1.3807
    -1.3419  -1.3155  -1.2762  -1.2693  -1.1973  -1.1221  -1.0608  -1.0550
    -1.0481  -0.9924  -0.9527  -0.9413  -0.8775  -0.8230  -0.8113  -0.8062
    -0.7656  -0.6887  -0.6859  -0.6618  -0.6580  -0.6425  -0.5919  -0.5703
    -0.5629  -0.5564  -0.5425  -0.5339  -0.5286  -0.4940  -0.4628  -0.4005
    -0.3953  -0.3805  -0.3709  -0.3531  -0.3269  -0.2405  -0.2167  -0.1981
    -0.1483  -0.1309  -0.1162  -0.0906  -0.0659  -0.0575   0.0453   0.0674
     0.0860   0.0999   0.1396   0.1784   0.2236   0.3196   0.3403   0.4125
     0.4229   0.4848   0.5031   0.5223   0.5351   0.5385   0.5400   0.6065
     0.6158   0.6322   0.6521   0.6575   0.6900   0.6998   0.7145   0.7401
     0.7566   0.8704   0.8755   0.8981   0.9568   0.9832   1.0660   1.0864
     1.1684   1.1894   1.2397   1.2867   1.3488   1.3563   1.4056   1.4191
     1.4509   1.4648   1.5012   1.5169   1.5652   1.5662   1.6216   1.6633
     1.6739   1.7186   1.7291   1.7434   1.7490   1.7833   1.8875   1.9245
     1.9807   1.9969   2.0215   2.0322   2.0883   2.1270   2.1347   2.2087
     2.2174   2.2273   2.2387   2.2991   2.3237   2.3307   2.3416   2.4559
     2.4614   2.4810   2.4876   2.4931   2.4978   2.5203   2.5241   2.7014
     2.7305   2.7327   2.7456   2.7510   2.9044   2.9574   3.1529   3.3376
     3.3732   3.5806   3.7744   3.7875   4.0806   4.1692   4.2853   4.4821
     4.7922   4.9983   5.0037   5.0936   5.2128   5.2506   5.3590   5.3968
     5.5991   5.6542   6.2009   6.2867   6.6880   6.8186   7.1874   7.3016
     7.7856

          k = 0.2000-0.1155 0.0000 ( 42996 PWs)   bands (ev):

    -6.1685  -5.1216  -4.4821  -4.3409  -3.9794  -3.9686  -3.7484  -3.6728
    -3.6310  -3.6281  -3.5266  -3.4075  -3.3708  -3.2536  -3.2377  -3.2305
    -3.1548  -2.9432  -2.8174  -2.8156  -2.7986  -2.7792  -2.7304  -2.6947
    -2.6700  -2.6375  -2.6333  -2.6148  -2.5448  -2.5317  -2.5207  -2.4350
    -2.4230  -2.4003  -2.3894  -2.2553  -2.1965  -2.1946  -2.1876  -2.1483
    -1.9418  -1.9014  -1.8966  -1.8559  -1.8174  -1.7928  -1.7832  -1.7139
    -1.6057  -1.5732  -1.5284  -1.5116  -1.4612  -1.4497  -1.4270  -1.2385
    -1.1464  -1.1424  -1.0772  -1.0551  -1.0160  -0.9855  -0.9621  -0.9483
    -0.9278  -0.9252  -0.8646  -0.8566  -0.7981  -0.7702  -0.7641  -0.7318
    -0.6820  -0.6717  -0.6538  -0.5958  -0.5897  -0.5772  -0.5337  -0.4950
    -0.4800  -0.4783  -0.4737  -0.3976  -0.3807  -0.3755  -0.3635  -0.3524
    -0.3077  -0.2914  -0.2631  -0.2388  -0.2142  -0.1997  -0.1875  -0.1547
    -0.1253  -0.1183  -0.1056  -0.0828  -0.0158   0.0448   0.0543   0.0833
     0.0870   0.0889   0.1039   0.1123   0.1579   0.1645   0.1791   0.1902
     0.3994   0.5039   0.5514   0.5772   0.5924   0.6006   0.6069   0.6307
     0.6416   0.7312   0.7971   0.8077   0.8891   0.9423   0.9468   0.9699
     0.9826   1.0070   1.0430   1.0553   1.0743   1.1582   1.1734   1.1933
     1.2044   1.2088   1.3428   1.3916   1.4144   1.4177   1.4312   1.4394
     1.4622   1.5294   1.5478   1.5781   1.5933   1.6021   1.6609   1.6682
     1.6826   1.6923   1.7733   1.7910   1.8135   1.8237   1.8594   1.9328
     1.9511   1.9593   1.9754   1.9909   2.0207   2.0338   2.0998   2.1096
     2.1648   2.1697   2.1813   2.1898   2.2223   2.2261   2.2308   2.2426
     2.2462   2.3054   2.3103   2.4523   2.4606   2.4756   2.4923   2.5080
     2.5102   2.5429   2.5675   2.5784   2.5916   2.6523   2.6913   2.7184
     2.7834   2.8775   2.8841   2.8979   2.9322   3.2723   3.3291   3.8406
     4.0440   4.0771   4.1859   4.9806   5.4020   5.4982   6.1478   6.2129
     6.2292   6.3395   6.5798   7.0125   7.1714   7.3567   7.5447   7.5717
     7.6386

          k = 0.2000 0.1155 0.0000 ( 42996 PWs)   bands (ev):

    -6.1691  -5.1282  -4.4986  -4.3198  -3.9807  -3.9738  -3.7485  -3.6723
    -3.6299  -3.6283  -3.5428  -3.4049  -3.3344  -3.2549  -3.2351  -3.2318
    -3.1785  -2.9423  -2.8176  -2.8157  -2.7972  -2.7621  -2.7298  -2.6909
    -2.6698  -2.6373  -2.6359  -2.6317  -2.5378  -2.5313  -2.5081  -2.4317
    -2.4222  -2.3971  -2.3872  -2.2471  -2.1960  -2.1908  -2.1903  -2.1561
    -1.9311  -1.9030  -1.8928  -1.8533  -1.8196  -1.7936  -1.7835  -1.7285
    -1.6067  -1.5748  -1.5305  -1.5138  -1.4585  -1.4472  -1.4202  -1.2398
    -1.1453  -1.1425  -1.0791  -1.0586  -1.0158  -0.9878  -0.9631  -0.9453
    -0.9261  -0.9214  -0.8796  -0.8512  -0.7940  -0.7683  -0.7630  -0.7461
    -0.6828  -0.6696  -0.6485  -0.5972  -0.5886  -0.5770  -0.5334  -0.4925
    -0.4814  -0.4811  -0.4731  -0.3967  -0.3812  -0.3762  -0.3614  -0.3535
    -0.3027  -0.2954  -0.2660  -0.2379  -0.2123  -0.2015  -0.1907  -0.1534
    -0.1234  -0.1164  -0.1060  -0.0892  -0.0160   0.0462   0.0528   0.0766
     0.0841   0.0909   0.1057   0.1071   0.1539   0.1654   0.1754   0.1862
     0.4076   0.5005   0.5461   0.5692   0.5989   0.6040   0.6041   0.6347
     0.6441   0.7097   0.7862   0.8064   0.8942   0.9427   0.9459   0.9701
     0.9821   1.0002   1.0372   1.0598   1.0686   1.1613   1.1804   1.1920
     1.2063   1.2075   1.3770   1.3820   1.4150   1.4150   1.4289   1.4368
     1.4670   1.5343   1.5395   1.5675   1.5958   1.5998   1.6579   1.6709
     1.6804   1.6886   1.7772   1.7855   1.8174   1.8221   1.8742   1.9304
     1.9313   1.9697   1.9699   1.9829   2.0243   2.0355   2.1023   2.1053
     2.1658   2.1666   2.1844   2.2028   2.2181   2.2295   2.2296   2.2432
     2.2457   2.3086   2.3094   2.4527   2.4622   2.4708   2.4944   2.5095
     2.5114   2.5412   2.5726   2.5791   2.5894   2.6649   2.6902   2.7177
     2.7899   2.8786   2.8799   2.8964   2.9357   3.2775   3.3217   3.8495
     4.0387   4.0777   4.1892   4.9703   5.4254   5.4930   6.1283   6.2134
     6.2485   6.3341   6.5614   7.0069   7.1719   7.3555   7.5583   7.5713
     7.6385

          k = 0.2000 0.3464 0.0000 ( 43046 PWs)   bands (ev):

    -5.8860  -4.9747  -4.6341  -4.6168  -4.2557  -3.5520  -3.5475  -3.5440
    -3.5214  -3.4840  -3.4810  -3.4663  -3.3720  -3.3556  -3.1793  -2.9782
    -2.9727  -2.9653  -2.9582  -2.8935  -2.8762  -2.7397  -2.7270  -2.7152
    -2.7122  -2.6326  -2.6170  -2.5722  -2.5649  -2.5595  -2.4964  -2.4771
    -2.4558  -2.4034  -2.3957  -2.3134  -2.1676  -2.0416  -1.9681  -1.9538
    -1.9267  -1.9177  -1.9045  -1.9000  -1.8452  -1.8261  -1.7631  -1.6762
    -1.6593  -1.6426  -1.5626  -1.5337  -1.4911  -1.4794  -1.4582  -1.3974
    -1.3561  -1.2292  -1.2103  -1.1983  -1.1261  -1.1015  -1.0898  -1.0792
    -1.0496  -1.0121  -0.9857  -0.8637  -0.8442  -0.8348  -0.8162  -0.7864
    -0.7501  -0.7207  -0.7088  -0.6818  -0.6637  -0.5725  -0.5591  -0.5363
    -0.5157  -0.5140  -0.5072  -0.4784  -0.4570  -0.4425  -0.3938  -0.3865
    -0.3590  -0.3348  -0.2693  -0.2677  -0.2349  -0.2030  -0.1785  -0.1713
    -0.1535  -0.1164  -0.1056  -0.1003  -0.0969  -0.0904  -0.0732  -0.0597
    -0.0180  -0.0002   0.0882   0.1009   0.1484   0.2071   0.2277   0.2417
     0.2495   0.4286   0.4357   0.4861   0.5680   0.5766   0.6102   0.6190
     0.6424   0.6467   0.6902   0.6951   0.7322   0.7358   0.7594   0.8231
     0.9295   0.9845   1.0021   1.0094   1.0300   1.0536   1.0867   1.1330
     1.2003   1.2166   1.2512   1.3002   1.3142   1.3544   1.4026   1.4435
     1.4547   1.4647   1.5161   1.5378   1.5421   1.5610   1.5703   1.5739
     1.5923   1.6036   1.6170   1.7159   1.7559   1.8039   1.9300   1.9399
     1.9669   2.0926   2.1109   2.1199   2.1252   2.2044   2.2345   2.2529
     2.2594   2.2774   2.3043   2.3114   2.3290   2.3335   2.3456   2.3892
     2.4022   2.4163   2.4869   2.5164   2.5193   2.5429   2.5519   2.6011
     2.7314   2.7499   2.7828   2.8003   2.8495   2.8688   2.8757   2.9763
     3.0152   3.3390   3.5212   3.5510   3.9397   4.0840   4.0924   4.1002
     4.6026   4.7940   4.8174   4.9800   5.0128   5.0584   5.6604   6.1031
     6.1980   6.2318   6.4101   6.6745   6.9358   6.9819   7.0078   7.0201
     7.4061

          k = 0.2000-0.5774 0.0000 ( 43014 PWs)   bands (ev):

    -5.3881  -5.3264  -4.8333  -4.6095  -4.0872  -3.8741  -3.5467  -3.5020
    -3.4023  -3.3730  -3.2689  -3.2590  -3.1590  -3.1518  -3.0574  -3.0291
    -3.0280  -2.9972  -2.9962  -2.9813  -2.8592  -2.8280  -2.8223  -2.7970
    -2.7826  -2.7756  -2.6785  -2.6185  -2.5651  -2.4638  -2.4312  -2.4239
    -2.4090  -2.3791  -2.3356  -2.2979  -2.1818  -2.1671  -2.0652  -1.9956
    -1.9805  -1.9324  -1.8508  -1.8426  -1.7863  -1.7413  -1.6737  -1.6196
    -1.5900  -1.5760  -1.5543  -1.5134  -1.5028  -1.4677  -1.3872  -1.3697
    -1.3517  -1.3420  -1.3354  -1.3277  -1.2784  -1.2560  -1.2105  -1.1356
    -1.0882  -1.0639  -1.0450  -0.9633  -0.9145  -0.9074  -0.8685  -0.8540
    -0.8255  -0.7971  -0.7534  -0.7465  -0.7208  -0.6897  -0.6592  -0.6166
    -0.5911  -0.5732  -0.5207  -0.4884  -0.4848  -0.4678  -0.4069  -0.3407
    -0.3043  -0.3008  -0.2797  -0.2602  -0.2221  -0.2177  -0.2119  -0.1795
    -0.1742  -0.1604  -0.1390  -0.0998  -0.0875  -0.0736  -0.0651  -0.0587
    -0.0510  -0.0376  -0.0021   0.0321   0.0516   0.2352   0.2631   0.3382
     0.3599   0.4255   0.4517   0.4647   0.4918   0.5060   0.5456   0.5599
     0.5725   0.5818   0.6590   0.6834   0.6993   0.7327   0.7682   0.7850
     0.8410   0.8487   0.8989   1.0241   1.0588   1.1043   1.1190   1.1394
     1.1876   1.1986   1.2376   1.2442   1.2570   1.2715   1.2910   1.3072
     1.4049   1.4210   1.4353   1.4575   1.4782   1.5193   1.5273   1.5449
     1.5504   1.6945   1.7172   1.7738   1.8419   1.8651   1.9437   1.9588
     2.0033   2.0654   2.0822   2.0860   2.1719   2.1846   2.2625   2.2844
     2.2999   2.3074   2.3106   2.3416   2.3630   2.3999   2.4652   2.4692
     2.4976   2.5085   2.5216   2.5237   2.5288   2.6009   2.6984   2.7337
     2.7403   2.7467   2.7517   2.8077   2.8475   2.9295   3.0410   3.7527
     3.8915   3.9139   4.0936   4.1508   4.2226   4.2794   4.2890   4.6413
     4.8606   4.9068   5.1089   5.3545   5.3764   5.4631   5.4972   5.6775
     5.7719   5.8424   5.8929   6.1598   6.2877   6.3277   6.7978   6.9581
     6.9856

          k = 0.2000-0.3464 0.0000 ( 43046 PWs)   bands (ev):

    -5.8841  -4.9590  -4.6350  -4.6176  -4.2580  -3.5534  -3.5469  -3.5434
    -3.5261  -3.4850  -3.4816  -3.4626  -3.3712  -3.3560  -3.1943  -2.9734
    -2.9688  -2.9660  -2.9570  -2.8946  -2.8744  -2.7365  -2.7272  -2.7160
    -2.7091  -2.6483  -2.6152  -2.5718  -2.5648  -2.5552  -2.5102  -2.4781
    -2.4553  -2.4124  -2.3975  -2.3142  -2.2201  -2.0502  -1.9659  -1.9573
    -1.9216  -1.9157  -1.9032  -1.8972  -1.8466  -1.8237  -1.7660  -1.6764
    -1.6614  -1.6235  -1.5610  -1.5205  -1.4899  -1.4790  -1.4600  -1.3963
    -1.3584  -1.2265  -1.2072  -1.2012  -1.1240  -1.1023  -1.0898  -1.0762
    -1.0400  -1.0121  -0.9885  -0.8621  -0.8422  -0.8355  -0.8140  -0.7915
    -0.7578  -0.7146  -0.7011  -0.6857  -0.6634  -0.5719  -0.5563  -0.5377
    -0.5146  -0.5086  -0.5062  -0.4741  -0.4543  -0.4415  -0.3895  -0.3851
    -0.3582  -0.3247  -0.2666  -0.2645  -0.2318  -0.2030  -0.1793  -0.1736
    -0.1509  -0.1151  -0.1045  -0.0973  -0.0948  -0.0896  -0.0740  -0.0592
    -0.0270   0.0056   0.0904   0.1071   0.1507   0.1914   0.2276   0.2458
     0.2477   0.4283   0.4360   0.5044   0.5726   0.5776   0.6032   0.6234
     0.6293   0.6473   0.6895   0.7007   0.7301   0.7387   0.7620   0.8259
     0.9150   0.9815   1.0057   1.0103   1.0275   1.0555   1.0956   1.1326
     1.1951   1.2170   1.2459   1.2779   1.3223   1.3504   1.3988   1.4494
     1.4591   1.4674   1.5133   1.5295   1.5498   1.5600   1.5713   1.5806
     1.5942   1.6019   1.6209   1.7141   1.7672   1.8067   1.9274   1.9368
     1.9686   2.0819   2.1168   2.1202   2.1259   2.2129   2.2378   2.2544
     2.2614   2.2795   2.3059   2.3095   2.3295   2.3325   2.3445   2.3888
     2.4020   2.4171   2.4848   2.5154   2.5187   2.5446   2.5514   2.6006
     2.7313   2.7653   2.7861   2.7970   2.8466   2.8713   2.8769   2.9863
     3.0145   3.3122   3.5062   3.5553   3.9159   4.0883   4.0947   4.1016
     4.6045   4.7995   4.8106   4.9647   5.0094   5.0626   5.6472   6.1000
     6.1986   6.2436   6.4295   6.6853   6.9385   6.9794   7.0101   7.0168
     7.3921

          k = 0.4000-0.2309 0.0000 ( 43046 PWs)   bands (ev):

    -5.7488  -5.1334  -4.8211  -4.2566  -4.0131  -3.9973  -3.7987  -3.6447
    -3.4887  -3.3648  -3.2869  -3.2863  -3.2355  -3.1229  -3.0804  -3.0640
    -3.0607  -3.0494  -2.9107  -2.9002  -2.8988  -2.8502  -2.8470  -2.8061
    -2.7314  -2.7163  -2.7133  -2.6283  -2.4572  -2.4497  -2.4412  -2.4353
    -2.4269  -2.3269  -2.2031  -2.1921  -2.1739  -2.1486  -2.1353  -2.0395
    -1.9580  -1.8678  -1.8612  -1.8479  -1.8001  -1.7879  -1.7503  -1.7216
    -1.7102  -1.6724  -1.6474  -1.6076  -1.5003  -1.4919  -1.4622  -1.3807
    -1.3419  -1.3153  -1.2762  -1.2693  -1.1972  -1.1221  -1.0609  -1.0550
    -1.0482  -0.9925  -0.9528  -0.9412  -0.8776  -0.8230  -0.8114  -0.8064
    -0.7656  -0.6887  -0.6858  -0.6617  -0.6580  -0.6426  -0.5919  -0.5702
    -0.5629  -0.5564  -0.5426  -0.5339  -0.5285  -0.4940  -0.4628  -0.4004
    -0.3953  -0.3804  -0.3709  -0.3531  -0.3270  -0.2404  -0.2168  -0.1981
    -0.1485  -0.1309  -0.1161  -0.0907  -0.0661  -0.0576   0.0453   0.0674
     0.0860   0.0999   0.1396   0.1784   0.2236   0.3196   0.3404   0.4125
     0.4229   0.4848   0.5031   0.5223   0.5351   0.5386   0.5401   0.6066
     0.6158   0.6323   0.6521   0.6574   0.6900   0.6997   0.7144   0.7401
     0.7567   0.8703   0.8755   0.8980   0.9568   0.9831   1.0660   1.0863
     1.1684   1.1893   1.2398   1.2868   1.3488   1.3563   1.4055   1.4190
     1.4510   1.4648   1.5012   1.5169   1.5653   1.5662   1.6216   1.6633
     1.6740   1.7186   1.7292   1.7434   1.7490   1.7832   1.8875   1.9245
     1.9807   1.9969   2.0215   2.0322   2.0883   2.1270   2.1347   2.2087
     2.2174   2.2273   2.2387   2.2992   2.3236   2.3306   2.3416   2.4559
     2.4614   2.4810   2.4876   2.4932   2.4979   2.5204   2.5242   2.7014
     2.7305   2.7328   2.7457   2.7510   2.9044   2.9573   3.1528   3.3377
     3.3732   3.5806   3.7744   3.7875   4.0806   4.1692   4.2852   4.4822
     4.7922   4.9983   5.0037   5.0937   5.2127   5.2506   5.3591   5.3969
     5.5991   5.6542   6.2009   6.2868   6.6879   6.8186   7.1874   7.3016
     7.7857

          k = 0.4000-0.0000 0.0000 ( 43046 PWs)   bands (ev):

    -5.8860  -4.9747  -4.6342  -4.6167  -4.2557  -3.5521  -3.5475  -3.5440
    -3.5213  -3.4840  -3.4810  -3.4663  -3.3720  -3.3556  -3.1793  -2.9783
    -2.9727  -2.9653  -2.9582  -2.8936  -2.8762  -2.7397  -2.7270  -2.7152
    -2.7122  -2.6326  -2.6169  -2.5722  -2.5649  -2.5595  -2.4964  -2.4771
    -2.4558  -2.4034  -2.3957  -2.3134  -2.1676  -2.0416  -1.9681  -1.9538
    -1.9267  -1.9177  -1.9045  -1.9000  -1.8452  -1.8261  -1.7630  -1.6762
    -1.6593  -1.6426  -1.5626  -1.5337  -1.4911  -1.4794  -1.4582  -1.3974
    -1.3561  -1.2292  -1.2102  -1.1983  -1.1260  -1.1015  -1.0898  -1.0792
    -1.0496  -1.0121  -0.9857  -0.8637  -0.8443  -0.8349  -0.8162  -0.7864
    -0.7501  -0.7207  -0.7088  -0.6819  -0.6638  -0.5724  -0.5590  -0.5363
    -0.5157  -0.5139  -0.5072  -0.4785  -0.4571  -0.4424  -0.3939  -0.3865
    -0.3591  -0.3348  -0.2694  -0.2677  -0.2349  -0.2031  -0.1785  -0.1713
    -0.1536  -0.1164  -0.1056  -0.1003  -0.0969  -0.0903  -0.0732  -0.0597
    -0.0180  -0.0002   0.0882   0.1009   0.1484   0.2071   0.2277   0.2416
     0.2495   0.4287   0.4357   0.4860   0.5680   0.5766   0.6101   0.6189
     0.6424   0.6468   0.6903   0.6951   0.7322   0.7358   0.7594   0.8232
     0.9294   0.9845   1.0021   1.0094   1.0300   1.0537   1.0867   1.1330
     1.2002   1.2166   1.2512   1.3002   1.3142   1.3544   1.4026   1.4435
     1.4547   1.4647   1.5161   1.5378   1.5421   1.5611   1.5703   1.5740
     1.5923   1.6036   1.6170   1.7159   1.7559   1.8039   1.9300   1.9398
     1.9669   2.0927   2.1109   2.1199   2.1252   2.2044   2.2345   2.2530
     2.2593   2.2774   2.3043   2.3113   2.3290   2.3335   2.3456   2.3892
     2.4022   2.4164   2.4868   2.5164   2.5193   2.5429   2.5519   2.6011
     2.7315   2.7500   2.7829   2.8004   2.8495   2.8688   2.8757   2.9763
     3.0152   3.3389   3.5211   3.5510   3.9397   4.0840   4.0925   4.1003
     4.6026   4.7940   4.8174   4.9800   5.0128   5.0584   5.6604   6.1032
     6.1980   6.2319   6.4101   6.6745   6.9357   6.9816   7.0052   7.0196
     7.0510

          k = 0.4000 0.2309 0.0000 ( 43046 PWs)   bands (ev):

    -5.7522  -5.1483  -4.8282  -4.2510  -4.0148  -4.0055  -3.7887  -3.6371
    -3.4883  -3.3640  -3.2874  -3.2858  -3.2217  -3.1223  -3.0912  -3.0649
    -3.0640  -3.0535  -2.9116  -2.9013  -2.9007  -2.8517  -2.8462  -2.8012
    -2.7327  -2.7163  -2.7131  -2.5505  -2.4583  -2.4485  -2.4429  -2.4341
    -2.4278  -2.3045  -2.2025  -2.1907  -2.1741  -2.1442  -2.1376  -2.0324
    -1.9615  -1.8623  -1.8599  -1.8480  -1.7989  -1.7867  -1.7685  -1.7204
    -1.7107  -1.6668  -1.6424  -1.6248  -1.5044  -1.4896  -1.4614  -1.3940
    -1.3409  -1.3159  -1.2775  -1.2696  -1.2010  -1.1219  -1.0570  -1.0496
    -1.0493  -0.9821  -0.9487  -0.9454  -0.8924  -0.8252  -0.8081  -0.8015
    -0.7764  -0.6977  -0.6907  -0.6605  -0.6598  -0.6399  -0.5977  -0.5700
    -0.5657  -0.5559  -0.5427  -0.5346  -0.5305  -0.4916  -0.4658  -0.3979
    -0.3945  -0.3845  -0.3721  -0.3531  -0.3249  -0.2592  -0.2147  -0.2018
    -0.1529  -0.1272  -0.1149  -0.0881  -0.0724  -0.0602   0.0532   0.0577
     0.0838   0.0932   0.1420   0.1820   0.2028   0.3149   0.3455   0.3965
     0.4206   0.4713   0.5174   0.5178   0.5335   0.5374   0.5401   0.5937
     0.6153   0.6359   0.6492   0.6642   0.6851   0.7051   0.7182   0.7469
     0.7589   0.8647   0.8699   0.8934   0.9563   1.0007   1.0730   1.0879
     1.1733   1.1832   1.2360   1.2929   1.3382   1.3601   1.3960   1.4220
     1.4543   1.4606   1.5031   1.5146   1.5586   1.5671   1.6168   1.6652
     1.6733   1.7161   1.7246   1.7433   1.7434   1.7917   1.8906   1.9192
     1.9639   1.9961   2.0146   2.0344   2.0918   2.1270   2.1310   2.2137
     2.2178   2.2306   2.2374   2.3051   2.3249   2.3319   2.3397   2.4568
     2.4585   2.4814   2.4842   2.4954   2.4986   2.5201   2.5233   2.7013
     2.7320   2.7334   2.7440   2.7478   2.9055   2.9576   3.1866   3.3305
     3.3847   3.5746   3.7775   3.7862   4.0932   4.1703   4.2866   4.4969
     4.8158   5.0004   5.0024   5.0823   5.2125   5.2444   5.3716   5.3938
     5.5994   5.6549   6.1940   6.2877   6.6799   6.8147   7.2107   7.2937
     7.8072

          k = 0.4000-0.6928 0.0000 ( 43014 PWs)   bands (ev):

    -5.3978  -5.3267  -4.8225  -4.6325  -4.0843  -3.8551  -3.5496  -3.5060
    -3.4018  -3.3753  -3.2694  -3.2622  -3.1599  -3.1513  -3.0556  -3.0305
    -3.0252  -2.9989  -2.9928  -2.9815  -2.8500  -2.8287  -2.8204  -2.8016
    -2.7847  -2.7768  -2.6682  -2.6044  -2.5626  -2.4576  -2.4256  -2.4201
    -2.4100  -2.3781  -2.3272  -2.2911  -2.1826  -2.1673  -2.0558  -1.9948
    -1.9701  -1.9426  -1.8519  -1.8407  -1.7828  -1.7524  -1.6732  -1.6191
    -1.5850  -1.5819  -1.5591  -1.5156  -1.5012  -1.4640  -1.3900  -1.3736
    -1.3557  -1.3392  -1.3362  -1.3269  -1.2833  -1.2512  -1.2108  -1.1295
    -1.0932  -1.0676  -1.0439  -0.9609  -0.9143  -0.9061  -0.8794  -0.8515
    -0.8223  -0.8059  -0.7589  -0.7457  -0.7227  -0.6883  -0.6583  -0.6265
    -0.5865  -0.5777  -0.5234  -0.4884  -0.4860  -0.4662  -0.4151  -0.3415
    -0.3067  -0.2998  -0.2851  -0.2717  -0.2203  -0.2159  -0.2103  -0.1846
    -0.1775  -0.1636  -0.1350  -0.1036  -0.0928  -0.0721  -0.0652  -0.0591
    -0.0500  -0.0391  -0.0112   0.0365   0.0490   0.2420   0.2611   0.3408
     0.3588   0.4336   0.4514   0.4697   0.4952   0.5023   0.5583   0.5623
     0.5746   0.5791   0.6541   0.6907   0.7051   0.7347   0.7659   0.7849
     0.8407   0.8441   0.8962   0.9913   1.0518   1.1069   1.1107   1.1415
     1.1894   1.2050   1.2339   1.2424   1.2603   1.2686   1.2908   1.3064
     1.3970   1.4329   1.4354   1.4655   1.4741   1.5153   1.5214   1.5414
     1.5515   1.6971   1.7282   1.7794   1.8273   1.8728   1.9457   1.9582
     2.0154   2.0619   2.0794   2.0882   2.1643   2.1899   2.2604   2.2845
     2.2947   2.3065   2.3149   2.3360   2.3657   2.3993   2.4653   2.4688
     2.4960   2.5068   2.5219   2.5266   2.5297   2.6007   2.7035   2.7327
     2.7402   2.7450   2.7488   2.8058   2.8499   2.9228   3.0228   3.7789
     3.8912   3.9138   4.1018   4.1466   4.2433   4.2789   4.2934   4.6421
     4.8495   4.9094   5.1374   5.3530   5.3782   5.4509   5.5035   5.6870
     5.7700   5.8253   5.9019   6.1531   6.2710   6.3390   6.8031   6.9538
     6.9892

          k = 0.4000-0.4619 0.0000 ( 43014 PWs)   bands (ev):

    -5.3881  -5.3263  -4.8333  -4.6095  -4.0872  -3.8742  -3.5467  -3.5020
    -3.4023  -3.3729  -3.2688  -3.2590  -3.1590  -3.1519  -3.0574  -3.0291
    -3.0280  -2.9972  -2.9962  -2.9813  -2.8593  -2.8280  -2.8223  -2.7971
    -2.7826  -2.7756  -2.6785  -2.6185  -2.5651  -2.4638  -2.4312  -2.4239
    -2.4089  -2.3790  -2.3356  -2.2979  -2.1818  -2.1671  -2.0651  -1.9956
    -1.9804  -1.9324  -1.8508  -1.8426  -1.7864  -1.7412  -1.6738  -1.6196
    -1.5901  -1.5760  -1.5542  -1.5133  -1.5027  -1.4677  -1.3872  -1.3697
    -1.3517  -1.3420  -1.3354  -1.3277  -1.2785  -1.2560  -1.2104  -1.1356
    -1.0883  -1.0639  -1.0450  -0.9633  -0.9144  -0.9075  -0.8686  -0.8540
    -0.8256  -0.7972  -0.7533  -0.7466  -0.7208  -0.6897  -0.6592  -0.6166
    -0.5910  -0.5731  -0.5207  -0.4884  -0.4847  -0.4678  -0.4068  -0.3408
    -0.3043  -0.3007  -0.2797  -0.2602  -0.2221  -0.2177  -0.2120  -0.1795
    -0.1743  -0.1605  -0.1391  -0.0997  -0.0875  -0.0737  -0.0651  -0.0587
    -0.0510  -0.0376  -0.0021   0.0321   0.0516   0.2351   0.2631   0.3382
     0.3599   0.4255   0.4517   0.4647   0.4918   0.5061   0.5456   0.5598
     0.5725   0.5819   0.6590   0.6834   0.6992   0.7326   0.7682   0.7851
     0.8410   0.8486   0.8988   1.0241   1.0588   1.1043   1.1190   1.1395
     1.1876   1.1986   1.2376   1.2442   1.2569   1.2715   1.2910   1.3072
     1.4050   1.4210   1.4353   1.4575   1.4782   1.5193   1.5273   1.5449
     1.5504   1.6946   1.7171   1.7737   1.8419   1.8651   1.9437   1.9588
     2.0034   2.0653   2.0822   2.0860   2.1719   2.1846   2.2625   2.2844
     2.2998   2.3073   2.3106   2.3416   2.3630   2.3999   2.4652   2.4692
     2.4975   2.5085   2.5216   2.5238   2.5288   2.6009   2.6984   2.7337
     2.7403   2.7468   2.7517   2.8077   2.8476   2.9295   3.0410   3.7527
     3.8915   3.9139   4.0936   4.1509   4.2226   4.2794   4.2889   4.6413
     4.8606   4.9068   5.1089   5.3545   5.3764   5.4631   5.4971   5.6778
     5.7719   5.8425   5.8929   6.1598   6.2877   6.3277   6.7979   6.9580
     6.9852

     the Fermi energy is     2.5141 ev

!    total energy              =  -27755.48427428 Ry
     total all-electron energy =  -1326642.249691 Ry
     estimated scf accuracy    <       0.00000053 Ry
     smearing contrib. (-TS)   =       0.00271753 Ry
     internal energy E=F+TS    =  -27755.48699181 Ry

     The total energy is F=E-TS. E is the sum of the following terms:
     one-electron contribution =  -20683.74280259 Ry
     hartree contribution      =   10648.97914660 Ry
     xc contribution           =    -890.72239090 Ry
     ewald contribution        =    8643.98126746 Ry
     one-center paw contrib.   =  -25473.98221237 Ry

     convergence has been achieved in  17 iterations

     negative rho (up, down):  3.150E-03 0.000E+00

     Forces acting on atoms (cartesian axes, Ry/au):

     atom    1 type  1   force =     0.00016565    0.00008315   -0.00314222
     atom    2 type  1   force =     0.00008418    0.00008044   -0.00312727
     atom    3 type  1   force =    -0.00024340    0.00026595   -0.00340190
     atom    4 type  1   force =     0.00012575    0.00004448   -0.00313259
     atom    5 type  1   force =    -0.00005504   -0.00001770   -0.00324012
     atom    6 type  1   force =    -0.00003091   -0.00007888   -0.00345268
     atom    7 type  1   force =     0.00011418   -0.00035888   -0.00339870
     atom    8 type  1   force =    -0.00009347    0.00000753   -0.00344865
     atom    9 type  1   force =     0.00016925    0.00009091   -0.00338616
     atom   10 type  1   force =    -0.00021219   -0.00012419    0.00525427
     atom   11 type  1   force =    -0.00006930   -0.00035408    0.00466256
     atom   12 type  1   force =    -0.00028997    0.00026035    0.00144447
     atom   13 type  1   force =    -0.00033786    0.00013354    0.00465103
     atom   14 type  1   force =    -0.00037528   -0.00019852    0.00369966
     atom   15 type  1   force =     0.00036497   -0.00016858    0.00457178
     atom   16 type  1   force =     0.00008025   -0.00038671    0.00143391
     atom   17 type  1   force =     0.00002223    0.00040839    0.00457501
     atom   18 type  1   force =    -0.00034411   -0.00019862    0.00085288
     atom   19 type  1   force =    -0.00000160   -0.00001679   -0.00007414
     atom   20 type  1   force =     0.00001533    0.00001924   -0.00009435
     atom   21 type  1   force =    -0.00001061    0.00000458   -0.00007214
     atom   22 type  1   force =    -0.00001092    0.00000173   -0.00009709
     atom   23 type  1   force =    -0.00000540   -0.00001940   -0.00006725
     atom   24 type  1   force =     0.00000104   -0.00000905   -0.00009685
     atom   25 type  1   force =     0.00000740    0.00000512   -0.00007105
     atom   26 type  1   force =    -0.00001973    0.00000896   -0.00007132
     atom   27 type  1   force =    -0.00000061   -0.00000861   -0.00010009
     atom   28 type  1   force =     0.00004272    0.00002622   -0.00000698
     atom   29 type  1   force =    -0.00004956    0.00001534   -0.00000406
     atom   30 type  1   force =    -0.00002349   -0.00000034   -0.00008753
     atom   31 type  1   force =    -0.00001614   -0.00005145   -0.00000400
     atom   32 type  1   force =    -0.00000102   -0.00000229    0.00012746
     atom   33 type  1   force =    -0.00001770   -0.00004919   -0.00007803
     atom   34 type  1   force =    -0.00001021   -0.00002479   -0.00008679
     atom   35 type  1   force =    -0.00005223    0.00000308   -0.00007960
     atom   36 type  1   force =     0.00002976    0.00000888   -0.00006842
     atom   37 type  2   force =     0.00104804    0.00060016   -0.00038303
     The non-local contrib.  to forces
     atom    1 type  1   force =    -0.00110391   -0.00064558   -0.01798850
     atom    2 type  1   force =    -0.00020040    0.00066760   -0.01801193
     atom    3 type  1   force =     0.00130307   -0.00072623   -0.01825557
     atom    4 type  1   force =     0.00048825   -0.00049328   -0.01801870
     atom    5 type  1   force =    -0.00038500   -0.00020617   -0.01779951
     atom    6 type  1   force =    -0.00010424    0.00032157   -0.01804704
     atom    7 type  1   force =     0.00002684    0.00148149   -0.01825743
     atom    8 type  1   force =     0.00021469   -0.00025350   -0.01804436
     atom    9 type  1   force =    -0.00029387   -0.00017349   -0.01807221
     atom   10 type  1   force =     0.00005519    0.00002689    0.00083678
     atom   11 type  1   force =    -0.00060901    0.00026130    0.00098550
     atom   12 type  1   force =     0.00027841    0.00125261   -0.00009977
     atom   13 type  1   force =    -0.00007041   -0.00063950    0.00097308
     atom   14 type  1   force =     0.00031095    0.00020219   -0.00013400
     atom   15 type  1   force =    -0.00066376    0.00020615    0.00003787
     atom   16 type  1   force =     0.00122717   -0.00039098   -0.00010179
     atom   17 type  1   force =    -0.00017027   -0.00066516    0.00004924
     atom   18 type  1   force =    -0.00149525   -0.00086030   -0.00002788
     atom   19 type  1   force =    -0.00257431   -0.00112960    0.00102029
     atom   20 type  1   force =     0.00024641    0.00014622    0.01044981
     atom   21 type  1   force =     0.00229807   -0.00034759    0.00120402
     atom   22 type  1   force =     0.00018626    0.00285275    0.00071222
     atom   23 type  1   force =     0.00084868    0.00216494    0.00121416
     atom   24 type  1   force =    -0.00046107   -0.00026166    0.00385502
     atom   25 type  1   force =     0.00009979    0.00005451    0.00410864
     atom   26 type  1   force =    -0.00226402   -0.00167044    0.00102507
     atom   27 type  1   force =     0.00255687   -0.00126333    0.00071010
     atom   28 type  1   force =     0.00680213    0.00392080    0.02001384
     atom   29 type  1   force =    -0.00506810    0.03541221    0.00323759
     atom   30 type  1   force =    -0.00156449    0.00113746    0.01697070
     atom   31 type  1   force =     0.02813504   -0.02210333    0.00324294
     atom   32 type  1   force =    -0.04126931   -0.02383845    0.02403954
     atom   33 type  1   force =     0.00021966    0.00110522    0.01563748
     atom   34 type  1   force =     0.00020773   -0.00193418    0.01696499
     atom   35 type  1   force =     0.00107248   -0.00037530    0.01562532
     atom   36 type  1   force =    -0.00058578   -0.00035212    0.01596343
     atom   37 type  2   force =    -0.00529019   -0.00305142   -0.01921752
     The ionic contribution  to forces
     atom    1 type  1   force =     0.00699159    0.00409183  -93.42278405
     atom    2 type  1   force =    -0.00001418    0.00695657  -93.41018056
     atom    3 type  1   force =    -0.00699047    0.00204947  -93.42326524
     atom    4 type  1   force =     0.00596981   -0.00346957  -93.41009836
     atom    5 type  1   force =    -0.00772280   -0.00446879  -93.41319083
     atom    6 type  1   force =     0.00174269   -0.00058071  -93.42410073
     atom    7 type  1   force =    -0.00177158   -0.00709744  -93.42328379
     atom    8 type  1   force =     0.00037749    0.00174992  -93.42420330
     atom    9 type  1   force =     0.00138908    0.00075385  -93.42090309
     atom   10 type  1   force =     0.05048815    0.02955288  -31.48798723
     atom   11 type  1   force =    -0.06508371    0.02121550  -31.49035062
     atom   12 type  1   force =     0.01148281    0.04369818  -31.56327692
     atom   13 type  1   force =    -0.01458834   -0.06707130  -31.49007495
     atom   14 type  1   force =    -0.02483813   -0.01468570  -31.57285286
     atom   15 type  1   force =     0.03645773   -0.01431439  -31.55386301
     atom   16 type  1   force =     0.04322234   -0.01154737  -31.56378846
     atom   17 type  1   force =     0.00605571    0.03864014  -31.55462536
     atom   18 type  1   force =    -0.05353956   -0.03091286  -31.54411979
     atom   19 type  1   force =     0.10956158    0.00047529   31.10611096
     atom   20 type  1   force =    -0.02506458   -0.01361009   31.56724230
     atom   21 type  1   force =    -0.07717498   -0.01873628   30.97090938
     atom   22 type  1   force =     0.04213688   -0.07071585   31.08666277
     atom   23 type  1   force =    -0.05553430   -0.05861919   30.96999804
     atom   24 type  1   force =     0.01220266    0.00555379   30.87290334
     atom   25 type  1   force =    -0.01035466   -0.00529732   30.60160715
     atom   26 type  1   force =     0.05440940    0.09576695   31.10571100
     atom   27 type  1   force =    -0.03894070    0.07181992   31.08611740
     atom   28 type  1   force =     0.03604583    0.02183513   92.38700191
     atom   29 type  1   force =     0.03060565   -0.79184141   92.78643818
     atom   30 type  1   force =     0.02604198    0.00969510   92.51904749
     atom   31 type  1   force =    -0.67155698    0.42283176   92.78566664
     atom   32 type  1   force =     0.38884415    0.22394019   92.65798295
     atom   33 type  1   force =     0.02020917    0.00065550   92.63019513
     atom   34 type  1   force =     0.02019845    0.01729859   92.51876651
     atom   35 type  1   force =     0.01096516    0.01613133   92.63115828
     atom   36 type  1   force =    -0.02321724   -0.01462179   92.59841365
     atom   37 type  2   force =     0.16099394    0.09287817   11.71101606
     The local contribution  to forces
     atom    1 type  1   force =    -0.00571132   -0.00331814   93.41981145
     atom    2 type  1   force =     0.00029334   -0.00761403   93.40721726
     atom    3 type  1   force =     0.00545837   -0.00103549   93.42025344
     atom    4 type  1   force =    -0.00643295    0.00399831   93.40714493
     atom    5 type  1   force =     0.00813259    0.00464343   93.40989911
     atom    6 type  1   force =    -0.00163621    0.00023822   93.42098232
     atom    7 type  1   force =     0.00185226    0.00529922   93.42026917
     atom    8 type  1   force =    -0.00057054   -0.00149880   93.42106331
     atom    9 type  1   force =    -0.00100619   -0.00051969   93.41788149
     atom   10 type  1   force =    -0.05079654   -0.02969396   31.49074744
     atom   11 type  1   force =     0.06562365   -0.02186644   31.49234606
     atom   12 type  1   force =    -0.01203754   -0.04457477   31.56294803
     atom   13 type  1   force =     0.01424216    0.06781523   31.49211672
     atom   14 type  1   force =     0.02423941    0.01426859   31.57478657
     atom   15 type  1   force =    -0.03544557    0.01391118   31.55660577
     atom   16 type  1   force =    -0.04428512    0.01156033   31.56345190
     atom   17 type  1   force =    -0.00585958   -0.03757927   31.55731306
     atom   18 type  1   force =     0.05458450    0.03152966   31.54325491
     atom   19 type  1   force =    -0.10688211    0.00070090  -31.10517061
     atom   20 type  1   force =     0.02478819    0.01349275  -31.57519682
     atom   21 type  1   force =     0.07489798    0.01905176  -30.97032317
     atom   22 type  1   force =    -0.04234386    0.06779504  -31.08552167
     atom   23 type  1   force =     0.05463280    0.05641790  -30.96940704
     atom   24 type  1   force =    -0.01168882   -0.00535102  -30.87525507
     atom   25 type  1   force =     0.01021222    0.00526074  -30.60407356
     atom   26 type  1   force =    -0.05209202   -0.09396395  -31.10476335
     atom   27 type  1   force =     0.03638700   -0.07053550  -31.08497783
     atom   28 type  1   force =    -0.04197204   -0.02520903  -92.39006653
     atom   29 type  1   force =    -0.02497082    0.74890760  -92.77792529
     atom   30 type  1   force =    -0.02501770   -0.01049702  -92.51905046
     atom   31 type  1   force =     0.63714845   -0.39645902  -92.77718813
     atom   32 type  1   force =    -0.34510887   -0.19870470  -92.66741513
     atom   33 type  1   force =    -0.02023498   -0.00174888  -92.62875490
     atom   34 type  1   force =    -0.02043875   -0.01601396  -92.51875871
     atom   35 type  1   force =    -0.01191158   -0.01562996  -92.62968002
     atom   36 type  1   force =     0.02373978    0.01488974  -92.59727469
     atom   37 type  2   force =    -0.15465266   -0.08922429  -11.69207238
     The core correction contribution to forces
     atom    1 type  1   force =    -0.00001111   -0.00000656    0.01732614
     atom    2 type  1   force =     0.00000375   -0.00000731    0.01727988
     atom    3 type  1   force =    -0.00000993    0.00000417    0.01737483
     atom    4 type  1   force =    -0.00000433    0.00000686    0.01727986
     atom    5 type  1   force =     0.00000029    0.00000025    0.01729683
     atom    6 type  1   force =    -0.00000828   -0.00001245    0.01723808
     atom    7 type  1   force =    -0.00000119   -0.00001052    0.01737486
     atom    8 type  1   force =    -0.00001498   -0.00000057    0.01723812
     atom    9 type  1   force =    -0.00000954   -0.00000533    0.01721448
     atom   10 type  1   force =    -0.00007813   -0.00004576    0.00108088
     atom   11 type  1   force =     0.00010741   -0.00001189    0.00108524
     atom   12 type  1   force =    -0.00000099   -0.00007520    0.00132132
     atom   13 type  1   force =     0.00004447    0.00009891    0.00108451
     atom   14 type  1   force =     0.00006499    0.00003797    0.00131339
     atom   15 type  1   force =    -0.00009803    0.00005863    0.00123320
     atom   16 type  1   force =    -0.00006518    0.00003575    0.00132261
     atom   17 type  1   force =     0.00000186   -0.00011420    0.00123506
     atom   18 type  1   force =     0.00008312    0.00004797    0.00120309
     atom   19 type  1   force =    -0.00017866   -0.00001928   -0.00223138
     atom   20 type  1   force =     0.00000350   -0.00000089   -0.00271954
     atom   21 type  1   force =     0.00008672    0.00004146   -0.00207097
     atom   22 type  1   force =    -0.00008428    0.00006818   -0.00213184
     atom   23 type  1   force =     0.00008168    0.00005725   -0.00207247
     atom   24 type  1   force =     0.00001002    0.00000978   -0.00185918
     atom   25 type  1   force =     0.00006345    0.00003502   -0.00194310
     atom   26 type  1   force =    -0.00010329   -0.00014824   -0.00223194
     atom   27 type  1   force =     0.00001379   -0.00010721   -0.00213175
     atom   28 type  1   force =    -0.00090025   -0.00052208   -0.01635462
     atom   29 type  1   force =    -0.00060063    0.00738535   -0.01120761
     atom   30 type  1   force =     0.00057893   -0.00034866   -0.01642866
     atom   31 type  1   force =     0.00609932   -0.00421480   -0.01120610
     atom   32 type  1   force =    -0.00235809   -0.00135951   -0.01386724
     atom   33 type  1   force =    -0.00017829   -0.00006447   -0.01655353
     atom   34 type  1   force =    -0.00000888    0.00067672   -0.01642864
     atom   35 type  1   force =    -0.00014593   -0.00011995   -0.01655418
     atom   36 type  1   force =     0.00009439    0.00005800   -0.01655804
     atom   37 type  2   force =     0.00000000    0.00000000    0.00000000
     The Hubbard contrib.    to forces
     atom    1 type  1   force =     0.00000000    0.00000000    0.00000000
     atom    2 type  1   force =     0.00000000    0.00000000    0.00000000
     atom    3 type  1   force =     0.00000000    0.00000000    0.00000000
     atom    4 type  1   force =     0.00000000    0.00000000    0.00000000
     atom    5 type  1   force =     0.00000000    0.00000000    0.00000000
     atom    6 type  1   force =     0.00000000    0.00000000    0.00000000
     atom    7 type  1   force =     0.00000000    0.00000000    0.00000000
     atom    8 type  1   force =     0.00000000    0.00000000    0.00000000
     atom    9 type  1   force =     0.00000000    0.00000000    0.00000000
     atom   10 type  1   force =     0.00000000    0.00000000    0.00000000
     atom   11 type  1   force =     0.00000000    0.00000000    0.00000000
     atom   12 type  1   force =     0.00000000    0.00000000    0.00000000
     atom   13 type  1   force =     0.00000000    0.00000000    0.00000000
     atom   14 type  1   force =     0.00000000    0.00000000    0.00000000
     atom   15 type  1   force =     0.00000000    0.00000000    0.00000000
     atom   16 type  1   force =     0.00000000    0.00000000    0.00000000
     atom   17 type  1   force =     0.00000000    0.00000000    0.00000000
     atom   18 type  1   force =     0.00000000    0.00000000    0.00000000
     atom   19 type  1   force =     0.00000000    0.00000000    0.00000000
     atom   20 type  1   force =     0.00000000    0.00000000    0.00000000
     atom   21 type  1   force =     0.00000000    0.00000000    0.00000000
     atom   22 type  1   force =     0.00000000    0.00000000    0.00000000
     atom   23 type  1   force =     0.00000000    0.00000000    0.00000000
     atom   24 type  1   force =     0.00000000    0.00000000    0.00000000
     atom   25 type  1   force =     0.00000000    0.00000000    0.00000000
     atom   26 type  1   force =     0.00000000    0.00000000    0.00000000
     atom   27 type  1   force =     0.00000000    0.00000000    0.00000000
     atom   28 type  1   force =     0.00000000    0.00000000    0.00000000
     atom   29 type  1   force =     0.00000000    0.00000000    0.00000000
     atom   30 type  1   force =     0.00000000    0.00000000    0.00000000
     atom   31 type  1   force =     0.00000000    0.00000000    0.00000000
     atom   32 type  1   force =     0.00000000    0.00000000    0.00000000
     atom   33 type  1   force =     0.00000000    0.00000000    0.00000000
     atom   34 type  1   force =     0.00000000    0.00000000    0.00000000
     atom   35 type  1   force =     0.00000000    0.00000000    0.00000000
     atom   36 type  1   force =     0.00000000    0.00000000    0.00000000
     atom   37 type  2   force =     0.00000000    0.00000000    0.00000000
     The SCF correction term to forces
     atom    1 type  1   force =     0.00000000   -0.00000000    0.00000000
     atom    2 type  1   force =     0.00000000    0.00000000    0.00000000
     atom    3 type  1   force =    -0.00000000   -0.00000000    0.00000000
     atom    4 type  1   force =     0.00000000    0.00000000    0.00000000
     atom    5 type  1   force =    -0.00000000    0.00000000    0.00000000
     atom    6 type  1   force =    -0.00000000   -0.00000000    0.00000000
     atom    7 type  1   force =     0.00000000   -0.00000000    0.00000000
     atom    8 type  1   force =    -0.00000000    0.00000000    0.00000000
     atom    9 type  1   force =     0.00000000    0.00000000    0.00000000
     atom   10 type  1   force =     0.00000000    0.00000000    0.00000000
     atom   11 type  1   force =    -0.00000000    0.00000000    0.00000000
     atom   12 type  1   force =    -0.00000000   -0.00000000    0.00000000
     atom   13 type  1   force =     0.00000000   -0.00000000    0.00000000
     atom   14 type  1   force =    -0.00000000   -0.00000000    0.00000000
     atom   15 type  1   force =     0.00000000   -0.00000000    0.00000000
     atom   16 type  1   force =    -0.00000000   -0.00000000    0.00000000
     atom   17 type  1   force =    -0.00000000    0.00000000    0.00000000
     atom   18 type  1   force =     0.00000000   -0.00000000    0.00000000
     atom   19 type  1   force =     0.00007247   -0.00004409    0.00025025
     atom   20 type  1   force =     0.00004239   -0.00000874    0.00018353
     atom   21 type  1   force =    -0.00011783   -0.00000476    0.00026225
     atom   22 type  1   force =     0.00009465    0.00000162    0.00023508
     atom   23 type  1   force =    -0.00003368   -0.00004029    0.00025371
     atom   24 type  1   force =    -0.00006116    0.00004008    0.00031270
     atom   25 type  1   force =    -0.00001282   -0.00004782    0.00028347
     atom   26 type  1   force =     0.00003077    0.00002466    0.00024153
     atom   27 type  1   force =    -0.00001700    0.00007753    0.00023565
     atom   28 type  1   force =     0.00006763    0.00000141   -0.00054794
     atom   29 type  1   force =    -0.00001509    0.00015160   -0.00049328
     atom   30 type  1   force =    -0.00006164    0.00001281   -0.00057295
     atom   31 type  1   force =     0.00015861   -0.00010603   -0.00046569
     atom   32 type  1   force =    -0.00010832   -0.00003980   -0.00055901
     atom   33 type  1   force =    -0.00003270    0.00000347   -0.00054857
     atom   34 type  1   force =     0.00003182   -0.00005194   -0.00057728
     atom   35 type  1   force =    -0.00003178   -0.00000302   -0.00057536
     atom   36 type  1   force =    -0.00000082    0.00003507   -0.00055912
     atom   37 type  2   force =    -0.00000248   -0.00000229   -0.00005555

     Total force =     0.001317     Total SCF correction =     0.001843
     SCF correction compared to forces is large: reduce conv_thr to get better values

     Writing all to output data dir ./pwscf.save/

     init_run     :     10.51s CPU     10.87s WALL (       1 calls)
     electrons    :    381.68s CPU    393.85s WALL (       1 calls)
     forces       :      7.86s CPU      8.70s WALL (       1 calls)

     Called by init_run:
     wfcinit      :      6.04s CPU      6.26s WALL (       1 calls)
     potinit      :      3.08s CPU      3.16s WALL (       1 calls)
     hinit0       :      0.82s CPU      0.83s WALL (       1 calls)

     Called by electrons:
     c_bands      :    319.79s CPU    326.30s WALL (      18 calls)
     sum_band     :     29.66s CPU     31.33s WALL (      18 calls)
     v_of_rho     :     17.77s CPU     19.85s WALL (      18 calls)
     newd         :      3.50s CPU      4.97s WALL (      18 calls)
     PAW_pot      :      4.21s CPU      4.41s WALL (      18 calls)
     mix_rho      :      8.42s CPU      8.51s WALL (      18 calls)
     vdW_kernel   :      1.72s CPU      1.73s WALL (       1 calls)

     Called by c_bands:
     init_us_2    :      2.38s CPU      2.43s WALL (     494 calls)
     init_us_2:cp :      2.38s CPU      2.43s WALL (     494 calls)
     cegterg      :    312.52s CPU    318.67s WALL (     234 calls)

     Called by *egterg:
     cdiaghg      :     72.36s CPU     73.31s WALL (    1228 calls)
     h_psi        :    138.67s CPU    141.14s WALL (    1254 calls)
     s_psi        :     16.80s CPU     17.17s WALL (    1254 calls)
     g_psi        :      1.00s CPU      1.02s WALL (    1007 calls)

     Called by h_psi:
     h_psi:calbec :     21.50s CPU     22.18s WALL (    1254 calls)
     vloc_psi     :     97.36s CPU     98.71s WALL (    1254 calls)
     add_vuspsi   :     17.74s CPU     18.03s WALL (    1254 calls)

     General routines
     calbec       :     30.36s CPU     31.28s WALL (    1540 calls)
     fft          :     17.05s CPU     18.76s WALL (    1194 calls)
     ffts         :      3.89s CPU      3.93s WALL (    4294 calls)
     fftw         :     94.91s CPU     96.40s WALL (  310358 calls)
     interpolate  :      0.91s CPU      0.96s WALL (      18 calls)

     Parallel routines

     PWSCF        :   6m41.68s CPU   7m 1.49s WALL


   This run was terminated on:  22:22:56  22Feb2025            

=------------------------------------------------------------------------------=
   JOB DONE.
=------------------------------------------------------------------------------=
