
     Program PWSCF v.7.1 starts on 10Nov2025 at  5:28:29 
        Git branch: heads/qe-7.1
        Last git commit: 48ba0178f8fede6d020eb786884699a9f063f55d-dirty
        Last git commit date: Fri Jan 27 14:22:33 2023 +0000
        Last git commit subject: Merge branch 'fix_hubbard' into 'develop'

     This program is part of the open-source Quantum ESPRESSO suite
     for quantum simulation of materials; please cite
         "P. Giannozzi et al., J. Phys.:Condens. Matter 21 395502 (2009);
         "P. Giannozzi et al., J. Phys.:Condens. Matter 29 465901 (2017);
         "P. Giannozzi et al., J. Chem. Phys. 152 154105 (2020);
          URL http://www.quantum-espresso.org", 
     in publications or presentations arising from this work. More details at
     http://www.quantum-espresso.org/quote

     Parallel version (MPI), running on    48 processors

     MPI processes distributed on     1 nodes
     110946 MiB available memory on the printing compute node when the environment starts

     Reading input from espresso.pwi
Warning: card &CELL ignored
Warning: card / ignored
Warning: card &FCP ignored
Warning: card / ignored
Warning: card &RISM ignored
Warning: card / ignored

     Current dimensions of program PWSCF are:
     Max number of different atomic species (ntypx) = 10
     Max number of k-points (npk) =  40000
     Max angular momentum in pseudopotentials (lmaxx) =  4
     file Pt.pbe-n-kjpaw_psl.1.0.0.UPF: wavefunction(s)  6S 5D renormalized
     file O.pbe-nl-kjpaw_psl.1.0.0.UPF: wavefunction(s)  2S 2P renormalized
     file H.pbe-kjpaw_psl.1.0.0.UPF: wavefunction(s)  1S renormalized

     **************************************************************************
     Initializing libbeef V0.1.2 with the BEEF-vdW functional.
     Citation: Wellendorff et al., PRB 85, 235149 (2012).
     **************************************************************************


     IMPORTANT: XC functional enforced from input :
     Exchange-correlation= BEEF-VDW
                           (   1   4  43  14   2   0   0)
     Any further DFT definition will be discarded
     Please, verify this is what you really want


     R & G space division:  proc/nbgrp/npool/nimage =      48
     Subspace diagonalization in iterative solution of the eigenvalue problem:
     one sub-group per band group will be used
     custom distributed-memory algorithm (size of sub-group:  2*  2 procs)


     Parallelization info
     --------------------
     sticks:   dense  smooth     PW     G-vecs:    dense   smooth      PW
     Min         151      59     16                29407     7165    1028
     Max         152      60     17                29420     7176    1042
     Sum        7267    2839    769              1411785   344073   49691

     Using Slab Decomposition



     bravais-lattice index     =            0
     lattice parameter (alat)  =      16.0349  a.u.
     unit-cell volume          =   10068.6169 (a.u.)^3
     number of atoms/cell      =           39
     number of atomic types    =            3
     number of electrons       =       368.00
     number of Kohn-Sham states=          221
     kinetic-energy cutoff     =      40.0000  Ry
     charge density cutoff     =     410.0000  Ry
     scf convergence threshold =      1.0E-08
     mixing beta               =       0.7000
     number of iterations used =            8  local-TF  mixing
     Exchange-correlation= BEEF-VDW
                           (   1   4  43  14   2   0   0)

     celldm(1)=  16.034858  celldm(2)=   0.000000  celldm(3)=   0.000000
     celldm(4)=   0.000000  celldm(5)=   0.000000  celldm(6)=   0.000000

     crystal axes: (cart. coord. in units of alat)
               a(1) = (   1.000000   0.000000   0.000000 )  
               a(2) = (   0.500000   0.866025   0.000000 )  
               a(3) = (   0.000000   0.000000   2.819966 )  

     reciprocal axes: (cart. coord. in units 2 pi/alat)
               b(1) = (  1.000000 -0.577350  0.000000 )  
               b(2) = (  0.000000  1.154701  0.000000 )  
               b(3) = (  0.000000  0.000000  0.354614 )  


     PseudoPot. # 1 for Pt read from file:
     /users/kbadger1/espresso/pseudo/pslibrary.1.0.0/pbe/PSEUDOPOTENTIALS/Pt.pbe-n-kjpaw_psl.1.0.0.UPF
     MD5 check sum: 2e24a0b5bf98a4ed1a57fa81bca8c143
     Pseudo is Projector augmented-wave + core cor, Zval = 10.0
     Generated using 'atomic' code by A. Dal Corso  v.7.0
     Shape of augmentation charge: PSQ
     Using radial grid of 1277 points,  6 beta functions with: 
                l(1) =   0
                l(2) =   0
                l(3) =   1
                l(4) =   1
                l(5) =   2
                l(6) =   2
     Q(r) pseudized with 0 coefficients 


     PseudoPot. # 2 for O  read from file:
     /users/kbadger1/espresso/pseudo/pslibrary.1.0.0/pbe/PSEUDOPOTENTIALS/O.pbe-nl-kjpaw_psl.1.0.0.UPF
     MD5 check sum: f0439fab3598ca4e468f064226030408
     Pseudo is Projector augmented-wave + core cor, Zval =  6.0
     Generated using 'atomic' code by A. Dal Corso  v.7.0
     Shape of augmentation charge: PSQ
     Using radial grid of 1095 points,  4 beta functions with: 
                l(1) =   0
                l(2) =   0
                l(3) =   1
                l(4) =   1
     Q(r) pseudized with 0 coefficients 


     PseudoPot. # 3 for H  read from file:
     /users/kbadger1/espresso/pseudo/pslibrary.1.0.0/pbe/PSEUDOPOTENTIALS/H.pbe-kjpaw_psl.1.0.0.UPF
     MD5 check sum: fe4c6fa958fa6d3815bf5d2419cbf1df
     Pseudo is Projector augmented-wave, Zval =  1.0
     Generated using 'atomic' code by A. Dal Corso  v.7.0
     Shape of augmentation charge: PSQ
     Using radial grid of  929 points,  2 beta functions with: 
                l(1) =   0
                l(2) =   0
     Q(r) pseudized with 0 coefficients 


     atomic species   valence    mass     pseudopotential
        Pt            10.00   195.08400     Pt( 1.00)
        O              6.00    15.99900     O ( 1.00)
        H              1.00     1.00800     H ( 1.00)

     No symmetry found



   Cartesian axes

     site n.     atom                  positions (alat units)
         1           Pt  tau(   1) = (   0.0000000   0.0000000   1.0017346  )
         2           Pt  tau(   2) = (   0.3333333   0.0000000   1.0017346  )
         3           Pt  tau(   3) = (   0.6666667   0.0000000   1.0017346  )
         4           Pt  tau(   4) = (   0.1666667   0.2886751   1.0017346  )
         5           Pt  tau(   5) = (   0.5000000   0.2886751   1.0017346  )
         6           Pt  tau(   6) = (   0.8333333   0.2886751   1.0017346  )
         7           Pt  tau(   7) = (   0.3333333   0.5773503   1.0017346  )
         8           Pt  tau(   8) = (   0.6666667   0.5773503   1.0017346  )
         9           Pt  tau(   9) = (   1.0000000   0.5773503   1.0017346  )
        10           Pt  tau(  10) = (   0.1666667   0.0962250   1.2739001  )
        11           Pt  tau(  11) = (   0.5000000   0.0962250   1.2739001  )
        12           Pt  tau(  12) = (   0.8333333   0.0962250   1.2739001  )
        13           Pt  tau(  13) = (   0.3333333   0.3849002   1.2739001  )
        14           Pt  tau(  14) = (   0.6666667   0.3849002   1.2739001  )
        15           Pt  tau(  15) = (   1.0000000   0.3849002   1.2739001  )
        16           Pt  tau(  16) = (   0.5000000   0.6735753   1.2739001  )
        17           Pt  tau(  17) = (   0.8333333   0.6735753   1.2739001  )
        18           Pt  tau(  18) = (   1.1666667   0.6735753   1.2739001  )
        19           Pt  tau(  19) = (  -0.0075930   0.1983070   1.5421767  )
        20           Pt  tau(  20) = (   0.3269531   0.2003985   1.5485906  )
        21           Pt  tau(  21) = (   0.6574471   0.1986052   1.5482644  )
        22           Pt  tau(  22) = (   0.1585824   0.4879045   1.5440772  )
        23           Pt  tau(  23) = (   0.4911339   0.4857422   1.5490920  )
        24           Pt  tau(  24) = (   0.8256446   0.4876935   1.5431042  )
        25           Pt  tau(  25) = (   0.3239525   0.7773808   1.5456330  )
        26           Pt  tau(  26) = (   0.6581738   0.7760490   1.5419663  )
        27           Pt  tau(  27) = (   0.9926861   0.7773123   1.5459924  )
        28           Pt  tau(  28) = (  -0.0153047   0.0127558   1.8190962  )
        29           Pt  tau(  29) = (   0.3150803   0.0106576   1.8167071  )
        30           Pt  tau(  30) = (   0.6515882   0.0110635   1.8303889  )
        31           Pt  tau(  31) = (   0.1481916   0.3017109   1.8173237  )
        32           Pt  tau(  32) = (   0.4842952   0.3034769   1.8334969  )
        33           Pt  tau(  33) = (   0.8196408   0.3017126   1.8164261  )
        34           Pt  tau(  34) = (   0.3164227   0.5923012   1.8190479  )
        35           Pt  tau(  35) = (   0.6519355   0.5919579   1.8178790  )
        36           Pt  tau(  36) = (   0.9836916   0.5898333   1.8190674  )
        37           O   tau(  37) = (   0.4758760   0.2947038   2.0706358  )
        38           H   tau(  38) = (   0.5807736   0.3204343   2.1088615  )
        39           H   tau(  39) = (   0.6311227   0.0278214   2.0115722  )

     number of k points=    13  Marzari-Vanderbilt smearing, width (Ry)=  0.0010
                       cart. coord. in units 2pi/alat
        k(    1) = (   0.0000000   0.0000000   0.0000000), wk =   0.0800000
        k(    2) = (   0.0000000   0.2309401   0.0000000), wk =   0.1600000
        k(    3) = (   0.0000000   0.4618802   0.0000000), wk =   0.1600000
        k(    4) = (   0.2000000  -0.1154701   0.0000000), wk =   0.1600000
        k(    5) = (   0.2000000   0.1154701   0.0000000), wk =   0.1600000
        k(    6) = (   0.2000000   0.3464102   0.0000000), wk =   0.1600000
        k(    7) = (   0.2000000  -0.5773503   0.0000000), wk =   0.1600000
        k(    8) = (   0.2000000  -0.3464102   0.0000000), wk =   0.1600000
        k(    9) = (   0.4000000  -0.2309401   0.0000000), wk =   0.1600000
        k(   10) = (   0.4000000  -0.0000000   0.0000000), wk =   0.1600000
        k(   11) = (   0.4000000   0.2309401   0.0000000), wk =   0.1600000
        k(   12) = (   0.4000000  -0.6928203   0.0000000), wk =   0.1600000
        k(   13) = (   0.4000000  -0.4618802   0.0000000), wk =   0.1600000

     Dense  grid:  1411785 G-vectors     FFT dimensions: ( 108, 108, 300)

     Smooth grid:   344073 G-vectors     FFT dimensions: (  72,  72, 192)

     Estimated max dynamical RAM per process >     207.10 MB

     Estimated total dynamical RAM >       9.71 GB

     Initial potential from superposition of free atoms

     starting charge     367.9939, renormalised to     368.0000

     negative rho (up, down):  3.093E-03 0.000E+00


     %%%%%%%%%%%%%%%%%%%%%%%%%%%%%%%%%%%%%%%%%%%%%%%%%%%%%%%%%%%%%%%%%%%%%%%%
     %                                                                      %
     % You are using vdW-DF, which was implemented by the Thonhauser group. %
     % Please cite the following two papers that made this development      %
     % possible and the two reviews that describe the various versions:     %
     %                                                                      %
     %   T. Thonhauser et al., PRL 115, 136402 (2015).                      %
     %   T. Thonhauser et al., PRB 76, 125112 (2007).                       %
     %   K. Berland et al., Rep. Prog. Phys. 78, 066501 (2015).             %
     %   D.C. Langreth et al., J. Phys.: Condens. Matter 21, 084203 (2009). %
     %                                                                      %
     % If you are calculating stress with vdW-DF, please also cite:         %
     %                                                                      %
     %   R. Sabatini et al., J. Phys.: Condens. Matter 24, 424209 (2012).   %
     %                                                                      %
     %%%%%%%%%%%%%%%%%%%%%%%%%%%%%%%%%%%%%%%%%%%%%%%%%%%%%%%%%%%%%%%%%%%%%%%%

     %%%%%%%%%%%%%%%%%%%%%%%%%%%%%%%%%%%%%%%%%%%%%%%%%%%%%%%%%%%%%%%%%%%%%%%%
     %                                                                      %
     %  vdW-DF NEWS:                                                        %
     %                                                                      %
     %  * vdW-DF3 is now available. DOI: 10.1021/acs.jctc.0c00471           %
     %    use with input_dft = 'vdW-DF3-opt1' or 'vdW-DF3-opt2'             %
     %                                                                      %
     %  * Unscreened and range-separated hybrid vdW-DF-cx functionals       %
     %    DOI: 10.1063/1.4986522 and 10.1088/1361-648X/ac2ad2               %
     %    use with input_dft = 'vdW-DF-cx0'    and 'vdW-DF-ahcx'            %
     %  * Unscreened and range-separated hybrid vdW-DF2-b86r functionals    %
     %    DOI: 10.1063/1.4986522 and DOI: 10.1103/PhysRevX.12.041003        %
     %    use with input_dft = 'vdW-DF2-br0' and 'vdW-DF2-ahbr'             %
     %                                                                      %
     %%%%%%%%%%%%%%%%%%%%%%%%%%%%%%%%%%%%%%%%%%%%%%%%%%%%%%%%%%%%%%%%%%%%%%%%


     Starting wfcs are  330 randomized atomic wfcs
     Checking if some PAW data can be deallocated... 

     total cpu time spent up to now is       11.6 secs

     per-process dynamical memory:   212.1 Mb

     Self-consistent Calculation

     iteration #  1     ecut=    40.00 Ry     beta= 0.70
     Davidson diagonalization with overlap
     ethr =  1.00E-02,  avg # of iterations =  2.0

     Threshold (ethr) on eigenvalues was too large:
     Diagonalizing with lowered threshold

     Davidson diagonalization with overlap
     ethr =  6.39E-04,  avg # of iterations =  2.5

     negative rho (up, down):  1.089E-02 0.000E+00

     total cpu time spent up to now is       40.2 secs

     total energy              =  -27798.83191075 Ry
     estimated scf accuracy    <       2.51637970 Ry

     iteration #  2     ecut=    40.00 Ry     beta= 0.70
     Davidson diagonalization with overlap
     ethr =  6.84E-04,  avg # of iterations =  3.0

     negative rho (up, down):  9.533E-03 0.000E+00

     total cpu time spent up to now is       54.1 secs

     total energy              =  -27799.02753834 Ry
     estimated scf accuracy    <       0.82489250 Ry

     iteration #  3     ecut=    40.00 Ry     beta= 0.70
     Davidson diagonalization with overlap
     ethr =  2.24E-04,  avg # of iterations =  2.0

     negative rho (up, down):  7.427E-03 0.000E+00

     total cpu time spent up to now is       67.7 secs

     total energy              =  -27799.09307119 Ry
     estimated scf accuracy    <       0.28119016 Ry

     iteration #  4     ecut=    40.00 Ry     beta= 0.70
     Davidson diagonalization with overlap
     ethr =  7.64E-05,  avg # of iterations = 10.9

     negative rho (up, down):  4.922E-03 0.000E+00

     total cpu time spent up to now is       92.7 secs

     total energy              =  -27799.14014129 Ry
     estimated scf accuracy    <       0.08284986 Ry

     iteration #  5     ecut=    40.00 Ry     beta= 0.70
     Davidson diagonalization with overlap
     ethr =  2.25E-05,  avg # of iterations =  7.1

     negative rho (up, down):  3.938E-03 0.000E+00

     total cpu time spent up to now is      115.7 secs

     total energy              =  -27799.15423021 Ry
     estimated scf accuracy    <       0.02638424 Ry

     iteration #  6     ecut=    40.00 Ry     beta= 0.70
     Davidson diagonalization with overlap
     c_bands:  1 eigenvalues not converged
     c_bands:  1 eigenvalues not converged
     ethr =  7.17E-06,  avg # of iterations = 10.0

     negative rho (up, down):  3.352E-03 0.000E+00

     total cpu time spent up to now is      136.8 secs

     total energy              =  -27799.15718851 Ry
     estimated scf accuracy    <       0.01038794 Ry

     iteration #  7     ecut=    40.00 Ry     beta= 0.70
     Davidson diagonalization with overlap
     ethr =  2.82E-06,  avg # of iterations =  8.2

     negative rho (up, down):  2.539E-03 0.000E+00

     total cpu time spent up to now is      156.5 secs

     total energy              =  -27799.15760302 Ry
     estimated scf accuracy    <       0.00153630 Ry

     iteration #  8     ecut=    40.00 Ry     beta= 0.70
     Davidson diagonalization with overlap
     ethr =  4.17E-07,  avg # of iterations =  6.8

     negative rho (up, down):  2.412E-03 0.000E+00

     total cpu time spent up to now is      183.2 secs

     total energy              =  -27799.15838035 Ry
     estimated scf accuracy    <       0.00115982 Ry

     iteration #  9     ecut=    40.00 Ry     beta= 0.70
     Davidson diagonalization with overlap
     ethr =  3.15E-07,  avg # of iterations =  2.0

     negative rho (up, down):  2.296E-03 0.000E+00

     total cpu time spent up to now is      196.4 secs

     total energy              =  -27799.15844272 Ry
     estimated scf accuracy    <       0.00030128 Ry

     iteration # 10     ecut=    40.00 Ry     beta= 0.70
     Davidson diagonalization with overlap
     ethr =  8.19E-08,  avg # of iterations =  4.0

     negative rho (up, down):  2.200E-03 0.000E+00

     total cpu time spent up to now is      214.3 secs

     total energy              =  -27799.15850179 Ry
     estimated scf accuracy    <       0.00017659 Ry

     iteration # 11     ecut=    40.00 Ry     beta= 0.70
     Davidson diagonalization with overlap
     ethr =  4.80E-08,  avg # of iterations =  2.0

     negative rho (up, down):  2.131E-03 0.000E+00

     total cpu time spent up to now is      228.1 secs

     total energy              =  -27799.15852281 Ry
     estimated scf accuracy    <       0.00005662 Ry

     iteration # 12     ecut=    40.00 Ry     beta= 0.70
     Davidson diagonalization with overlap
     ethr =  1.54E-08,  avg # of iterations =  4.0

     negative rho (up, down):  2.110E-03 0.000E+00

     total cpu time spent up to now is      245.2 secs

     total energy              =  -27799.15853393 Ry
     estimated scf accuracy    <       0.00003893 Ry

     iteration # 13     ecut=    40.00 Ry     beta= 0.70
     Davidson diagonalization with overlap
     ethr =  1.06E-08,  avg # of iterations =  2.0

     negative rho (up, down):  2.124E-03 0.000E+00

     total cpu time spent up to now is      259.7 secs

     total energy              =  -27799.15854142 Ry
     estimated scf accuracy    <       0.00001970 Ry

     iteration # 14     ecut=    40.00 Ry     beta= 0.70
     Davidson diagonalization with overlap
     ethr =  5.35E-09,  avg # of iterations =  2.0

     negative rho (up, down):  2.245E-03 0.000E+00

     total cpu time spent up to now is      273.1 secs

     total energy              =  -27799.15854671 Ry
     estimated scf accuracy    <       0.00001166 Ry

     iteration # 15     ecut=    40.00 Ry     beta= 0.70
     Davidson diagonalization with overlap
     ethr =  3.17E-09,  avg # of iterations =  2.0

     negative rho (up, down):  2.316E-03 0.000E+00

     total cpu time spent up to now is      286.3 secs

     total energy              =  -27799.15854767 Ry
     estimated scf accuracy    <       0.00000444 Ry

     iteration # 16     ecut=    40.00 Ry     beta= 0.70
     Davidson diagonalization with overlap
     ethr =  1.21E-09,  avg # of iterations =  3.8

     negative rho (up, down):  2.466E-03 0.000E+00

     total cpu time spent up to now is      303.4 secs

     total energy              =  -27799.15854752 Ry
     estimated scf accuracy    <       0.00000291 Ry

     iteration # 17     ecut=    40.00 Ry     beta= 0.70
     Davidson diagonalization with overlap
     ethr =  7.90E-10,  avg # of iterations =  2.0

     negative rho (up, down):  2.531E-03 0.000E+00

     total cpu time spent up to now is      317.0 secs

     total energy              =  -27799.15854732 Ry
     estimated scf accuracy    <       0.00000124 Ry

     iteration # 18     ecut=    40.00 Ry     beta= 0.70
     Davidson diagonalization with overlap
     ethr =  3.38E-10,  avg # of iterations =  4.0

     negative rho (up, down):  2.591E-03 0.000E+00

     total cpu time spent up to now is      334.5 secs

     total energy              =  -27799.15854710 Ry
     estimated scf accuracy    <       0.00000095 Ry

     iteration # 19     ecut=    40.00 Ry     beta= 0.70
     Davidson diagonalization with overlap
     ethr =  2.59E-10,  avg # of iterations =  1.8

     negative rho (up, down):  2.829E-03 0.000E+00

     total cpu time spent up to now is      347.2 secs

     total energy              =  -27799.15854561 Ry
     estimated scf accuracy    <       0.00000061 Ry

     iteration # 20     ecut=    40.00 Ry     beta= 0.70
     Davidson diagonalization with overlap
     ethr =  1.66E-10,  avg # of iterations =  2.0

     negative rho (up, down):  2.962E-03 0.000E+00

     total cpu time spent up to now is      361.4 secs

     total energy              =  -27799.15854488 Ry
     estimated scf accuracy    <       0.00000016 Ry

     iteration # 21     ecut=    40.00 Ry     beta= 0.70
     Davidson diagonalization with overlap
     ethr =  4.27E-11,  avg # of iterations =  4.0

     negative rho (up, down):  2.985E-03 0.000E+00

     total cpu time spent up to now is      384.1 secs

     total energy              =  -27799.15854482 Ry
     estimated scf accuracy    <       0.00000009 Ry

     iteration # 22     ecut=    40.00 Ry     beta= 0.70
     Davidson diagonalization with overlap
     ethr =  2.51E-11,  avg # of iterations =  2.5

     negative rho (up, down):  3.004E-03 0.000E+00

     total cpu time spent up to now is      398.4 secs

     total energy              =  -27799.15854473 Ry
     estimated scf accuracy    <       0.00000002 Ry

     iteration # 23     ecut=    40.00 Ry     beta= 0.70
     Davidson diagonalization with overlap
     ethr =  5.68E-12,  avg # of iterations =  2.3

     negative rho (up, down):  3.025E-03 0.000E+00

     total cpu time spent up to now is      412.5 secs

     total energy              =  -27799.15854461 Ry
     estimated scf accuracy    <       0.00000001 Ry

     iteration # 24     ecut=    40.00 Ry     beta= 0.70
     Davidson diagonalization with overlap
     ethr =  2.72E-12,  avg # of iterations =  2.2

     negative rho (up, down):  3.020E-03 0.000E+00

     total cpu time spent up to now is      426.4 secs

     total energy              =  -27799.15854464 Ry
     estimated scf accuracy    <       0.00000001 Ry

     iteration # 25     ecut=    40.00 Ry     beta= 0.70
     Davidson diagonalization with overlap
     ethr =  2.72E-12,  avg # of iterations =  2.0

     negative rho (up, down):  3.023E-03 0.000E+00

     total cpu time spent up to now is      440.1 secs

     End of self-consistent calculation

          k = 0.0000 0.0000 0.0000 ( 42913 PWs)   bands (ev):

   -16.2958  -6.2323  -4.9939  -3.9916  -3.9154  -3.8533  -3.8391  -3.8213
    -3.8069  -3.7958  -3.7644  -3.6948  -3.3745  -3.2741  -3.2656  -3.2590
    -3.2556  -3.2325  -2.9588  -2.8129  -2.8048  -2.8027  -2.7885  -2.7866
    -2.7381  -2.5841  -2.5779  -2.5761  -2.5707  -2.5482  -2.4255  -2.3894
    -2.3758  -2.3740  -2.3665  -2.3650  -2.3400  -2.3347  -2.3203  -2.3109
    -2.2935  -2.2189  -2.1492  -1.8285  -1.7702  -1.7450  -1.7325  -1.7249
    -1.7040  -1.6824  -1.6678  -1.6504  -1.6236  -1.5069  -1.4768  -1.4675
    -1.3519  -1.1684  -1.0337  -0.9980  -0.9660  -0.9485  -0.9360  -0.8993
    -0.8731  -0.8036  -0.7747  -0.7438  -0.7406  -0.7320  -0.7093  -0.6958
    -0.6869  -0.6776  -0.6648  -0.6507  -0.6272  -0.6164  -0.6060  -0.5715
    -0.5693  -0.5600  -0.5447  -0.4905  -0.3938  -0.3656  -0.3420  -0.3089
    -0.2903  -0.2845  -0.2747  -0.2173  -0.2096  -0.2035  -0.1946  -0.1866
    -0.1831  -0.1677  -0.1435  -0.0931  -0.0920  -0.0489  -0.0481  -0.0233
     0.0364   0.0583   0.0866   0.1251   0.1933   0.3349   0.3994   0.4985
     0.5560   0.5762   0.5890   0.6022   0.6155   0.6275   0.6300   0.6619
     0.6743   0.6900   0.7428   0.7605   0.7778   0.8396   0.8784   0.8936
     0.9383   0.9686   0.9810   1.0128   1.0240   1.0872   1.1048   1.1131
     1.2066   1.2365   1.3253   1.3444   1.3555   1.3607   1.3707   1.4052
     1.4377   1.5713   1.5784   1.6067   1.6257   1.6361   1.6607   1.6696
     1.7340   1.7440   1.7696   1.7810   1.7889   1.8119   1.8130   1.8161
     1.8363   1.8440   1.8841   1.8928   1.9078   1.9337   1.9461   1.9527
     1.9550   2.0156   2.0197   2.0298   2.0429   2.0516   2.0557   2.0729
     2.0807   2.0912   2.1470   2.1613   2.1658   2.1728   2.1853   2.1916
     2.1946   2.2060   2.2538   2.2922   2.3111   2.3248   2.3330   2.4352
     2.5379   2.5625   2.5705   2.6010   2.6037   2.6177   2.6311   2.7332
     2.9717   3.4479   3.4837   3.5025   3.5356   3.5792   4.2455   5.0801
     5.7678   5.7850   5.8335   5.8491   6.3216   7.0850   7.3591   7.3817
     7.4200   7.4328   7.4802   7.4959   7.5515

          k = 0.0000 0.2309 0.0000 ( 42996 PWs)   bands (ev):

   -16.2958  -6.0852  -4.8513  -4.3226  -4.0057  -3.9411  -3.8375  -3.7628
    -3.6837  -3.6210  -3.5963  -3.5416  -3.4262  -3.3533  -3.2590  -3.1915
    -3.1861  -3.1647  -2.9263  -2.8657  -2.7729  -2.7578  -2.7403  -2.7242
    -2.6881  -2.6634  -2.6271  -2.5951  -2.5742  -2.5434  -2.5056  -2.4773
    -2.4371  -2.3797  -2.3718  -2.3638  -2.3529  -2.2510  -2.1764  -2.1574
    -2.1319  -2.1087  -2.0739  -1.9150  -1.8723  -1.8518  -1.8220  -1.7948
    -1.7467  -1.7072  -1.6237  -1.5688  -1.5322  -1.4800  -1.4553  -1.4434
    -1.3853  -1.2758  -1.1715  -1.1196  -1.0987  -1.0829  -1.0538  -1.0050
    -0.9703  -0.9221  -0.9018  -0.8876  -0.8718  -0.8340  -0.8072  -0.7926
    -0.7675  -0.7529  -0.6743  -0.6413  -0.6301  -0.6030  -0.5568  -0.5444
    -0.5305  -0.5146  -0.4809  -0.4554  -0.4103  -0.3846  -0.3633  -0.3390
    -0.3175  -0.3005  -0.2795  -0.2725  -0.2658  -0.2239  -0.2150  -0.1874
    -0.1680  -0.1220  -0.1160  -0.0914  -0.0800  -0.0753  -0.0485   0.0403
     0.0533   0.0761   0.0856   0.1151   0.1309   0.1662   0.1888   0.1983
     0.2067   0.2223   0.2907   0.3717   0.4751   0.5294   0.5489   0.5741
     0.6103   0.6330   0.6659   0.6796   0.7153   0.7898   0.8363   0.8798
     0.9137   0.9558   0.9833   1.0238   1.0737   1.0854   1.1038   1.1196
     1.1515   1.1769   1.1922   1.2246   1.2393   1.2518   1.3104   1.4160
     1.4303   1.4607   1.4718   1.4902   1.5401   1.5781   1.5964   1.6192
     1.6311   1.6521   1.6944   1.7134   1.7221   1.7574   1.7687   1.8550
     1.8605   1.9126   1.9589   1.9704   2.0042   2.0148   2.0277   2.0395
     2.0737   2.1262   2.1419   2.1556   2.1876   2.2168   2.2248   2.2418
     2.2585   2.2671   2.2801   2.3298   2.3404   2.3550   2.4423   2.4664
     2.5029   2.5098   2.5163   2.5367   2.5397   2.5542   2.5941   2.6064
     2.6323   2.7190   2.7329   2.7460   2.8042   2.8894   2.9106   2.9423
     3.1696   3.2507   3.5551   3.8956   4.1277   4.1591   4.4619   5.0323
     5.3136   5.6498   6.1155   6.2545   6.2650   6.4518   6.7099   7.0589
     7.2327   7.2807   7.5471   7.5982   7.6262

          k = 0.0000 0.4619 0.0000 ( 43046 PWs)   bands (ev):

   -16.2958  -5.6618  -5.0253  -4.4555  -4.0413  -3.9704  -3.9167  -3.7800
    -3.5751  -3.4368  -3.3603  -3.3025  -3.2764  -3.2275  -3.1713  -3.0587
    -3.0142  -3.0013  -2.9818  -2.9084  -2.8693  -2.8392  -2.8117  -2.8001
    -2.7682  -2.7378  -2.7106  -2.6777  -2.6549  -2.5530  -2.4294  -2.4106
    -2.3940  -2.3840  -2.3746  -2.3244  -2.1651  -2.1541  -2.1478  -2.1315
    -2.1096  -2.0561  -1.9692  -1.8838  -1.8417  -1.8272  -1.7989  -1.7823
    -1.7352  -1.6965  -1.6710  -1.6467  -1.6307  -1.5514  -1.4966  -1.4654
    -1.4518  -1.4135  -1.3588  -1.3078  -1.2951  -1.2636  -1.2308  -1.1529
    -1.0820  -1.0649  -1.0050  -0.9900  -0.9689  -0.9578  -0.9223  -0.8647
    -0.8197  -0.7654  -0.7406  -0.6955  -0.6661  -0.6503  -0.6335  -0.6213
    -0.6027  -0.5808  -0.5602  -0.5434  -0.5309  -0.4988  -0.4875  -0.4654
    -0.4316  -0.4057  -0.3933  -0.3726  -0.3412  -0.3291  -0.3192  -0.2974
    -0.1894  -0.1667  -0.1558  -0.1168  -0.0946  -0.0711  -0.0389  -0.0262
     0.0303   0.0705   0.0866   0.1025   0.1298   0.1874   0.2032   0.2311
     0.3113   0.3403   0.3550   0.4440   0.4742   0.4880   0.5188   0.5360
     0.5487   0.5761   0.5956   0.6333   0.6571   0.6684   0.6972   0.7127
     0.7385   0.7634   0.8003   0.8338   0.8904   0.9243   0.9584   0.9714
     1.0007   1.0726   1.1366   1.1487   1.2008   1.2250   1.2853   1.3470
     1.3810   1.4302   1.4442   1.4579   1.4724   1.4942   1.5516   1.5618
     1.5939   1.6152   1.6479   1.6759   1.7469   1.7545   1.7731   1.7928
     1.8299   1.8731   1.9737   1.9979   2.0145   2.0379   2.0625   2.0720
     2.1067   2.1581   2.1742   2.2203   2.2755   2.2927   2.3364   2.3589
     2.3775   2.3906   2.4222   2.4722   2.4834   2.5027   2.5182   2.5290
     2.5468   2.5580   2.6945   2.7201   2.7341   2.7439   2.7920   2.9203
     2.9843   2.9938   3.1940   3.4437   3.5334   3.7610   3.8207   3.8401
     4.1786   4.2182   4.3353   4.5268   4.8173   5.0311   5.0470   5.0842
     5.2621   5.3396   5.3640   5.6042   5.6824   5.7447   6.1813   6.3369
     6.7026   6.9269   7.0777   7.4303   7.5771

          k = 0.2000-0.1155 0.0000 ( 42996 PWs)   bands (ev):

   -16.2958  -6.0862  -4.8521  -4.3528  -3.9900  -3.9201  -3.8390  -3.7627
    -3.6870  -3.6474  -3.5759  -3.5308  -3.4125  -3.3436  -3.2778  -3.2051
    -3.1948  -3.1798  -2.9337  -2.8316  -2.7812  -2.7606  -2.7547  -2.7265
    -2.6699  -2.6575  -2.6290  -2.5913  -2.5774  -2.5715  -2.5174  -2.4517
    -2.4400  -2.4114  -2.3769  -2.3587  -2.3514  -2.2549  -2.1664  -2.1554
    -2.1277  -2.1015  -2.0443  -1.8843  -1.8509  -1.8396  -1.8026  -1.7911
    -1.7851  -1.7108  -1.6233  -1.5708  -1.5211  -1.4872  -1.4675  -1.4413
    -1.3858  -1.2556  -1.1350  -1.1130  -1.0727  -1.0496  -1.0231  -0.9952
    -0.9856  -0.9454  -0.9251  -0.8890  -0.8759  -0.8392  -0.7974  -0.7776
    -0.7505  -0.7419  -0.7104  -0.6947  -0.6514  -0.6323  -0.5688  -0.5384
    -0.5089  -0.4801  -0.4656  -0.4558  -0.4315  -0.4122  -0.3613  -0.3434
    -0.3034  -0.2900  -0.2651  -0.2630  -0.2359  -0.2208  -0.2058  -0.1919
    -0.1805  -0.1385  -0.1190  -0.1078  -0.0860  -0.0765  -0.0594   0.0129
     0.0568   0.0738   0.0784   0.0992   0.1324   0.1643   0.1813   0.2054
     0.2122   0.2190   0.2846   0.3807   0.4695   0.5466   0.5646   0.5787
     0.6085   0.6260   0.6545   0.6753   0.6920   0.7649   0.8087   0.8505
     0.9197   0.9375   0.9769   1.0128   1.0411   1.0726   1.0859   1.1054
     1.1335   1.1806   1.1958   1.2251   1.2403   1.2714   1.3310   1.4003
     1.4313   1.4633   1.4784   1.5050   1.5402   1.5656   1.6005   1.6201
     1.6400   1.6845   1.6970   1.7176   1.7360   1.7645   1.8018   1.8514
     1.8677   1.9225   1.9383   1.9606   1.9773   2.0046   2.0224   2.0370
     2.0889   2.1068   2.1262   2.1530   2.1711   2.2053   2.2323   2.2566
     2.2653   2.2758   2.2914   2.3037   2.3244   2.3427   2.4209   2.4492
     2.4887   2.5225   2.5309   2.5611   2.5734   2.5946   2.6049   2.6396
     2.6564   2.7134   2.7241   2.7409   2.7993   2.9110   2.9135   2.9632
     3.1671   3.2885   3.5937   3.8821   4.0882   4.1668   4.4374   5.0275
     5.3182   5.6745   6.1291   6.2539   6.2577   6.4699   6.6743   7.0652
     7.2069   7.2672   7.5632   7.6163   7.6450

          k = 0.2000 0.1155 0.0000 ( 42996 PWs)   bands (ev):

   -16.2958  -6.0854  -4.8518  -4.3288  -4.0029  -3.9279  -3.8510  -3.7595
    -3.6842  -3.6241  -3.5849  -3.5441  -3.4407  -3.3477  -3.2417  -3.2048
    -3.1894  -3.1611  -2.9402  -2.8611  -2.7711  -2.7577  -2.7394  -2.7205
    -2.6883  -2.6587  -2.6237  -2.5982  -2.5745  -2.5464  -2.5098  -2.4711
    -2.4401  -2.3795  -2.3782  -2.3589  -2.3511  -2.2584  -2.1721  -2.1564
    -2.1428  -2.0978  -2.0793  -1.9269  -1.8768  -1.8484  -1.8044  -1.7749
    -1.7541  -1.7197  -1.5934  -1.5664  -1.5401  -1.5083  -1.4555  -1.4303
    -1.3757  -1.2688  -1.1773  -1.1314  -1.0794  -1.0515  -1.0408  -1.0207
    -0.9647  -0.9323  -0.9002  -0.8929  -0.8625  -0.8323  -0.8126  -0.7948
    -0.7784  -0.7644  -0.7100  -0.6529  -0.6284  -0.6059  -0.5484  -0.5441
    -0.5258  -0.4876  -0.4653  -0.4461  -0.4231  -0.3694  -0.3642  -0.3449
    -0.3247  -0.3105  -0.2918  -0.2765  -0.2395  -0.2154  -0.2056  -0.1928
    -0.1821  -0.1378  -0.1118  -0.0899  -0.0861  -0.0655  -0.0354   0.0076
     0.0450   0.0661   0.0958   0.1261   0.1331   0.1516   0.1857   0.1983
     0.2059   0.2226   0.2890   0.3836   0.4666   0.5391   0.5634   0.6019
     0.6077   0.6342   0.6549   0.6823   0.7150   0.7523   0.8231   0.8448
     0.9206   0.9554   1.0116   1.0251   1.0498   1.0867   1.0948   1.1143
     1.1384   1.1771   1.1948   1.2219   1.2347   1.2681   1.3330   1.4053
     1.4278   1.4587   1.4750   1.5070   1.5245   1.5686   1.6109   1.6221
     1.6332   1.6770   1.6947   1.7022   1.7441   1.7617   1.7907   1.8434
     1.8625   1.9141   1.9333   1.9619   1.9848   2.0073   2.0260   2.0720
     2.0882   2.1229   2.1404   2.1457   2.1851   2.2166   2.2246   2.2444
     2.2640   2.2690   2.2777   2.2964   2.3418   2.3569   2.4615   2.4748
     2.4887   2.5119   2.5229   2.5284   2.5530   2.5719   2.5785   2.6100
     2.6324   2.7108   2.7313   2.7441   2.8796   2.9013   2.9227   2.9579
     2.9907   3.3165   3.6349   3.8095   4.1215   4.2154   4.4862   4.8646
     5.4134   5.7411   6.0500   6.2507   6.2639   6.4495   6.7019   7.0236
     7.2292   7.2674   7.5659   7.6120   7.6417

          k = 0.2000 0.3464 0.0000 ( 43046 PWs)   bands (ev):

   -16.2958  -5.7989  -4.6065  -4.5695  -4.5542  -3.9166  -3.6228  -3.5026
    -3.4801  -3.4695  -3.4554  -3.4353  -3.4217  -3.4012  -3.3053  -3.2966
    -3.0225  -2.9112  -2.9018  -2.8827  -2.8332  -2.8164  -2.7364  -2.6934
    -2.6831  -2.6744  -2.6583  -2.6348  -2.5751  -2.5328  -2.5299  -2.5188
    -2.4812  -2.4236  -2.4008  -2.3860  -2.3455  -2.2530  -2.1970  -2.0394
    -2.0012  -1.9503  -1.9346  -1.9093  -1.8976  -1.8743  -1.8611  -1.8033
    -1.7680  -1.6470  -1.6444  -1.5874  -1.5576  -1.5029  -1.4769  -1.4567
    -1.4457  -1.3925  -1.3435  -1.2466  -1.2177  -1.2020  -1.1540  -1.1214
    -1.1108  -1.0704  -1.0068  -0.9746  -0.9650  -0.9390  -0.8688  -0.8252
    -0.8041  -0.7642  -0.7549  -0.7259  -0.7168  -0.6749  -0.6424  -0.6173
    -0.5777  -0.5297  -0.5252  -0.5062  -0.4890  -0.4544  -0.4176  -0.3951
    -0.3724  -0.3562  -0.3334  -0.3191  -0.2836  -0.2433  -0.2211  -0.2041
    -0.1805  -0.1519  -0.1319  -0.1200  -0.1095  -0.0922  -0.0515  -0.0447
    -0.0408  -0.0132   0.0196   0.0345   0.0402   0.1022   0.1322   0.1602
     0.1886   0.2589   0.2993   0.3526   0.3851   0.4671   0.4855   0.5085
     0.5935   0.6204   0.6393   0.6617   0.6773   0.7081   0.7393   0.7506
     0.7749   0.7988   0.8239   0.8509   0.9549   1.0309   1.0540   1.0695
     1.0849   1.1266   1.1731   1.1869   1.2236   1.2654   1.2840   1.3159
     1.3531   1.3964   1.4451   1.4617   1.4970   1.5217   1.5510   1.5693
     1.5863   1.5913   1.6138   1.6209   1.6337   1.6992   1.7131   1.7923
     1.8389   1.9117   1.9478   2.0120   2.0448   2.0939   2.1533   2.1742
     2.2068   2.2378   2.2528   2.2956   2.3082   2.3318   2.3440   2.3650
     2.3734   2.3904   2.4049   2.4302   2.4489   2.4973   2.5405   2.5589
     2.5699   2.5817   2.6410   2.6730   2.7106   2.7528   2.7873   2.8360
     2.8948   2.9058   3.0399   3.0521   3.1871   3.4793   3.5927   3.6345
     3.9930   4.0822   4.1035   4.2684   4.4777   4.8311   4.9774   5.0465
     5.0792   5.2735   5.7237   5.9724   6.2367   6.3623   6.5115   6.5567
     6.9713   7.0375   7.0558   7.1087   7.2477

          k = 0.2000-0.5774 0.0000 ( 43014 PWs)   bands (ev):

   -16.2958  -5.2722  -5.2563  -4.6664  -4.1423  -4.0860  -3.8400  -3.5628
    -3.4692  -3.3550  -3.3183  -3.2391  -3.2075  -3.1043  -3.0836  -3.0343
    -3.0032  -2.9913  -2.9544  -2.9447  -2.9306  -2.9232  -2.8791  -2.7687
    -2.7564  -2.7493  -2.7001  -2.6829  -2.6191  -2.5417  -2.5270  -2.4809
    -2.4145  -2.3967  -2.3613  -2.3455  -2.3014  -2.2809  -2.2483  -2.1503
    -2.0980  -1.9619  -1.9504  -1.9180  -1.8661  -1.7936  -1.7637  -1.7189
    -1.6489  -1.6019  -1.5654  -1.5404  -1.5178  -1.5010  -1.4547  -1.4358
    -1.3955  -1.3611  -1.3458  -1.3313  -1.3207  -1.2916  -1.2518  -1.2283
    -1.2052  -1.1451  -1.1098  -1.0710  -1.0304  -0.9675  -0.9449  -0.9349
    -0.8552  -0.8243  -0.7975  -0.7886  -0.7612  -0.7429  -0.7245  -0.6989
    -0.6663  -0.6323  -0.6220  -0.5971  -0.5566  -0.5314  -0.4560  -0.4216
    -0.4108  -0.3737  -0.3500  -0.2995  -0.2815  -0.2597  -0.2249  -0.2016
    -0.1893  -0.1670  -0.1532  -0.1350  -0.1155  -0.1015  -0.0769  -0.0424
    -0.0291  -0.0046   0.0029   0.0083   0.0372   0.0515   0.0728   0.0922
     0.1390   0.3068   0.3428   0.3719   0.3883   0.4102   0.4804   0.5005
     0.5250   0.5547   0.5734   0.6126   0.6274   0.6656   0.6784   0.7247
     0.7435   0.7833   0.8361   0.8546   0.9039   0.9625   1.0207   1.0470
     1.0943   1.1155   1.1464   1.1746   1.2044   1.2422   1.2615   1.2883
     1.3211   1.3490   1.3649   1.3925   1.4373   1.4693   1.4943   1.5263
     1.5349   1.5659   1.5871   1.6004   1.6744   1.7049   1.7640   1.8584
     1.9112   1.9368   1.9627   1.9856   2.0218   2.1166   2.1335   2.1694
     2.2113   2.2659   2.2856   2.3161   2.3358   2.3495   2.3599   2.3921
     2.4065   2.4532   2.4770   2.5078   2.5300   2.5559   2.5680   2.5748
     2.6276   2.7158   2.7236   2.7288   2.7641   2.7972   2.8222   2.8420
     2.9568   3.0831   3.3086   3.7125   3.9267   3.9337   4.1642   4.2880
     4.3003   4.3534   4.4290   4.6956   4.9371   4.9552   5.2452   5.3963
     5.5060   5.5281   5.5675   5.5891   5.7079   5.8475   6.0133   6.1949
     6.3780   6.4557   6.7207   7.0057   7.0908

          k = 0.2000-0.3464 0.0000 ( 43046 PWs)   bands (ev):

   -16.2958  -5.8010  -4.5994  -4.5783  -4.5644  -3.9177  -3.6094  -3.5120
    -3.5035  -3.4778  -3.4563  -3.4317  -3.4082  -3.3629  -3.3123  -3.2903
    -3.0552  -2.9339  -2.9037  -2.8935  -2.8494  -2.8096  -2.7297  -2.7053
    -2.6936  -2.6657  -2.6487  -2.6230  -2.5397  -2.5315  -2.5188  -2.4965
    -2.4840  -2.4362  -2.4078  -2.3870  -2.3486  -2.2836  -2.2163  -2.0432
    -1.9495  -1.9357  -1.9222  -1.9121  -1.8741  -1.8551  -1.8304  -1.8028
    -1.7568  -1.6876  -1.6488  -1.6148  -1.5177  -1.5093  -1.4866  -1.4535
    -1.4196  -1.3782  -1.3526  -1.2561  -1.2140  -1.1647  -1.1585  -1.1138
    -1.0603  -1.0243  -1.0164  -0.9883  -0.9618  -0.9291  -0.8941  -0.8355
    -0.7957  -0.7811  -0.7498  -0.7361  -0.7215  -0.6852  -0.6501  -0.6100
    -0.5670  -0.5212  -0.5152  -0.4890  -0.4695  -0.4464  -0.4311  -0.4090
    -0.3998  -0.3832  -0.3761  -0.3323  -0.2718  -0.2476  -0.2337  -0.2214
    -0.1909  -0.1609  -0.1500  -0.1289  -0.1075  -0.0778  -0.0662  -0.0490
    -0.0388   0.0003   0.0175   0.0346   0.0707   0.1090   0.1297   0.1518
     0.1946   0.2232   0.2607   0.3052   0.3884   0.4477   0.4864   0.5290
     0.5841   0.5949   0.6450   0.6603   0.6866   0.7066   0.7248   0.7495
     0.7757   0.8121   0.8519   0.8839   0.9529   1.0080   1.0396   1.0526
     1.0903   1.1077   1.1353   1.1829   1.2092   1.2487   1.2946   1.3217
     1.3589   1.3789   1.4169   1.4942   1.5006   1.5248   1.5509   1.5778
     1.5927   1.6094   1.6228   1.6460   1.6570   1.6859   1.7227   1.8053
     1.8384   1.9280   1.9491   1.9676   2.0454   2.1175   2.1521   2.1788
     2.1917   2.2136   2.2792   2.2836   2.3063   2.3172   2.3460   2.3541
     2.3577   2.3816   2.4023   2.4458   2.4516   2.4939   2.4988   2.5588
     2.5691   2.5939   2.6185   2.6881   2.7498   2.8002   2.8404   2.8764
     2.8986   2.9138   3.0082   3.0366   3.1026   3.5259   3.5930   3.6927
     3.9672   4.1025   4.1547   4.1730   4.5450   4.8195   4.9621   5.0570
     5.1044   5.3427   5.7247   5.9019   6.2402   6.2754   6.4818   6.7619
     6.9546   7.0053   7.0650   7.0836   7.2698

          k = 0.4000-0.2309 0.0000 ( 43046 PWs)   bands (ev):

   -16.2958  -5.6661  -5.0375  -4.4585  -4.0339  -3.9592  -3.9139  -3.7742
    -3.6130  -3.4356  -3.3722  -3.3156  -3.2891  -3.1975  -3.1643  -3.0837
    -3.0258  -3.0110  -2.9891  -2.9349  -2.8608  -2.8202  -2.8166  -2.8028
    -2.7837  -2.7728  -2.6976  -2.6764  -2.6428  -2.5661  -2.4195  -2.3893
    -2.3765  -2.3701  -2.3494  -2.3180  -2.1549  -2.1424  -2.1373  -2.1183
    -2.0981  -2.0301  -1.9127  -1.8801  -1.8415  -1.8217  -1.7942  -1.7841
    -1.7353  -1.6878  -1.6682  -1.6480  -1.6251  -1.5870  -1.4836  -1.4392
    -1.4296  -1.4100  -1.3277  -1.2692  -1.2280  -1.2062  -1.1695  -1.1389
    -1.0750  -1.0598  -1.0389  -1.0159  -0.9914  -0.9471  -0.9317  -0.8710
    -0.8546  -0.8445  -0.8154  -0.7512  -0.6875  -0.6531  -0.6216  -0.6070
    -0.5937  -0.5730  -0.5447  -0.5291  -0.5191  -0.5096  -0.4932  -0.4751
    -0.4357  -0.4211  -0.3827  -0.3466  -0.3238  -0.3058  -0.2917  -0.2634
    -0.2178  -0.1999  -0.1678  -0.1614  -0.1435  -0.0957  -0.0687  -0.0579
     0.0086   0.0352   0.0785   0.1174   0.1500   0.1805   0.2072   0.2446
     0.2877   0.3549   0.3591   0.4331   0.4586   0.4843   0.5051   0.5191
     0.5632   0.5972   0.6299   0.6437   0.6553   0.6624   0.6796   0.6927
     0.7026   0.7354   0.8184   0.8452   0.8759   0.8906   0.9074   0.9445
     0.9822   1.0588   1.0905   1.1323   1.1933   1.2310   1.3053   1.3730
     1.3919   1.4020   1.4246   1.4637   1.4908   1.5197   1.5496   1.5841
     1.6071   1.6366   1.6613   1.6909   1.7502   1.7622   1.7817   1.7846
     1.8224   1.8936   1.9319   1.9949   2.0100   2.0270   2.0405   2.0588
     2.1139   2.1534   2.1750   2.1984   2.2582   2.2841   2.3045   2.3274
     2.3512   2.3902   2.4384   2.4843   2.5005   2.5241   2.5296   2.5630
     2.5936   2.5950   2.7110   2.7254   2.7745   2.8030   2.8119   2.9080
     2.9821   3.0053   3.2309   3.4235   3.5062   3.7665   3.8238   3.8394
     4.1773   4.2056   4.3322   4.5992   4.8225   5.0380   5.0458   5.1467
     5.2136   5.3256   5.4011   5.6204   5.6861   5.7343   6.1578   6.4334
     6.6657   6.8948   7.0747   7.4270   7.6096

          k = 0.4000-0.0000 0.0000 ( 43046 PWs)   bands (ev):

   -16.2958  -5.8015  -4.6054  -4.5841  -4.5554  -3.9172  -3.6174  -3.5149
    -3.5026  -3.4746  -3.4495  -3.4288  -3.3985  -3.3748  -3.3052  -3.2959
    -3.0407  -2.9473  -2.9180  -2.8919  -2.8492  -2.8321  -2.7282  -2.7032
    -2.6890  -2.6633  -2.6428  -2.6076  -2.5408  -2.5282  -2.5072  -2.4989
    -2.4865  -2.4395  -2.4074  -2.3865  -2.3487  -2.2880  -2.2341  -2.0406
    -1.9833  -1.9379  -1.9283  -1.8925  -1.8781  -1.8466  -1.8208  -1.7914
    -1.7256  -1.6745  -1.6444  -1.6136  -1.5448  -1.5117  -1.4694  -1.4426
    -1.4220  -1.4044  -1.3190  -1.2593  -1.2233  -1.1851  -1.1231  -1.0682
    -1.0535  -1.0208  -0.9971  -0.9899  -0.9579  -0.9463  -0.9060  -0.8472
    -0.8099  -0.7885  -0.7753  -0.7548  -0.7135  -0.6962  -0.6587  -0.5982
    -0.5670  -0.5249  -0.5117  -0.4884  -0.4801  -0.4517  -0.4228  -0.4025
    -0.3943  -0.3818  -0.3606  -0.3218  -0.3088  -0.2490  -0.2390  -0.2268
    -0.1931  -0.1628  -0.1474  -0.1203  -0.1096  -0.0908  -0.0676  -0.0493
    -0.0315   0.0014   0.0204   0.0357   0.0571   0.1165   0.1343   0.1471
     0.1821   0.2367   0.2876   0.3016   0.3828   0.4497   0.4972   0.5187
     0.5550   0.6004   0.6251   0.6678   0.6798   0.6928   0.7224   0.7496
     0.7804   0.8056   0.8403   0.8752   0.9567   0.9931   1.0410   1.0608
     1.0968   1.1123   1.1500   1.1743   1.2405   1.2610   1.2789   1.3283
     1.3379   1.3803   1.4043   1.4912   1.5241   1.5403   1.5562   1.5943
     1.6027   1.6107   1.6218   1.6363   1.6600   1.6912   1.7377   1.7659
     1.8379   1.9043   1.9424   1.9999   2.0438   2.0740   2.1512   2.1664
     2.2088   2.2431   2.2784   2.3026   2.3064   2.3214   2.3356   2.3575
     2.3707   2.3791   2.3835   2.4297   2.4513   2.4900   2.5053   2.5537
     2.5676   2.5894   2.6299   2.6748   2.7518   2.8167   2.8486   2.8766
     2.8934   2.9090   3.0315   3.0427   3.1733   3.4631   3.5846   3.6043
     4.0081   4.1093   4.1538   4.2993   4.4798   4.8256   4.9799   5.0547
     5.0665   5.2670   5.7295   5.9887   6.2424   6.3850   6.4776   6.5836
     6.9444   7.0347   7.0536   7.0820   7.2727

          k = 0.4000 0.2309 0.0000 ( 43046 PWs)   bands (ev):

   -16.2958  -5.6626  -5.0281  -4.4562  -4.0319  -3.9694  -3.9282  -3.7843
    -3.5732  -3.4337  -3.3650  -3.3035  -3.2691  -3.2260  -3.1610  -3.0660
    -3.0268  -3.0092  -2.9815  -2.9087  -2.8753  -2.8401  -2.8165  -2.8010
    -2.7674  -2.7438  -2.7088  -2.6736  -2.6429  -2.5490  -2.4214  -2.4148
    -2.3928  -2.3813  -2.3603  -2.3361  -2.1726  -2.1537  -2.1444  -2.1224
    -2.1151  -2.0821  -1.9718  -1.8608  -1.8306  -1.8226  -1.7996  -1.7680
    -1.7483  -1.6966  -1.6666  -1.6472  -1.6119  -1.5677  -1.4870  -1.4619
    -1.4377  -1.4152  -1.3538  -1.3067  -1.2690  -1.2502  -1.2236  -1.1097
    -1.0806  -1.0441  -1.0230  -0.9879  -0.9808  -0.9396  -0.9248  -0.8820
    -0.8277  -0.7900  -0.7633  -0.7159  -0.6804  -0.6666  -0.6524  -0.6368
    -0.6029  -0.5924  -0.5593  -0.5335  -0.5245  -0.5193  -0.4961  -0.4819
    -0.4352  -0.4128  -0.3887  -0.3605  -0.3341  -0.3202  -0.3069  -0.2626
    -0.2201  -0.1724  -0.1489  -0.1276  -0.1004  -0.0843  -0.0411  -0.0037
     0.0215   0.0815   0.0965   0.1329   0.1477   0.1908   0.2072   0.2381
     0.2760   0.3413   0.3876   0.4001   0.4623   0.4938   0.5255   0.5404
     0.5716   0.5926   0.6108   0.6318   0.6489   0.6728   0.6881   0.7062
     0.7155   0.7613   0.7712   0.8600   0.8740   0.8990   0.9239   0.9583
     0.9953   1.0948   1.1255   1.1381   1.2073   1.2301   1.2775   1.3385
     1.4005   1.4028   1.4472   1.4661   1.4908   1.5063   1.5443   1.5643
     1.5802   1.6193   1.6409   1.7205   1.7426   1.7543   1.7695   1.7958
     1.8207   1.8451   1.9321   2.0108   2.0169   2.0502   2.0785   2.0856
     2.1512   2.1642   2.1809   2.2154   2.2695   2.2870   2.3152   2.3502
     2.3699   2.3863   2.4469   2.4624   2.4927   2.5073   2.5124   2.5331
     2.5549   2.5633   2.6952   2.7259   2.7369   2.7617   2.7930   2.9193
     2.9840   3.0089   3.1804   3.4431   3.5141   3.7889   3.8267   3.8909
     4.1581   4.2168   4.2662   4.5307   4.7833   5.0328   5.0447   5.0777
     5.2926   5.3529   5.3760   5.6576   5.6738   5.7660   6.0972   6.3255
     6.7434   6.9408   7.0825   7.4426   7.5692

          k = 0.4000-0.6928 0.0000 ( 43014 PWs)   bands (ev):

   -16.2958  -5.2697  -5.2614  -4.6637  -4.1649  -4.0527  -3.8627  -3.5635
    -3.4588  -3.3505  -3.3132  -3.2412  -3.2046  -3.1077  -3.0891  -3.0450
    -3.0088  -2.9810  -2.9684  -2.9534  -2.9366  -2.9142  -2.8651  -2.7741
    -2.7658  -2.7489  -2.6915  -2.6811  -2.6106  -2.5364  -2.5243  -2.4854
    -2.4097  -2.3943  -2.3706  -2.3345  -2.3127  -2.2807  -2.2468  -2.1496
    -2.1058  -1.9778  -1.9417  -1.9117  -1.8554  -1.7830  -1.7580  -1.7246
    -1.6429  -1.6078  -1.5736  -1.5479  -1.5320  -1.4692  -1.4558  -1.4236
    -1.3855  -1.3500  -1.3408  -1.3295  -1.3166  -1.2801  -1.2520  -1.2293
    -1.2003  -1.1142  -1.0983  -1.0707  -1.0474  -0.9758  -0.9420  -0.9196
    -0.8834  -0.8457  -0.8076  -0.7960  -0.7709  -0.7436  -0.7389  -0.7089
    -0.6869  -0.6408  -0.6141  -0.5890  -0.5533  -0.5176  -0.4538  -0.4429
    -0.4143  -0.3774  -0.3289  -0.3074  -0.2779  -0.2596  -0.2313  -0.1968
    -0.1896  -0.1687  -0.1551  -0.1318  -0.1198  -0.1037  -0.0714  -0.0485
    -0.0225  -0.0128   0.0020   0.0098   0.0179   0.0267   0.0774   0.1136
     0.1802   0.2889   0.3372   0.3708   0.3831   0.4506   0.4805   0.5023
     0.5358   0.5441   0.5880   0.6013   0.6388   0.6628   0.6849   0.7169
     0.7595   0.7693   0.8114   0.8670   0.8980   0.9158   1.0168   1.0515
     1.0868   1.1177   1.1316   1.1817   1.2233   1.2359   1.2727   1.2955
     1.3045   1.3248   1.3651   1.3832   1.4164   1.4697   1.5033   1.5219
     1.5284   1.5561   1.5939   1.6444   1.6866   1.7115   1.7712   1.8454
     1.9084   1.9536   1.9725   2.0038   2.0648   2.0886   2.1149   2.1460
     2.2190   2.2454   2.3000   2.3112   2.3324   2.3453   2.3608   2.3708
     2.4293   2.4677   2.4861   2.5078   2.5286   2.5487   2.5592   2.5721
     2.6275   2.7058   2.7294   2.7400   2.7582   2.7939   2.8328   2.8495
     2.9600   3.0871   3.3239   3.7477   3.9259   3.9375   4.1149   4.2600
     4.3017   4.3509   4.3769   4.8141   4.9385   4.9706   5.1917   5.3904
     5.4341   5.5168   5.5723   5.6769   5.7277   5.8467   5.9371   6.3029
     6.3739   6.4274   6.7760   6.9925   7.0707

          k = 0.4000-0.4619 0.0000 ( 43014 PWs)   bands (ev):

   -16.2958  -5.2828  -5.2577  -4.6562  -4.1365  -4.1028  -3.8295  -3.5702
    -3.5026  -3.3521  -3.3147  -3.2330  -3.1843  -3.1073  -3.1004  -3.0490
    -3.0243  -3.0032  -2.9661  -2.9571  -2.9187  -2.8940  -2.8618  -2.7936
    -2.7566  -2.7447  -2.7194  -2.6936  -2.6077  -2.5592  -2.5014  -2.4618
    -2.4029  -2.3929  -2.3625  -2.3501  -2.2957  -2.2622  -2.2240  -2.1125
    -2.0768  -1.9780  -1.9158  -1.9111  -1.8585  -1.8215  -1.7654  -1.7334
    -1.6673  -1.6234  -1.5812  -1.5567  -1.5050  -1.4478  -1.4397  -1.3963
    -1.3632  -1.3422  -1.3243  -1.3141  -1.2894  -1.2761  -1.2374  -1.2221
    -1.2048  -1.1692  -1.0935  -1.0669  -1.0118  -0.9833  -0.9620  -0.9023
    -0.8774  -0.8598  -0.8458  -0.8341  -0.7886  -0.7434  -0.7196  -0.7064
    -0.6795  -0.6479  -0.6221  -0.5693  -0.5353  -0.5137  -0.4577  -0.4268
    -0.3968  -0.3759  -0.3595  -0.3035  -0.2605  -0.2496  -0.2243  -0.2024
    -0.1975  -0.1884  -0.1760  -0.1630  -0.1522  -0.1440  -0.1026  -0.0649
    -0.0242  -0.0127   0.0150   0.0312   0.0458   0.0523   0.0578   0.0998
     0.1834   0.2104   0.3387   0.3662   0.3897   0.4189   0.4771   0.4860
     0.5298   0.5659   0.5929   0.6176   0.6385   0.6670   0.6895   0.7077
     0.7591   0.7677   0.8358   0.8682   0.8854   0.9376   0.9879   1.0301
     1.0566   1.1243   1.1545   1.1752   1.2135   1.2494   1.2705   1.2963
     1.3136   1.3403   1.3638   1.3815   1.4536   1.4600   1.4976   1.5274
     1.5368   1.5692   1.5783   1.6216   1.6738   1.7102   1.8066   1.8158
     1.9008   1.9496   1.9814   1.9979   2.0102   2.1095   2.1322   2.1713
     2.1916   2.2656   2.2788   2.2943   2.3215   2.3432   2.3544   2.3822
     2.4216   2.4783   2.4889   2.5034   2.5189   2.5306   2.5642   2.5811
     2.6171   2.7136   2.7370   2.7740   2.8049   2.8137   2.8426   2.8808
     2.9559   3.0760   3.3163   3.6946   3.9300   3.9342   4.1921   4.2670
     4.2970   4.3131   4.4201   4.7172   4.9488   4.9655   5.2394   5.4281
     5.4902   5.5300   5.5427   5.6036   5.8414   5.9428   6.0104   6.1640
     6.3584   6.4311   6.7012   6.9793   6.9957

     the Fermi energy is     2.5352 ev

!    total energy              =  -27799.15854462 Ry
     total all-electron energy =  -1326794.770852 Ry
     estimated scf accuracy    <          1.1E-09 Ry
     smearing contrib. (-TS)   =       0.00000925 Ry
     internal energy E=F+TS    =  -27799.15855388 Ry

     The total energy is F=E-TS. E is the sum of the following terms:
     one-electron contribution =  -20627.54987701 Ry
     hartree contribution      =   10625.21485433 Ry
     xc contribution           =    -899.12005004 Ry
     ewald contribution        =    8586.40735595 Ry
     one-center paw contrib.   =  -25484.11083711 Ry

     convergence has been achieved in  25 iterations

     negative rho (up, down):  3.023E-03 0.000E+00

     Forces acting on atoms (cartesian axes, Ry/au):

     atom    1 type  1   force =     0.00090011   -0.00135766   -0.01020553
     atom    2 type  1   force =     0.00151127   -0.00148741   -0.00454605
     atom    3 type  1   force =     0.00234180   -0.00127003   -0.00524916
     atom    4 type  1   force =     0.00126321   -0.00165423   -0.00587771
     atom    5 type  1   force =     0.00165322   -0.00124901   -0.00527013
     atom    6 type  1   force =     0.00195640   -0.00174580   -0.00554579
     atom    7 type  1   force =     0.00250469   -0.00071391   -0.00483368
     atom    8 type  1   force =     0.00068379   -0.00110224   -0.00894030
     atom    9 type  1   force =     0.00163471   -0.00102534   -0.00623434
     atom   10 type  1   force =    -0.00044379    0.00200987    0.00203038
     atom   11 type  1   force =    -0.00182781    0.00370989    0.01458254
     atom   12 type  1   force =    -0.00326098    0.00117010    0.00732437
     atom   13 type  1   force =     0.00109767    0.00093504    0.01232334
     atom   14 type  1   force =    -0.00459653    0.00335770    0.00580377
     atom   15 type  1   force =    -0.00124411    0.00187562    0.00308919
     atom   16 type  1   force =    -0.00120156   -0.00053599    0.00219229
     atom   17 type  1   force =    -0.00258051   -0.00018719   -0.00090850
     atom   18 type  1   force =    -0.00200114    0.00210234    0.00956341
     atom   19 type  1   force =    -0.00002592   -0.00002177   -0.00003836
     atom   20 type  1   force =     0.00004445   -0.00004804    0.00010847
     atom   21 type  1   force =    -0.00012011   -0.00009764    0.00027681
     atom   22 type  1   force =    -0.00001446   -0.00008259   -0.00011721
     atom   23 type  1   force =     0.00010876    0.00006274   -0.00025133
     atom   24 type  1   force =    -0.00000283   -0.00009583   -0.00002495
     atom   25 type  1   force =     0.00004193    0.00002804   -0.00006635
     atom   26 type  1   force =     0.00008984    0.00003178   -0.00001959
     atom   27 type  1   force =    -0.00000633   -0.00000913    0.00011165
     atom   28 type  1   force =     0.00007160   -0.00017464   -0.00003872
     atom   29 type  1   force =     0.00014127   -0.00009004    0.00016436
     atom   30 type  1   force =    -0.00005389   -0.00019420    0.00021784
     atom   31 type  1   force =     0.00000247   -0.00015468   -0.00011349
     atom   32 type  1   force =     0.00001346   -0.00031935   -0.00012475
     atom   33 type  1   force =    -0.00003289   -0.00023156    0.00001976
     atom   34 type  1   force =     0.00005914   -0.00019050   -0.00028483
     atom   35 type  1   force =     0.00005815   -0.00013131   -0.00017573
     atom   36 type  1   force =    -0.00000484   -0.00016913   -0.00006232
     atom   37 type  2   force =    -0.00167869    0.00374166   -0.00002987
     atom   38 type  3   force =    -0.00021825    0.00012510   -0.00036876
     atom   39 type  3   force =     0.00313670   -0.00481068    0.00151927
     The non-local contrib.  to forces
     atom    1 type  1   force =     0.00043678   -0.00008642   -0.01822585
     atom    2 type  1   force =    -0.00025336   -0.00058616   -0.01961917
     atom    3 type  1   force =    -0.00080506   -0.00012799   -0.01769694
     atom    4 type  1   force =    -0.00020709    0.00059126   -0.02013869
     atom    5 type  1   force =    -0.00041711    0.00030175   -0.01907312
     atom    6 type  1   force =     0.00006716    0.00105378   -0.01979257
     atom    7 type  1   force =     0.00002587    0.00010665   -0.01896787
     atom    8 type  1   force =    -0.00090283    0.00117982   -0.01955256
     atom    9 type  1   force =    -0.00005702   -0.00012614   -0.02266863
     atom   10 type  1   force =    -0.00067818    0.00400258   -0.00161697
     atom   11 type  1   force =    -0.00269428    0.00274007    0.00269430
     atom   12 type  1   force =    -0.00417541    0.00342008   -0.00059759
     atom   13 type  1   force =    -0.00264704    0.00208633    0.00234069
     atom   14 type  1   force =    -0.00320674   -0.00038236    0.00237579
     atom   15 type  1   force =    -0.00208944    0.00191127   -0.00183976
     atom   16 type  1   force =    -0.00492712    0.00088076   -0.00092094
     atom   17 type  1   force =     0.00048356    0.00276761   -0.00169035
     atom   18 type  1   force =    -0.00339093    0.00203190    0.00090242
     atom   19 type  1   force =     0.00155785    0.00313761    0.00797819
     atom   20 type  1   force =    -0.01422980   -0.00703528   -0.00570746
     atom   21 type  1   force =     0.01034597    0.00340489   -0.00220280
     atom   22 type  1   force =    -0.00278819   -0.00060886    0.00340366
     atom   23 type  1   force =     0.00064921    0.01531881   -0.00391748
     atom   24 type  1   force =     0.00249720    0.00098184    0.00609222
     atom   25 type  1   force =     0.01130991   -0.00797829    0.00133059
     atom   26 type  1   force =     0.00120271    0.00046540    0.01139302
     atom   27 type  1   force =    -0.00988813   -0.00788783    0.00158643
     atom   28 type  1   force =    -0.00248505   -0.00174380    0.02022212
     atom   29 type  1   force =     0.02156070    0.01323350    0.03275590
     atom   30 type  1   force =    -0.00362305    0.01131511   -0.12760794
     atom   31 type  1   force =     0.01939083   -0.00193671    0.02813656
     atom   32 type  1   force =    -0.00154715   -0.00955169   -0.07674699
     atom   33 type  1   force =    -0.01287864   -0.00752513    0.02214943
     atom   34 type  1   force =     0.00975211   -0.01486301    0.02936103
     atom   35 type  1   force =    -0.00527132   -0.01493059    0.02328979
     atom   36 type  1   force =     0.00563342    0.00157542    0.02156168
     atom   37 type  2   force =     2.02938018    0.52886757   -0.55395175
     atom   38 type  3   force =    -0.10103764   -0.02489717   -0.03984538
     atom   39 type  3   force =     0.00541075   -0.00432645   -0.04282649
     The ionic contribution  to forces
     atom    1 type  1   force =    -0.00667164   -0.00962383  -94.18814065
     atom    2 type  1   force =     0.01257457    0.01213660  -94.17163181
     atom    3 type  1   force =    -0.00631393    0.00719552  -94.16267612
     atom    4 type  1   force =     0.02148750    0.00160067  -94.18126822
     atom    5 type  1   force =    -0.00060782    0.00100224  -94.14338970
     atom    6 type  1   force =    -0.02113131   -0.00409762  -94.18261381
     atom    7 type  1   force =     0.00983959   -0.00613368  -94.15972140
     atom    8 type  1   force =    -0.01574440   -0.01094429  -94.17313319
     atom    9 type  1   force =     0.00559499    0.00958905  -94.18832523
     atom   10 type  1   force =     0.14191032    0.09904356  -33.11974163
     atom   11 type  1   force =    -0.03053618    0.10030654  -32.99390904
     atom   12 type  1   force =    -0.18756431    0.01188679  -33.09380138
     atom   13 type  1   force =     0.09360804    0.00717995  -33.01580114
     atom   14 type  1   force =    -0.18299987   -0.03511636  -32.99119789
     atom   15 type  1   force =    -0.00974397    0.05130148  -33.22034566
     atom   16 type  1   force =    -0.13362897   -0.14201033  -32.99825210
     atom   17 type  1   force =     0.02492738    0.07948719  -33.14382696
     atom   18 type  1   force =     0.00834838    0.07557212  -33.09123012
     atom   19 type  1   force =    -0.02154670   -0.07413010   27.99999159
     atom   20 type  1   force =    -0.06928063   -0.11563746   28.87250347
     atom   21 type  1   force =     0.06940969   -0.10947942   28.93738006
     atom   22 type  1   force =    -0.03454608    0.10150052   28.26497597
     atom   23 type  1   force =     0.06562187    0.20234240   28.90769707
     atom   24 type  1   force =    -0.01425628    0.06247430   28.09899823
     atom   25 type  1   force =     0.04394340   -0.01754597   28.65425285
     atom   26 type  1   force =    -0.05990314   -0.03194958   27.91002950
     atom   27 type  1   force =     0.05237801   -0.04908455   28.69986251
     atom   28 type  1   force =     0.28115149   -0.00049244   90.28748490
     atom   29 type  1   force =    -0.80334270   -0.97261482   88.99941271
     atom   30 type  1   force =     0.85090705   -1.31401420   88.83575090
     atom   31 type  1   force =    -1.10539285   -0.01727906   89.40035933
     atom   32 type  1   force =    -0.19659309    0.34716860   84.33026506
     atom   33 type  1   force =     1.40403056    0.19550495   88.86826714
     atom   34 type  1   force =    -0.45859987    0.73148648   89.43702473
     atom   35 type  1   force =     0.62333730    1.04078936   89.39661916
     atom   36 type  1   force =    -0.08743560   -0.27566697   90.31549155
     atom   37 type  2   force =    -3.59417176   -0.56054346   65.27052742
     atom   38 type  3   force =     3.28395394    0.87608811   11.53757003
     atom   39 type  3   force =     0.04698700   -0.26729226   12.19454188
     The local contribution  to forces
     atom    1 type  1   force =     0.00721386    0.00823134   94.17889636
     atom    2 type  1   force =    -0.01078609   -0.01303676   94.16962484
     atom    3 type  1   force =     0.00954325   -0.00837929   94.15792250
     atom    4 type  1   force =    -0.01991771   -0.00387578   94.17848107
     atom    5 type  1   force =     0.00278612   -0.00258947   94.14010866
     atom    6 type  1   force =     0.02303717    0.00128479   94.17979744
     atom    7 type  1   force =    -0.00735427    0.00519828   94.15678247
     atom    8 type  1   force =     0.01748878    0.00853579   94.16636917
     atom    9 type  1   force =    -0.00385636   -0.01052169   94.18784168
     atom   10 type  1   force =    -0.14124977   -0.10056208   33.12282097
     atom   11 type  1   force =     0.03120732   -0.09905167   33.00566356
     atom   12 type  1   force =     0.18789126   -0.01399774   33.10110251
     atom   13 type  1   force =    -0.08979398   -0.00828644   33.02566125
     atom   14 type  1   force =     0.18115257    0.03901215   32.99442525
     atom   15 type  1   force =     0.01045383   -0.05100423   33.22414923
     atom   16 type  1   force =     0.13687840    0.14023165   33.00132747
     atom   17 type  1   force =    -0.02801838   -0.08216202   33.14382959
     atom   18 type  1   force =    -0.00710894   -0.07522869   33.09919220
     atom   19 type  1   force =     0.01986218    0.07080785  -28.00622698
     atom   20 type  1   force =     0.08384913    0.12247974  -28.86555989
     atom   21 type  1   force =    -0.08013545    0.10588787  -28.93288409
     atom   22 type  1   force =     0.03741424   -0.10087449  -28.26716235
     atom   23 type  1   force =    -0.06573349   -0.21753352  -28.90317485
     atom   24 type  1   force =     0.01141691   -0.06353885  -28.10355749
     atom   25 type  1   force =    -0.05536221    0.02568699  -28.65403984
     atom   26 type  1   force =     0.05874901    0.03140826  -27.91988266
     atom   27 type  1   force =    -0.04209528    0.05706981  -28.69959201
     atom   28 type  1   force =    -0.27856031    0.00216896  -90.29193862
     atom   29 type  1   force =     0.78280060    0.96046853  -89.01553487
     atom   30 type  1   force =    -0.84533025    1.30113557  -88.71032205
     atom   31 type  1   force =     1.08723800    0.01909209  -89.41203001
     atom   32 type  1   force =     0.19759865   -0.33835878  -84.25582766
     atom   33 type  1   force =    -1.39171689   -0.18828505  -88.87465507
     atom   34 type  1   force =     0.44913160   -0.71802514  -89.45025772
     atom   35 type  1   force =    -0.61822235   -1.02661361  -89.40401284
     atom   36 type  1   force =     0.08191004    0.27387265  -90.32110345
     atom   37 type  2   force =     1.58225394    0.04047447  -64.72334637
     atom   38 type  3   force =    -3.18313363   -0.85106601  -11.49809117
     atom   39 type  3   force =    -0.04926070    0.26680807  -12.15019480
     The core correction contribution to forces
     atom    1 type  1   force =    -0.00008202    0.00011704    0.01726896
     atom    2 type  1   force =    -0.00002159   -0.00000274    0.01708590
     atom    3 type  1   force =    -0.00008131    0.00004371    0.01721132
     atom    4 type  1   force =    -0.00009782    0.00003309    0.01705496
     atom    5 type  1   force =    -0.00010275    0.00004099    0.01709744
     atom    6 type  1   force =    -0.00002332    0.00001580    0.01707025
     atom    7 type  1   force =    -0.00000237    0.00011434    0.01708508
     atom    8 type  1   force =    -0.00016041    0.00012095    0.01738359
     atom    9 type  1   force =    -0.00004821    0.00003310    0.01692522
     atom   10 type  1   force =    -0.00042061   -0.00047061    0.00056925
     atom   11 type  1   force =     0.00020058   -0.00027943    0.00013828
     atom   12 type  1   force =     0.00057680   -0.00014081    0.00061989
     atom   13 type  1   force =    -0.00006321   -0.00004108    0.00012755
     atom   14 type  1   force =     0.00044933   -0.00015849    0.00019621
     atom   15 type  1   force =     0.00013793   -0.00032728    0.00112632
     atom   16 type  1   force =     0.00046981    0.00035165    0.00003449
     atom   17 type  1   force =     0.00003018   -0.00028272    0.00077766
     atom   18 type  1   force =     0.00015374   -0.00027395    0.00070496
     atom   19 type  1   force =     0.00010264    0.00016570   -0.00179868
     atom   20 type  1   force =    -0.00028725    0.00015184   -0.00114918
     atom   21 type  1   force =     0.00025095    0.00008792   -0.00204217
     atom   22 type  1   force =    -0.00008840   -0.00009658   -0.00135720
     atom   23 type  1   force =    -0.00043774   -0.00007205   -0.00088232
     atom   24 type  1   force =     0.00034269   -0.00001353   -0.00158027
     atom   25 type  1   force =     0.00014384   -0.00014110   -0.00163415
     atom   26 type  1   force =     0.00004209    0.00010833   -0.00157867
     atom   27 type  1   force =    -0.00039430   -0.00010578   -0.00176922
     atom   28 type  1   force =    -0.00003935   -0.00010646   -0.01583455
     atom   29 type  1   force =    -0.00086922   -0.00117084   -0.01650223
     atom   30 type  1   force =    -0.00201061    0.00137162    0.00237348
     atom   31 type  1   force =    -0.00122796   -0.00002801   -0.01661417
     atom   32 type  1   force =     0.00055382    0.00041728    0.00214914
     atom   33 type  1   force =     0.00052848    0.00006933   -0.01577080
     atom   34 type  1   force =    -0.00022848    0.00120947   -0.01644878
     atom   35 type  1   force =     0.00021165    0.00061994   -0.01610219
     atom   36 type  1   force =    -0.00010555    0.00005227   -0.01604391
     atom   37 type  2   force =    -0.01913301   -0.00505756    0.00673408
     atom   38 type  3   force =     0.00000000    0.00000000    0.00000000
     atom   39 type  3   force =     0.00000000    0.00000000    0.00000000
     The Hubbard contrib.    to forces
     atom    1 type  1   force =     0.00000000    0.00000000    0.00000000
     atom    2 type  1   force =     0.00000000    0.00000000    0.00000000
     atom    3 type  1   force =     0.00000000    0.00000000    0.00000000
     atom    4 type  1   force =     0.00000000    0.00000000    0.00000000
     atom    5 type  1   force =     0.00000000    0.00000000    0.00000000
     atom    6 type  1   force =     0.00000000    0.00000000    0.00000000
     atom    7 type  1   force =     0.00000000    0.00000000    0.00000000
     atom    8 type  1   force =     0.00000000    0.00000000    0.00000000
     atom    9 type  1   force =     0.00000000    0.00000000    0.00000000
     atom   10 type  1   force =     0.00000000    0.00000000    0.00000000
     atom   11 type  1   force =     0.00000000    0.00000000    0.00000000
     atom   12 type  1   force =     0.00000000    0.00000000    0.00000000
     atom   13 type  1   force =     0.00000000    0.00000000    0.00000000
     atom   14 type  1   force =     0.00000000    0.00000000    0.00000000
     atom   15 type  1   force =     0.00000000    0.00000000    0.00000000
     atom   16 type  1   force =     0.00000000    0.00000000    0.00000000
     atom   17 type  1   force =     0.00000000    0.00000000    0.00000000
     atom   18 type  1   force =     0.00000000    0.00000000    0.00000000
     atom   19 type  1   force =     0.00000000    0.00000000    0.00000000
     atom   20 type  1   force =     0.00000000    0.00000000    0.00000000
     atom   21 type  1   force =     0.00000000    0.00000000    0.00000000
     atom   22 type  1   force =     0.00000000    0.00000000    0.00000000
     atom   23 type  1   force =     0.00000000    0.00000000    0.00000000
     atom   24 type  1   force =     0.00000000    0.00000000    0.00000000
     atom   25 type  1   force =     0.00000000    0.00000000    0.00000000
     atom   26 type  1   force =     0.00000000    0.00000000    0.00000000
     atom   27 type  1   force =     0.00000000    0.00000000    0.00000000
     atom   28 type  1   force =     0.00000000    0.00000000    0.00000000
     atom   29 type  1   force =     0.00000000    0.00000000    0.00000000
     atom   30 type  1   force =     0.00000000    0.00000000    0.00000000
     atom   31 type  1   force =     0.00000000    0.00000000    0.00000000
     atom   32 type  1   force =     0.00000000    0.00000000    0.00000000
     atom   33 type  1   force =     0.00000000    0.00000000    0.00000000
     atom   34 type  1   force =     0.00000000    0.00000000    0.00000000
     atom   35 type  1   force =     0.00000000    0.00000000    0.00000000
     atom   36 type  1   force =     0.00000000    0.00000000    0.00000000
     atom   37 type  2   force =     0.00000000    0.00000000    0.00000000
     atom   38 type  3   force =     0.00000000    0.00000000    0.00000000
     atom   39 type  3   force =     0.00000000    0.00000000    0.00000000
     The SCF correction term to forces
     atom    1 type  1   force =     0.00000000    0.00000000   -0.00000000
     atom    2 type  1   force =    -0.00000000    0.00000000   -0.00000000
     atom    3 type  1   force =    -0.00000000   -0.00000000   -0.00000000
     atom    4 type  1   force =    -0.00000000   -0.00000000   -0.00000000
     atom    5 type  1   force =    -0.00000000   -0.00000000   -0.00000000
     atom    6 type  1   force =     0.00000000   -0.00000000   -0.00000000
     atom    7 type  1   force =    -0.00000000    0.00000000   -0.00000000
     atom    8 type  1   force =     0.00000000    0.00000000   -0.00000000
     atom    9 type  1   force =     0.00000000    0.00000000   -0.00000000
     atom   10 type  1   force =    -0.00000000   -0.00000000    0.00000000
     atom   11 type  1   force =    -0.00000000   -0.00000000   -0.00000000
     atom   12 type  1   force =     0.00000000    0.00000000    0.00000000
     atom   13 type  1   force =    -0.00000000   -0.00000000   -0.00000000
     atom   14 type  1   force =     0.00000000    0.00000000    0.00000000
     atom   15 type  1   force =    -0.00000000   -0.00000000    0.00000000
     atom   16 type  1   force =     0.00000000    0.00000000    0.00000000
     atom   17 type  1   force =    -0.00000000    0.00000000    0.00000000
     atom   18 type  1   force =    -0.00000000    0.00000000   -0.00000000
     atom   19 type  1   force =    -0.00000179   -0.00000283    0.00002048
     atom   20 type  1   force =    -0.00000690   -0.00000688    0.00002448
     atom   21 type  1   force =     0.00000884    0.00000112    0.00002877
     atom   22 type  1   force =    -0.00000592   -0.00000317    0.00002566
     atom   23 type  1   force =     0.00000902    0.00000709    0.00002921
     atom   24 type  1   force =    -0.00000325    0.00000040    0.00002532
     atom   25 type  1   force =     0.00000711    0.00000641    0.00002715
     atom   26 type  1   force =    -0.00000073   -0.00000062    0.00002218
     atom   27 type  1   force =    -0.00000654   -0.00000077    0.00002689
     atom   28 type  1   force =     0.00000492   -0.00000089    0.00003038
     atom   29 type  1   force =    -0.00000800   -0.00000641    0.00003581
     atom   30 type  1   force =     0.00000308   -0.00000229    0.00002641
     atom   31 type  1   force =    -0.00000545   -0.00000298    0.00003776
     atom   32 type  1   force =     0.00000132    0.00000525    0.00003866
     atom   33 type  1   force =     0.00000371    0.00000435    0.00003201
     atom   34 type  1   force =     0.00000388    0.00000170    0.00003886
     atom   35 type  1   force =     0.00000298    0.00000360    0.00003331
     atom   36 type  1   force =    -0.00000703   -0.00000249    0.00003476
     atom   37 type  2   force =    -0.00000792    0.00000066    0.00000970
     atom   38 type  3   force =    -0.00000081    0.00000017    0.00000071
     atom   39 type  3   force =    -0.00000025   -0.00000003    0.00000164

     Total force =     0.007291     Total SCF correction =     0.000133

     Writing all to output data dir ./pwscf.save/

     init_run     :     10.75s CPU     11.35s WALL (       1 calls)
     electrons    :    406.77s CPU    428.72s WALL (       1 calls)
     forces       :      3.99s CPU      4.86s WALL (       1 calls)

     Called by init_run:
     wfcinit      :      5.89s CPU      6.21s WALL (       1 calls)
     potinit      :      3.22s CPU      3.38s WALL (       1 calls)
     hinit0       :      1.05s CPU      1.08s WALL (       1 calls)

     Called by electrons:
     c_bands      :    342.53s CPU    357.05s WALL (      26 calls)
     sum_band     :     40.23s CPU     43.18s WALL (      26 calls)
     v_of_rho     :     10.84s CPU     13.58s WALL (      26 calls)
     newd         :      3.75s CPU      4.82s WALL (      26 calls)
     PAW_pot      :      5.61s CPU      5.83s WALL (      26 calls)
     mix_rho      :      5.85s CPU      6.19s WALL (      26 calls)
     vdW_kernel   :      1.71s CPU      1.75s WALL (       1 calls)

     Called by c_bands:
     init_us_2    :      3.68s CPU      3.83s WALL (     702 calls)
     init_us_2:cp :      3.67s CPU      3.83s WALL (     702 calls)
     cegterg      :    333.17s CPU    347.13s WALL (     338 calls)

     Called by *egterg:
     cdiaghg      :     93.21s CPU     95.35s WALL (    1590 calls)
     h_psi        :    150.82s CPU    157.99s WALL (    1616 calls)
     s_psi        :     19.88s CPU     20.62s WALL (    1616 calls)
     g_psi        :      0.59s CPU      0.72s WALL (    1265 calls)

     Called by h_psi:
     h_psi:calbec :     24.33s CPU     25.88s WALL (    1616 calls)
     vloc_psi     :    105.11s CPU    109.80s WALL (    1616 calls)
     add_vuspsi   :     19.96s CPU     20.84s WALL (    1616 calls)

     General routines
     calbec       :     34.43s CPU     36.64s WALL (    2006 calls)
     fft          :      6.44s CPU      8.87s WALL (    1698 calls)
     ffts         :      3.15s CPU      3.31s WALL (    6946 calls)
     fftw         :    102.61s CPU    106.97s WALL (  428924 calls)
     interpolate  :      0.68s CPU      0.77s WALL (      26 calls)

     Parallel routines

     PWSCF        :   7m 4.81s CPU   7m31.35s WALL


   This run was terminated on:   5:36: 1  10Nov2025            

=------------------------------------------------------------------------------=
   JOB DONE.
=------------------------------------------------------------------------------=
