
     Program PWSCF v.7.1 starts on 23Feb2025 at 16:44:20 
        Git branch: heads/qe-7.1
        Last git commit: 48ba0178f8fede6d020eb786884699a9f063f55d-dirty
        Last git commit date: Fri Jan 27 14:22:33 2023 +0000
        Last git commit subject: Merge branch 'fix_hubbard' into 'develop'

     This program is part of the open-source Quantum ESPRESSO suite
     for quantum simulation of materials; please cite
         "P. Giannozzi et al., J. Phys.:Condens. Matter 21 395502 (2009);
         "P. Giannozzi et al., J. Phys.:Condens. Matter 29 465901 (2017);
         "P. Giannozzi et al., J. Chem. Phys. 152 154105 (2020);
          URL http://www.quantum-espresso.org", 
     in publications or presentations arising from this work. More details at
     http://www.quantum-espresso.org/quote

     Parallel version (MPI), running on    48 processors

     MPI processes distributed on     1 nodes
     252261 MiB available memory on the printing compute node when the environment starts

     Reading input from espresso.pwi
Warning: card &CELL ignored
Warning: card / ignored
Warning: card &FCP ignored
Warning: card / ignored
Warning: card &RISM ignored
Warning: card / ignored

     Current dimensions of program PWSCF are:
     Max number of different atomic species (ntypx) = 10
     Max number of k-points (npk) =  40000
     Max angular momentum in pseudopotentials (lmaxx) =  4
     file Pt.pbe-n-kjpaw_psl.1.0.0.UPF: wavefunction(s)  6S 5D renormalized
     file H.pbe-kjpaw_psl.1.0.0.UPF: wavefunction(s)  1S renormalized

     **************************************************************************
     Initializing libbeef V0.1.2 with the BEEF-vdW functional.
     Citation: Wellendorff et al., PRB 85, 235149 (2012).
     **************************************************************************


     IMPORTANT: XC functional enforced from input :
     Exchange-correlation= BEEF-VDW
                           (   1   4  43  14   2   0   0)
     Any further DFT definition will be discarded
     Please, verify this is what you really want


     R & G space division:  proc/nbgrp/npool/nimage =      48
     Subspace diagonalization in iterative solution of the eigenvalue problem:
     one sub-group per band group will be used
     custom distributed-memory algorithm (size of sub-group:  2*  2 procs)


     Parallelization info
     --------------------
     sticks:   dense  smooth     PW     G-vecs:    dense   smooth      PW
     Min         151      59     16                29407     7165    1028
     Max         152      60     17                29420     7176    1042
     Sum        7267    2839    769              1411785   344073   49691

     Using Slab Decomposition



     bravais-lattice index     =            0
     lattice parameter (alat)  =      16.0349  a.u.
     unit-cell volume          =   10068.6169 (a.u.)^3
     number of atoms/cell      =           37
     number of atomic types    =            2
     number of electrons       =       361.00
     number of Kohn-Sham states=          217
     kinetic-energy cutoff     =      40.0000  Ry
     charge density cutoff     =     410.0000  Ry
     scf convergence threshold =      1.0E-08
     mixing beta               =       0.7000
     number of iterations used =            8  local-TF  mixing
     Exchange-correlation= BEEF-VDW
                           (   1   4  43  14   2   0   0)

     celldm(1)=  16.034858  celldm(2)=   0.000000  celldm(3)=   0.000000
     celldm(4)=   0.000000  celldm(5)=   0.000000  celldm(6)=   0.000000

     crystal axes: (cart. coord. in units of alat)
               a(1) = (   1.000000   0.000000   0.000000 )  
               a(2) = (   0.500000   0.866025   0.000000 )  
               a(3) = (   0.000000   0.000000   2.819966 )  

     reciprocal axes: (cart. coord. in units 2 pi/alat)
               b(1) = (  1.000000 -0.577350  0.000000 )  
               b(2) = (  0.000000  1.154701  0.000000 )  
               b(3) = (  0.000000  0.000000  0.354614 )  


     PseudoPot. # 1 for Pt read from file:
     /users/kbadger1/espresso/pseudo/pslibrary.1.0.0/pbe/PSEUDOPOTENTIALS/Pt.pbe-n-kjpaw_psl.1.0.0.UPF
     MD5 check sum: 2e24a0b5bf98a4ed1a57fa81bca8c143
     Pseudo is Projector augmented-wave + core cor, Zval = 10.0
     Generated using 'atomic' code by A. Dal Corso  v.7.0
     Shape of augmentation charge: PSQ
     Using radial grid of 1277 points,  6 beta functions with: 
                l(1) =   0
                l(2) =   0
                l(3) =   1
                l(4) =   1
                l(5) =   2
                l(6) =   2
     Q(r) pseudized with 0 coefficients 


     PseudoPot. # 2 for H  read from file:
     /users/kbadger1/espresso/pseudo/pslibrary.1.0.0/pbe/PSEUDOPOTENTIALS/H.pbe-kjpaw_psl.1.0.0.UPF
     MD5 check sum: fe4c6fa958fa6d3815bf5d2419cbf1df
     Pseudo is Projector augmented-wave, Zval =  1.0
     Generated using 'atomic' code by A. Dal Corso  v.7.0
     Shape of augmentation charge: PSQ
     Using radial grid of  929 points,  2 beta functions with: 
                l(1) =   0
                l(2) =   0
     Q(r) pseudized with 0 coefficients 


     atomic species   valence    mass     pseudopotential
        Pt            10.00   195.08400     Pt( 1.00)
        H              1.00     1.00800     H ( 1.00)

     No symmetry found



   Cartesian axes

     site n.     atom                  positions (alat units)
         1           Pt  tau(   1) = (   0.0000000   0.0000000   1.0017346  )
         2           Pt  tau(   2) = (   0.3333333   0.0000000   1.0017346  )
         3           Pt  tau(   3) = (   0.6666667   0.0000000   1.0017346  )
         4           Pt  tau(   4) = (   0.1666667   0.2886751   1.0017346  )
         5           Pt  tau(   5) = (   0.5000000   0.2886751   1.0017346  )
         6           Pt  tau(   6) = (   0.8333333   0.2886751   1.0017346  )
         7           Pt  tau(   7) = (   0.3333333   0.5773503   1.0017346  )
         8           Pt  tau(   8) = (   0.6666667   0.5773503   1.0017346  )
         9           Pt  tau(   9) = (   1.0000000   0.5773503   1.0017346  )
        10           Pt  tau(  10) = (   0.1666667   0.0962250   1.2739001  )
        11           Pt  tau(  11) = (   0.5000000   0.0962250   1.2739001  )
        12           Pt  tau(  12) = (   0.8333333   0.0962250   1.2739001  )
        13           Pt  tau(  13) = (   0.3333333   0.3849002   1.2739001  )
        14           Pt  tau(  14) = (   0.6666667   0.3849002   1.2739001  )
        15           Pt  tau(  15) = (   1.0000000   0.3849002   1.2739001  )
        16           Pt  tau(  16) = (   0.5000000   0.6735753   1.2739001  )
        17           Pt  tau(  17) = (   0.8333333   0.6735753   1.2739001  )
        18           Pt  tau(  18) = (   1.1666667   0.6735753   1.2739001  )
        19           Pt  tau(  19) = (   0.0006276   0.1919837   1.5448420  )
        20           Pt  tau(  20) = (   0.3328713   0.1920046   1.5447037  )
        21           Pt  tau(  21) = (   0.6667511   0.1919518   1.5423608  )
        22           Pt  tau(  22) = (   0.1667810   0.4796480   1.5444860  )
        23           Pt  tau(  23) = (   0.4999773   0.4808516   1.5425361  )
        24           Pt  tau(  24) = (   0.8335218   0.4808562   1.5425347  )
        25           Pt  tau(  25) = (   0.3342279   0.7698597   1.5439172  )
        26           Pt  tau(  26) = (   0.6667108   0.7699787   1.5445259  )
        27           Pt  tau(  27) = (   0.9994716   0.7697648   1.5436864  )
        28           Pt  tau(  28) = (  -0.0022759  -0.0015462   1.8233804  )
        29           Pt  tau(  29) = (   0.3363005  -0.0017415   1.8224335  )
        30           Pt  tau(  30) = (   0.6668906  -0.0000922   1.8175180  )
        31           Pt  tau(  31) = (   0.1669275   0.2934381   1.8248214  )
        32           Pt  tau(  32) = (   0.5017572   0.2890909   1.8168462  )
        33           Pt  tau(  33) = (   0.8317660   0.2892091   1.8168358  )
        34           Pt  tau(  34) = (   0.3340255   0.5776935   1.8174425  )
        35           Pt  tau(  35) = (   0.6668437   0.5760460   1.8170213  )
        36           Pt  tau(  36) = (   0.9997183   0.5776419   1.8174341  )
        37           H   tau(  37) = (   0.1627212   0.1187866   1.9342630  )

     number of k points=    13  Marzari-Vanderbilt smearing, width (Ry)=  0.0200
                       cart. coord. in units 2pi/alat
        k(    1) = (   0.0000000   0.0000000   0.0000000), wk =   0.0800000
        k(    2) = (   0.0000000   0.2309401   0.0000000), wk =   0.1600000
        k(    3) = (   0.0000000   0.4618802   0.0000000), wk =   0.1600000
        k(    4) = (   0.2000000  -0.1154701   0.0000000), wk =   0.1600000
        k(    5) = (   0.2000000   0.1154701   0.0000000), wk =   0.1600000
        k(    6) = (   0.2000000   0.3464102   0.0000000), wk =   0.1600000
        k(    7) = (   0.2000000  -0.5773503   0.0000000), wk =   0.1600000
        k(    8) = (   0.2000000  -0.3464102   0.0000000), wk =   0.1600000
        k(    9) = (   0.4000000  -0.2309401   0.0000000), wk =   0.1600000
        k(   10) = (   0.4000000  -0.0000000   0.0000000), wk =   0.1600000
        k(   11) = (   0.4000000   0.2309401   0.0000000), wk =   0.1600000
        k(   12) = (   0.4000000  -0.6928203   0.0000000), wk =   0.1600000
        k(   13) = (   0.4000000  -0.4618802   0.0000000), wk =   0.1600000

     Dense  grid:  1411785 G-vectors     FFT dimensions: ( 108, 108, 300)

     Smooth grid:   344073 G-vectors     FFT dimensions: (  72,  72, 192)

     Estimated max dynamical RAM per process >     203.68 MB

     Estimated total dynamical RAM >       9.55 GB

     Initial potential from superposition of free atoms

     starting charge     360.9939, renormalised to     361.0000

     negative rho (up, down):  3.359E-03 0.000E+00


     %%%%%%%%%%%%%%%%%%%%%%%%%%%%%%%%%%%%%%%%%%%%%%%%%%%%%%%%%%%%%%%%%%%%%%%%
     %                                                                      %
     % You are using vdW-DF, which was implemented by the Thonhauser group. %
     % Please cite the following two papers that made this development      %
     % possible and the two reviews that describe the various versions:     %
     %                                                                      %
     %   T. Thonhauser et al., PRL 115, 136402 (2015).                      %
     %   T. Thonhauser et al., PRB 76, 125112 (2007).                       %
     %   K. Berland et al., Rep. Prog. Phys. 78, 066501 (2015).             %
     %   D.C. Langreth et al., J. Phys.: Condens. Matter 21, 084203 (2009). %
     %                                                                      %
     % If you are calculating stress with vdW-DF, please also cite:         %
     %                                                                      %
     %   R. Sabatini et al., J. Phys.: Condens. Matter 24, 424209 (2012).   %
     %                                                                      %
     %%%%%%%%%%%%%%%%%%%%%%%%%%%%%%%%%%%%%%%%%%%%%%%%%%%%%%%%%%%%%%%%%%%%%%%%

     %%%%%%%%%%%%%%%%%%%%%%%%%%%%%%%%%%%%%%%%%%%%%%%%%%%%%%%%%%%%%%%%%%%%%%%%
     %                                                                      %
     %  vdW-DF NEWS:                                                        %
     %                                                                      %
     %  * vdW-DF3 is now available. DOI: 10.1021/acs.jctc.0c00471           %
     %    use with input_dft = 'vdW-DF3-opt1' or 'vdW-DF3-opt2'             %
     %                                                                      %
     %  * Unscreened and range-separated hybrid vdW-DF-cx functionals       %
     %    DOI: 10.1063/1.4986522 and 10.1088/1361-648X/ac2ad2               %
     %    use with input_dft = 'vdW-DF-cx0'    and 'vdW-DF-ahcx'            %
     %  * Unscreened and range-separated hybrid vdW-DF2-b86r functionals    %
     %    DOI: 10.1063/1.4986522 and DOI: 10.1103/PhysRevX.12.041003        %
     %    use with input_dft = 'vdW-DF2-br0' and 'vdW-DF2-ahbr'             %
     %                                                                      %
     %%%%%%%%%%%%%%%%%%%%%%%%%%%%%%%%%%%%%%%%%%%%%%%%%%%%%%%%%%%%%%%%%%%%%%%%


     Starting wfcs are  325 randomized atomic wfcs
     Checking if some PAW data can be deallocated... 

     total cpu time spent up to now is       10.7 secs

     per-process dynamical memory:   207.6 Mb

     Self-consistent Calculation

     iteration #  1     ecut=    40.00 Ry     beta= 0.70
     Davidson diagonalization with overlap
     ethr =  1.00E-02,  avg # of iterations =  2.0

     Threshold (ethr) on eigenvalues was too large:
     Diagonalizing with lowered threshold

     Davidson diagonalization with overlap
     ethr =  3.69E-04,  avg # of iterations =  3.6

     negative rho (up, down):  1.756E-02 0.000E+00

     total cpu time spent up to now is       41.3 secs

     total energy              =  -27755.28666600 Ry
     estimated scf accuracy    <       1.52935215 Ry

     iteration #  2     ecut=    40.00 Ry     beta= 0.70
     Davidson diagonalization with overlap
     ethr =  4.24E-04,  avg # of iterations =  2.0

     negative rho (up, down):  1.574E-02 0.000E+00

     total cpu time spent up to now is       53.7 secs

     total energy              =  -27755.38473865 Ry
     estimated scf accuracy    <       0.79177687 Ry

     iteration #  3     ecut=    40.00 Ry     beta= 0.70
     Davidson diagonalization with overlap
     ethr =  2.19E-04,  avg # of iterations =  2.0

     negative rho (up, down):  1.035E-02 0.000E+00

     total cpu time spent up to now is       66.1 secs

     total energy              =  -27755.43562636 Ry
     estimated scf accuracy    <       0.08977357 Ry

     iteration #  4     ecut=    40.00 Ry     beta= 0.70
     Davidson diagonalization with overlap
     c_bands:  2 eigenvalues not converged
     c_bands:  1 eigenvalues not converged
     c_bands:  1 eigenvalues not converged
     c_bands:  1 eigenvalues not converged
     ethr =  2.49E-05,  avg # of iterations = 14.7

     negative rho (up, down):  7.471E-03 0.000E+00

     total cpu time spent up to now is       97.7 secs

     total energy              =  -27755.48453380 Ry
     estimated scf accuracy    <       0.07609298 Ry

     iteration #  5     ecut=    40.00 Ry     beta= 0.70
     Davidson diagonalization with overlap
     ethr =  2.11E-05,  avg # of iterations =  5.3

     negative rho (up, down):  3.351E-03 0.000E+00

     total cpu time spent up to now is      112.1 secs

     total energy              =  -27755.48440926 Ry
     estimated scf accuracy    <       0.02890339 Ry

     iteration #  6     ecut=    40.00 Ry     beta= 0.70
     Davidson diagonalization with overlap
     c_bands:  2 eigenvalues not converged
     c_bands:  1 eigenvalues not converged
     c_bands:  1 eigenvalues not converged
     c_bands:  1 eigenvalues not converged
     ethr =  8.01E-06,  avg # of iterations =  8.6

     negative rho (up, down):  1.627E-03 0.000E+00

     total cpu time spent up to now is      127.6 secs

     total energy              =  -27755.48645653 Ry
     estimated scf accuracy    <       0.00239234 Ry

     iteration #  7     ecut=    40.00 Ry     beta= 0.70
     Davidson diagonalization with overlap
     c_bands:  1 eigenvalues not converged
     c_bands:  1 eigenvalues not converged
     c_bands:  2 eigenvalues not converged
     c_bands:  1 eigenvalues not converged
     c_bands:  1 eigenvalues not converged
     c_bands:  1 eigenvalues not converged
     ethr =  6.63E-07,  avg # of iterations = 14.8

     negative rho (up, down):  1.264E-03 0.000E+00

     total cpu time spent up to now is      156.5 secs

     total energy              =  -27755.48692830 Ry
     estimated scf accuracy    <       0.00173587 Ry

     iteration #  8     ecut=    40.00 Ry     beta= 0.70
     Davidson diagonalization with overlap
     ethr =  4.81E-07,  avg # of iterations =  2.9

     negative rho (up, down):  1.105E-03 0.000E+00

     total cpu time spent up to now is      169.8 secs

     total energy              =  -27755.48707079 Ry
     estimated scf accuracy    <       0.00020802 Ry

     iteration #  9     ecut=    40.00 Ry     beta= 0.70
     Davidson diagonalization with overlap
     ethr =  5.76E-08,  avg # of iterations =  5.5

     negative rho (up, down):  8.956E-04 0.000E+00

     total cpu time spent up to now is      193.7 secs

     total energy              =  -27755.48717136 Ry
     estimated scf accuracy    <       0.00008831 Ry

     iteration # 10     ecut=    40.00 Ry     beta= 0.70
     Davidson diagonalization with overlap
     ethr =  2.45E-08,  avg # of iterations =  5.0

     negative rho (up, down):  8.718E-04 0.000E+00

     total cpu time spent up to now is      215.1 secs

     total energy              =  -27755.48719140 Ry
     estimated scf accuracy    <       0.00008236 Ry

     iteration # 11     ecut=    40.00 Ry     beta= 0.70
     Davidson diagonalization with overlap
     ethr =  2.28E-08,  avg # of iterations =  1.9

     negative rho (up, down):  9.589E-04 0.000E+00

     total cpu time spent up to now is      227.2 secs

     total energy              =  -27755.48719702 Ry
     estimated scf accuracy    <       0.00005150 Ry

     iteration # 12     ecut=    40.00 Ry     beta= 0.70
     Davidson diagonalization with overlap
     ethr =  1.43E-08,  avg # of iterations =  1.4

     negative rho (up, down):  1.188E-03 0.000E+00

     total cpu time spent up to now is      239.2 secs

     total energy              =  -27755.48720305 Ry
     estimated scf accuracy    <       0.00002027 Ry

     iteration # 13     ecut=    40.00 Ry     beta= 0.70
     Davidson diagonalization with overlap
     ethr =  5.61E-09,  avg # of iterations =  2.1

     negative rho (up, down):  1.666E-03 0.000E+00

     total cpu time spent up to now is      251.3 secs

     total energy              =  -27755.48720833 Ry
     estimated scf accuracy    <       0.00001121 Ry

     iteration # 14     ecut=    40.00 Ry     beta= 0.70
     Davidson diagonalization with overlap
     ethr =  3.10E-09,  avg # of iterations =  2.0

     negative rho (up, down):  1.927E-03 0.000E+00

     total cpu time spent up to now is      264.8 secs

     total energy              =  -27755.48721130 Ry
     estimated scf accuracy    <       0.00000680 Ry

     iteration # 15     ecut=    40.00 Ry     beta= 0.70
     Davidson diagonalization with overlap
     ethr =  1.88E-09,  avg # of iterations =  2.0

     negative rho (up, down):  2.778E-03 0.000E+00

     total cpu time spent up to now is      276.7 secs

     total energy              =  -27755.48720848 Ry
     estimated scf accuracy    <       0.00000579 Ry

     iteration # 16     ecut=    40.00 Ry     beta= 0.70
     Davidson diagonalization with overlap
     ethr =  1.60E-09,  avg # of iterations =  1.8

     negative rho (up, down):  2.890E-03 0.000E+00

     total cpu time spent up to now is      288.5 secs

     total energy              =  -27755.48720857 Ry
     estimated scf accuracy    <       0.00000062 Ry

     iteration # 17     ecut=    40.00 Ry     beta= 0.70
     Davidson diagonalization with overlap
     ethr =  1.71E-10,  avg # of iterations =  6.2

     negative rho (up, down):  2.976E-03 0.000E+00

     total cpu time spent up to now is      316.0 secs

     total energy              =  -27755.48720864 Ry
     estimated scf accuracy    <       0.00000054 Ry

     iteration # 18     ecut=    40.00 Ry     beta= 0.70
     Davidson diagonalization with overlap
     ethr =  1.50E-10,  avg # of iterations =  2.0

     negative rho (up, down):  3.010E-03 0.000E+00

     total cpu time spent up to now is      330.1 secs

     total energy              =  -27755.48720849 Ry
     estimated scf accuracy    <       0.00000016 Ry

     iteration # 19     ecut=    40.00 Ry     beta= 0.70
     Davidson diagonalization with overlap
     ethr =  4.42E-11,  avg # of iterations =  2.8

     negative rho (up, down):  3.099E-03 0.000E+00

     total cpu time spent up to now is      344.1 secs

     total energy              =  -27755.48720798 Ry
     estimated scf accuracy    <       0.00000007 Ry

     iteration # 20     ecut=    40.00 Ry     beta= 0.70
     Davidson diagonalization with overlap
     ethr =  1.93E-11,  avg # of iterations =  2.9

     negative rho (up, down):  3.141E-03 0.000E+00

     total cpu time spent up to now is      358.9 secs

     total energy              =  -27755.48720775 Ry
     estimated scf accuracy    <       0.00000002 Ry

     iteration # 21     ecut=    40.00 Ry     beta= 0.70
     Davidson diagonalization with overlap
     ethr =  5.62E-12,  avg # of iterations =  4.4

     negative rho (up, down):  3.146E-03 0.000E+00

     total cpu time spent up to now is      377.9 secs

     End of self-consistent calculation

          k = 0.0000 0.0000 0.0000 ( 42913 PWs)   bands (ev):

    -6.3040  -5.1910  -4.4660  -3.8884  -3.8706  -3.8700  -3.8618  -3.8459
    -3.8424  -3.8405  -3.5096  -3.3155  -3.3128  -3.3058  -3.3034  -3.3000
    -3.2133  -2.8596  -2.8561  -2.8374  -2.8366  -2.8307  -2.7470  -2.6276
    -2.6268  -2.6239  -2.6193  -2.6168  -2.5131  -2.4142  -2.4142  -2.3962
    -2.3959  -2.3846  -2.3809  -2.3682  -2.3582  -2.3575  -2.3321  -2.3294
    -1.9761  -1.7842  -1.7818  -1.7472  -1.7365  -1.7156  -1.7099  -1.6877
    -1.6863  -1.6813  -1.5438  -1.5434  -1.4504  -1.4394  -1.4290  -0.9763
    -0.9733  -0.9629  -0.9524  -0.9507  -0.8992  -0.8621  -0.7830  -0.7816
    -0.7768  -0.7634  -0.7606  -0.7516  -0.7488  -0.7261  -0.7198  -0.7136
    -0.7129  -0.7127  -0.6715  -0.6683  -0.6667  -0.5548  -0.5514  -0.5484
    -0.5412  -0.5366  -0.5349  -0.3714  -0.3563  -0.3555  -0.3444  -0.3397
    -0.3264  -0.3127  -0.3061  -0.2226  -0.2153  -0.1477  -0.1420  -0.1339
    -0.1135  -0.1076  -0.0869  -0.0819  -0.0269   0.0760   0.0769   0.0831
     0.0886   0.0959   0.0973   0.3388   0.5638   0.5795   0.5828   0.5910
     0.5952   0.6070   0.6223   0.6285   0.6443   0.6472   0.6524   0.7241
     0.7282   0.7904   0.8688   0.8715   0.8784   0.8819   0.8908   0.9979
     1.0055   1.0561   1.0566   1.0605   1.0634   1.2975   1.3057   1.3139
     1.3252   1.3274   1.3320   1.3896   1.3993   1.5391   1.5540   1.5622
     1.5692   1.5704   1.5721   1.6825   1.7172   1.7285   1.7448   1.7575
     1.7600   1.7636   1.7716   1.7766   1.7829   1.7858   1.7872   1.8635
     1.8758   1.8925   1.9100   1.9187   1.9346   1.9388   1.9444   1.9900
     2.0040   2.0175   2.0356   2.0367   2.0524   2.0547   2.0656   2.1281
     2.1406   2.1426   2.1503   2.1512   2.1571   2.2116   2.2380   2.2442
     2.2567   2.2576   2.2653   2.2742   2.4601   2.4654   2.5575   2.5638
     2.5669   2.5836   2.5839   2.5884   3.1248   3.4230   3.4284   3.4425
     3.4737   3.4743   3.4827   5.4582   5.7245   5.7387   5.7944   5.7985
     5.8049   7.2511   7.3195   7.3596   7.4006   7.4024   7.4068   7.5355
     7.6244

          k = 0.0000 0.2309 0.0000 ( 42996 PWs)   bands (ev):

    -6.1572  -5.0681  -4.4335  -4.3272  -3.9736  -3.9568  -3.7460  -3.6675
    -3.6264  -3.6203  -3.4953  -3.3957  -3.3660  -3.2453  -3.2397  -3.2285
    -3.1342  -2.9370  -2.8141  -2.8075  -2.7962  -2.7771  -2.7281  -2.6942
    -2.6673  -2.6281  -2.6270  -2.6129  -2.5402  -2.5258  -2.5126  -2.4297
    -2.4204  -2.4003  -2.3875  -2.2474  -2.1962  -2.1866  -2.1771  -2.1424
    -1.9780  -1.8987  -1.8961  -1.8385  -1.8163  -1.7987  -1.7808  -1.6820
    -1.6032  -1.5455  -1.5264  -1.5151  -1.4657  -1.4457  -1.3920  -1.2339
    -1.1401  -1.1359  -1.0766  -1.0656  -1.0321  -0.9845  -0.9599  -0.9512
    -0.9263  -0.9174  -0.8556  -0.8332  -0.7958  -0.7718  -0.7590  -0.7133
    -0.6793  -0.6689  -0.6631  -0.5912  -0.5874  -0.5715  -0.5323  -0.4867
    -0.4772  -0.4699  -0.4652  -0.3954  -0.3766  -0.3628  -0.3572  -0.3547
    -0.3132  -0.2950  -0.2543  -0.2292  -0.2156  -0.1953  -0.1756  -0.1608
    -0.1482  -0.1172  -0.1034  -0.0944  -0.0107   0.0506   0.0571   0.0838
     0.0925   0.0954   0.1097   0.1136   0.1578   0.1662   0.1799   0.1946
     0.3998   0.5095   0.5594   0.5732   0.6011   0.6027   0.6052   0.6385
     0.6459   0.7211   0.8006   0.8108   0.8900   0.9435   0.9473   0.9787
     0.9887   1.0126   1.0540   1.0642   1.0756   1.1567   1.1791   1.1956
     1.2050   1.2079   1.3270   1.4041   1.4091   1.4174   1.4393   1.4421
     1.4647   1.5231   1.5549   1.5803   1.6016   1.6032   1.6680   1.6716
     1.6839   1.6910   1.7707   1.7919   1.8127   1.8255   1.8597   1.9234
     1.9582   1.9749   1.9774   1.9938   2.0147   2.0354   2.1066   2.1080
     2.1565   2.1725   2.1869   2.1946   2.2234   2.2312   2.2328   2.2445
     2.2466   2.3070   2.3073   2.4422   2.4575   2.4750   2.4947   2.5064
     2.5084   2.5399   2.5699   2.5773   2.5912   2.6625   2.6901   2.7173
     2.7610   2.8799   2.8904   2.9000   2.9296   3.2798   3.3258   3.8370
     4.0460   4.0752   4.1842   4.9868   5.3938   5.4924   6.1408   6.2173
     6.2395   6.3320   6.5826   7.0074   7.1780   7.3489   7.5596   7.5665
     7.6318

          k = 0.0000 0.4619 0.0000 ( 43046 PWs)   bands (ev):

    -5.7353  -5.1075  -4.7540  -4.2274  -4.0076  -3.9886  -3.7924  -3.6286
    -3.4855  -3.3621  -3.2845  -3.2786  -3.2248  -3.1153  -3.0708  -3.0578
    -3.0570  -3.0436  -2.9098  -2.8919  -2.8821  -2.8455  -2.8391  -2.8068
    -2.7398  -2.7089  -2.7045  -2.6119  -2.4525  -2.4465  -2.4390  -2.4248
    -2.4240  -2.3308  -2.1993  -2.1889  -2.1700  -2.1425  -2.1375  -2.0445
    -1.9353  -1.8672  -1.8545  -1.8441  -1.8083  -1.7834  -1.7406  -1.7121
    -1.7068  -1.6747  -1.6396  -1.5141  -1.4990  -1.4950  -1.4625  -1.4006
    -1.3357  -1.3056  -1.2737  -1.2682  -1.2456  -1.1166  -1.0613  -1.0544
    -1.0520  -1.0339  -0.9476  -0.9344  -0.9057  -0.8113  -0.8053  -0.8037
    -0.7381  -0.6859  -0.6852  -0.6573  -0.6560  -0.6042  -0.5791  -0.5697
    -0.5619  -0.5499  -0.5335  -0.5308  -0.5298  -0.5019  -0.4156  -0.3980
    -0.3904  -0.3650  -0.3638  -0.3585  -0.3245  -0.2185  -0.2101  -0.1694
    -0.1498  -0.1424  -0.1165  -0.0920  -0.0613  -0.0538   0.0351   0.0547
     0.0909   0.1271   0.1391   0.1587   0.1827   0.3258   0.3461   0.4167
     0.4235   0.4861   0.4976   0.5260   0.5369   0.5391   0.5453   0.5909
     0.6156   0.6437   0.6581   0.6599   0.6940   0.7083   0.7145   0.7373
     0.7566   0.8552   0.8797   0.9036   0.9641   0.9870   1.0782   1.0807
     1.1799   1.1943   1.2367   1.2882   1.3607   1.3670   1.4111   1.4233
     1.4535   1.4634   1.4891   1.5223   1.5643   1.5714   1.6232   1.6640
     1.6760   1.7182   1.7287   1.7351   1.7540   1.8025   1.8893   1.9253
     1.9922   2.0126   2.0209   2.0299   2.0704   2.1325   2.1347   2.1959
     2.2187   2.2245   2.2369   2.2830   2.3181   2.3297   2.3429   2.4569
     2.4619   2.4815   2.4857   2.4950   2.4958   2.5195   2.5265   2.7030
     2.7282   2.7356   2.7430   2.7474   2.9099   2.9571   3.2041   3.3332
     3.3830   3.5722   3.7798   3.7882   4.0606   4.1704   4.2862   4.4776
     4.7648   5.0031   5.0058   5.1011   5.2134   5.2530   5.3523   5.3917
     5.5988   5.6562   6.1972   6.2870   6.7053   6.8178   7.1770   7.2952
     7.7511

          k = 0.2000-0.1155 0.0000 ( 42996 PWs)   bands (ev):

    -6.1577  -5.0729  -4.4557  -4.2987  -3.9752  -3.9621  -3.7461  -3.6676
    -3.6241  -3.6214  -3.5118  -3.3972  -3.3311  -3.2440  -3.2377  -3.2307
    -3.1533  -2.9361  -2.8138  -2.8086  -2.7943  -2.7630  -2.7271  -2.6951
    -2.6665  -2.6322  -2.6294  -2.6215  -2.5284  -2.5233  -2.5126  -2.4274
    -2.4189  -2.3975  -2.3854  -2.2426  -2.1961  -2.1844  -2.1798  -2.1459
    -1.9712  -1.8994  -1.8959  -1.8412  -1.8148  -1.8046  -1.7828  -1.6885
    -1.6061  -1.5418  -1.5272  -1.5140  -1.4634  -1.4465  -1.3816  -1.2341
    -1.1402  -1.1341  -1.0774  -1.0652  -1.0341  -0.9847  -0.9603  -0.9479
    -0.9265  -0.9170  -0.8587  -0.8365  -0.7941  -0.7738  -0.7610  -0.7158
    -0.6768  -0.6675  -0.6627  -0.5925  -0.5874  -0.5710  -0.5313  -0.4859
    -0.4772  -0.4734  -0.4637  -0.3993  -0.3788  -0.3623  -0.3557  -0.3539
    -0.3077  -0.3008  -0.2556  -0.2272  -0.2147  -0.1968  -0.1836  -0.1601
    -0.1542  -0.1188  -0.0955  -0.0899  -0.0140   0.0514   0.0610   0.0791
     0.0872   0.0954   0.1070   0.1125   0.1537   0.1682   0.1783   0.1918
     0.4041   0.5048   0.5502   0.5875   0.5988   0.6008   0.6067   0.6385
     0.6468   0.7005   0.7923   0.8100   0.8929   0.9405   0.9465   0.9761
     0.9905   1.0066   1.0533   1.0650   1.0695   1.1554   1.1915   1.1960
     1.2063   1.2073   1.3642   1.4019   1.4111   1.4265   1.4337   1.4401
     1.4601   1.5294   1.5492   1.5736   1.6002   1.6045   1.6577   1.6732
     1.6830   1.6877   1.7660   1.7884   1.8193   1.8246   1.8679   1.9247
     1.9427   1.9691   1.9810   1.9875   2.0209   2.0374   2.1023   2.1117
     2.1662   2.1680   2.1856   2.2048   2.2211   2.2313   2.2340   2.2445
     2.2459   2.3062   2.3103   2.4508   2.4555   2.4705   2.4958   2.5069
     2.5091   2.5374   2.5691   2.5752   2.5907   2.6728   2.6905   2.7154
     2.7656   2.8795   2.8881   2.9009   2.9337   3.2780   3.3188   3.8479
     4.0402   4.0752   4.1883   4.9742   5.4238   5.4876   6.1321   6.2158
     6.2511   6.3278   6.5623   7.0122   7.1737   7.3377   7.5510   7.5791
     7.6311

          k = 0.2000 0.1155 0.0000 ( 42996 PWs)   bands (ev):

    -6.1576  -5.0718  -4.4518  -4.3036  -3.9750  -3.9608  -3.7461  -3.6680
    -3.6242  -3.6212  -3.5077  -3.3969  -3.3399  -3.2441  -3.2379  -3.2305
    -3.1482  -2.9362  -2.8141  -2.8080  -2.7947  -2.7676  -2.7273  -2.6948
    -2.6669  -2.6309  -2.6289  -2.6199  -2.5312  -2.5238  -2.5133  -2.4284
    -2.4193  -2.3981  -2.3856  -2.2442  -2.1962  -2.1850  -2.1788  -2.1442
    -1.9724  -1.8996  -1.8955  -1.8417  -1.8154  -1.8037  -1.7823  -1.6871
    -1.6055  -1.5421  -1.5269  -1.5128  -1.4637  -1.4472  -1.3838  -1.2337
    -1.1403  -1.1342  -1.0775  -1.0637  -1.0332  -0.9839  -0.9609  -0.9489
    -0.9269  -0.9174  -0.8575  -0.8357  -0.7946  -0.7731  -0.7602  -0.7148
    -0.6774  -0.6690  -0.6639  -0.5926  -0.5872  -0.5703  -0.5315  -0.4854
    -0.4768  -0.4717  -0.4640  -0.4001  -0.3792  -0.3612  -0.3566  -0.3539
    -0.3090  -0.3000  -0.2559  -0.2281  -0.2147  -0.1956  -0.1821  -0.1607
    -0.1535  -0.1185  -0.0957  -0.0911  -0.0132   0.0512   0.0605   0.0800
     0.0868   0.0949   0.1062   0.1144   0.1546   0.1678   0.1794   0.1927
     0.4040   0.5056   0.5509   0.5868   0.5981   0.6009   0.6070   0.6387
     0.6453   0.7058   0.7938   0.8099   0.8920   0.9412   0.9458   0.9772
     0.9897   1.0083   1.0531   1.0648   1.0704   1.1554   1.1910   1.1959
     1.2055   1.2077   1.3569   1.4021   1.4116   1.4238   1.4337   1.4407
     1.4603   1.5280   1.5499   1.5754   1.6001   1.6050   1.6583   1.6747
     1.6828   1.6885   1.7665   1.7896   1.8187   1.8250   1.8656   1.9243
     1.9462   1.9697   1.9812   1.9890   2.0191   2.0373   2.1027   2.1118
     2.1648   2.1684   2.1851   2.2023   2.2220   2.2304   2.2341   2.2443
     2.2463   2.3059   2.3094   2.4504   2.4544   2.4716   2.4953   2.5072
     2.5091   2.5381   2.5682   2.5768   2.5910   2.6700   2.6908   2.7155
     2.7651   2.8791   2.8891   2.9012   2.9326   3.2783   3.3210   3.8458
     4.0410   4.0749   4.1874   4.9761   5.4186   5.4887   6.1362   6.2158
     6.2475   6.3290   6.5662   7.0137   7.1732   7.3375   7.5485   7.5789
     7.6308

          k = 0.2000 0.3464 0.0000 ( 43046 PWs)   bands (ev):

    -5.8725  -4.8893  -4.6257  -4.6121  -4.2154  -3.5434  -3.5393  -3.5372
    -3.5233  -3.4788  -3.4781  -3.4529  -3.3559  -3.3513  -3.1796  -2.9728
    -2.9601  -2.9555  -2.9529  -2.8893  -2.8640  -2.7348  -2.7213  -2.7101
    -2.7040  -2.6505  -2.6082  -2.5690  -2.5558  -2.5485  -2.4958  -2.4736
    -2.4551  -2.4093  -2.3927  -2.3068  -2.1897  -2.0548  -1.9658  -1.9620
    -1.9249  -1.9152  -1.8999  -1.8933  -1.8382  -1.8124  -1.7547  -1.6782
    -1.6644  -1.5774  -1.5431  -1.5372  -1.4942  -1.4841  -1.4102  -1.3879
    -1.3842  -1.2238  -1.1995  -1.1886  -1.1270  -1.1175  -1.0848  -1.0773
    -1.0612  -1.0076  -0.9747  -0.8521  -0.8458  -0.8364  -0.8242  -0.7898
    -0.7718  -0.7220  -0.6961  -0.6837  -0.6237  -0.5642  -0.5524  -0.5276
    -0.5183  -0.5036  -0.4966  -0.4646  -0.4387  -0.4360  -0.3915  -0.3805
    -0.3606  -0.3405  -0.2653  -0.2537  -0.2324  -0.2066  -0.1799  -0.1683
    -0.1521  -0.1173  -0.1028  -0.0919  -0.0904  -0.0822  -0.0726  -0.0579
    -0.0215   0.0023   0.0904   0.1146   0.1493   0.2118   0.2309   0.2369
     0.2534   0.4250   0.4429   0.4941   0.5554   0.5754   0.6123   0.6213
     0.6395   0.6535   0.6820   0.7044   0.7279   0.7389   0.7591   0.8331
     0.9210   0.9742   1.0004   1.0115   1.0355   1.0615   1.0954   1.1335
     1.2010   1.2403   1.2472   1.2650   1.3256   1.3536   1.3973   1.4507
     1.4585   1.4698   1.5232   1.5386   1.5513   1.5653   1.5693   1.5885
     1.5954   1.6039   1.6177   1.7153   1.7737   1.8070   1.9334   1.9424
     1.9655   2.0897   2.1128   2.1227   2.1286   2.2071   2.2231   2.2522
     2.2643   2.2817   2.2973   2.3130   2.3285   2.3329   2.3445   2.3831
     2.4017   2.4146   2.4855   2.5105   2.5180   2.5469   2.5550   2.5984
     2.7309   2.7610   2.7843   2.8020   2.8614   2.8670   2.8772   2.9759
     3.0192   3.3366   3.5209   3.5574   3.9107   4.0902   4.0943   4.1055
     4.5983   4.7898   4.8109   4.9596   5.0141   5.0652   5.6493   6.0941
     6.2101   6.2323   6.4192   6.7059   6.9304   6.9769   7.0102   7.0174
     7.0492

          k = 0.2000-0.5774 0.0000 ( 43014 PWs)   bands (ev):

    -5.3635  -5.3168  -4.7842  -4.5613  -4.0841  -3.8596  -3.5404  -3.4789
    -3.4041  -3.3667  -3.2556  -3.2494  -3.1539  -3.1477  -3.0561  -3.0299
    -3.0165  -2.9955  -2.9890  -2.9694  -2.8578  -2.8216  -2.8140  -2.7851
    -2.7737  -2.7718  -2.6945  -2.5999  -2.5603  -2.4467  -2.4297  -2.4160
    -2.4082  -2.3880  -2.3464  -2.2931  -2.1781  -2.1670  -2.0758  -1.9915
    -1.9788  -1.9070  -1.8426  -1.8124  -1.7860  -1.7256  -1.6585  -1.6123
    -1.5831  -1.5592  -1.5391  -1.5071  -1.4916  -1.4528  -1.3773  -1.3660
    -1.3544  -1.3431  -1.3337  -1.3275  -1.2695  -1.2628  -1.2477  -1.1367
    -1.1218  -1.0586  -1.0279  -0.9713  -0.9179  -0.9055  -0.8767  -0.8465
    -0.8250  -0.8135  -0.7468  -0.7404  -0.7175  -0.6938  -0.6618  -0.6093
    -0.5923  -0.5276  -0.5028  -0.4911  -0.4817  -0.4728  -0.3964  -0.3386
    -0.2980  -0.2957  -0.2809  -0.2461  -0.2172  -0.2162  -0.2100  -0.1806
    -0.1717  -0.1599  -0.1335  -0.0902  -0.0785  -0.0662  -0.0648  -0.0527
    -0.0464  -0.0294   0.0083   0.0345   0.0545   0.2446   0.2673   0.3415
     0.3579   0.4150   0.4524   0.4698   0.4857   0.5165   0.5513   0.5670
     0.5683   0.5847   0.6364   0.6902   0.7052   0.7241   0.7671   0.7822
     0.8417   0.8568   0.9003   0.9954   1.0379   1.1021   1.1238   1.1383
     1.1840   1.2082   1.2410   1.2577   1.2691   1.2736   1.2913   1.3049
     1.4044   1.4326   1.4360   1.4834   1.4958   1.5099   1.5239   1.5487
     1.5521   1.6886   1.7324   1.7782   1.8458   1.8661   1.9496   1.9585
     1.9964   2.0657   2.0781   2.0915   2.1746   2.1787   2.2625   2.2660
     2.2996   2.3081   2.3145   2.3443   2.3573   2.3990   2.4691   2.4719
     2.4897   2.5109   2.5170   2.5254   2.5316   2.5995   2.7043   2.7297
     2.7397   2.7451   2.7496   2.8117   2.8522   2.9339   3.0456   3.7723
     3.8978   3.9218   4.0876   4.1501   4.2234   4.2771   4.2961   4.6357
     4.8746   4.9060   5.0915   5.3551   5.3749   5.4639   5.4932   5.6561
     5.7745   5.8450   5.8913   6.1592   6.2861   6.3324   6.7890   6.9691
     6.9886

          k = 0.2000-0.3464 0.0000 ( 43046 PWs)   bands (ev):

    -5.8728  -4.8924  -4.6254  -4.6121  -4.2152  -3.5436  -3.5393  -3.5371
    -3.5224  -3.4789  -3.4778  -3.4540  -3.3561  -3.3513  -3.1762  -2.9731
    -2.9611  -2.9551  -2.9539  -2.8886  -2.8644  -2.7355  -2.7211  -2.7107
    -2.7041  -2.6462  -2.6093  -2.5690  -2.5559  -2.5490  -2.4935  -2.4736
    -2.4546  -2.4079  -2.3922  -2.3062  -2.1779  -2.0555  -1.9667  -1.9619
    -1.9261  -1.9151  -1.9004  -1.8937  -1.8381  -1.8127  -1.7543  -1.6782
    -1.6649  -1.5766  -1.5439  -1.5417  -1.4939  -1.4838  -1.4128  -1.3876
    -1.3807  -1.2253  -1.2010  -1.1881  -1.1286  -1.1180  -1.0848  -1.0777
    -1.0617  -1.0078  -0.9742  -0.8514  -0.8480  -0.8362  -0.8248  -0.7886
    -0.7715  -0.7224  -0.6975  -0.6829  -0.6242  -0.5657  -0.5529  -0.5287
    -0.5176  -0.5037  -0.4960  -0.4644  -0.4408  -0.4370  -0.3927  -0.3805
    -0.3593  -0.3429  -0.2653  -0.2548  -0.2328  -0.2060  -0.1799  -0.1691
    -0.1492  -0.1186  -0.1029  -0.0930  -0.0911  -0.0823  -0.0723  -0.0572
    -0.0197   0.0012   0.0900   0.1118   0.1494   0.2134   0.2313   0.2370
     0.2533   0.4252   0.4428   0.4894   0.5574   0.5748   0.6135   0.6209
     0.6410   0.6528   0.6839   0.7029   0.7280   0.7383   0.7586   0.8316
     0.9245   0.9740   0.9998   1.0124   1.0368   1.0612   1.0943   1.1339
     1.2004   1.2426   1.2474   1.2687   1.3254   1.3556   1.3978   1.4494
     1.4570   1.4690   1.5239   1.5397   1.5500   1.5656   1.5690   1.5881
     1.5952   1.6039   1.6165   1.7130   1.7732   1.8065   1.9323   1.9432
     1.9657   2.0921   2.1108   2.1222   2.1287   2.2065   2.2247   2.2517
     2.2635   2.2812   2.2979   2.3134   2.3284   2.3332   2.3452   2.3833
     2.4013   2.4134   2.4863   2.5106   2.5185   2.5469   2.5544   2.5988
     2.7292   2.7573   2.7831   2.8021   2.8610   2.8665   2.8769   2.9745
     3.0192   3.3417   3.5241   3.5571   3.9145   4.0892   4.0942   4.1043
     4.5985   4.7892   4.8120   4.9627   5.0148   5.0644   5.6518   6.0970
     6.2105   6.2288   6.4159   6.6999   6.9284   6.9780   7.0097   7.0187
     7.0488

          k = 0.4000-0.2309 0.0000 ( 43046 PWs)   bands (ev):

    -5.7379  -5.1187  -4.7600  -4.2196  -4.0093  -3.9970  -3.7838  -3.6225
    -3.4856  -3.3613  -3.2819  -3.2794  -3.2126  -3.1163  -3.0760  -3.0636
    -3.0581  -3.0483  -2.9077  -2.8935  -2.8859  -2.8462  -2.8383  -2.8028
    -2.7361  -2.7091  -2.7053  -2.5610  -2.4525  -2.4463  -2.4390  -2.4260
    -2.4229  -2.3197  -2.1988  -2.1889  -2.1699  -2.1410  -2.1370  -2.0394
    -1.9363  -1.8670  -1.8556  -1.8429  -1.8115  -1.7840  -1.7440  -1.7122
    -1.7060  -1.6758  -1.6401  -1.5242  -1.4989  -1.4948  -1.4630  -1.4047
    -1.3354  -1.3046  -1.2738  -1.2675  -1.2436  -1.1166  -1.0662  -1.0499
    -1.0481  -1.0302  -0.9440  -0.9363  -0.9105  -0.8158  -0.8025  -0.7994
    -0.7416  -0.6868  -0.6840  -0.6576  -0.6545  -0.6112  -0.5879  -0.5699
    -0.5576  -0.5521  -0.5357  -0.5309  -0.5282  -0.4984  -0.4015  -0.3941
    -0.3911  -0.3661  -0.3610  -0.3574  -0.3265  -0.2386  -0.2083  -0.2013
    -0.1523  -0.1332  -0.1138  -0.0913  -0.0735  -0.0581   0.0249   0.0609
     0.0905   0.1048   0.1430   0.1554   0.1826   0.3201   0.3486   0.3977
     0.4230   0.4770   0.5108   0.5190   0.5370   0.5415   0.5465   0.5794
     0.6155   0.6487   0.6566   0.6663   0.6874   0.7089   0.7168   0.7442
     0.7620   0.8564   0.8798   0.8975   0.9639   1.0002   1.0822   1.0855
     1.1896   1.1979   1.2421   1.2895   1.3566   1.3665   1.4014   1.4235
     1.4577   1.4602   1.4942   1.5182   1.5590   1.5722   1.6146   1.6661
     1.6740   1.7122   1.7274   1.7424   1.7474   1.8080   1.8788   1.9186
     1.9759   2.0092   2.0146   2.0342   2.0838   2.1271   2.1367   2.2119
     2.2169   2.2277   2.2361   2.2893   2.3224   2.3266   2.3426   2.4565
     2.4621   2.4785   2.4889   2.4934   2.4963   2.5195   2.5252   2.7046
     2.7257   2.7353   2.7403   2.7458   2.9079   2.9565   3.2219   3.3263
     3.3908   3.5646   3.7836   3.7881   4.0765   4.1702   4.2844   4.4908
     4.7897   5.0031   5.0053   5.0935   5.2169   5.2467   5.3665   5.3882
     5.6003   5.6548   6.1846   6.2921   6.6943   6.8131   7.1943   7.2893
     7.7633

          k = 0.4000-0.0000 0.0000 ( 43046 PWs)   bands (ev):

    -5.8740  -4.9022  -4.6240  -4.6119  -4.2118  -3.5444  -3.5386  -3.5375
    -3.5201  -3.4787  -3.4774  -3.4556  -3.3573  -3.3508  -3.1649  -2.9750
    -2.9644  -2.9553  -2.9541  -2.8883  -2.8642  -2.7396  -2.7219  -2.7125
    -2.7041  -2.6358  -2.6107  -2.5693  -2.5553  -2.5538  -2.4886  -2.4732
    -2.4547  -2.4043  -2.3915  -2.3057  -2.1428  -2.0566  -1.9705  -1.9603
    -1.9271  -1.9139  -1.9014  -1.8936  -1.8391  -1.8119  -1.7691  -1.6755
    -1.6650  -1.5755  -1.5478  -1.5415  -1.4933  -1.4829  -1.4173  -1.3856
    -1.3709  -1.2253  -1.2042  -1.1824  -1.1268  -1.1187  -1.0862  -1.0773
    -1.0619  -1.0105  -0.9788  -0.8536  -0.8492  -0.8410  -0.8260  -0.7837
    -0.7735  -0.7240  -0.6953  -0.6821  -0.6264  -0.5687  -0.5532  -0.5321
    -0.5124  -0.5020  -0.4967  -0.4686  -0.4532  -0.4330  -0.3971  -0.3815
    -0.3615  -0.3505  -0.2641  -0.2597  -0.2313  -0.2076  -0.1778  -0.1706
    -0.1459  -0.1224  -0.1044  -0.0977  -0.0932  -0.0841  -0.0701  -0.0571
    -0.0136  -0.0022   0.0849   0.1134   0.1485   0.2136   0.2295   0.2380
     0.2542   0.4289   0.4443   0.4765   0.5636   0.5716   0.6155   0.6189
     0.6452   0.6507   0.6933   0.6975   0.7334   0.7372   0.7584   0.8276
     0.9357   0.9695   0.9990   1.0139   1.0420   1.0607   1.0905   1.1349
     1.2004   1.2420   1.2519   1.2857   1.3229   1.3603   1.4032   1.4392
     1.4481   1.4672   1.5281   1.5370   1.5451   1.5684   1.5717   1.5860
     1.5950   1.6029   1.6139   1.6986   1.7746   1.8051   1.9297   1.9442
     1.9691   2.0993   2.1044   2.1228   2.1289   2.2130   2.2296   2.2498
     2.2611   2.2790   2.2993   2.3127   2.3280   2.3334   2.3441   2.3831
     2.4002   2.4125   2.4878   2.5131   2.5188   2.5469   2.5525   2.5997
     2.7137   2.7475   2.7847   2.8070   2.8611   2.8670   2.8754   2.9727
     3.0177   3.3548   3.5335   3.5548   3.9311   4.0864   4.0914   4.1017
     4.6001   4.7870   4.8147   4.9761   5.0163   5.0628   5.6660   6.1165
     6.2099   6.2154   6.4027   6.6718   6.9183   6.9799   7.0085   7.0209
     7.0481

          k = 0.4000 0.2309 0.0000 ( 43046 PWs)   bands (ev):

    -5.7374  -5.1164  -4.7579  -4.2201  -4.0090  -3.9956  -3.7852  -3.6245
    -3.4857  -3.3615  -3.2820  -3.2791  -3.2150  -3.1170  -3.0738  -3.0628
    -3.0573  -3.0482  -2.9076  -2.8932  -2.8850  -2.8463  -2.8383  -2.8041
    -2.7366  -2.7092  -2.7051  -2.5776  -2.4526  -2.4460  -2.4386  -2.4263
    -2.4230  -2.3238  -2.1990  -2.1888  -2.1697  -2.1416  -2.1369  -2.0396
    -1.9367  -1.8677  -1.8555  -1.8424  -1.8102  -1.7842  -1.7423  -1.7124
    -1.7061  -1.6760  -1.6405  -1.5230  -1.4985  -1.4941  -1.4631  -1.4013
    -1.3353  -1.3044  -1.2741  -1.2667  -1.2438  -1.1168  -1.0643  -1.0508
    -1.0484  -1.0312  -0.9460  -0.9351  -0.9088  -0.8148  -0.8043  -0.8009
    -0.7401  -0.6865  -0.6830  -0.6577  -0.6540  -0.6095  -0.5859  -0.5705
    -0.5564  -0.5523  -0.5359  -0.5310  -0.5276  -0.4987  -0.4028  -0.3956
    -0.3913  -0.3659  -0.3607  -0.3559  -0.3272  -0.2284  -0.2084  -0.2019
    -0.1529  -0.1355  -0.1149  -0.0914  -0.0720  -0.0588   0.0249   0.0628
     0.0909   0.1073   0.1412   0.1569   0.1840   0.3204   0.3485   0.4009
     0.4234   0.4786   0.5079   0.5200   0.5374   0.5420   0.5462   0.5819
     0.6163   0.6492   0.6571   0.6641   0.6897   0.7086   0.7144   0.7438
     0.7614   0.8564   0.8797   0.8987   0.9636   0.9975   1.0812   1.0847
     1.1889   1.1964   1.2410   1.2895   1.3570   1.3657   1.4026   1.4223
     1.4574   1.4610   1.4933   1.5184   1.5601   1.5729   1.6157   1.6659
     1.6758   1.7136   1.7285   1.7412   1.7484   1.8049   1.8798   1.9205
     1.9789   2.0099   2.0163   2.0338   2.0820   2.1277   2.1372   2.2090
     2.2160   2.2278   2.2366   2.2883   2.3208   2.3268   2.3426   2.4569
     2.4613   2.4787   2.4894   2.4935   2.4966   2.5202   2.5257   2.7046
     2.7258   2.7356   2.7410   2.7473   2.9073   2.9564   3.2168   3.3283
     3.3884   3.5661   3.7827   3.7883   4.0743   4.1697   4.2840   4.4883
     4.7851   5.0031   5.0054   5.0961   5.2164   5.2478   5.3640   5.3888
     5.6008   5.6543   6.1864   6.2917   6.6973   6.8137   7.1892   7.2911
     7.7596

          k = 0.4000-0.6928 0.0000 ( 43014 PWs)   bands (ev):

    -5.3690  -5.3180  -4.7726  -4.5804  -4.0813  -3.8445  -3.5432  -3.4832
    -3.4042  -3.3684  -3.2565  -3.2507  -3.1528  -3.1485  -3.0547  -3.0297
    -3.0153  -2.9931  -2.9897  -2.9700  -2.8501  -2.8222  -2.8142  -2.7867
    -2.7736  -2.7720  -2.6884  -2.5985  -2.5599  -2.4480  -2.4241  -2.4149
    -2.4069  -2.3857  -2.3457  -2.2878  -2.1789  -2.1701  -2.0703  -1.9904
    -1.9755  -1.9133  -1.8422  -1.8098  -1.7835  -1.7311  -1.6522  -1.6163
    -1.5855  -1.5608  -1.5401  -1.5069  -1.4893  -1.4491  -1.3797  -1.3723
    -1.3535  -1.3425  -1.3350  -1.3256  -1.2733  -1.2595  -1.2461  -1.1347
    -1.1178  -1.0622  -1.0307  -0.9625  -0.9195  -0.9029  -0.8784  -0.8449
    -0.8241  -0.8187  -0.7531  -0.7421  -0.7185  -0.6946  -0.6620  -0.6104
    -0.5855  -0.5276  -0.5083  -0.4879  -0.4802  -0.4745  -0.4055  -0.3438
    -0.3000  -0.2957  -0.2764  -0.2526  -0.2181  -0.2158  -0.2075  -0.1785
    -0.1757  -0.1654  -0.1354  -0.0879  -0.0778  -0.0705  -0.0662  -0.0538
    -0.0448  -0.0308  -0.0040   0.0376   0.0514   0.2348   0.2648   0.3411
     0.3591   0.4260   0.4553   0.4674   0.4916   0.5128   0.5518   0.5689
     0.5708   0.5879   0.6453   0.6893   0.7045   0.7253   0.7705   0.7830
     0.8410   0.8562   0.8925   0.9826   1.0416   1.1078   1.1216   1.1424
     1.1920   1.2058   1.2352   1.2537   1.2678   1.2723   1.2930   1.3052
     1.3996   1.4371   1.4411   1.4834   1.4926   1.5129   1.5170   1.5423
     1.5515   1.6975   1.7319   1.7766   1.8351   1.8724   1.9485   1.9600
     2.0059   2.0665   2.0760   2.0926   2.1720   2.1844   2.2594   2.2757
     2.2947   2.3088   2.3113   2.3395   2.3589   2.3979   2.4692   2.4707
     2.4959   2.5073   2.5173   2.5259   2.5325   2.6002   2.7010   2.7312
     2.7390   2.7437   2.7490   2.8097   2.8488   2.9309   3.0333   3.7863
     3.8980   3.9195   4.0943   4.1482   4.2370   4.2746   4.2988   4.6426
     4.8696   4.9091   5.1112   5.3579   5.3719   5.4530   5.4981   5.6641
     5.7710   5.8374   5.8961   6.1588   6.2673   6.3389   6.7931   6.9574
     6.9898

          k = 0.4000-0.4619 0.0000 ( 43014 PWs)   bands (ev):

    -5.3704  -5.3182  -4.7704  -4.5855  -4.0811  -3.8408  -3.5439  -3.4835
    -3.4039  -3.3687  -3.2571  -3.2513  -3.1528  -3.1484  -3.0544  -3.0300
    -3.0149  -2.9926  -2.9901  -2.9703  -2.8484  -2.8221  -2.8139  -2.7872
    -2.7747  -2.7721  -2.6851  -2.5954  -2.5594  -2.4459  -2.4233  -2.4133
    -2.4077  -2.3849  -2.3454  -2.2869  -2.1792  -2.1712  -2.0685  -1.9900
    -1.9752  -1.9141  -1.8425  -1.8086  -1.7827  -1.7319  -1.6516  -1.6160
    -1.5868  -1.5611  -1.5416  -1.5081  -1.4883  -1.4468  -1.3799  -1.3736
    -1.3549  -1.3427  -1.3343  -1.3251  -1.2759  -1.2590  -1.2444  -1.1352
    -1.1182  -1.0627  -1.0310  -0.9628  -0.9204  -0.9026  -0.8791  -0.8448
    -0.8242  -0.8181  -0.7536  -0.7430  -0.7187  -0.6951  -0.6619  -0.6125
    -0.5850  -0.5265  -0.5125  -0.4874  -0.4795  -0.4749  -0.4076  -0.3432
    -0.3015  -0.2959  -0.2768  -0.2556  -0.2179  -0.2154  -0.2062  -0.1795
    -0.1740  -0.1659  -0.1345  -0.0888  -0.0787  -0.0705  -0.0652  -0.0540
    -0.0445  -0.0319  -0.0058   0.0384   0.0519   0.2360   0.2649   0.3414
     0.3595   0.4292   0.4558   0.4654   0.4919   0.5113   0.5522   0.5695
     0.5714   0.5876   0.6458   0.6890   0.7051   0.7273   0.7707   0.7818
     0.8407   0.8563   0.8909   0.9769   1.0432   1.1090   1.1202   1.1425
     1.1924   1.2072   1.2348   1.2530   1.2683   1.2715   1.2932   1.3052
     1.3989   1.4374   1.4412   1.4850   1.4917   1.5100   1.5182   1.5418
     1.5519   1.6993   1.7345   1.7765   1.8323   1.8734   1.9480   1.9599
     2.0083   2.0660   2.0752   2.0927   2.1708   2.1862   2.2590   2.2780
     2.2932   2.3095   2.3111   2.3385   2.3586   2.3974   2.4692   2.4706
     2.4972   2.5079   2.5166   2.5261   2.5325   2.6002   2.7021   2.7302
     2.7391   2.7432   2.7475   2.8096   2.8474   2.9297   3.0298   3.7906
     3.8978   3.9195   4.0964   4.1471   4.2412   4.2748   4.2998   4.6436
     4.8673   4.9099   5.1165   5.3576   5.3728   5.4502   5.4998   5.6651
     5.7697   5.8337   5.8983   6.1571   6.2634   6.3413   6.7940   6.9545
     6.9913

     the Fermi energy is     2.5130 ev

!    total energy              =  -27755.48720773 Ry
     total all-electron energy =  -1326642.252624 Ry
     estimated scf accuracy    <          4.1E-09 Ry
     smearing contrib. (-TS)   =       0.00349964 Ry
     internal energy E=F+TS    =  -27755.49070738 Ry

     The total energy is F=E-TS. E is the sum of the following terms:
     one-electron contribution =  -20666.88133502 Ry
     hartree contribution      =   10640.59110463 Ry
     xc contribution           =    -890.69654471 Ry
     ewald contribution        =    8635.47183292 Ry
     one-center paw contrib.   =  -25473.97576520 Ry

     convergence has been achieved in  21 iterations

     negative rho (up, down):  3.146E-03 0.000E+00

     Forces acting on atoms (cartesian axes, Ry/au):

     atom    1 type  1   force =    -0.00028553   -0.00002443   -0.00321031
     atom    2 type  1   force =     0.00024405   -0.00001747   -0.00323151
     atom    3 type  1   force =    -0.00001654    0.00113816   -0.00382889
     atom    4 type  1   force =    -0.00001641    0.00031844   -0.00316333
     atom    5 type  1   force =    -0.00005425   -0.00009296   -0.00374372
     atom    6 type  1   force =     0.00004666   -0.00009061   -0.00373990
     atom    7 type  1   force =     0.00035765   -0.00017398   -0.00331244
     atom    8 type  1   force =     0.00000038    0.00007119   -0.00364208
     atom    9 type  1   force =    -0.00047978   -0.00023045   -0.00339908
     atom   10 type  1   force =    -0.00000386   -0.00017529    0.00720815
     atom   11 type  1   force =    -0.00039466   -0.00114873    0.00363782
     atom   12 type  1   force =     0.00047163   -0.00125518    0.00386120
     atom   13 type  1   force =    -0.00126547    0.00012008    0.00480809
     atom   14 type  1   force =     0.00003423   -0.00016390    0.00255814
     atom   15 type  1   force =     0.00134037    0.00012683    0.00476783
     atom   16 type  1   force =    -0.00049848    0.00068855    0.00434247
     atom   17 type  1   force =     0.00047438    0.00063383    0.00408079
     atom   18 type  1   force =     0.00004073    0.00041392    0.00131014
     atom   19 type  1   force =     0.00005141    0.00014782    0.00007582
     atom   20 type  1   force =    -0.00000898    0.00017150    0.00010032
     atom   21 type  1   force =    -0.00001370    0.00017550   -0.00001304
     atom   22 type  1   force =     0.00002881    0.00045933   -0.00051020
     atom   23 type  1   force =     0.00002157    0.00021557   -0.00007881
     atom   24 type  1   force =    -0.00002874    0.00022815   -0.00012064
     atom   25 type  1   force =     0.00010028    0.00032979    0.00007423
     atom   26 type  1   force =     0.00000571    0.00028078    0.00010944
     atom   27 type  1   force =    -0.00005922    0.00034724    0.00005878
     atom   28 type  1   force =     0.00005645    0.00051571    0.00062154
     atom   29 type  1   force =    -0.00001097    0.00050983    0.00055927
     atom   30 type  1   force =    -0.00000227    0.00041549    0.00000844
     atom   31 type  1   force =     0.00003625    0.00087301   -0.00028706
     atom   32 type  1   force =     0.00004783    0.00046176   -0.00004713
     atom   33 type  1   force =    -0.00000608    0.00047643   -0.00005631
     atom   34 type  1   force =     0.00006083    0.00045349   -0.00003162
     atom   35 type  1   force =     0.00004276    0.00034167    0.00001658
     atom   36 type  1   force =    -0.00002487    0.00046222    0.00000396
     atom   37 type  2   force =    -0.00029218   -0.00700328   -0.00578694
     The non-local contrib.  to forces
     atom    1 type  1   force =     0.00054310    0.00026268   -0.01801316
     atom    2 type  1   force =    -0.00049005    0.00023678   -0.01794909
     atom    3 type  1   force =    -0.00006051   -0.00102599   -0.01840128
     atom    4 type  1   force =     0.00000085   -0.00078296   -0.01819241
     atom    5 type  1   force =     0.00000979    0.00006785   -0.01794709
     atom    6 type  1   force =     0.00000760    0.00004101   -0.01791777
     atom    7 type  1   force =    -0.00024597    0.00043121   -0.01875635
     atom    8 type  1   force =    -0.00001618   -0.00012068   -0.01812638
     atom    9 type  1   force =     0.00031299    0.00054099   -0.01875385
     atom   10 type  1   force =     0.00005778   -0.00025747    0.00049290
     atom   11 type  1   force =    -0.00097129    0.00067083    0.00057428
     atom   12 type  1   force =     0.00100579    0.00063940    0.00065959
     atom   13 type  1   force =     0.00037970   -0.00095237    0.00075294
     atom   14 type  1   force =     0.00000284   -0.00008569   -0.00064516
     atom   15 type  1   force =    -0.00025968   -0.00100558    0.00081276
     atom   16 type  1   force =     0.00100592    0.00005517    0.00056237
     atom   17 type  1   force =    -0.00101574    0.00014390    0.00053549
     atom   18 type  1   force =     0.00019232   -0.00041291    0.00070803
     atom   19 type  1   force =    -0.00138883    0.00073965    0.00356872
     atom   20 type  1   force =     0.00158148    0.00065698    0.00330928
     atom   21 type  1   force =    -0.00010420    0.00128521    0.00262187
     atom   22 type  1   force =    -0.00005065    0.00363591   -0.00189201
     atom   23 type  1   force =     0.00137006   -0.00024791    0.00257359
     atom   24 type  1   force =    -0.00134834   -0.00011292    0.00250908
     atom   25 type  1   force =    -0.00186281   -0.00053019    0.00062259
     atom   26 type  1   force =     0.00017143   -0.00188207    0.00204779
     atom   27 type  1   force =     0.00156287   -0.00037757    0.00114062
     atom   28 type  1   force =     0.03674309    0.02650893    0.01833261
     atom   29 type  1   force =    -0.03958240    0.02738173    0.02211254
     atom   30 type  1   force =    -0.00022279   -0.00003065    0.01544407
     atom   31 type  1   force =    -0.00065749   -0.03046235   -0.00539916
     atom   32 type  1   force =    -0.00442881   -0.00137979    0.01846121
     atom   33 type  1   force =     0.00529373   -0.00184451    0.01891937
     atom   34 type  1   force =    -0.00010876   -0.00029068    0.01619080
     atom   35 type  1   force =     0.00004477    0.00161917    0.01699964
     atom   36 type  1   force =     0.00011256   -0.00003761    0.01605790
     atom   37 type  2   force =    -0.00071411    0.00818902   -0.01927978
     The ionic contribution  to forces
     atom    1 type  1   force =     0.00327408    0.00284797  -93.37955095
     atom    2 type  1   force =    -0.00402396    0.00275566  -93.38085477
     atom    3 type  1   force =     0.00075904   -0.00696775  -93.38748415
     atom    4 type  1   force =    -0.00045384   -0.00287269  -93.37728978
     atom    5 type  1   force =    -0.00956275   -0.00420505  -93.39586952
     atom    6 type  1   force =     0.01001834   -0.00474837  -93.39502486
     atom    7 type  1   force =    -0.00666446    0.00222918  -93.38476498
     atom    8 type  1   force =    -0.00024263    0.00942866  -93.39648270
     atom    9 type  1   force =     0.00690767    0.00149205  -93.38542295
     atom   10 type  1   force =    -0.00422276    0.00732493  -31.44973035
     atom   11 type  1   force =    -0.06376545   -0.02473810  -31.51741850
     atom   12 type  1   force =     0.06861335   -0.02752243  -31.50991607
     atom   13 type  1   force =    -0.06502292   -0.02896211  -31.50641673
     atom   14 type  1   force =     0.00155097    0.00064406  -31.60669235
     atom   15 type  1   force =     0.06484019   -0.03475093  -31.50192790
     atom   16 type  1   force =    -0.00198432    0.05976408  -31.51838007
     atom   17 type  1   force =    -0.00339667    0.05709650  -31.52138789
     atom   18 type  1   force =     0.00761904   -0.02318222  -31.43263534
     atom   19 type  1   force =     0.10919899   -0.06394293   31.36689905
     atom   20 type  1   force =    -0.11314583   -0.05865369   31.33494834
     atom   21 type  1   force =     0.00335828   -0.07008730   30.69315812
     atom   22 type  1   force =    -0.00041600    0.04880771   31.08626700
     atom   23 type  1   force =    -0.05511635    0.03084003   30.73121470
     atom   24 type  1   force =     0.05651941    0.02775744   30.72788933
     atom   25 type  1   force =    -0.03184480   -0.00343981   30.99919076
     atom   26 type  1   force =    -0.00668262    0.12886025   31.28320337
     atom   27 type  1   force =     0.03805820   -0.00697689   30.94521031
     atom   28 type  1   force =    -0.42472643   -0.32249483   92.74796465
     atom   29 type  1   force =     0.37233033   -0.25849787   92.67351984
     atom   30 type  1   force =    -0.00190385   -0.00394115   92.57684021
     atom   31 type  1   force =     0.02847549    0.75800965   92.66796150
     atom   32 type  1   force =    -0.02991176   -0.00469327   92.44701615
     atom   33 type  1   force =     0.02472279   -0.00177065   92.43112813
     atom   34 type  1   force =     0.01718535    0.02139822   92.55211379
     atom   35 type  1   force =    -0.00081001    0.03089531   92.50940226
     atom   36 type  1   force =    -0.01650683    0.02293889   92.55813559
     atom   37 type  2   force =     0.02697271   -0.26064252   11.71518676
     The local contribution  to forces
     atom    1 type  1   force =    -0.00407961   -0.00309129   93.37709031
     atom    2 type  1   force =     0.00474081   -0.00299000   93.37830982
     atom    3 type  1   force =    -0.00072392    0.00913497   93.38467751
     atom    4 type  1   force =     0.00041950    0.00395316   93.37507933
     atom    5 type  1   force =     0.00948975    0.00406288   93.39281025
     atom    6 type  1   force =    -0.00995709    0.00464796   93.39194834
     atom    7 type  1   force =     0.00720354   -0.00281918   93.38293051
     atom    8 type  1   force =     0.00027731   -0.00924780   93.39370961
     atom    9 type  1   force =    -0.00766633   -0.00225572   93.38349839
     atom   10 type  1   force =     0.00414261   -0.00719792   31.45559503
     atom   11 type  1   force =     0.06426632    0.02284961   31.51931803
     atom   12 type  1   force =    -0.06904965    0.02558448   31.51199527
     atom   13 type  1   force =     0.06322201    0.02998720   31.50939096
     atom   14 type  1   force =    -0.00148106   -0.00072628   31.60850518
     atom   15 type  1   force =    -0.06311430    0.03584350   31.50483270
     atom   16 type  1   force =     0.00048387   -0.05905573   31.52101479
     atom   17 type  1   force =     0.00490580   -0.05656597   31.52377663
     atom   18 type  1   force =    -0.00778098    0.02390757   31.43259000
     atom   19 type  1   force =    -0.10758438    0.06328750  -31.36788224
     atom   20 type  1   force =     0.11135337    0.05808786  -31.33565090
     atom   21 type  1   force =    -0.00324339    0.06891247  -30.69382515
     atom   22 type  1   force =     0.00045806   -0.05174899  -31.08297376
     atom   23 type  1   force =     0.05373625   -0.03034058  -30.73191017
     atom   24 type  1   force =    -0.05512327   -0.02738185  -30.72858206
     atom   25 type  1   force =     0.03356965    0.00421989  -30.99781144
     atom   26 type  1   force =     0.00651891   -0.12649627  -31.28266375
     atom   27 type  1   force =    -0.03943001    0.00757310  -30.94439834
     atom   28 type  1   force =     0.38471690    0.29402104  -92.75281253
     atom   29 type  1   force =    -0.33006331    0.22973219  -92.68173474
     atom   30 type  1   force =     0.00216074    0.00445679  -92.57580004
     atom   31 type  1   force =    -0.02754997   -0.71844056  -92.65265200
     atom   32 type  1   force =     0.03359337    0.00626244  -92.44919990
     atom   33 type  1   force =    -0.02918868    0.00379047  -92.43382039
     atom   34 type  1   force =    -0.01695447   -0.02073823  -92.55180575
     atom   35 type  1   force =     0.00080074   -0.03147285  -92.51002926
     atom   36 type  1   force =     0.01631896   -0.02256187  -92.55767920
     atom   37 type  2   force =    -0.02655208    0.24545069  -11.70169856
     The core correction contribution to forces
     atom    1 type  1   force =    -0.00003133   -0.00002121    0.01727166
     atom    2 type  1   force =     0.00003228   -0.00002057    0.01727586
     atom    3 type  1   force =     0.00000202   -0.00000996    0.01739969
     atom    4 type  1   force =     0.00000095    0.00003893    0.01726049
     atom    5 type  1   force =     0.00000877   -0.00002679    0.01728199
     atom    6 type  1   force =    -0.00000576   -0.00002264    0.01728377
     atom    7 type  1   force =     0.00003186   -0.00002296    0.01729949
     atom    8 type  1   force =     0.00000498   -0.00000210    0.01727907
     atom    9 type  1   force =    -0.00002450   -0.00002055    0.01731568
     atom   10 type  1   force =     0.00001049   -0.00001820    0.00084538
     atom   11 type  1   force =     0.00009391    0.00005600    0.00116093
     atom   12 type  1   force =    -0.00010792    0.00006713    0.00112968
     atom   13 type  1   force =     0.00012792    0.00006173    0.00108598
     atom   14 type  1   force =    -0.00000403    0.00000202    0.00141308
     atom   15 type  1   force =    -0.00013247    0.00006610    0.00106923
     atom   16 type  1   force =    -0.00001488   -0.00008923    0.00115952
     atom   17 type  1   force =     0.00002069   -0.00007913    0.00117355
     atom   18 type  1   force =    -0.00001826    0.00007746    0.00065987
     atom   19 type  1   force =    -0.00019878    0.00010709   -0.00246744
     atom   20 type  1   force =     0.00020075    0.00009997   -0.00245960
     atom   21 type  1   force =     0.00000080    0.00008362   -0.00192089
     atom   22 type  1   force =     0.00000149   -0.00021889   -0.00187770
     atom   23 type  1   force =     0.00004365   -0.00003586   -0.00189976
     atom   24 type  1   force =    -0.00005279   -0.00004274   -0.00189793
     atom   25 type  1   force =     0.00021422    0.00006879   -0.00187377
     atom   26 type  1   force =     0.00000634   -0.00023220   -0.00242099
     atom   27 type  1   force =    -0.00023456    0.00008069   -0.00185433
     atom   28 type  1   force =     0.00331349    0.00248021   -0.01287707
     atom   29 type  1   force =    -0.00269178    0.00187985   -0.01334902
     atom   30 type  1   force =    -0.00003028   -0.00007907   -0.01649768
     atom   31 type  1   force =    -0.00024604   -0.00821745   -0.01021686
     atom   32 type  1   force =     0.00080593    0.00028585   -0.01634090
     atom   33 type  1   force =    -0.00082970    0.00031533   -0.01632220
     atom   34 type  1   force =    -0.00006898    0.00008560   -0.01655830
     atom   35 type  1   force =     0.00001574   -0.00071247   -0.01638731
     atom   36 type  1   force =     0.00004990    0.00011240   -0.01655455
     atom   37 type  2   force =     0.00000000    0.00000000    0.00000000
     The Hubbard contrib.    to forces
     atom    1 type  1   force =     0.00000000    0.00000000    0.00000000
     atom    2 type  1   force =     0.00000000    0.00000000    0.00000000
     atom    3 type  1   force =     0.00000000    0.00000000    0.00000000
     atom    4 type  1   force =     0.00000000    0.00000000    0.00000000
     atom    5 type  1   force =     0.00000000    0.00000000    0.00000000
     atom    6 type  1   force =     0.00000000    0.00000000    0.00000000
     atom    7 type  1   force =     0.00000000    0.00000000    0.00000000
     atom    8 type  1   force =     0.00000000    0.00000000    0.00000000
     atom    9 type  1   force =     0.00000000    0.00000000    0.00000000
     atom   10 type  1   force =     0.00000000    0.00000000    0.00000000
     atom   11 type  1   force =     0.00000000    0.00000000    0.00000000
     atom   12 type  1   force =     0.00000000    0.00000000    0.00000000
     atom   13 type  1   force =     0.00000000    0.00000000    0.00000000
     atom   14 type  1   force =     0.00000000    0.00000000    0.00000000
     atom   15 type  1   force =     0.00000000    0.00000000    0.00000000
     atom   16 type  1   force =     0.00000000    0.00000000    0.00000000
     atom   17 type  1   force =     0.00000000    0.00000000    0.00000000
     atom   18 type  1   force =     0.00000000    0.00000000    0.00000000
     atom   19 type  1   force =     0.00000000    0.00000000    0.00000000
     atom   20 type  1   force =     0.00000000    0.00000000    0.00000000
     atom   21 type  1   force =     0.00000000    0.00000000    0.00000000
     atom   22 type  1   force =     0.00000000    0.00000000    0.00000000
     atom   23 type  1   force =     0.00000000    0.00000000    0.00000000
     atom   24 type  1   force =     0.00000000    0.00000000    0.00000000
     atom   25 type  1   force =     0.00000000    0.00000000    0.00000000
     atom   26 type  1   force =     0.00000000    0.00000000    0.00000000
     atom   27 type  1   force =     0.00000000    0.00000000    0.00000000
     atom   28 type  1   force =     0.00000000    0.00000000    0.00000000
     atom   29 type  1   force =     0.00000000    0.00000000    0.00000000
     atom   30 type  1   force =     0.00000000    0.00000000    0.00000000
     atom   31 type  1   force =     0.00000000    0.00000000    0.00000000
     atom   32 type  1   force =     0.00000000    0.00000000    0.00000000
     atom   33 type  1   force =     0.00000000    0.00000000    0.00000000
     atom   34 type  1   force =     0.00000000    0.00000000    0.00000000
     atom   35 type  1   force =     0.00000000    0.00000000    0.00000000
     atom   36 type  1   force =     0.00000000    0.00000000    0.00000000
     atom   37 type  2   force =     0.00000000    0.00000000    0.00000000
     The SCF correction term to forces
     atom    1 type  1   force =     0.00000000   -0.00000000   -0.00000000
     atom    2 type  1   force =    -0.00000000    0.00000000   -0.00000000
     atom    3 type  1   force =     0.00000000    0.00000000   -0.00000000
     atom    4 type  1   force =     0.00000000   -0.00000000   -0.00000000
     atom    5 type  1   force =     0.00000000    0.00000000   -0.00000000
     atom    6 type  1   force =    -0.00000000   -0.00000000   -0.00000000
     atom    7 type  1   force =     0.00000000    0.00000000   -0.00000000
     atom    8 type  1   force =    -0.00000000    0.00000000   -0.00000000
     atom    9 type  1   force =    -0.00000000    0.00000000   -0.00000000
     atom   10 type  1   force =     0.00000000   -0.00000000    0.00000000
     atom   11 type  1   force =    -0.00000000    0.00000000   -0.00000000
     atom   12 type  1   force =     0.00000000   -0.00000000   -0.00000000
     atom   13 type  1   force =     0.00000000   -0.00000000   -0.00000000
     atom   14 type  1   force =    -0.00000000    0.00000000   -0.00000000
     atom   15 type  1   force =     0.00000000   -0.00000000   -0.00000000
     atom   16 type  1   force =     0.00000000    0.00000000   -0.00000000
     atom   17 type  1   force =    -0.00000000    0.00000000   -0.00000000
     atom   18 type  1   force =     0.00000000    0.00000000   -0.00000000
     atom   19 type  1   force =     0.00002442   -0.00004353   -0.00004627
     atom   20 type  1   force =     0.00000126   -0.00001967   -0.00005081
     atom   21 type  1   force =    -0.00002518   -0.00001855   -0.00005100
     atom   22 type  1   force =     0.00003592   -0.00001646   -0.00003774
     atom   23 type  1   force =    -0.00001203   -0.00000015   -0.00006117
     atom   24 type  1   force =    -0.00002374    0.00000817   -0.00004307
     atom   25 type  1   force =     0.00002403    0.00001107   -0.00005791
     atom   26 type  1   force =    -0.00000832    0.00003103   -0.00006099
     atom   27 type  1   force =    -0.00001570    0.00004788   -0.00004347
     atom   28 type  1   force =     0.00000940    0.00000032    0.00000988
     atom   29 type  1   force =    -0.00000381    0.00001389    0.00000664
     atom   30 type  1   force =    -0.00000607    0.00000953    0.00001787
     atom   31 type  1   force =     0.00001428   -0.00001633    0.00001545
     atom   32 type  1   force =    -0.00001088   -0.00001351    0.00001230
     atom   33 type  1   force =    -0.00000421   -0.00001424    0.00003477
     atom   34 type  1   force =     0.00000770   -0.00000145    0.00002383
     atom   35 type  1   force =    -0.00000847    0.00001246    0.00002725
     atom   36 type  1   force =     0.00000055    0.00001036    0.00004021
     atom   37 type  2   force =     0.00000131   -0.00000052    0.00000063

     Total force =     0.009322     Total SCF correction =     0.000201

     Writing all to output data dir ./pwscf.save/

     init_run     :     10.24s CPU     10.54s WALL (       1 calls)
     electrons    :    357.79s CPU    367.48s WALL (       1 calls)
     forces       :      4.53s CPU      5.05s WALL (       1 calls)

     Called by init_run:
     wfcinit      :      5.78s CPU      5.95s WALL (       1 calls)
     potinit      :      3.05s CPU      3.12s WALL (       1 calls)
     hinit0       :      0.84s CPU      0.86s WALL (       1 calls)

     Called by electrons:
     c_bands      :    306.04s CPU    311.65s WALL (      22 calls)
     sum_band     :     31.96s CPU     33.04s WALL (      22 calls)
     v_of_rho     :      9.44s CPU     11.25s WALL (      22 calls)
     newd         :      3.10s CPU      3.85s WALL (      22 calls)
     PAW_pot      :      4.73s CPU      4.86s WALL (      22 calls)
     mix_rho      :      4.62s CPU      4.70s WALL (      22 calls)
     vdW_kernel   :      1.69s CPU      1.71s WALL (       1 calls)

     Called by c_bands:
     init_us_2    :      3.20s CPU      3.30s WALL (     598 calls)
     init_us_2:cp :      3.19s CPU      3.30s WALL (     598 calls)
     cegterg      :    298.32s CPU    303.65s WALL (     286 calls)

     Called by *egterg:
     cdiaghg      :     81.08s CPU     81.97s WALL (    1519 calls)
     h_psi        :    137.60s CPU    140.08s WALL (    1545 calls)
     s_psi        :     16.63s CPU     16.85s WALL (    1545 calls)
     g_psi        :      0.54s CPU      0.55s WALL (    1246 calls)

     Called by h_psi:
     h_psi:calbec :     21.84s CPU     22.57s WALL (    1545 calls)
     vloc_psi     :     96.93s CPU     98.33s WALL (    1545 calls)
     add_vuspsi   :     17.55s CPU     17.87s WALL (    1545 calls)

     General routines
     calbec       :     29.79s CPU     30.65s WALL (    1883 calls)
     fft          :      6.28s CPU      7.96s WALL (    1446 calls)
     ffts         :      2.72s CPU      2.76s WALL (    5348 calls)
     fftw         :     92.40s CPU     93.84s WALL (  381260 calls)
     interpolate  :      0.60s CPU      0.66s WALL (      22 calls)

     Parallel routines

     PWSCF        :   6m14.42s CPU   6m27.48s WALL


   This run was terminated on:  16:50:48  23Feb2025            

=------------------------------------------------------------------------------=
   JOB DONE.
=------------------------------------------------------------------------------=
