  37  37   0   0
  0.4190497E+02  0.8468310E-09  0.8468310E-09  0.2496566E-08  0.5000000E-15
  1.000000000000000E-004
  CAR 
 unknown system                          
      8.62170127     -9.91177091  301     -0.07517094      1.00000000
     -9.912  0.0000E+00  0.0000E+00
     -9.850  0.0000E+00  0.0000E+00
     -9.788  0.0000E+00  0.0000E+00
     -9.726 -0.4471E-28 -0.2762E-29
     -9.665 -0.6635E-24 -0.4099E-25
     -9.603 -0.4559E-20 -0.2817E-21
     -9.541 -0.1448E-16 -0.8950E-18
     -9.479 -0.2059E-13 -0.1273E-14
     -9.418 -0.1378E-10 -0.8529E-12
     -9.356 -0.4219E-08 -0.2615E-09
     -9.294 -0.5854E-06 -0.3642E-07
     -9.232 -0.3627E-04 -0.2277E-05
     -9.170 -0.9733E-03 -0.6240E-04
     -9.109 -0.1047E-01 -0.7095E-03
     -9.047 -0.3366E-01 -0.2789E-02
     -8.985  0.5238E-01  0.4470E-03
     -8.923  0.3306E+00  0.2087E-01
     -8.862  0.6228E+00  0.5935E-01
     -8.800  0.2104E+01  0.1893E+00
     -8.738  0.3817E+01  0.4251E+00
     -8.676  0.2182E+01  0.5600E+00
     -8.614 -0.4989E-01  0.5569E+00
     -8.553  0.2867E+00  0.5746E+00
     -8.491  0.2713E+01  0.7422E+00
     -8.429  0.3841E+01  0.9795E+00
     -8.367  0.3666E+01  0.1206E+01
     -8.306  0.3684E+01  0.1434E+01
     -8.244  0.1606E+01  0.1533E+01
     -8.182 -0.1344E+00  0.1524E+01
     -8.120 -0.3762E+00  0.1501E+01
     -8.058  0.5713E+00  0.1537E+01
     -7.997  0.3498E+01  0.1753E+01
     -7.935  0.5874E+01  0.2116E+01
     -7.873  0.5211E+01  0.2437E+01
     -7.811  0.4832E+01  0.2736E+01
     -7.750  0.6975E+01  0.3167E+01
     -7.688  0.6396E+01  0.3562E+01
     -7.626  0.4195E+01  0.3821E+01
     -7.564  0.2719E+01  0.3989E+01
     -7.502  0.4764E+01  0.4283E+01
     -7.441  0.7418E+01  0.4742E+01
     -7.379  0.3358E+01  0.4949E+01
     -7.317 -0.1297E+00  0.4941E+01
     -7.255  0.4468E+01  0.5217E+01
     -7.194  0.1197E+02  0.5956E+01
     -7.132  0.1097E+02  0.6634E+01
     -7.070  0.4524E+01  0.6914E+01
     -7.008  0.7796E+00  0.6962E+01
     -6.946  0.3823E+01  0.7198E+01
     -6.885  0.9845E+01  0.7806E+01
     -6.823  0.8084E+01  0.8305E+01
     -6.761  0.2092E+01  0.8435E+01
     -6.699  0.1817E+01  0.8547E+01
     -6.638  0.6207E+01  0.8930E+01
     -6.576  0.1344E+02  0.9761E+01
     -6.514  0.1606E+02  0.1075E+02
     -6.452  0.1269E+02  0.1154E+02
     -6.390  0.1041E+02  0.1218E+02
     -6.329  0.7733E+01  0.1266E+02
     -6.267  0.8741E+01  0.1320E+02
     -6.205  0.1798E+02  0.1431E+02
     -6.143  0.3126E+02  0.1624E+02
     -6.082  0.3690E+02  0.1852E+02
     -6.020  0.3085E+02  0.2042E+02
     -5.958  0.2916E+02  0.2223E+02
     -5.896  0.3207E+02  0.2421E+02
     -5.834  0.3619E+02  0.2644E+02
     -5.773  0.3211E+02  0.2843E+02
     -5.711  0.2562E+02  0.3001E+02
     -5.649  0.3123E+02  0.3194E+02
     -5.587  0.3947E+02  0.3438E+02
     -5.526  0.4237E+02  0.3699E+02
     -5.464  0.4926E+02  0.4004E+02
     -5.402  0.6137E+02  0.4383E+02
     -5.340  0.6290E+02  0.4772E+02
     -5.278  0.5582E+02  0.5116E+02
     -5.217  0.4948E+02  0.5422E+02
     -5.155  0.4415E+02  0.5695E+02
     -5.093  0.4655E+02  0.5982E+02
     -5.031  0.6567E+02  0.6388E+02
     -4.970  0.6486E+02  0.6789E+02
     -4.908  0.3674E+02  0.7016E+02
     -4.846  0.2378E+02  0.7163E+02
     -4.784  0.3721E+02  0.7393E+02
     -4.722  0.3966E+02  0.7638E+02
     -4.661  0.2260E+02  0.7777E+02
     -4.599  0.2209E+02  0.7914E+02
     -4.537  0.4068E+02  0.8165E+02
     -4.475  0.5864E+02  0.8527E+02
     -4.414  0.6253E+02  0.8914E+02
     -4.352  0.5523E+02  0.9255E+02
     -4.290  0.4746E+02  0.9548E+02
     -4.228  0.4435E+02  0.9822E+02
     -4.166  0.4601E+02  0.1011E+03
     -4.105  0.5504E+02  0.1045E+03
     -4.043  0.5743E+02  0.1080E+03
     -3.981  0.4823E+02  0.1110E+03
     -3.919  0.4403E+02  0.1137E+03
     -3.858  0.4041E+02  0.1162E+03
     -3.796  0.3634E+02  0.1185E+03
     -3.734  0.4094E+02  0.1210E+03
     -3.672  0.5706E+02  0.1245E+03
     -3.610  0.6389E+02  0.1285E+03
     -3.549  0.5778E+02  0.1320E+03
     -3.487  0.5644E+02  0.1355E+03
     -3.425  0.6820E+02  0.1397E+03
     -3.363  0.7764E+02  0.1445E+03
     -3.301  0.7371E+02  0.1491E+03
     -3.240  0.6801E+02  0.1533E+03
     -3.178  0.7174E+02  0.1577E+03
     -3.116  0.8628E+02  0.1630E+03
     -3.054  0.8574E+02  0.1683E+03
     -2.993  0.7564E+02  0.1730E+03
     -2.931  0.7722E+02  0.1778E+03
     -2.869  0.7670E+02  0.1825E+03
     -2.807  0.8271E+02  0.1876E+03
     -2.745  0.1002E+03  0.1938E+03
     -2.684  0.1058E+03  0.2004E+03
     -2.622  0.8594E+02  0.2057E+03
     -2.560  0.6213E+02  0.2095E+03
     -2.498  0.6312E+02  0.2134E+03
     -2.437  0.6102E+02  0.2172E+03
     -2.375  0.4430E+02  0.2199E+03
     -2.313  0.3133E+02  0.2218E+03
     -2.251  0.2434E+02  0.2233E+03
     -2.189  0.2711E+02  0.2250E+03
     -2.128  0.4205E+02  0.2276E+03
     -2.066  0.6364E+02  0.2316E+03
     -2.004  0.8678E+02  0.2369E+03
     -1.942  0.9314E+02  0.2427E+03
     -1.881  0.8190E+02  0.2477E+03
     -1.819  0.6338E+02  0.2516E+03
     -1.757  0.4536E+02  0.2544E+03
     -1.695  0.4057E+02  0.2570E+03
     -1.633  0.4683E+02  0.2598E+03
     -1.572  0.5913E+02  0.2635E+03
     -1.510  0.5958E+02  0.2672E+03
     -1.448  0.5286E+02  0.2704E+03
     -1.386  0.5831E+02  0.2740E+03
     -1.325  0.5948E+02  0.2777E+03
     -1.263  0.5072E+02  0.2809E+03
     -1.201  0.5553E+02  0.2843E+03
     -1.139  0.7441E+02  0.2889E+03
     -1.077  0.8418E+02  0.2941E+03
     -1.016  0.8524E+02  0.2993E+03
     -0.954  0.7121E+02  0.3037E+03
     -0.892  0.5709E+02  0.3073E+03
     -0.830  0.5843E+02  0.3109E+03
     -0.769  0.5240E+02  0.3141E+03
     -0.707  0.4186E+02  0.3167E+03
     -0.645  0.5103E+02  0.3199E+03
     -0.583  0.6296E+02  0.3237E+03
     -0.521  0.5907E+02  0.3274E+03
     -0.460  0.5863E+02  0.3310E+03
     -0.398  0.6793E+02  0.3352E+03
     -0.336  0.8636E+02  0.3406E+03
     -0.274  0.9540E+02  0.3464E+03
     -0.213  0.7373E+02  0.3510E+03
     -0.151  0.5577E+02  0.3544E+03
     -0.089  0.8318E+02  0.3596E+03
     -0.027  0.9823E+02  0.3657E+03
      0.035  0.5938E+02  0.3693E+03
      0.096  0.3181E+02  0.3713E+03
      0.158  0.4832E+02  0.3743E+03
      0.220  0.5781E+02  0.3778E+03
      0.282  0.4624E+02  0.3807E+03
      0.343  0.3856E+02  0.3831E+03
      0.405  0.2735E+02  0.3848E+03
      0.467  0.1340E+02  0.3856E+03
      0.529  0.4736E+01  0.3859E+03
      0.591  0.3126E+01  0.3861E+03
      0.652  0.4047E+01  0.3863E+03
      0.714  0.9844E+01  0.3869E+03
      0.776  0.1677E+02  0.3880E+03
      0.838  0.1275E+02  0.3888E+03
      0.899  0.7370E+01  0.3892E+03
      0.961  0.9869E+01  0.3898E+03
      1.023  0.9634E+01  0.3904E+03
      1.085  0.3106E+01  0.3906E+03
      1.147  0.2317E+01  0.3908E+03
      1.208  0.1033E+02  0.3914E+03
      1.270  0.1460E+02  0.3923E+03
      1.332  0.1306E+02  0.3931E+03
      1.394  0.1064E+02  0.3938E+03
      1.455  0.1350E+02  0.3946E+03
      1.517  0.2571E+02  0.3962E+03
      1.579  0.2724E+02  0.3979E+03
      1.641  0.1882E+02  0.3990E+03
      1.703  0.1537E+02  0.4000E+03
      1.764  0.1036E+02  0.4006E+03
      1.826  0.2528E+01  0.4008E+03
      1.888  0.1602E+01  0.4009E+03
      1.950  0.3711E+01  0.4011E+03
      2.011  0.5367E+01  0.4014E+03
      2.073  0.6691E+01  0.4019E+03
      2.135  0.5003E+01  0.4022E+03
      2.197  0.8087E+01  0.4027E+03
      2.259  0.1274E+02  0.4034E+03
      2.320  0.1126E+02  0.4041E+03
      2.382  0.1381E+02  0.4050E+03
      2.444  0.2115E+02  0.4063E+03
      2.506  0.2090E+02  0.4076E+03
      2.567  0.1216E+02  0.4083E+03
      2.629  0.6927E+01  0.4088E+03
      2.691  0.6152E+01  0.4092E+03
      2.753  0.9509E+01  0.4097E+03
      2.815  0.1829E+02  0.4109E+03
      2.876  0.1971E+02  0.4121E+03
      2.938  0.1341E+02  0.4129E+03
      3.000  0.8021E+01  0.4134E+03
      3.062  0.1035E+02  0.4141E+03
      3.123  0.1404E+02  0.4149E+03
      3.185  0.1159E+02  0.4156E+03
      3.247  0.1038E+02  0.4163E+03
      3.309  0.8846E+01  0.4168E+03
      3.371  0.3441E+01  0.4170E+03
      3.432 -0.4659E+00  0.4170E+03
      3.494  0.1614E+01  0.4171E+03
      3.556  0.1062E+02  0.4178E+03
      3.618  0.2221E+02  0.4191E+03
      3.679  0.2738E+02  0.4208E+03
      3.741  0.2160E+02  0.4222E+03
      3.803  0.1101E+02  0.4228E+03
      3.865  0.4703E+01  0.4231E+03
      3.927  0.3400E+01  0.4233E+03
      3.988  0.3571E+01  0.4236E+03
      4.050  0.4149E+01  0.4238E+03
      4.112  0.6891E+01  0.4242E+03
      4.174  0.8485E+01  0.4248E+03
      4.235  0.7424E+01  0.4252E+03
      4.297  0.5780E+01  0.4256E+03
      4.359  0.1181E+02  0.4263E+03
      4.421  0.2450E+02  0.4278E+03
      4.483  0.2149E+02  0.4292E+03
      4.544  0.7828E+01  0.4296E+03
      4.606  0.5889E+01  0.4300E+03
      4.668  0.1198E+02  0.4307E+03
      4.730  0.1640E+02  0.4318E+03
      4.791  0.1442E+02  0.4326E+03
      4.853  0.8323E+01  0.4332E+03
      4.915  0.4955E+01  0.4335E+03
      4.977  0.8484E+01  0.4340E+03
      5.039  0.1010E+02  0.4346E+03
      5.100  0.4359E+01  0.4349E+03
      5.162  0.3604E+01  0.4351E+03
      5.224  0.1107E+02  0.4358E+03
      5.286  0.1559E+02  0.4368E+03
      5.347  0.1248E+02  0.4375E+03
      5.409  0.7182E+01  0.4380E+03
      5.471  0.1031E+02  0.4386E+03
      5.533  0.1992E+02  0.4398E+03
      5.595  0.2584E+02  0.4414E+03
      5.656  0.2823E+02  0.4432E+03
      5.718  0.2807E+02  0.4449E+03
      5.780  0.2299E+02  0.4463E+03
      5.842  0.1625E+02  0.4473E+03
      5.903  0.1694E+02  0.4484E+03
      5.965  0.2560E+02  0.4500E+03
      6.027  0.3167E+02  0.4519E+03
      6.089  0.2488E+02  0.4535E+03
      6.151  0.1344E+02  0.4543E+03
      6.212  0.1487E+02  0.4552E+03
      6.274  0.2518E+02  0.4568E+03
      6.336  0.3236E+02  0.4588E+03
      6.398  0.2742E+02  0.4605E+03
      6.459  0.1534E+02  0.4614E+03
      6.521  0.1442E+02  0.4623E+03
      6.583  0.2526E+02  0.4639E+03
      6.645  0.3001E+02  0.4657E+03
      6.707  0.2493E+02  0.4672E+03
      6.768  0.1973E+02  0.4685E+03
      6.830  0.1707E+02  0.4695E+03
      6.892  0.1666E+02  0.4706E+03
      6.954  0.1539E+02  0.4715E+03
      7.015  0.1223E+02  0.4723E+03
      7.077  0.1731E+02  0.4733E+03
      7.139  0.2500E+02  0.4749E+03
      7.201  0.2374E+02  0.4763E+03
      7.263  0.1723E+02  0.4774E+03
      7.324  0.1138E+02  0.4781E+03
      7.386  0.5411E+01  0.4784E+03
      7.448  0.4533E+01  0.4787E+03
      7.510  0.7756E+01  0.4792E+03
      7.571  0.6274E+01  0.4796E+03
      7.633  0.4069E+01  0.4798E+03
      7.695  0.2510E+01  0.4800E+03
      7.757  0.3847E+00  0.4800E+03
      7.819 -0.1980E+00  0.4800E+03
      7.880 -0.6220E-01  0.4800E+03
      7.942 -0.5756E-02  0.4800E+03
      8.004 -0.2136E-03  0.4800E+03
      8.066 -0.3433E-05  0.4800E+03
      8.127 -0.2465E-07  0.4800E+03
      8.189 -0.8021E-10  0.4800E+03
      8.251 -0.1202E-12  0.4800E+03
      8.313  0.0000E+00  0.4800E+03
      8.375  0.0000E+00  0.4800E+03
      8.436  0.0000E+00  0.4800E+03
      8.498  0.0000E+00  0.4800E+03
      8.560  0.0000E+00  0.4800E+03
      8.622  0.0000E+00  0.4800E+03
