   37   37    1    1
  0.4190497E+02  0.8468310E-09  0.8468310E-09  0.2496566E-08  0.5000000E-15
  1.000000000000000E-004
  CAR 
 unknown system                          
    361     13    240
 
  0.1276756E-14  0.1276756E-14  0.1276756E-14  0.4000000E-01
      1         -8.911771   1.000000
      2         -7.888792   1.000000
      3         -7.174691   1.000000
      4         -6.503619   1.000000
      5         -6.476208   1.000000
      6         -6.455741   1.000000
      7         -6.452366   1.000000
      8         -6.446993   1.000000
      9         -6.440159   1.000000
     10         -6.428251   1.000000
     11         -6.173149   1.000000
     12         -5.924624   1.000000
     13         -5.920798   1.000000
     14         -5.899878   1.000000
     15         -5.897244   1.000000
     16         -5.892986   1.000000
     17         -5.844276   1.000000
     18         -5.466280   1.000000
     19         -5.465808   1.000000
     20         -5.459572   1.000000
     21         -5.452167   1.000000
     22         -5.451490   1.000000
     23         -5.331313   1.000000
     24         -5.231155   1.000000
     25         -5.226096   1.000000
     26         -5.221252   1.000000
     27         -5.221031   1.000000
     28         -5.215774   1.000000
     29         -5.139310   1.000000
     30         -5.033025   1.000000
     31         -5.032377   1.000000
     32         -5.022690   1.000000
     33         -5.020752   1.000000
     34         -5.018000   1.000000
     35         -4.964661   1.000000
     36         -4.963982   1.000000
     37         -4.960455   1.000000
     38         -4.951392   1.000000
     39         -4.917918   1.000000
     40         -4.916980   1.000000
     41         -4.488183   1.000000
     42         -4.379987   1.000000
     43         -4.370137   1.000000
     44         -4.348379   1.000000
     45         -4.347204   1.000000
     46         -4.320517   1.000000
     47         -4.319892   1.000000
     48         -4.298818   1.000000
     49         -4.280962   1.000000
     50         -4.278281   1.000000
     51         -4.161944   1.000000
     52         -4.136526   1.000000
     53         -4.135898   1.000000
     54         -4.031967   1.000000
     55         -4.031531   1.000000
     56         -3.582006   1.000000
     57         -3.579361   1.000000
     58         -3.563101   1.000000
     59         -3.559583   1.000000
     60         -3.559079   1.000000
     61         -3.496239   1.000000
     62         -3.463334   1.000000
     63         -3.383181   1.000000
     64         -3.379947   1.000000
     65         -3.376456   1.000000
     66         -3.375598   1.000000
     67         -3.365846   1.000000
     68         -3.365373   1.000000
     69         -3.347966   1.000000
     70         -3.317144   1.000000
     71         -3.316433   1.000000
     72         -3.299656   1.000000
     73         -3.297441   1.000000
     74         -3.295425   1.000000
     75         -3.270398   1.000000
     76         -3.262002   1.000000
     77         -3.260923   1.000000
     78         -3.157703   1.000000
     79         -3.157086   1.000000
     80         -3.137984   1.000000
     81         -3.136059   1.000000
     82         -3.133274   1.000000
     83         -3.104626   1.000000
     84         -2.943718   1.000000
     85         -2.942748   1.000000
     86         -2.936490   1.000000
     87         -2.932974   1.000000
     88         -2.924537   1.000000
     89         -2.902107   1.000000
     90         -2.891917   1.000000
     91         -2.885436   1.000000
     92         -2.835192   1.000000
     93         -2.834438   1.000000
     94         -2.787882   1.000000
     95         -2.787470   1.000000
     96         -2.746384   1.000000
     97         -2.740088   1.000000
     98         -2.703063   1.000000
     99         -2.691587   1.000000
    100         -2.691415   1.000000
    101         -2.599618   1.000000
    102         -2.531556   1.000000
    103         -2.525175   1.000000
    104         -2.516027   1.000000
    105         -2.505398   1.000000
    106         -2.502327   1.000000
    107         -2.499454   1.000000
    108         -2.284556   1.000000
    109         -2.010665   1.000000
    110         -2.007152   1.000000
    111         -2.000297   1.000000
    112         -1.990734   1.000000
    113         -1.985175   1.000000
    114         -1.973922   1.000000
    115         -1.972577   1.000000
    116         -1.971278   1.000000
    117         -1.964814   1.000000
    118         -1.961459   1.000000
    119         -1.951948   1.000000
    120         -1.866197   1.000000
    121         -1.865844   1.000000
    122         -1.818345   1.000000
    123         -1.736270   1.000000
    124         -1.734636   1.000000
    125         -1.724496   1.000000
    126         -1.723776   1.000000
    127         -1.708408   1.000000
    128         -1.608679   1.000000
    129         -1.607281   1.000000
    130         -1.538565   1.000000
    131         -1.538432   1.000000
    132         -1.516925   1.000000
    133         -1.502073   1.000000
    134         -1.290287   1.000000
    135         -1.283946   1.000000
    136         -1.264994   1.000000
    137         -1.260310   1.000000
    138         -1.253784   1.000000
    139         -1.253561   1.000000
    140         -1.183841   1.000000
    141         -1.183069   1.000000
    142         -1.043470   1.000000
    143         -1.039883   1.000000
    144         -1.039487   1.000000
    145         -1.037906   1.000000
    146         -1.025915   1.000000
    147         -1.024037   1.000000
    148         -0.865699   1.000000
    149         -0.861956   1.000000
    150         -0.858605   1.000000
    151         -0.839230   1.000000
    152         -0.836207   1.000000
    153         -0.827126   1.000000
    154         -0.821895   1.000000
    155         -0.820371   1.000000
    156         -0.814529   1.000000
    157         -0.805774   1.000000
    158         -0.804710   1.000000
    159         -0.802896   1.000000
    160         -0.720599   1.000000
    161         -0.711240   1.000000
    162         -0.709770   1.000000
    163         -0.687760   1.000000
    164         -0.686243   1.000000
    165         -0.654424   1.000000
    166         -0.652565   1.000000
    167         -0.642505   1.000000
    168         -0.601636   1.000000
    169         -0.597029   1.000000
    170         -0.595049   1.000000
    171         -0.559691   1.000000
    172         -0.554627   1.000000
    173         -0.545395   1.000000
    174         -0.542767   1.000000
    175         -0.540614   1.000000
    176         -0.461489   1.000000
    177         -0.460157   1.000000
    178         -0.446197   1.000001
    179         -0.439441   1.000002
    180         -0.431693   1.000003
    181         -0.430813   1.000003
    182         -0.380230   1.000070
    183         -0.343213   1.000498
    184         -0.342126   1.000525
    185         -0.325189   1.001157
    186         -0.319781   1.001468
    187         -0.310853   1.002143
    188         -0.310682   1.002158
    189         -0.114403   0.805376
    190         -0.106076   0.748207
    191         -0.014607   0.077469
    192         -0.009959   0.057968
    193         -0.009135   0.054735
    194          0.001925   0.017760
    195          0.003381   0.013751
    196          0.012003  -0.006193
    197          0.550679  -0.000000
    198          0.824500  -0.000000
    199          0.846310  -0.000000
    200          0.849078  -0.000000
    201          0.890865  -0.000000
    202          0.901639  -0.000000
    203          0.903955  -0.000000
    204          2.848815   0.000000
    205          3.142693   0.000000
    206          3.146400   0.000000
    207          3.208654   0.000000
    208          3.211548   0.000000
    209          3.217895   0.000000
    210          4.697899   0.000000
    211          4.719453   0.000000
    212          4.720233   0.000000
    213          4.815330   0.000000
    214          4.822784   0.000000
    215          4.823939   0.000000
    216          4.928838   0.000000
    217          5.113017   0.000000
    218          5.382998   0.000000
    219          5.434896   0.000000
    220          5.436173   0.000000
    221          5.793779   0.000000
    222          5.797830   0.000000
    223          5.853525   0.000000
    224          5.860745   0.000000
    225          5.866693   0.000000
    226          6.095416   0.000000
    227          6.321958   0.000000
    228          6.612855   0.000000
    229          6.615882   0.000000
    230          6.616310   0.000000
    231          6.830532   0.000000
    232          7.047639   0.000000
    233          7.142116   0.000000
    234          7.143537   0.000000
    235          7.168818   0.000000
    236          7.170036   0.000000
    237          7.173674   0.000000
    238          7.267189   0.000000
    239          7.267698   0.000000
    240          7.494015   0.000000
 
  0.2000000E+00  0.1278043E-14  0.1276756E-14  0.8000000E-01
      1         -8.764634   1.000000
      2         -7.783427   1.000000
      3         -7.118429   1.000000
      4         -6.930499   1.000000
      5         -6.561272   1.000000
      6         -6.554180   1.000000
      7         -6.361677   1.000000
      8         -6.265231   1.000000
      9         -6.221668   1.000000
     10         -6.215691   1.000000
     11         -6.139435   1.000000
     12         -6.004059   1.000000
     13         -5.962653   1.000000
     14         -5.851161   1.000000
     15         -5.829719   1.000000
     16         -5.824232   1.000000
     17         -5.767055   1.000000
     18         -5.537165   1.000000
     19         -5.424442   1.000000
     20         -5.416483   1.000000
     21         -5.406515   1.000000
     22         -5.383820   1.000000
     23         -5.337486   1.000000
     24         -5.299037   1.000000
     25         -5.277495   1.000000
     26         -5.242389   1.000000
     27         -5.220255   1.000000
     28         -5.214438   1.000000
     29         -5.145467   1.000000
     30         -5.115801   1.000000
     31         -5.106336   1.000000
     32         -5.038782   1.000000
     33         -5.021626   1.000000
     34         -5.010461   1.000000
     35         -5.007497   1.000000
     36         -4.867909   1.000000
     37         -4.813994   1.000000
     38         -4.781462   1.000000
     39         -4.775401   1.000000
     40         -4.753693   1.000000
     41         -4.533901   1.000000
     42         -4.495926   1.000000
     43         -4.487707   1.000000
     44         -4.456683   1.000000
     45         -4.413381   1.000000
     46         -4.393530   1.000000
     47         -4.384746   1.000000
     48         -4.317874   1.000000
     49         -4.210469   1.000000
     50         -4.173967   1.000000
     51         -4.123006   1.000000
     52         -4.109090   1.000000
     53         -4.059897   1.000000
     54         -4.046147   1.000000
     55         -4.014288   1.000000
     56         -3.831029   1.000000
     57         -3.736881   1.000000
     58         -3.732623   1.000000
     59         -3.680372   1.000000
     60         -3.659528   1.000000
     61         -3.620747   1.000000
     62         -3.582375   1.000000
     63         -3.566122   1.000000
     64         -3.553350   1.000000
     65         -3.531899   1.000000
     66         -3.525571   1.000000
     67         -3.469361   1.000000
     68         -3.450189   1.000000
     69         -3.404237   1.000000
     70         -3.371556   1.000000
     71         -3.363305   1.000000
     72         -3.331594   1.000000
     73         -3.275054   1.000000
     74         -3.265073   1.000000
     75         -3.242830   1.000000
     76         -3.182101   1.000000
     77         -3.172091   1.000000
     78         -3.163716   1.000000
     79         -3.130741   1.000000
     80         -3.100761   1.000000
     81         -3.080155   1.000000
     82         -3.071877   1.000000
     83         -3.034191   1.000000
     84         -3.010674   1.000000
     85         -2.963163   1.000000
     86         -2.960152   1.000000
     87         -2.941138   1.000000
     88         -2.932420   1.000000
     89         -2.910558   1.000000
     90         -2.903357   1.000000
     91         -2.870025   1.000000
     92         -2.839312   1.000000
     93         -2.801271   1.000000
     94         -2.789366   1.000000
     95         -2.775606   1.000000
     96         -2.758606   1.000000
     97         -2.733961   1.000000
     98         -2.727255   1.000000
     99         -2.703289   1.000000
    100         -2.682874   1.000000
    101         -2.618693   1.000000
    102         -2.569945   1.000000
    103         -2.557586   1.000000
    104         -2.520051   1.000000
    105         -2.510427   1.000000
    106         -2.504713   1.000000
    107         -2.498227   1.000000
    108         -2.494913   1.000000
    109         -2.448220   1.000000
    110         -2.437687   1.000000
    111         -2.430952   1.000000
    112         -2.422243   1.000000
    113         -2.183513   1.000000
    114         -2.074607   1.000000
    115         -2.028906   1.000000
    116         -2.011793   1.000000
    117         -1.999877   1.000000
    118         -1.990701   1.000000
    119         -1.981960   1.000000
    120         -1.952175   1.000000
    121         -1.937596   1.000000
    122         -1.875582   1.000000
    123         -1.806861   1.000000
    124         -1.780880   1.000000
    125         -1.708673   1.000000
    126         -1.655166   1.000000
    127         -1.651147   1.000000
    128         -1.606183   1.000000
    129         -1.592356   1.000000
    130         -1.584566   1.000000
    131         -1.550762   1.000000
    132         -1.542702   1.000000
    133         -1.528949   1.000000
    134         -1.441591   1.000000
    135         -1.410733   1.000000
    136         -1.396816   1.000000
    137         -1.387085   1.000000
    138         -1.378065   1.000000
    139         -1.225018   1.000000
    140         -1.207598   1.000000
    141         -1.171847   1.000000
    142         -1.171032   1.000000
    143         -1.150766   1.000000
    144         -1.150163   1.000000
    145         -1.122694   1.000000
    146         -1.050458   1.000000
    147         -1.042469   1.000000
    148         -1.006669   1.000000
    149         -0.992580   1.000000
    150         -0.989782   1.000000
    151         -0.930284   1.000000
    152         -0.926436   1.000000
    153         -0.910980   1.000000
    154         -0.897077   1.000000
    155         -0.809272   1.000000
    156         -0.797697   1.000000
    157         -0.772704   1.000000
    158         -0.766951   1.000000
    159         -0.722690   1.000000
    160         -0.664385   1.000000
    161         -0.656683   1.000000
    162         -0.624867   1.000000
    163         -0.609503   1.000000
    164         -0.594043   1.000000
    165         -0.561748   1.000000
    166         -0.546229   1.000000
    167         -0.485325   1.000000
    168         -0.479345   1.000000
    169         -0.411660   1.000011
    170         -0.408533   1.000013
    171         -0.394758   1.000030
    172         -0.388492   1.000043
    173         -0.361607   1.000195
    174         -0.355759   1.000265
    175         -0.350486   1.000347
    176         -0.339577   1.000594
    177         -0.329943   1.000933
    178         -0.273892   1.008330
    179         -0.269244   1.009636
    180         -0.126160   0.875482
    181         -0.120767   0.844957
    182         -0.103450   0.729038
    183         -0.087570   0.604039
    184         -0.070678   0.462019
    185         -0.067979   0.439313
    186         -0.033705   0.180306
    187         -0.021389   0.109840
    188         -0.004852   0.039018
    189          0.004948   0.009649
    190          0.066302  -0.031221
    191          0.101779  -0.015631
    192          0.130264  -0.006681
    193          0.203078  -0.000299
    194          0.291659  -0.000001
    195          0.295034  -0.000001
    196          0.312221  -0.000000
    197          0.354915  -0.000000
    198          0.696050  -0.000000
    199          0.747269  -0.000000
    200          1.257346  -0.000000
    201          1.457408  -0.000000
    202          1.482226  -0.000000
    203          1.596633  -0.000000
    204          2.395186  -0.000000
    205          2.825655   0.000000
    206          2.906852   0.000000
    207          3.572392   0.000000
    208          3.649601   0.000000
    209          3.650561   0.000000
    210          3.739507   0.000000
    211          3.973402   0.000000
    212          4.444810   0.000000
    213          4.602895   0.000000
    214          4.763505   0.000000
    215          4.975311   0.000000
    216          4.979997   0.000000
    217          5.022544   0.000000
    218          5.231719   0.000000
    219          5.334953   0.000000
    220          5.459802   0.000000
    221          5.654118   0.000000
    222          5.706319   0.000000
    223          5.770579   0.000000
    224          5.895624   0.000000
    225          6.134056   0.000000
    226          6.213828   0.000000
    227          6.274741   0.000000
    228          6.335454   0.000000
    229          6.345732   0.000000
    230          6.632270   0.000000
    231          6.658594   0.000000
    232          6.765104   0.000000
    233          6.797872   0.000000
    234          6.867048   0.000000
    235          6.921491   0.000000
    236          7.048811   0.000000
    237          7.283721   0.000000
    238          7.480453   0.000000
    239          7.488393   0.000000
    240          7.621164   0.000000
 
  0.2000000E+00  0.2000000E+00  0.1276756E-14  0.8000000E-01
      1         -8.764675   1.000000
      2         -7.783429   1.000000
      3         -7.119354   1.000000
      4         -6.930821   1.000000
      5         -6.560651   1.000000
      6         -6.552816   1.000000
      7         -6.361857   1.000000
      8         -6.267611   1.000000
      9         -6.220214   1.000000
     10         -6.214930   1.000000
     11         -6.139629   1.000000
     12         -6.004447   1.000000
     13         -5.960922   1.000000
     14         -5.854246   1.000000
     15         -5.831411   1.000000
     16         -5.822386   1.000000
     17         -5.766881   1.000000
     18         -5.536281   1.000000
     19         -5.425750   1.000000
     20         -5.416394   1.000000
     21         -5.408460   1.000000
     22         -5.382066   1.000000
     23         -5.337466   1.000000
     24         -5.296582   1.000000
     25         -5.277279   1.000000
     26         -5.243401   1.000000
     27         -5.218877   1.000000
     28         -5.215904   1.000000
     29         -5.145555   1.000000
     30         -5.114783   1.000000
     31         -5.107506   1.000000
     32         -5.041382   1.000000
     33         -5.021249   1.000000
     34         -5.011083   1.000000
     35         -5.007075   1.000000
     36         -4.865561   1.000000
     37         -4.814222   1.000000
     38         -4.780723   1.000000
     39         -4.776541   1.000000
     40         -4.752439   1.000000
     41         -4.533656   1.000000
     42         -4.494869   1.000000
     43         -4.484973   1.000000
     44         -4.458545   1.000000
     45         -4.415960   1.000000
     46         -4.394190   1.000000
     47         -4.382923   1.000000
     48         -4.317298   1.000000
     49         -4.209197   1.000000
     50         -4.173822   1.000000
     51         -4.123118   1.000000
     52         -4.109055   1.000000
     53         -4.061436   1.000000
     54         -4.046886   1.000000
     55         -4.013438   1.000000
     56         -3.828533   1.000000
     57         -3.736491   1.000000
     58         -3.733608   1.000000
     59         -3.677382   1.000000
     60         -3.658374   1.000000
     61         -3.619550   1.000000
     62         -3.579471   1.000000
     63         -3.569393   1.000000
     64         -3.553619   1.000000
     65         -3.532300   1.000000
     66         -3.526477   1.000000
     67         -3.470334   1.000000
     68         -3.449734   1.000000
     69         -3.401713   1.000000
     70         -3.371371   1.000000
     71         -3.362406   1.000000
     72         -3.330129   1.000000
     73         -3.279815   1.000000
     74         -3.267658   1.000000
     75         -3.250503   1.000000
     76         -3.182436   1.000000
     77         -3.170426   1.000000
     78         -3.163077   1.000000
     79         -3.130378   1.000000
     80         -3.099118   1.000000
     81         -3.073022   1.000000
     82         -3.070385   1.000000
     83         -3.038230   1.000000
     84         -3.010077   1.000000
     85         -2.963027   1.000000
     86         -2.962630   1.000000
     87         -2.938355   1.000000
     88         -2.931672   1.000000
     89         -2.911638   1.000000
     90         -2.904548   1.000000
     91         -2.868978   1.000000
     92         -2.839999   1.000000
     93         -2.797173   1.000000
     94         -2.793929   1.000000
     95         -2.773306   1.000000
     96         -2.759177   1.000000
     97         -2.733221   1.000000
     98         -2.729896   1.000000
     99         -2.705744   1.000000
    100         -2.682900   1.000000
    101         -2.618716   1.000000
    102         -2.569549   1.000000
    103         -2.558118   1.000000
    104         -2.519135   1.000000
    105         -2.511708   1.000000
    106         -2.506938   1.000000
    107         -2.497771   1.000000
    108         -2.494493   1.000000
    109         -2.448611   1.000000
    110         -2.439151   1.000000
    111         -2.430248   1.000000
    112         -2.421374   1.000000
    113         -2.180339   1.000000
    114         -2.073857   1.000000
    115         -2.028719   1.000000
    116         -2.011807   1.000000
    117         -2.001916   1.000000
    118         -1.993956   1.000000
    119         -1.980399   1.000000
    120         -1.950026   1.000000
    121         -1.938062   1.000000
    122         -1.876621   1.000000
    123         -1.807398   1.000000
    124         -1.782213   1.000000
    125         -1.710421   1.000000
    126         -1.655421   1.000000
    127         -1.652193   1.000000
    128         -1.602032   1.000000
    129         -1.594472   1.000000
    130         -1.586365   1.000000
    131         -1.551015   1.000000
    132         -1.544662   1.000000
    133         -1.529967   1.000000
    134         -1.443551   1.000000
    135         -1.407990   1.000000
    136         -1.395735   1.000000
    137         -1.387389   1.000000
    138         -1.377646   1.000000
    139         -1.224229   1.000000
    140         -1.209074   1.000000
    141         -1.172564   1.000000
    142         -1.170826   1.000000
    143         -1.150537   1.000000
    144         -1.149660   1.000000
    145         -1.122679   1.000000
    146         -1.050045   1.000000
    147         -1.041698   1.000000
    148         -1.006320   1.000000
    149         -0.992522   1.000000
    150         -0.988885   1.000000
    151         -0.928189   1.000000
    152         -0.925411   1.000000
    153         -0.911270   1.000000
    154         -0.898977   1.000000
    155         -0.809231   1.000000
    156         -0.796980   1.000000
    157         -0.770338   1.000000
    158         -0.767280   1.000000
    159         -0.724601   1.000000
    160         -0.664474   1.000000
    161         -0.656530   1.000000
    162         -0.625177   1.000000
    163         -0.610511   1.000000
    164         -0.596607   1.000000
    165         -0.564672   1.000000
    166         -0.546902   1.000000
    167         -0.484864   1.000000
    168         -0.478971   1.000000
    169         -0.410331   1.000011
    170         -0.408020   1.000013
    171         -0.395000   1.000030
    172         -0.390684   1.000038
    173         -0.359342   1.000220
    174         -0.355641   1.000267
    175         -0.351072   1.000337
    176         -0.339972   1.000583
    177         -0.329119   1.000969
    178         -0.275918   1.007803
    179         -0.271436   1.009003
    180         -0.126939   0.879654
    181         -0.123102   0.858525
    182         -0.101404   0.713761
    183         -0.085490   0.586814
    184         -0.068828   0.446441
    185         -0.067623   0.436328
    186         -0.032405   0.172177
    187         -0.020801   0.106852
    188         -0.001608   0.028299
    189          0.007260   0.003991
    190          0.065207  -0.031633
    191          0.101893  -0.015585
    192          0.129622  -0.006827
    193          0.204016  -0.000285
    194          0.291777  -0.000001
    195          0.296884  -0.000001
    196          0.312535  -0.000000
    197          0.351483  -0.000000
    198          0.699526  -0.000000
    199          0.749864  -0.000000
    200          1.256668  -0.000000
    201          1.456732  -0.000000
    202          1.480704  -0.000000
    203          1.595886  -0.000000
    204          2.392670  -0.000000
    205          2.827420   0.000000
    206          2.909324   0.000000
    207          3.570455   0.000000
    208          3.650006   0.000000
    209          3.652095   0.000000
    210          3.740255   0.000000
    211          3.972354   0.000000
    212          4.443995   0.000000
    213          4.602068   0.000000
    214          4.759014   0.000000
    215          4.976644   0.000000
    216          4.980690   0.000000
    217          5.022464   0.000000
    218          5.232283   0.000000
    219          5.337001   0.000000
    220          5.462141   0.000000
    221          5.650999   0.000000
    222          5.704516   0.000000
    223          5.774124   0.000000
    224          5.898058   0.000000
    225          6.128516   0.000000
    226          6.213894   0.000000
    227          6.278421   0.000000
    228          6.336563   0.000000
    229          6.348640   0.000000
    230          6.634733   0.000000
    231          6.659288   0.000000
    232          6.764273   0.000000
    233          6.796993   0.000000
    234          6.865895   0.000000
    235          6.921494   0.000000
    236          7.046979   0.000000
    237          7.281803   0.000000
    238          7.479451   0.000000
    239          7.485813   0.000000
    240          7.621303   0.000000
 
  0.1276756E-14  0.2000000E+00  0.1276756E-14  0.8000000E-01
      1         -8.764651   1.000000
      2         -7.783807   1.000000
      3         -7.118672   1.000000
      4         -6.929105   1.000000
      5         -6.561990   1.000000
      6         -6.554865   1.000000
      7         -6.361629   1.000000
      8         -6.263722   1.000000
      9         -6.221901   1.000000
     10         -6.216977   1.000000
     11         -6.140201   1.000000
     12         -6.004162   1.000000
     13         -5.960713   1.000000
     14         -5.850984   1.000000
     15         -5.829229   1.000000
     16         -5.824130   1.000000
     17         -5.767695   1.000000
     18         -5.537765   1.000000
     19         -5.424184   1.000000
     20         -5.416625   1.000000
     21         -5.405658   1.000000
     22         -5.383090   1.000000
     23         -5.337850   1.000000
     24         -5.298931   1.000000
     25         -5.277916   1.000000
     26         -5.243077   1.000000
     27         -5.218907   1.000000
     28         -5.215025   1.000000
     29         -5.144785   1.000000
     30         -5.116610   1.000000
     31         -5.106413   1.000000
     32         -5.037332   1.000000
     33         -5.021629   1.000000
     34         -5.010659   1.000000
     35         -5.007477   1.000000
     36         -4.867532   1.000000
     37         -4.814104   1.000000
     38         -4.780873   1.000000
     39         -4.776144   1.000000
     40         -4.755099   1.000000
     41         -4.533264   1.000000
     42         -4.496766   1.000000
     43         -4.487664   1.000000
     44         -4.456467   1.000000
     45         -4.413327   1.000000
     46         -4.393459   1.000000
     47         -4.384724   1.000000
     48         -4.318444   1.000000
     49         -4.210993   1.000000
     50         -4.174107   1.000000
     51         -4.123062   1.000000
     52         -4.109098   1.000000
     53         -4.059572   1.000000
     54         -4.046155   1.000000
     55         -4.013761   1.000000
     56         -3.832769   1.000000
     57         -3.736123   1.000000
     58         -3.732926   1.000000
     59         -3.682377   1.000000
     60         -3.661185   1.000000
     61         -3.621090   1.000000
     62         -3.584287   1.000000
     63         -3.564116   1.000000
     64         -3.552203   1.000000
     65         -3.531618   1.000000
     66         -3.524451   1.000000
     67         -3.469860   1.000000
     68         -3.449814   1.000000
     69         -3.404609   1.000000
     70         -3.371672   1.000000
     71         -3.363893   1.000000
     72         -3.333261   1.000000
     73         -3.273468   1.000000
     74         -3.262521   1.000000
     75         -3.237799   1.000000
     76         -3.182546   1.000000
     77         -3.173156   1.000000
     78         -3.164560   1.000000