 running   48 mpi-ranks, on    1 nodes
 distrk:  each k-point on   48 cores,    1 groups
 distr:  one band on    1 cores,   48 groups
 vasp.6.4.2 20Jul23 (build Mar 01 2024 16:46:03) complex                        
  
 POSCAR found type information on POSCAR PtH 
 POSCAR found :  2 types and      37 ions
 Reading from existing POTCAR
 scaLAPACK will be used
 -----------------------------------------------------------------------------
|                                                                             |
|           W    W    AA    RRRRR   N    N  II  N    N   GGGG   !!!           |
|           W    W   A  A   R    R  NN   N  II  NN   N  G    G  !!!           |
|           W    W  A    A  R    R  N N  N  II  N N  N  G       !!!           |
|           W WW W  AAAAAA  RRRRR   N  N N  II  N  N N  G  GGG   !            |
|           WW  WW  A    A  R   R   N   NN  II  N   NN  G    G                |
|           W    W  A    A  R    R  N    N  II  N    N   GGGG   !!!           |
|                                                                             |
|     For optimal performance we recommend to set                             |
|       NCORE = 2 up to number-of-cores-per-socket                            |
|     NCORE specifies how many cores store one orbital (NPAR=cpu/NCORE).      |
|     This setting can greatly improve the performance of VASP for DFT.       |
|     The default, NCORE=1 might be grossly inefficient on modern             |
|     multi-core architectures or massively parallel machines. Do your        |
|     own testing! More info at https://www.vasp.at/wiki/index.php/NCORE      |
|     Unfortunately you need to use the default for GW and RPA                |
|     calculations (for HF NCORE is supported but not extensively tested      |
|     yet).                                                                   |
|                                                                             |
 -----------------------------------------------------------------------------


     **************************************************************************
     Initializing libbeef V0.1.3 with the BEEF-vdW functional.
     Citation: Wellendorff et al., PRB 85, 235149 (2012).
     **************************************************************************

 -----------------------------------------------------------------------------
|                                                                             |
|               ----> ADVICE to this user running VASP <----                  |
|                                                                             |
|     You have switched on vdW-DFT.                                           |
|     This routine was written and supplied by Jiri Klimes. We recommend      |
|     that you carefully read and cite the following publications:            |
|       J. Klimes, D.R. Bowler, A. Michelides                                 |
|          J. Phys.: Cond Matt. 22 022201 (2010)                              |
|       J. Klimes, D.R. Bowler, A. Michelides                                 |
|          Phys. Rev. B. 83, 195131 (2011)                                    |
|     and references therein.                                                 |
|                                                                             |
 -----------------------------------------------------------------------------

 Reading from existing POTCAR
 -----------------------------------------------------------------------------
|                                                                             |
|               ----> ADVICE to this user running VASP <----                  |
|                                                                             |
|     You enforced a specific xc type in the INCAR file but a different       |
|     type was found in the POTCAR file.                                      |
|     I HOPE YOU KNOW WHAT YOU ARE DOING!                                     |
|                                                                             |
 -----------------------------------------------------------------------------

 LDA part: xc-table for Pade appr. of Perdew
 found WAVECAR, reading the header
 POSCAR, INCAR and KPOINTS ok, starting setup
 FFT: planning ... GRIDC
 FFT: planning ... GRID_SOFT
 FFT: planning ... GRID
 reading WAVECAR
 the WAVECAR file was read successfully
 initial charge from wavefunction
 entering main loop
       N       E                     dE             d eps       ncg     rms          rms(c)
Total vdW correction in eV:     52.0027683
DAV:   1    -0.104544872694E+03   -0.10454E+03   -0.88945E-02  6816   0.539E-01    0.877E-01
Total vdW correction in eV:     52.0036675
RMM:   2    -0.104905092168E+03   -0.36022E+00   -0.94955E-02  6699   0.476E-01    0.689E+00
Total vdW correction in eV:     52.0034979
RMM:   3    -0.104563735164E+03    0.34136E+00   -0.49638E-02  6724   0.384E-01    0.169E+00
Total vdW correction in eV:     52.0032747
RMM:   4    -0.104537512106E+03    0.26223E-01   -0.10408E-02  6773   0.172E-01    0.210E-01
Total vdW correction in eV:     52.0033504
RMM:   5    -0.104537180381E+03    0.33172E-03   -0.16266E-03  6861   0.646E-02    0.174E-01
Total vdW correction in eV:     52.0034541
RMM:   6    -0.104537016751E+03    0.16363E-03   -0.31407E-04  7005   0.302E-02    0.843E-02
Total vdW correction in eV:     52.0035424
RMM:   7    -0.104537010947E+03    0.58040E-05   -0.11616E-04  6913   0.173E-02    0.683E-02
Total vdW correction in eV:     52.0036326
RMM:   8    -0.104537024523E+03   -0.13575E-04   -0.69463E-05  6756   0.139E-02    0.713E-02
Total vdW correction in eV:     52.0036305
RMM:   9    -0.104536996911E+03    0.27612E-04   -0.30340E-05  5108   0.954E-03    0.134E-02
Total vdW correction in eV:     52.0035075
RMM:  10    -0.104537003968E+03   -0.70570E-05   -0.80642E-06  4249   0.460E-03
Total vdW correction in eV:     52.0032400
Total vdW correction in eV:     52.0034523
   1 F= -.10453700E+03 E0= -.10450473E+03  d E =-.968245E-01
 writing wavefunctions
