unknown system                          
           1
     8.468310    0.000000    0.000000
     4.234155    7.333772    0.000000
     0.000000    0.000000   24.965662
   Pt   H 
    36     1
Direct configuration=     1
   0.00000000  0.00000000  0.34046764
   0.33400137  0.00000000  0.34046764
   0.66800274  0.00000000  0.34046764
   0.00000000  0.33400137  0.34046764
   0.33400137  0.33400137  0.34046764
   0.66800274  0.33400137  0.34046764
   0.00000000  0.66800274  0.34046764
   0.33400137  0.66800274  0.34046764
   0.66800274  0.66800274  0.34046764
   0.11133379  0.11133379  0.43297074
   0.44533516  0.11133379  0.43297074
   0.77933653  0.11133379  0.43297074
   0.11133379  0.44533516  0.43297074
   0.44533516  0.44533516  0.43297074
   0.77933653  0.44533516  0.43297074
   0.11133379  0.77933653  0.43297074
   0.44533516  0.77933653  0.43297074
   0.77933653  0.77933653  0.43297074
   0.89017315  0.22424033  0.52479312
   0.22315394  0.22370183  0.52557939
   0.55573324  0.22410881  0.52466598
   0.89023939  0.55638761  0.52477434
   0.22350446  0.55632152  0.52465187
   0.55650022  0.55714633  0.52424887
   0.88992287  0.89052968  0.52402826
   0.22362315  0.89080736  0.52477434
   0.55587087  0.89088708  0.52478088
   0.00000184  0.00092312  0.61744740
   0.33622670  0.99772626  0.62017378
   0.66934210  0.00107595  0.61747043
   0.99667147  0.33723076  0.62017558
   0.33641423  0.33733724  0.62010655
   0.66767526  0.33499715  0.61762288
   0.99993863  0.67039824  0.61746548
   0.33404402  0.66865488  0.61761699
   0.66768201  0.66863530  0.61763484
   0.22223885  0.22551097  0.65437458
