
     Program PWSCF v.7.1 starts on 11Dec2025 at  4:24:25 
        Git branch: heads/qe-7.1
        Last git commit: 48ba0178f8fede6d020eb786884699a9f063f55d-dirty
        Last git commit date: Fri Jan 27 14:22:33 2023 +0000
        Last git commit subject: Merge branch 'fix_hubbard' into 'develop'

     This program is part of the open-source Quantum ESPRESSO suite
     for quantum simulation of materials; please cite
         "P. Giannozzi et al., J. Phys.:Condens. Matter 21 395502 (2009);
         "P. Giannozzi et al., J. Phys.:Condens. Matter 29 465901 (2017);
         "P. Giannozzi et al., J. Chem. Phys. 152 154105 (2020);
          URL http://www.quantum-espresso.org", 
     in publications or presentations arising from this work. More details at
     http://www.quantum-espresso.org/quote

     Parallel version (MPI), running on    96 processors

     MPI processes distributed on     2 nodes
     54757 MiB available memory on the printing compute node when the environment starts

     Reading input from espresso.pwi
Warning: card &CELL ignored
Warning: card / ignored
Warning: card &FCP ignored
Warning: card / ignored
Warning: card &RISM ignored
Warning: card / ignored

     Current dimensions of program PWSCF are:
     Max number of different atomic species (ntypx) = 10
     Max number of k-points (npk) =  40000
     Max angular momentum in pseudopotentials (lmaxx) =  4
     file Co.pbe-n-kjpaw_psl.1.0.0.UPF: wavefunction(s)  4S 3D renormalized
     file C.pbe-n-kjpaw_psl.1.0.0.UPF: wavefunction(s)  2S 2P renormalized
     file O.pbe-nl-kjpaw_psl.1.0.0.UPF: wavefunction(s)  2S 2P renormalized
     file H.pbe-kjpaw_psl.1.0.0.UPF: wavefunction(s)  1S renormalized

     **************************************************************************
     Initializing libbeef V0.1.2 with the BEEF-vdW functional.
     Citation: Wellendorff et al., PRB 85, 235149 (2012).
     **************************************************************************


     IMPORTANT: XC functional enforced from input :
     Exchange-correlation= BEEF-VDW
                           (   1   4  43  14   2   0   0)
     Any further DFT definition will be discarded
     Please, verify this is what you really want


     R & G space division:  proc/nbgrp/npool/nimage =      96
     Subspace diagonalization in iterative solution of the eigenvalue problem:
     one sub-group per band group will be used
     custom distributed-memory algorithm (size of sub-group:  2*  2 procs)


     Parallelization info
     --------------------
     sticks:   dense  smooth     PW     G-vecs:    dense   smooth      PW
     Min          43      28      7                 7829     4248     595
     Max          44      29      8                 7845     4281     630
     Sum        4153    2773    757               752179   409445   59217

     Using Slab Decomposition



     bravais-lattice index     =            0
     lattice parameter (alat)  =      14.1729  a.u.
     unit-cell volume          =    8574.3059 (a.u.)^3
     number of atoms/cell      =           39
     number of atomic types    =            4
     number of electrons       =       335.00
     number of Kohn-Sham states=          202
     kinetic-energy cutoff     =      50.0000  Ry
     charge density cutoff     =     300.0000  Ry
     scf convergence threshold =      1.0E-08
     mixing beta               =       0.7000
     number of iterations used =            8  local-TF  mixing
     Exchange-correlation= BEEF-VDW
                           (   1   4  43  14   2   0   0)

     celldm(1)=  14.172946  celldm(2)=   0.000000  celldm(3)=   0.000000
     celldm(4)=   0.000000  celldm(5)=   0.000000  celldm(6)=   0.000000

     crystal axes: (cart. coord. in units of alat)
               a(1) = (   1.000000   0.000000   0.000000 )  
               a(2) = (   0.500000   0.866025   0.000000 )  
               a(3) = (   0.000000   0.000000   3.477667 )  

     reciprocal axes: (cart. coord. in units 2 pi/alat)
               b(1) = (  1.000000 -0.577350  0.000000 )  
               b(2) = (  0.000000  1.154701  0.000000 )  
               b(3) = (  0.000000  0.000000  0.287549 )  


     PseudoPot. # 1 for Co read from file:
     /users/kbadger1/espresso/pseudo/pslibrary.1.0.0/pbe/PSEUDOPOTENTIALS/Co.pbe-n-kjpaw_psl.1.0.0.UPF
     MD5 check sum: 88af6ec42553d4236c267fdfcb472151
     Pseudo is Projector augmented-wave + core cor, Zval =  9.0
     Generated using 'atomic' code by A. Dal Corso  v.7.0
     Shape of augmentation charge: PSQ
     Using radial grid of 1193 points,  6 beta functions with: 
                l(1) =   0
                l(2) =   0
                l(3) =   1
                l(4) =   1
                l(5) =   2
                l(6) =   2
     Q(r) pseudized with 0 coefficients 


     PseudoPot. # 2 for C  read from file:
     /users/kbadger1/espresso/pseudo/pslibrary.1.0.0/pbe/PSEUDOPOTENTIALS/C.pbe-n-kjpaw_psl.1.0.0.UPF
     MD5 check sum: 6408e75cdba28732cea38a4db8498ce4
     Pseudo is Projector augmented-wave + core cor, Zval =  4.0
     Generated using 'atomic' code by A. Dal Corso  v.7.0
     Shape of augmentation charge: PSQ
     Using radial grid of 1073 points,  4 beta functions with: 
                l(1) =   0
                l(2) =   0
                l(3) =   1
                l(4) =   1
     Q(r) pseudized with 0 coefficients 


     PseudoPot. # 3 for O  read from file:
     /users/kbadger1/espresso/pseudo/pslibrary.1.0.0/pbe/PSEUDOPOTENTIALS/O.pbe-nl-kjpaw_psl.1.0.0.UPF
     MD5 check sum: f0439fab3598ca4e468f064226030408
     Pseudo is Projector augmented-wave + core cor, Zval =  6.0
     Generated using 'atomic' code by A. Dal Corso  v.7.0
     Shape of augmentation charge: PSQ
     Using radial grid of 1095 points,  4 beta functions with: 
                l(1) =   0
                l(2) =   0
                l(3) =   1
                l(4) =   1
     Q(r) pseudized with 0 coefficients 


     PseudoPot. # 4 for H  read from file:
     /users/kbadger1/espresso/pseudo/pslibrary.1.0.0/pbe/PSEUDOPOTENTIALS/H.pbe-kjpaw_psl.1.0.0.UPF
     MD5 check sum: fe4c6fa958fa6d3815bf5d2419cbf1df
     Pseudo is Projector augmented-wave, Zval =  1.0
     Generated using 'atomic' code by A. Dal Corso  v.7.0
     Shape of augmentation charge: PSQ
     Using radial grid of  929 points,  2 beta functions with: 
                l(1) =   0
                l(2) =   0
     Q(r) pseudized with 0 coefficients 


     atomic species   valence    mass     pseudopotential
        Co             9.00    58.93319     Co( 1.00)
        C              4.00    12.00000     C ( 1.00)
        O              6.00    15.99491     O ( 1.00)
        H              1.00     1.00783     H ( 1.00)

     Starting magnetic structure 
     atomic species   magnetization
        Co           1.000
        C            1.000
        O            0.000
        H            0.000

     No symmetry found



   Cartesian axes

     site n.     atom                  positions (alat units)
         1           Co  tau(   1) = (   0.0000000   0.1924501   1.3333333  )
         2           Co  tau(   2) = (   0.3333333   0.1924501   1.3333333  )
         3           Co  tau(   3) = (   0.6666667   0.1924501   1.3333333  )
         4           Co  tau(   4) = (   0.1666667   0.4811252   1.3333333  )
         5           Co  tau(   5) = (   0.5000000   0.4811252   1.3333333  )
         6           Co  tau(   6) = (   0.8333333   0.4811252   1.3333333  )
         7           Co  tau(   7) = (   0.3333333   0.7698004   1.3333333  )
         8           Co  tau(   8) = (   0.6666667   0.7698004   1.3333333  )
         9           Co  tau(   9) = (   1.0000000   0.7698004   1.3333333  )
        10           Co  tau(  10) = (   0.0000000   0.0000000   1.6036667  )
        11           Co  tau(  11) = (   0.3333333   0.0000000   1.6036667  )
        12           Co  tau(  12) = (   0.6666667   0.0000000   1.6036667  )
        13           Co  tau(  13) = (   0.1666667   0.2886751   1.6036667  )
        14           Co  tau(  14) = (   0.5000000   0.2886751   1.6036667  )
        15           Co  tau(  15) = (   0.8333333   0.2886751   1.6036667  )
        16           Co  tau(  16) = (   0.3333333   0.5773503   1.6036667  )
        17           Co  tau(  17) = (   0.6666667   0.5773503   1.6036667  )
        18           Co  tau(  18) = (   1.0000000   0.5773503   1.6036667  )
        19           Co  tau(  19) = (   0.0000000   0.1924501   1.8740000  )
        20           Co  tau(  20) = (   0.3333333   0.1924501   1.8740000  )
        21           Co  tau(  21) = (   0.6666667   0.1924501   1.8740000  )
        22           Co  tau(  22) = (   0.1666667   0.4811252   1.8740000  )
        23           Co  tau(  23) = (   0.5000000   0.4811252   1.8740000  )
        24           Co  tau(  24) = (   0.8333333   0.4811252   1.8740000  )
        25           Co  tau(  25) = (   0.3333333   0.7698004   1.8740000  )
        26           Co  tau(  26) = (   0.6666667   0.7698004   1.8740000  )
        27           Co  tau(  27) = (   1.0000000   0.7698004   1.8740000  )
        28           Co  tau(  28) = (   0.0000000   0.0000000   2.1443333  )
        29           Co  tau(  29) = (   0.3333333   0.0000000   2.1443333  )
        30           Co  tau(  30) = (   0.6666667   0.0000000   2.1443333  )
        31           Co  tau(  31) = (   0.1666667   0.2886751   2.1443333  )
        32           Co  tau(  32) = (   0.5000000   0.2886751   2.1443333  )
        33           Co  tau(  33) = (   0.8333333   0.2886751   2.1443333  )
        34           Co  tau(  34) = (   0.3333333   0.5773503   2.1443333  )
        35           Co  tau(  35) = (   0.6666667   0.5773503   2.1443333  )
        36           Co  tau(  36) = (   1.0000000   0.5773503   2.1443333  )
        37           C   tau(  37) = (   0.3750101   0.1698643   2.3318186  )
        38           O   tau(  38) = (   0.3557658   0.1618165   2.4890317  )
        39           H   tau(  39) = (   0.6169344   0.3928785   2.2910951  )

     number of k points=    13  Marzari-Vanderbilt smearing, width (Ry)=  0.0010
                       cart. coord. in units 2pi/alat
        k(    1) = (   0.0000000   0.0000000   0.0000000), wk =   0.0400000
        k(    2) = (   0.0000000   0.2309401   0.0000000), wk =   0.0800000
        k(    3) = (   0.0000000   0.4618802   0.0000000), wk =   0.0800000
        k(    4) = (   0.2000000  -0.1154701   0.0000000), wk =   0.0800000
        k(    5) = (   0.2000000   0.1154701   0.0000000), wk =   0.0800000
        k(    6) = (   0.2000000   0.3464102   0.0000000), wk =   0.0800000
        k(    7) = (   0.2000000  -0.5773503   0.0000000), wk =   0.0800000
        k(    8) = (   0.2000000  -0.3464102   0.0000000), wk =   0.0800000
        k(    9) = (   0.4000000  -0.2309401   0.0000000), wk =   0.0800000
        k(   10) = (   0.4000000   0.0000000   0.0000000), wk =   0.0800000
        k(   11) = (   0.4000000   0.2309401   0.0000000), wk =   0.0800000
        k(   12) = (   0.4000000  -0.6928203   0.0000000), wk =   0.0800000
        k(   13) = (   0.4000000  -0.4618802   0.0000000), wk =   0.0800000

     Dense  grid:   752179 G-vectors     FFT dimensions: (  80,  80, 288)

     Smooth grid:   409445 G-vectors     FFT dimensions: (  64,  64, 225)

     Estimated max dynamical RAM per process >      99.02 MB

     Estimated total dynamical RAM >       9.28 GB
     Generating pointlists ...
     new r_m :   0.0885 (alat units)  1.2549 (a.u.) for type    1
     new r_m :   0.0654 (alat units)  0.9272 (a.u.) for type    2
     new r_m :   0.0654 (alat units)  0.9272 (a.u.) for type    3
     new r_m :   0.0885 (alat units)  1.2549 (a.u.) for type    4

     Initial potential from superposition of free atoms

     starting charge     334.9897, renormalised to     335.0000

     negative rho (up, down):  3.051E-03 4.522E-04


     %%%%%%%%%%%%%%%%%%%%%%%%%%%%%%%%%%%%%%%%%%%%%%%%%%%%%%%%%%%%%%%%%%%%%%%%
     %                                                                      %
     % You are using vdW-DF, which was implemented by the Thonhauser group. %
     % Please cite the following two papers that made this development      %
     % possible and the two reviews that describe the various versions:     %
     %                                                                      %
     %   T. Thonhauser et al., PRL 115, 136402 (2015).                      %
     %   T. Thonhauser et al., PRB 76, 125112 (2007).                       %
     %   K. Berland et al., Rep. Prog. Phys. 78, 066501 (2015).             %
     %   D.C. Langreth et al., J. Phys.: Condens. Matter 21, 084203 (2009). %
     %                                                                      %
     % If you are calculating stress with vdW-DF, please also cite:         %
     %                                                                      %
     %   R. Sabatini et al., J. Phys.: Condens. Matter 24, 424209 (2012).   %
     %   C.M. Frostenson et al., Electr. Struct. 4, 014001 (2022).          %
     %                                                                      %
     %%%%%%%%%%%%%%%%%%%%%%%%%%%%%%%%%%%%%%%%%%%%%%%%%%%%%%%%%%%%%%%%%%%%%%%%

     %%%%%%%%%%%%%%%%%%%%%%%%%%%%%%%%%%%%%%%%%%%%%%%%%%%%%%%%%%%%%%%%%%%%%%%%
     %                                                                      %
     %  vdW-DF NEWS:                                                        %
     %                                                                      %
     %  * vdW-DF3 is now available. DOI: 10.1021/acs.jctc.0c00471           %
     %    use with input_dft = 'vdW-DF3-opt1' or 'vdW-DF3-opt2'             %
     %                                                                      %
     %  * Unscreened and range-separated hybrid vdW-DF-cx functionals       %
     %    DOI: 10.1063/1.4986522 and 10.1088/1361-648X/ac2ad2               %
     %    use with input_dft = 'vdW-DF-cx0'    and 'vdW-DF-ahcx'            %
     %  * Unscreened and range-separated hybrid vdW-DF2-b86r functionals    %
     %    DOI: 10.1063/1.4986522 and DOI: 10.1103/PhysRevX.12.041003        %
     %    use with input_dft = 'vdW-DF2-br0' and 'vdW-DF2-ahbr'             %
     %                                                                      %
     %%%%%%%%%%%%%%%%%%%%%%%%%%%%%%%%%%%%%%%%%%%%%%%%%%%%%%%%%%%%%%%%%%%%%%%%


     Starting wfcs are  333 randomized atomic wfcs
     Checking if some PAW data can be deallocated... 

     total cpu time spent up to now is       16.9 secs

     per-process dynamical memory:   232.2 Mb

     Self-consistent Calculation

     iteration #  1     ecut=    50.00 Ry     beta= 0.70
     Davidson diagonalization with overlap
     ethr =  1.00E-02,  avg # of iterations =  2.0

     negative rho (up, down):  3.438E-05 6.202E-08

     total cpu time spent up to now is       41.5 secs

     total energy              =   -6053.10938633 Ry
     estimated scf accuracy    <      39.14709977 Ry

     total magnetization       =    69.00 Bohr mag/cell
     absolute magnetization    =    81.22 Bohr mag/cell

     iteration #  2     ecut=    50.00 Ry     beta= 0.70
     Davidson diagonalization with overlap
     ethr =  1.00E-02,  avg # of iterations =  1.0

     negative rho (up, down):  5.291E-06 5.432E-08

     total cpu time spent up to now is       61.8 secs

     total energy              =   -6052.60610246 Ry
     estimated scf accuracy    <      24.83796892 Ry

     total magnetization       =    69.01 Bohr mag/cell
     absolute magnetization    =    76.81 Bohr mag/cell

     iteration #  3     ecut=    50.00 Ry     beta= 0.70
     Davidson diagonalization with overlap
     ethr =  7.41E-03,  avg # of iterations =  1.0

     negative rho (up, down):  3.691E-08 0.000E+00

     total cpu time spent up to now is       81.6 secs

     total energy              =   -6055.20022362 Ry
     estimated scf accuracy    <      84.55218943 Ry

     total magnetization       =    66.12 Bohr mag/cell
     absolute magnetization    =    73.55 Bohr mag/cell

     iteration #  4     ecut=    50.00 Ry     beta= 0.70
     Davidson diagonalization with overlap
     ethr =  7.41E-03,  avg # of iterations =  1.0

     negative rho (up, down):  1.008E-08 0.000E+00

     total cpu time spent up to now is       99.7 secs

     total energy              =   -6056.44719452 Ry
     estimated scf accuracy    <       5.44970629 Ry

     total magnetization       =    60.41 Bohr mag/cell
     absolute magnetization    =    70.19 Bohr mag/cell

     iteration #  5     ecut=    50.00 Ry     beta= 0.70
     Davidson diagonalization with overlap
     ethr =  1.63E-03,  avg # of iterations =  1.2

     total cpu time spent up to now is      119.6 secs

     total energy              =   -6056.44471559 Ry
     estimated scf accuracy    <       2.16128543 Ry

     total magnetization       =    60.29 Bohr mag/cell
     absolute magnetization    =    69.66 Bohr mag/cell

     iteration #  6     ecut=    50.00 Ry     beta= 0.70
     Davidson diagonalization with overlap
     ethr =  6.45E-04,  avg # of iterations =  2.1

     total cpu time spent up to now is      141.3 secs

     total energy              =   -6056.55192431 Ry
     estimated scf accuracy    <       0.79911727 Ry

     total magnetization       =    59.88 Bohr mag/cell
     absolute magnetization    =    68.96 Bohr mag/cell

     iteration #  7     ecut=    50.00 Ry     beta= 0.70
     Davidson diagonalization with overlap
     ethr =  2.39E-04,  avg # of iterations =  4.1

     total cpu time spent up to now is      163.6 secs

     total energy              =   -6056.57635401 Ry
     estimated scf accuracy    <       0.62683608 Ry

     total magnetization       =    59.91 Bohr mag/cell
     absolute magnetization    =    68.70 Bohr mag/cell

     iteration #  8     ecut=    50.00 Ry     beta= 0.70
     Davidson diagonalization with overlap
     ethr =  1.87E-04,  avg # of iterations =  2.0

     total cpu time spent up to now is      184.9 secs

     total energy              =   -6056.60102732 Ry
     estimated scf accuracy    <       0.16409874 Ry

     total magnetization       =    59.99 Bohr mag/cell
     absolute magnetization    =    68.59 Bohr mag/cell

     iteration #  9     ecut=    50.00 Ry     beta= 0.70
     Davidson diagonalization with overlap
     c_bands:  2 eigenvalues not converged
     c_bands:  1 eigenvalues not converged
     c_bands:  2 eigenvalues not converged
     ethr =  4.90E-05,  avg # of iterations =  9.0

     total cpu time spent up to now is      215.5 secs

     total energy              =   -6056.60712563 Ry
     estimated scf accuracy    <       0.13421084 Ry

     total magnetization       =    60.28 Bohr mag/cell
     absolute magnetization    =    68.49 Bohr mag/cell

     iteration # 10     ecut=    50.00 Ry     beta= 0.70
     Davidson diagonalization with overlap
     ethr =  4.01E-05,  avg # of iterations =  2.9

     total cpu time spent up to now is      239.2 secs

     total energy              =   -6056.61409626 Ry
     estimated scf accuracy    <       0.15237185 Ry

     total magnetization       =    60.40 Bohr mag/cell
     absolute magnetization    =    68.44 Bohr mag/cell

     iteration # 11     ecut=    50.00 Ry     beta= 0.70
     Davidson diagonalization with overlap
     ethr =  4.01E-05,  avg # of iterations =  1.3

     total cpu time spent up to now is      259.0 secs

     total energy              =   -6056.60897795 Ry
     estimated scf accuracy    <       0.10281588 Ry

     total magnetization       =    60.36 Bohr mag/cell
     absolute magnetization    =    68.35 Bohr mag/cell

     iteration # 12     ecut=    50.00 Ry     beta= 0.70
     Davidson diagonalization with overlap
     ethr =  3.07E-05,  avg # of iterations =  2.0

     total cpu time spent up to now is      279.2 secs

     total energy              =   -6056.60985342 Ry
     estimated scf accuracy    <       0.09892521 Ry

     total magnetization       =    60.28 Bohr mag/cell
     absolute magnetization    =    68.18 Bohr mag/cell

     iteration # 13     ecut=    50.00 Ry     beta= 0.70
     Davidson diagonalization with overlap
     ethr =  2.95E-05,  avg # of iterations =  1.2

     total cpu time spent up to now is      299.3 secs

     total energy              =   -6056.61059695 Ry
     estimated scf accuracy    <       0.09807640 Ry

     total magnetization       =    60.34 Bohr mag/cell
     absolute magnetization    =    68.17 Bohr mag/cell

     iteration # 14     ecut=    50.00 Ry     beta= 0.70
     Davidson diagonalization with overlap
     ethr =  2.93E-05,  avg # of iterations =  1.2

     negative rho (up, down):  3.706E-03 2.525E-03

     total cpu time spent up to now is      319.4 secs

     total energy              =   -6056.60431608 Ry
     estimated scf accuracy    <       0.07770948 Ry

     total magnetization       =    60.31 Bohr mag/cell
     absolute magnetization    =    68.11 Bohr mag/cell

     iteration # 15     ecut=    50.00 Ry     beta= 0.70
     Davidson diagonalization with overlap
     ethr =  2.32E-05,  avg # of iterations =  1.3

     negative rho (up, down):  1.512E-02 1.335E-02

     total cpu time spent up to now is      338.1 secs

     total energy              =   -6056.60140098 Ry
     estimated scf accuracy    <       0.04218905 Ry

     total magnetization       =    60.31 Bohr mag/cell
     absolute magnetization    =    68.10 Bohr mag/cell

     iteration # 16     ecut=    50.00 Ry     beta= 0.70
     Davidson diagonalization with overlap
     c_bands:  1 eigenvalues not converged
     c_bands:  1 eigenvalues not converged
     c_bands:  1 eigenvalues not converged
     c_bands:  3 eigenvalues not converged
     c_bands:  4 eigenvalues not converged
     ethr =  1.26E-05,  avg # of iterations =  5.9

     negative rho (up, down):  1.814E-02 1.637E-02

     total cpu time spent up to now is      364.5 secs

     total energy              =   -6056.60111008 Ry
     estimated scf accuracy    <       0.03233876 Ry

     total magnetization       =    60.28 Bohr mag/cell
     absolute magnetization    =    68.03 Bohr mag/cell

     iteration # 17     ecut=    50.00 Ry     beta= 0.70
     Davidson diagonalization with overlap
     c_bands:  2 eigenvalues not converged
     ethr =  9.65E-06,  avg # of iterations =  3.3

     negative rho (up, down):  1.414E-02 1.258E-02

     total cpu time spent up to now is      387.4 secs

     total energy              =   -6056.60136714 Ry
     estimated scf accuracy    <       0.01226876 Ry

     total magnetization       =    60.29 Bohr mag/cell
     absolute magnetization    =    68.01 Bohr mag/cell

     iteration # 18     ecut=    50.00 Ry     beta= 0.70
     Davidson diagonalization with overlap
     c_bands:  1 eigenvalues not converged
     c_bands:  1 eigenvalues not converged
     c_bands:  2 eigenvalues not converged
     c_bands:  2 eigenvalues not converged
     ethr =  3.66E-06,  avg # of iterations =  9.7

     negative rho (up, down):  8.465E-03 7.210E-03

     total cpu time spent up to now is      419.0 secs

     total energy              =   -6056.60125126 Ry
     estimated scf accuracy    <       0.01233688 Ry

     total magnetization       =    60.37 Bohr mag/cell
     absolute magnetization    =    68.03 Bohr mag/cell

     iteration # 19     ecut=    50.00 Ry     beta= 0.70
     Davidson diagonalization with overlap
     ethr =  3.66E-06,  avg # of iterations =  2.7

     negative rho (up, down):  1.321E-02 1.184E-02

     total cpu time spent up to now is      441.2 secs

     total energy              =   -6056.60020571 Ry
     estimated scf accuracy    <       0.01530806 Ry

     total magnetization       =    60.40 Bohr mag/cell
     absolute magnetization    =    68.05 Bohr mag/cell

     iteration # 20     ecut=    50.00 Ry     beta= 0.70
     Davidson diagonalization with overlap
     ethr =  3.66E-06,  avg # of iterations =  1.3

     negative rho (up, down):  1.260E-02 1.182E-02

     total cpu time spent up to now is      460.4 secs

     total energy              =   -6056.59825064 Ry
     estimated scf accuracy    <       0.01079957 Ry

     total magnetization       =    60.38 Bohr mag/cell
     absolute magnetization    =    68.01 Bohr mag/cell

     iteration # 21     ecut=    50.00 Ry     beta= 0.70
     Davidson diagonalization with overlap
     ethr =  3.22E-06,  avg # of iterations =  2.0

     negative rho (up, down):  1.113E-02 1.048E-02

     total cpu time spent up to now is      482.8 secs

     total energy              =   -6056.59854910 Ry
     estimated scf accuracy    <       0.01033430 Ry

     total magnetization       =    60.43 Bohr mag/cell
     absolute magnetization    =    68.01 Bohr mag/cell

     iteration # 22     ecut=    50.00 Ry     beta= 0.70
     Davidson diagonalization with overlap
     ethr =  3.08E-06,  avg # of iterations =  1.2

     negative rho (up, down):  1.500E-02 1.429E-02

     total cpu time spent up to now is      502.9 secs

     total energy              =   -6056.59889755 Ry
     estimated scf accuracy    <       0.00842745 Ry

     total magnetization       =    60.44 Bohr mag/cell
     absolute magnetization    =    68.03 Bohr mag/cell

     iteration # 23     ecut=    50.00 Ry     beta= 0.70
     Davidson diagonalization with overlap
     ethr =  2.52E-06,  avg # of iterations =  1.3

     negative rho (up, down):  1.115E-02 1.049E-02

     total cpu time spent up to now is      521.7 secs

     total energy              =   -6056.59879868 Ry
     estimated scf accuracy    <       0.00444595 Ry

     total magnetization       =    60.43 Bohr mag/cell
     absolute magnetization    =    68.02 Bohr mag/cell

     iteration # 24     ecut=    50.00 Ry     beta= 0.70
     Davidson diagonalization with overlap
     ethr =  1.33E-06,  avg # of iterations =  1.6

     negative rho (up, down):  5.503E-03 4.741E-03

     total cpu time spent up to now is      543.1 secs

     total energy              =   -6056.59842410 Ry
     estimated scf accuracy    <       0.00640356 Ry

     total magnetization       =    60.44 Bohr mag/cell
     absolute magnetization    =    68.03 Bohr mag/cell

     iteration # 25     ecut=    50.00 Ry     beta= 0.70
     Davidson diagonalization with overlap
     ethr =  1.33E-06,  avg # of iterations =  1.7

     negative rho (up, down):  5.240E-03 4.545E-03

     total cpu time spent up to now is      564.4 secs

     total energy              =   -6056.59835636 Ry
     estimated scf accuracy    <       0.00643481 Ry

     total magnetization       =    60.42 Bohr mag/cell
     absolute magnetization    =    68.02 Bohr mag/cell

     iteration # 26     ecut=    50.00 Ry     beta= 0.70
     Davidson diagonalization with overlap
     ethr =  1.33E-06,  avg # of iterations =  1.3

     negative rho (up, down):  5.684E-03 5.061E-03

     total cpu time spent up to now is      583.4 secs

     total energy              =   -6056.59890398 Ry
     estimated scf accuracy    <       0.00379349 Ry

     total magnetization       =    60.42 Bohr mag/cell
     absolute magnetization    =    68.03 Bohr mag/cell

     iteration # 27     ecut=    50.00 Ry     beta= 0.70
     Davidson diagonalization with overlap
     ethr =  1.13E-06,  avg # of iterations =  1.6

     negative rho (up, down):  3.225E-03 2.481E-03

     total cpu time spent up to now is      604.8 secs

     total energy              =   -6056.59884653 Ry
     estimated scf accuracy    <       0.00161423 Ry

     total magnetization       =    60.46 Bohr mag/cell
     absolute magnetization    =    68.05 Bohr mag/cell

     iteration # 28     ecut=    50.00 Ry     beta= 0.70
     Davidson diagonalization with overlap
     ethr =  4.82E-07,  avg # of iterations =  1.4

     negative rho (up, down):  2.298E-03 1.442E-03

     total cpu time spent up to now is      625.3 secs

     total energy              =   -6056.59898337 Ry
     estimated scf accuracy    <       0.00073561 Ry

     total magnetization       =    60.44 Bohr mag/cell
     absolute magnetization    =    68.04 Bohr mag/cell

     iteration # 29     ecut=    50.00 Ry     beta= 0.70
     Davidson diagonalization with overlap
     c_bands:  1 eigenvalues not converged
     c_bands:  1 eigenvalues not converged
     ethr =  2.20E-07,  avg # of iterations =  3.4

     negative rho (up, down):  2.061E-03 1.210E-03

     total cpu time spent up to now is      648.5 secs

     total energy              =   -6056.59899216 Ry
     estimated scf accuracy    <       0.00083281 Ry

     total magnetization       =    60.44 Bohr mag/cell
     absolute magnetization    =    68.03 Bohr mag/cell

     iteration # 30     ecut=    50.00 Ry     beta= 0.70
     Davidson diagonalization with overlap
     ethr =  2.20E-07,  avg # of iterations =  1.8

     negative rho (up, down):  2.248E-03 1.212E-03

     total cpu time spent up to now is      669.2 secs

     total energy              =   -6056.59911475 Ry
     estimated scf accuracy    <       0.00036191 Ry

     total magnetization       =    60.45 Bohr mag/cell
     absolute magnetization    =    68.04 Bohr mag/cell

     iteration # 31     ecut=    50.00 Ry     beta= 0.70
     Davidson diagonalization with overlap
     c_bands:  1 eigenvalues not converged
     ethr =  1.08E-07,  avg # of iterations =  3.3

     negative rho (up, down):  2.199E-03 1.214E-03

     total cpu time spent up to now is      691.9 secs

     total energy              =   -6056.59910747 Ry
     estimated scf accuracy    <       0.00019983 Ry

     total magnetization       =    60.45 Bohr mag/cell
     absolute magnetization    =    68.04 Bohr mag/cell

     iteration # 32     ecut=    50.00 Ry     beta= 0.70
     Davidson diagonalization with overlap
     ethr =  5.96E-08,  avg # of iterations =  1.9

     negative rho (up, down):  2.323E-03 1.258E-03

     total cpu time spent up to now is      713.1 secs

     total energy              =   -6056.59913896 Ry
     estimated scf accuracy    <       0.00005830 Ry

     total magnetization       =    60.45 Bohr mag/cell
     absolute magnetization    =    68.04 Bohr mag/cell

     iteration # 33     ecut=    50.00 Ry     beta= 0.70
     Davidson diagonalization with overlap
     ethr =  1.74E-08,  avg # of iterations =  6.1

     negative rho (up, down):  2.397E-03 1.306E-03

     total cpu time spent up to now is      741.9 secs

     total energy              =   -6056.59915169 Ry
     estimated scf accuracy    <       0.00005212 Ry

     total magnetization       =    60.45 Bohr mag/cell
     absolute magnetization    =    68.04 Bohr mag/cell

     iteration # 34     ecut=    50.00 Ry     beta= 0.70
     Davidson diagonalization with overlap
     ethr =  1.56E-08,  avg # of iterations =  1.2

     negative rho (up, down):  2.242E-03 1.167E-03

     total cpu time spent up to now is      760.8 secs

     total energy              =   -6056.59914506 Ry
     estimated scf accuracy    <       0.00004419 Ry

     total magnetization       =    60.45 Bohr mag/cell
     absolute magnetization    =    68.04 Bohr mag/cell

     iteration # 35     ecut=    50.00 Ry     beta= 0.70
     Davidson diagonalization with overlap
     ethr =  1.32E-08,  avg # of iterations =  1.3

     negative rho (up, down):  2.337E-03 1.234E-03

     total cpu time spent up to now is      780.8 secs

     total energy              =   -6056.59915174 Ry
     estimated scf accuracy    <       0.00004486 Ry

     total magnetization       =    60.45 Bohr mag/cell
     absolute magnetization    =    68.03 Bohr mag/cell

     iteration # 36     ecut=    50.00 Ry     beta= 0.70
     Davidson diagonalization with overlap
     ethr =  1.32E-08,  avg # of iterations =  1.1

     negative rho (up, down):  2.689E-03 1.597E-03

     total cpu time spent up to now is      801.8 secs

     total energy              =   -6056.59915829 Ry
     estimated scf accuracy    <       0.00002425 Ry

     total magnetization       =    60.45 Bohr mag/cell
     absolute magnetization    =    68.03 Bohr mag/cell

     iteration # 37     ecut=    50.00 Ry     beta= 0.70
     Davidson diagonalization with overlap
     ethr =  7.24E-09,  avg # of iterations =  2.7

     negative rho (up, down):  2.505E-03 1.399E-03

     total cpu time spent up to now is      823.2 secs

     total energy              =   -6056.59915869 Ry
     estimated scf accuracy    <       0.00001579 Ry

     total magnetization       =    60.45 Bohr mag/cell
     absolute magnetization    =    68.03 Bohr mag/cell

     iteration # 38     ecut=    50.00 Ry     beta= 0.70
     Davidson diagonalization with overlap
     ethr =  4.71E-09,  avg # of iterations =  1.4

     negative rho (up, down):  2.490E-03 1.385E-03

     total cpu time spent up to now is      843.4 secs

     total energy              =   -6056.59915911 Ry
     estimated scf accuracy    <       0.00001051 Ry

     total magnetization       =    60.45 Bohr mag/cell
     absolute magnetization    =    68.03 Bohr mag/cell

     iteration # 39     ecut=    50.00 Ry     beta= 0.70
     Davidson diagonalization with overlap
     ethr =  3.14E-09,  avg # of iterations =  1.5

     negative rho (up, down):  2.449E-03 1.345E-03

     total cpu time spent up to now is      865.0 secs

     total energy              =   -6056.59915954 Ry
     estimated scf accuracy    <       0.00000396 Ry

     total magnetization       =    60.45 Bohr mag/cell
     absolute magnetization    =    68.03 Bohr mag/cell

     iteration # 40     ecut=    50.00 Ry     beta= 0.70
     Davidson diagonalization with overlap
     ethr =  1.18E-09,  avg # of iterations =  3.4

     negative rho (up, down):  2.419E-03 1.317E-03

     total cpu time spent up to now is      887.9 secs

     total energy              =   -6056.59915981 Ry
     estimated scf accuracy    <       0.00000233 Ry

     total magnetization       =    60.45 Bohr mag/cell
     absolute magnetization    =    68.03 Bohr mag/cell

     iteration # 41     ecut=    50.00 Ry     beta= 0.70
     Davidson diagonalization with overlap
     ethr =  6.96E-10,  avg # of iterations =  2.0

     negative rho (up, down):  2.405E-03 1.308E-03

     total cpu time spent up to now is      909.4 secs

     total energy              =   -6056.59915998 Ry
     estimated scf accuracy    <       0.00000127 Ry

     total magnetization       =    60.45 Bohr mag/cell
     absolute magnetization    =    68.03 Bohr mag/cell

     iteration # 42     ecut=    50.00 Ry     beta= 0.70
     Davidson diagonalization with overlap
     c_bands:  1 eigenvalues not converged
     ethr =  3.79E-10,  avg # of iterations =  4.0

     negative rho (up, down):  2.384E-03 1.294E-03

     total cpu time spent up to now is      933.2 secs

     total energy              =   -6056.59916006 Ry
     estimated scf accuracy    <       0.00000140 Ry

     total magnetization       =    60.45 Bohr mag/cell
     absolute magnetization    =    68.03 Bohr mag/cell

     iteration # 43     ecut=    50.00 Ry     beta= 0.70
     Davidson diagonalization with overlap
     ethr =  3.79E-10,  avg # of iterations =  2.0

     negative rho (up, down):  2.367E-03 1.280E-03

     total cpu time spent up to now is      955.1 secs

     total energy              =   -6056.59916003 Ry
     estimated scf accuracy    <       0.00000367 Ry

     total magnetization       =    60.45 Bohr mag/cell
     absolute magnetization    =    68.03 Bohr mag/cell

     iteration # 44     ecut=    50.00 Ry     beta= 0.70
     Davidson diagonalization with overlap
     ethr =  3.79E-10,  avg # of iterations =  1.1

     negative rho (up, down):  2.369E-03 1.278E-03

     total cpu time spent up to now is      974.8 secs

     total energy              =   -6056.59916010 Ry
     estimated scf accuracy    <       0.00000042 Ry

     total magnetization       =    60.45 Bohr mag/cell
     absolute magnetization    =    68.03 Bohr mag/cell

     iteration # 45     ecut=    50.00 Ry     beta= 0.70
     Davidson diagonalization with overlap
     ethr =  1.27E-10,  avg # of iterations =  3.5

     negative rho (up, down):  2.342E-03 1.254E-03

     total cpu time spent up to now is      998.5 secs

     total energy              =   -6056.59916010 Ry
     estimated scf accuracy    <       0.00000115 Ry

     total magnetization       =    60.45 Bohr mag/cell
     absolute magnetization    =    68.03 Bohr mag/cell

     iteration # 46     ecut=    50.00 Ry     beta= 0.70
     Davidson diagonalization with overlap
     ethr =  1.27E-10,  avg # of iterations =  1.8

     negative rho (up, down):  2.319E-03 1.234E-03

     total cpu time spent up to now is     1019.9 secs

     total energy              =   -6056.59916008 Ry
     estimated scf accuracy    <       0.00000071 Ry

     total magnetization       =    60.45 Bohr mag/cell
     absolute magnetization    =    68.03 Bohr mag/cell

     iteration # 47     ecut=    50.00 Ry     beta= 0.70
     Davidson diagonalization with overlap
     ethr =  1.27E-10,  avg # of iterations =  1.8

     negative rho (up, down):  2.314E-03 1.228E-03

     total cpu time spent up to now is     1042.8 secs

     total energy              =   -6056.59916008 Ry
     estimated scf accuracy    <       0.00000026 Ry

     total magnetization       =    60.45 Bohr mag/cell
     absolute magnetization    =    68.03 Bohr mag/cell

     iteration # 48     ecut=    50.00 Ry     beta= 0.70
     Davidson diagonalization with overlap
     ethr =  7.87E-11,  avg # of iterations =  2.7

     negative rho (up, down):  2.298E-03 1.213E-03

     total cpu time spent up to now is     1064.3 secs

     total energy              =   -6056.59916006 Ry
     estimated scf accuracy    <       0.00000067 Ry

     total magnetization       =    60.45 Bohr mag/cell
     absolute magnetization    =    68.03 Bohr mag/cell

     iteration # 49     ecut=    50.00 Ry     beta= 0.70
     Davidson diagonalization with overlap
     ethr =  7.87E-11,  avg # of iterations =  1.4

     negative rho (up, down):  2.272E-03 1.187E-03

     total cpu time spent up to now is     1084.7 secs

     total energy              =   -6056.59916006 Ry
     estimated scf accuracy    <       0.00000025 Ry

     total magnetization       =    60.45 Bohr mag/cell
     absolute magnetization    =    68.03 Bohr mag/cell

     iteration # 50     ecut=    50.00 Ry     beta= 0.70
     Davidson diagonalization with overlap
     ethr =  7.50E-11,  avg # of iterations =  1.7

     negative rho (up, down):  2.274E-03 1.188E-03

     total cpu time spent up to now is     1107.7 secs

     total energy              =   -6056.59916006 Ry
     estimated scf accuracy    <       0.00000046 Ry

     total magnetization       =    60.45 Bohr mag/cell
     absolute magnetization    =    68.03 Bohr mag/cell

     iteration # 51     ecut=    50.00 Ry     beta= 0.70
     Davidson diagonalization with overlap
     ethr =  7.50E-11,  avg # of iterations =  1.0

     negative rho (up, down):  2.267E-03 1.181E-03

     total cpu time spent up to now is     1127.7 secs

     total energy              =   -6056.59916007 Ry
     estimated scf accuracy    <       0.00000010 Ry

     total magnetization       =    60.45 Bohr mag/cell
     absolute magnetization    =    68.03 Bohr mag/cell

     iteration # 52     ecut=    50.00 Ry     beta= 0.70
     Davidson diagonalization with overlap
     ethr =  2.97E-11,  avg # of iterations =  2.5

     negative rho (up, down):  2.270E-03 1.184E-03

     total cpu time spent up to now is     1148.7 secs

     total energy              =   -6056.59916007 Ry
     estimated scf accuracy    <       0.00000013 Ry

     total magnetization       =    60.45 Bohr mag/cell
     absolute magnetization    =    68.03 Bohr mag/cell

     iteration # 53     ecut=    50.00 Ry     beta= 0.70
     Davidson diagonalization with overlap
     ethr =  2.97E-11,  avg # of iterations =  1.2

     negative rho (up, down):  2.265E-03 1.176E-03

     total cpu time spent up to now is     1170.0 secs

     total energy              =   -6056.59916006 Ry
     estimated scf accuracy    <       0.00000008 Ry

     total magnetization       =    60.45 Bohr mag/cell
     absolute magnetization    =    68.03 Bohr mag/cell

     iteration # 54     ecut=    50.00 Ry     beta= 0.70
     Davidson diagonalization with overlap
     ethr =  2.42E-11,  avg # of iterations =  1.9

     negative rho (up, down):  2.257E-03 1.168E-03

     total cpu time spent up to now is     1192.0 secs

     total energy              =   -6056.59916005 Ry
     estimated scf accuracy    <       0.00000003 Ry

     total magnetization       =    60.45 Bohr mag/cell
     absolute magnetization    =    68.03 Bohr mag/cell

     iteration # 55     ecut=    50.00 Ry     beta= 0.70
     Davidson diagonalization with overlap
     ethr =  8.33E-12,  avg # of iterations =  3.2

     negative rho (up, down):  2.266E-03 1.178E-03

     total cpu time spent up to now is     1215.2 secs

     total energy              =   -6056.59916006 Ry
     estimated scf accuracy    <       0.00000010 Ry

     total magnetization       =    60.45 Bohr mag/cell
     absolute magnetization    =    68.03 Bohr mag/cell

     iteration # 56     ecut=    50.00 Ry     beta= 0.70
     Davidson diagonalization with overlap
     ethr =  8.33E-12,  avg # of iterations =  1.7

     negative rho (up, down):  2.255E-03 1.166E-03

     total cpu time spent up to now is     1236.6 secs

     total energy              =   -6056.59916005 Ry
     estimated scf accuracy    <       0.00000004 Ry

     total magnetization       =    60.45 Bohr mag/cell
     absolute magnetization    =    68.03 Bohr mag/cell

     iteration # 57     ecut=    50.00 Ry     beta= 0.70
     Davidson diagonalization with overlap
     ethr =  8.33E-12,  avg # of iterations =  1.3

     negative rho (up, down):  2.248E-03 1.160E-03

     Magnetic moment per site  (integrated on atomic sphere of radius R)
     atom   1 (R=0.089)  charge=  5.5795  magn=  1.6357
     atom   2 (R=0.089)  charge=  5.5793  magn=  1.6232
     atom   3 (R=0.089)  charge=  5.5786  magn=  1.6266
     atom   4 (R=0.089)  charge=  5.5780  magn=  1.6340
     atom   5 (R=0.089)  charge=  5.5783  magn=  1.6318
     atom   6 (R=0.089)  charge=  5.5778  magn=  1.6352
     atom   7 (R=0.089)  charge=  5.5794  magn=  1.6416
     atom   8 (R=0.089)  charge=  5.5794  magn=  1.6346
     atom   9 (R=0.089)  charge=  5.5780  magn=  1.6317
     atom  10 (R=0.089)  charge=  5.5766  magn=  1.5691
     atom  11 (R=0.089)  charge=  5.5751  magn=  1.5707
     atom  12 (R=0.089)  charge=  5.5744  magn=  1.5799
     atom  13 (R=0.089)  charge=  5.5750  magn=  1.5744
     atom  14 (R=0.089)  charge=  5.5745  magn=  1.5647
     atom  15 (R=0.089)  charge=  5.5749  magn=  1.5764
     atom  16 (R=0.089)  charge=  5.5749  magn=  1.5730
     atom  17 (R=0.089)  charge=  5.5752  magn=  1.5770
     atom  18 (R=0.089)  charge=  5.5742  magn=  1.5746
     atom  19 (R=0.089)  charge=  5.5754  magn=  1.5530
     atom  20 (R=0.089)  charge=  5.5725  magn=  1.5790
     atom  21 (R=0.089)  charge=  5.5743  magn=  1.5670
     atom  22 (R=0.089)  charge=  5.5738  magn=  1.5676
     atom  23 (R=0.089)  charge=  5.5740  magn=  1.5643
     atom  24 (R=0.089)  charge=  5.5731  magn=  1.5928
     atom  25 (R=0.089)  charge=  5.5753  magn=  1.5683
     atom  26 (R=0.089)  charge=  5.5750  magn=  1.5388
     atom  27 (R=0.089)  charge=  5.5743  magn=  1.5602
     atom  28 (R=0.089)  charge=  5.5790  magn=  1.6689
     atom  29 (R=0.089)  charge=  5.5873  magn=  1.2704
     atom  30 (R=0.089)  charge=  5.5794  magn=  1.6636
     atom  31 (R=0.089)  charge=  5.5835  magn=  1.5487
     atom  32 (R=0.089)  charge=  5.5866  magn=  0.9503
     atom  33 (R=0.089)  charge=  5.5784  magn=  1.6233
     atom  34 (R=0.089)  charge=  5.5781  magn=  1.6737
     atom  35 (R=0.089)  charge=  5.5757  magn=  1.5463
     atom  36 (R=0.089)  charge=  5.5759  magn=  1.6543
     atom  37 (R=0.065)  charge=  1.0444  magn= -0.0206
     atom  38 (R=0.065)  charge=  2.9188  magn= -0.0384
     atom  39 (R=0.089)  charge=  0.8012  magn= -0.0157

     total cpu time spent up to now is     1256.4 secs

     End of self-consistent calculation

 ------ SPIN UP ------------


          k = 0.0000 0.0000 0.0000 ( 51087 PWs)   bands (ev):

   -21.9668  -9.1864  -7.6541  -6.4908  -5.8184  -5.6194  -5.3959  -5.0409
    -4.8272  -4.8196  -4.8147  -4.8024  -4.7880  -4.7730  -4.5974  -4.3708
    -4.2856  -4.2849  -4.2642  -4.2498  -4.2354  -4.0651  -3.7700  -3.7688
    -3.7583  -3.7460  -3.7233  -3.6863  -3.6356  -3.6339  -3.6295  -3.6254
    -3.6068  -3.5559  -3.5536  -3.4456  -3.2529  -3.2466  -3.2433  -3.2411
    -3.1868  -3.1822  -3.1761  -3.1736  -3.1693  -3.1621  -3.1555  -3.0985
    -3.0162  -3.0132  -2.9488  -2.9434  -2.9399  -2.9331  -2.9263  -2.9113
    -2.9073  -2.9047  -2.8815  -2.8677  -2.8109  -2.8017  -2.7995  -2.7919
    -2.7322  -2.5907  -2.3090  -2.2692  -2.2688  -2.2639  -2.2629  -2.1624
    -2.1404  -2.1282  -2.1195  -2.1082  -2.0980  -2.0923  -2.0857  -2.0796
    -2.0409  -2.0360  -2.0092  -1.9988  -1.9869  -1.9817  -1.9668  -1.9573
    -1.9547  -1.9454  -1.9408  -1.9348  -1.9240  -1.9136  -1.9093  -1.8980
    -1.8969  -1.8933  -1.8917  -1.8894  -1.8871  -1.8858  -1.8817  -1.8676
    -1.8588  -1.8520  -1.8325  -1.8191  -1.8130  -1.7396  -1.7342  -1.6377
    -1.5388  -1.4488  -1.4453  -1.4437  -1.4354  -1.4320  -1.4169  -1.4026
    -1.3974  -1.3937  -1.3811  -1.3516  -1.3486  -1.2234  -1.2161  -1.2019
    -1.1882  -1.1549  -1.0865  -1.0514  -1.0313  -1.0129  -0.9773  -0.9650
    -0.9611  -0.9592  -0.9505  -0.9340  -0.9135  -0.8904  -0.8357  -0.8124
    -0.7346  -0.7043  -0.7016  -0.6994  -0.6828  -0.6598  -0.6455  -0.6373
    -0.6339  -0.6314  -0.6290  -0.6258  -0.6223  -0.6145  -0.6091  -0.5984
    -0.5978  -0.5889  -0.5785  -0.5655  -0.5628  -0.5563  -0.5454  -0.5391
    -0.5324  -0.5248  -0.5164  -0.5070  -0.5026  -0.4927  -0.4898  -0.4843
    -0.4812  -0.4748  -0.4576  -0.4380  -0.4217  -0.4055  -0.3997  -0.3919
    -0.3900  -0.3807  -0.3774  -0.3655  -0.3592  -0.3194  -0.3125  -0.3063
    -0.3009  -0.2979  -0.2420  -0.2366  -0.2318  -0.2230  -0.2009  -0.1865
     0.4954   0.7586

          k = 0.0000 0.2309 0.0000 ( 51134 PWs)   bands (ev):

   -21.9668  -9.1750  -7.5134  -6.3943  -5.8522  -5.6615  -5.5095  -5.3549
    -5.0656  -5.0410  -4.9562  -4.6021  -4.5001  -4.4720  -4.4587  -4.4044
    -4.3355  -4.2869  -4.2123  -4.1861  -4.1459  -4.0333  -3.8851  -3.7702
    -3.7584  -3.6938  -3.6569  -3.6409  -3.6357  -3.6319  -3.6215  -3.6037
    -3.5764  -3.5379  -3.5125  -3.4906  -3.4856  -3.4168  -3.2783  -3.2636
    -3.2560  -3.2084  -3.2032  -3.1883  -3.1678  -3.1087  -3.0744  -3.0541
    -3.0383  -3.0315  -3.0246  -2.9924  -2.9562  -2.9012  -2.8923  -2.8686
    -2.8265  -2.8199  -2.7959  -2.7912  -2.7668  -2.7291  -2.7250  -2.7157
    -2.6804  -2.5913  -2.3920  -2.3795  -2.3545  -2.3409  -2.3245  -2.2398
    -2.2323  -2.2180  -2.2125  -2.2010  -2.1939  -2.1798  -2.1525  -2.1035
    -2.0998  -2.0826  -2.0653  -2.0316  -2.0265  -2.0203  -2.0059  -1.9977
    -1.9894  -1.9875  -1.9788  -1.9758  -1.9620  -1.9534  -1.9166  -1.8796
    -1.8748  -1.8565  -1.8094  -1.8000  -1.7935  -1.7827  -1.7760  -1.7748
    -1.7647  -1.7557  -1.7483  -1.7402  -1.7376  -1.7175  -1.6980  -1.6872
    -1.6759  -1.6584  -1.6324  -1.5871  -1.5640  -1.5003  -1.4672  -1.4628
    -1.4482  -1.4450  -1.4333  -1.4287  -1.4070  -1.3819  -1.3182  -1.2764
    -1.2401  -1.2003  -1.1828  -1.1703  -1.1459  -1.1136  -1.0904  -1.0751
    -1.0234  -0.9939  -0.9849  -0.9683  -0.9394  -0.9312  -0.9008  -0.8917
    -0.8753  -0.8504  -0.8328  -0.8119  -0.8060  -0.7940  -0.7849  -0.7698
    -0.7138  -0.7060  -0.6998  -0.6949  -0.6724  -0.6527  -0.6371  -0.6300
    -0.6237  -0.6199  -0.6117  -0.6018  -0.5874  -0.5747  -0.5627  -0.5412
    -0.5063  -0.4913  -0.4800  -0.4585  -0.4433  -0.4317  -0.3976  -0.3818
    -0.3708  -0.3603  -0.3526  -0.3467  -0.3291  -0.3208  -0.3142  -0.2741
    -0.2491  -0.2356  -0.2282  -0.2081  -0.1984  -0.1877  -0.1722  -0.1504
    -0.1030  -0.0323   0.1139   0.1463   0.1872   0.2788   0.3925   0.4233
     0.4612   0.8061

          k = 0.0000 0.4619 0.0000 ( 51204 PWs)   bands (ev):

   -21.9668  -9.1569  -7.0992  -6.4550  -6.1406  -5.8289  -5.5350  -5.3759
    -5.1929  -5.1454  -5.0701  -4.7930  -4.3410  -4.3080  -4.2725  -4.2332
    -4.1886  -4.1161  -4.1112  -4.0162  -3.9828  -3.9776  -3.9474  -3.8188
    -3.7997  -3.7892  -3.7861  -3.7818  -3.7121  -3.6832  -3.6738  -3.6065
    -3.5147  -3.5061  -3.4904  -3.4697  -3.4588  -3.4210  -3.3599  -3.3509
    -3.3397  -3.3278  -3.2982  -3.2119  -3.1253  -3.0990  -3.0332  -3.0193
    -2.9967  -2.9753  -2.9557  -2.9418  -2.9323  -2.9218  -2.9012  -2.8538
    -2.8408  -2.8196  -2.7781  -2.7511  -2.6478  -2.6314  -2.6129  -2.5857
    -2.5537  -2.5246  -2.5017  -2.4867  -2.4767  -2.4140  -2.3576  -2.3555
    -2.3535  -2.3406  -2.3310  -2.3112  -2.2983  -2.2897  -2.2678  -2.2382
    -2.2254  -2.1948  -2.1761  -2.1520  -2.1241  -2.1155  -2.0603  -2.0410
    -2.0244  -2.0118  -1.9940  -1.9679  -1.9621  -1.9221  -1.9126  -1.9027
    -1.8973  -1.8768  -1.8690  -1.8479  -1.8406  -1.8376  -1.8287  -1.7962
    -1.7828  -1.7461  -1.7310  -1.7219  -1.6579  -1.6402  -1.6158  -1.6033
    -1.5867  -1.5686  -1.5548  -1.5134  -1.5069  -1.4923  -1.4881  -1.4791
    -1.4679  -1.4634  -1.4569  -1.4479  -1.4392  -1.4310  -1.4113  -1.4005
    -1.3839  -1.3649  -1.3079  -1.2711  -1.2602  -1.2492  -1.2263  -1.2025
    -1.1834  -1.1361  -1.1092  -1.0974  -1.0692  -1.0598  -1.0232  -0.9991
    -0.9800  -0.9438  -0.9276  -0.9150  -0.8894  -0.8597  -0.8336  -0.7880
    -0.7500  -0.7237  -0.7120  -0.6992  -0.6967  -0.6890  -0.6813  -0.6715
    -0.6539  -0.6350  -0.5541  -0.5452  -0.5401  -0.5282  -0.5186  -0.5033
    -0.4952  -0.4774  -0.4701  -0.4642  -0.4420  -0.4222  -0.3632  -0.3509
    -0.3373  -0.3271  -0.3009  -0.2547  -0.2484  -0.2190  -0.2121  -0.1736
    -0.1435  -0.1333  -0.1254  -0.1088  -0.1033  -0.0999  -0.0923  -0.0466
     0.0006   0.0240   0.4208   0.6000   0.9304   1.0857   1.1290   1.2619
     1.4708   1.5150

          k = 0.2000-0.1155 0.0000 ( 51134 PWs)   bands (ev):

   -21.9668  -9.1766  -7.5124  -6.3935  -5.8337  -5.6543  -5.5247  -5.3623
    -5.0776  -5.0300  -4.9535  -4.6370  -4.4811  -4.4728  -4.4528  -4.4045
    -4.3147  -4.2904  -4.2315  -4.1579  -4.1453  -4.0740  -3.8682  -3.7751
    -3.7654  -3.6948  -3.6509  -3.6394  -3.6360  -3.6259  -3.6202  -3.6022
    -3.5881  -3.5268  -3.5123  -3.4894  -3.4866  -3.4101  -3.2667  -3.2608
    -3.2482  -3.2071  -3.2029  -3.1951  -3.1705  -3.0999  -3.0726  -3.0593
    -3.0387  -3.0363  -3.0182  -2.9968  -2.9647  -2.8992  -2.8926  -2.8615
    -2.8331  -2.8243  -2.7969  -2.7922  -2.7678  -2.7302  -2.7255  -2.7144
    -2.6922  -2.5847  -2.3890  -2.3803  -2.3597  -2.3463  -2.3266  -2.2401
    -2.2305  -2.2140  -2.2090  -2.2009  -2.1947  -2.1857  -2.1613  -2.1065
    -2.0964  -2.0835  -2.0631  -2.0298  -2.0233  -2.0170  -2.0070  -1.9999
    -1.9875  -1.9845  -1.9766  -1.9744  -1.9661  -1.9535  -1.9317  -1.8869
    -1.8708  -1.8659  -1.8041  -1.7958  -1.7867  -1.7851  -1.7767  -1.7729
    -1.7608  -1.7540  -1.7450  -1.7412  -1.7341  -1.7125  -1.7018  -1.6848
    -1.6734  -1.6649  -1.6259  -1.5768  -1.5632  -1.4768  -1.4688  -1.4671
    -1.4587  -1.4386  -1.4325  -1.4255  -1.4003  -1.3949  -1.3736  -1.2687
    -1.2484  -1.1950  -1.1823  -1.1672  -1.1533  -1.0959  -1.0811  -1.0722
    -1.0557  -0.9791  -0.9680  -0.9598  -0.9342  -0.9283  -0.8960  -0.8868
    -0.8679  -0.8551  -0.8455  -0.8210  -0.8074  -0.7878  -0.7825  -0.7782
    -0.7179  -0.7084  -0.7017  -0.6965  -0.6812  -0.6651  -0.6408  -0.6268
    -0.6232  -0.6172  -0.6139  -0.5992  -0.5838  -0.5736  -0.5598  -0.5468
    -0.5162  -0.4998  -0.4885  -0.4581  -0.4374  -0.4235  -0.4061  -0.3793
    -0.3752  -0.3621  -0.3574  -0.3440  -0.3278  -0.3199  -0.3141  -0.2811
    -0.2484  -0.2396  -0.2271  -0.2073  -0.2004  -0.1834  -0.1759  -0.1554
    -0.0985  -0.0232   0.1296   0.1479   0.2233   0.2874   0.4084   0.4235
     0.4584   0.7728

          k = 0.2000 0.1155 0.0000 ( 51134 PWs)   bands (ev):

   -21.9668  -9.1745  -7.5141  -6.3956  -5.8735  -5.6537  -5.4591  -5.3949
    -5.0617  -5.0357  -4.9687  -4.5739  -4.5065  -4.4703  -4.4618  -4.4011
    -4.3367  -4.3027  -4.2137  -4.1861  -4.1479  -4.0214  -3.8872  -3.7756
    -3.7498  -3.6882  -3.6502  -3.6423  -3.6370  -3.6344  -3.6218  -3.6146
    -3.5537  -3.5464  -3.5230  -3.4903  -3.4858  -3.4183  -3.2834  -3.2621
    -3.2591  -3.2083  -3.2059  -3.1923  -3.1626  -3.1071  -3.0775  -3.0507
    -3.0359  -3.0330  -3.0241  -2.9999  -2.9530  -2.9019  -2.8923  -2.8678
    -2.8332  -2.8083  -2.7973  -2.7904  -2.7753  -2.7278  -2.7273  -2.7136
    -2.6653  -2.5946  -2.3901  -2.3785  -2.3534  -2.3408  -2.3273  -2.2395
    -2.2331  -2.2255  -2.2097  -2.2025  -2.1954  -2.1820  -2.1336  -2.1057
    -2.0996  -2.0847  -2.0579  -2.0297  -2.0243  -2.0198  -2.0162  -1.9976
    -1.9904  -1.9863  -1.9807  -1.9761  -1.9630  -1.9471  -1.9299  -1.8824
    -1.8704  -1.8548  -1.8111  -1.8032  -1.7948  -1.7844  -1.7778  -1.7736
    -1.7632  -1.7553  -1.7525  -1.7401  -1.7380  -1.7246  -1.6925  -1.6893
    -1.6745  -1.6660  -1.6285  -1.5881  -1.5693  -1.5121  -1.4695  -1.4608
    -1.4496  -1.4420  -1.4334  -1.4281  -1.4092  -1.3688  -1.2932  -1.2824
    -1.2385  -1.1997  -1.1841  -1.1714  -1.1460  -1.1261  -1.0904  -1.0824
    -1.0140  -0.9922  -0.9827  -0.9594  -0.9441  -0.9333  -0.9008  -0.8956
    -0.8743  -0.8511  -0.8345  -0.8127  -0.8084  -0.7946  -0.7897  -0.7700
    -0.7094  -0.7043  -0.6978  -0.6920  -0.6797  -0.6469  -0.6385  -0.6288
    -0.6243  -0.6173  -0.6118  -0.5970  -0.5859  -0.5752  -0.5666  -0.5533
    -0.5039  -0.4832  -0.4754  -0.4604  -0.4481  -0.4357  -0.3965  -0.3816
    -0.3739  -0.3622  -0.3528  -0.3428  -0.3283  -0.3192  -0.3144  -0.2715
    -0.2423  -0.2353  -0.2265  -0.2068  -0.1996  -0.1697  -0.1574  -0.1515
    -0.1008  -0.0572   0.1122   0.1475   0.1842   0.2721   0.3969   0.4195
     0.4551   0.7519

          k = 0.2000 0.3464 0.0000 ( 51202 PWs)   bands (ev):

   -21.9668  -9.1592  -7.2372  -6.2427  -6.0549  -5.9137  -5.6743  -5.4604
    -5.3758  -4.9544  -4.7618  -4.5878  -4.4812  -4.4784  -4.3136  -4.2616
    -4.2432  -4.1607  -4.1548  -4.0848  -4.0292  -3.9292  -3.8886  -3.8654
    -3.8098  -3.7702  -3.6789  -3.6714  -3.6363  -3.6294  -3.6196  -3.6049
    -3.5782  -3.5688  -3.5446  -3.5132  -3.4663  -3.4443  -3.4316  -3.3779
    -3.2953  -3.2490  -3.2037  -3.1734  -3.1555  -3.1454  -3.0902  -3.0429
    -3.0122  -2.9721  -2.9682  -2.9571  -2.9310  -2.9069  -2.8890  -2.8794
    -2.8624  -2.8362  -2.7562  -2.6895  -2.6802  -2.6568  -2.6347  -2.6189
    -2.6048  -2.5479  -2.4952  -2.4237  -2.4035  -2.3805  -2.3675  -2.3385
    -2.3225  -2.3136  -2.3078  -2.2895  -2.2659  -2.2556  -2.2491  -2.2365
    -2.2113  -2.1820  -2.1581  -2.1020  -2.0601  -2.0501  -2.0411  -2.0211
    -2.0032  -1.9845  -1.9547  -1.9481  -1.9415  -1.9148  -1.8960  -1.8898
    -1.8831  -1.8816  -1.8731  -1.8529  -1.8502  -1.8326  -1.8165  -1.8117
    -1.7896  -1.7616  -1.7380  -1.7149  -1.7065  -1.6799  -1.6627  -1.6574
    -1.6451  -1.6317  -1.6123  -1.5780  -1.5574  -1.5494  -1.5239  -1.5051
    -1.4961  -1.4859  -1.4726  -1.4621  -1.4439  -1.4292  -1.4137  -1.3627
    -1.3455  -1.3287  -1.3196  -1.2185  -1.2038  -1.1848  -1.1692  -1.0982
    -1.0560  -1.0536  -1.0471  -1.0395  -1.0242  -1.0144  -0.9945  -0.9898
    -0.9704  -0.9452  -0.9303  -0.8882  -0.8695  -0.8573  -0.8493  -0.8354
    -0.8056  -0.7970  -0.7825  -0.7716  -0.7582  -0.7423  -0.6222  -0.6038
    -0.5802  -0.5705  -0.5614  -0.5492  -0.5379  -0.5229  -0.5148  -0.5082
    -0.4854  -0.4590  -0.4364  -0.4202  -0.3998  -0.3820  -0.3408  -0.3307
    -0.3244  -0.3210  -0.3144  -0.2933  -0.2833  -0.2765  -0.2705  -0.2498
    -0.2425  -0.1654  -0.1553  -0.1525  -0.1099  -0.1079  -0.0749   0.0445
     0.2188   0.2392   0.2837   0.3695   0.5438   0.6269   0.9322   1.1338
     1.2309   1.4381

          k = 0.2000-0.5774 0.0000 ( 51262 PWs)   bands (ev):

   -21.9668  -9.1521  -6.7340  -6.6639  -6.1400  -5.9736  -5.7749  -5.4615
    -5.2273  -5.1898  -4.8792  -4.6247  -4.4603  -4.2203  -4.1780  -4.0536
    -4.0432  -4.0300  -4.0151  -4.0040  -3.9555  -3.9377  -3.9316  -3.9290
    -3.9099  -3.8345  -3.7846  -3.7789  -3.7572  -3.7515  -3.7058  -3.6144
    -3.5986  -3.5899  -3.5699  -3.5420  -3.4903  -3.4404  -3.3426  -3.3046
    -3.2980  -3.2811  -3.2140  -3.1980  -3.1714  -3.1211  -3.0872  -3.0818
    -3.0511  -3.0150  -2.9866  -2.9224  -2.8933  -2.8703  -2.8503  -2.8071
    -2.7851  -2.7256  -2.7211  -2.7109  -2.6982  -2.6870  -2.6585  -2.6116
    -2.5536  -2.5050  -2.4960  -2.4879  -2.4622  -2.4254  -2.4159  -2.3610
    -2.3534  -2.3180  -2.3065  -2.3003  -2.2906  -2.2703  -2.2519  -2.2403
    -2.2224  -2.2153  -2.1986  -2.1760  -2.1690  -2.1301  -2.0996  -2.0876
    -2.0761  -2.0532  -2.0010  -1.9738  -1.9530  -1.9323  -1.9221  -1.9142
    -1.8936  -1.8851  -1.8749  -1.8668  -1.8483  -1.8306  -1.8233  -1.7694
    -1.7601  -1.7391  -1.7289  -1.7239  -1.7054  -1.7000  -1.6927  -1.6801
    -1.6749  -1.6686  -1.6437  -1.6276  -1.5864  -1.5688  -1.5581  -1.5167
    -1.4940  -1.4821  -1.4652  -1.4252  -1.4135  -1.4010  -1.3954  -1.3692
    -1.3298  -1.3243  -1.3028  -1.2425  -1.1980  -1.1922  -1.1732  -1.1585
    -1.1311  -1.1240  -1.1171  -1.0973  -1.0774  -1.0586  -1.0442  -1.0197
    -0.9778  -0.9754  -0.9503  -0.9336  -0.9176  -0.8807  -0.8639  -0.8549
    -0.8443  -0.8236  -0.8165  -0.7971  -0.7734  -0.7570  -0.7349  -0.5815
    -0.5634  -0.5555  -0.5451  -0.5407  -0.5284  -0.5221  -0.5090  -0.4773
    -0.4699  -0.4618  -0.4496  -0.4338  -0.3860  -0.3400  -0.3240  -0.3167
    -0.3022  -0.2920  -0.2783  -0.2611  -0.2336  -0.2215  -0.2161  -0.2010
    -0.1899  -0.1580  -0.1236  -0.1187  -0.1062  -0.0934  -0.0724  -0.0408
     0.1462   0.2711   0.5217   0.8916   0.9722   1.1821   1.2492   1.5564
     1.6708   1.7312

          k = 0.2000-0.3464 0.0000 ( 51202 PWs)   bands (ev):

   -21.9668  -9.1627  -7.2326  -6.2518  -5.9877  -5.9285  -5.6756  -5.5263
    -5.3470  -4.9658  -4.7038  -4.6681  -4.4783  -4.4660  -4.3064  -4.2608
    -4.2512  -4.1602  -4.1554  -4.0418  -4.0239  -4.0097  -3.8893  -3.8648
    -3.8164  -3.7682  -3.6750  -3.6573  -3.6492  -3.6276  -3.6203  -3.5973
    -3.5783  -3.5721  -3.5323  -3.5070  -3.4689  -3.4273  -3.4147  -3.3792
    -3.2897  -3.2246  -3.2032  -3.1826  -3.1605  -3.1381  -3.0738  -3.0438
    -2.9969  -2.9939  -2.9650  -2.9492  -2.9450  -2.9116  -2.8908  -2.8750
    -2.8567  -2.8354  -2.7461  -2.7264  -2.6811  -2.6649  -2.6413  -2.6260
    -2.6036  -2.5559  -2.4897  -2.4266  -2.4006  -2.3820  -2.3661  -2.3348
    -2.3239  -2.3118  -2.3064  -2.2804  -2.2662  -2.2543  -2.2436  -2.2355
    -2.2270  -2.1833  -2.1519  -2.1310  -2.0610  -2.0547  -2.0295  -2.0147
    -2.0076  -1.9837  -1.9662  -1.9487  -1.9307  -1.9167  -1.8997  -1.8965
    -1.8881  -1.8791  -1.8711  -1.8530  -1.8417  -1.8366  -1.8178  -1.8025
    -1.7927  -1.7886  -1.7640  -1.7133  -1.7097  -1.6746  -1.6631  -1.6544
    -1.6511  -1.6306  -1.5846  -1.5782  -1.5594  -1.5330  -1.5164  -1.5022
    -1.4895  -1.4850  -1.4758  -1.4523  -1.4377  -1.4221  -1.4137  -1.3611
    -1.3496  -1.3132  -1.3001  -1.2453  -1.2086  -1.1768  -1.1596  -1.0933
    -1.0733  -1.0501  -1.0386  -1.0349  -1.0275  -1.0185  -0.9912  -0.9807
    -0.9663  -0.9587  -0.9350  -0.8918  -0.8799  -0.8683  -0.8477  -0.8351
    -0.8125  -0.7935  -0.7744  -0.7668  -0.7534  -0.7442  -0.6196  -0.6112
    -0.5914  -0.5766  -0.5613  -0.5490  -0.5427  -0.5241  -0.5182  -0.4984
    -0.4849  -0.4602  -0.4280  -0.4148  -0.4012  -0.3891  -0.3544  -0.3322
    -0.3255  -0.3213  -0.3163  -0.2936  -0.2844  -0.2752  -0.2679  -0.2552
    -0.2444  -0.1701  -0.1568  -0.1508  -0.1075  -0.1034  -0.0944   0.0551
     0.1453   0.2405   0.2594   0.4609   0.5189   0.6453   1.0324   1.1331
     1.2467   1.3911

          k = 0.4000-0.2309 0.0000 ( 51204 PWs)   bands (ev):

   -21.9668  -9.1612  -7.0947  -6.4520  -6.1356  -5.7678  -5.5931  -5.3685
    -5.2140  -5.1396  -5.0857  -4.7816  -4.3186  -4.3047  -4.2836  -4.2422
    -4.1934  -4.1148  -4.1104  -4.0423  -3.9826  -3.9770  -3.9692  -3.8139
    -3.7995  -3.7959  -3.7855  -3.7826  -3.7226  -3.6806  -3.6743  -3.5425
    -3.5120  -3.5029  -3.4867  -3.4678  -3.4614  -3.4221  -3.3567  -3.3514
    -3.3372  -3.3314  -3.2552  -3.2013  -3.1334  -3.0979  -3.0410  -3.0303
    -2.9998  -2.9796  -2.9555  -2.9410  -2.9352  -2.9186  -2.8972  -2.8486
    -2.8392  -2.8161  -2.7864  -2.7744  -2.6477  -2.6385  -2.6150  -2.6056
    -2.5483  -2.5254  -2.4991  -2.4883  -2.4731  -2.4101  -2.3576  -2.3549
    -2.3501  -2.3410  -2.3348  -2.3134  -2.2998  -2.2829  -2.2671  -2.2554
    -2.2270  -2.1914  -2.1739  -2.1538  -2.1303  -2.1005  -2.0600  -2.0341
    -2.0233  -2.0101  -1.9832  -1.9740  -1.9713  -1.9263  -1.9118  -1.9051
    -1.9007  -1.8862  -1.8695  -1.8472  -1.8377  -1.8296  -1.8252  -1.8042
    -1.7878  -1.7570  -1.7285  -1.7239  -1.6555  -1.6371  -1.6197  -1.6185
    -1.5986  -1.5714  -1.5410  -1.5216  -1.5085  -1.4861  -1.4837  -1.4763
    -1.4741  -1.4645  -1.4532  -1.4441  -1.4401  -1.4320  -1.4190  -1.4094
    -1.4030  -1.3507  -1.2883  -1.2815  -1.2633  -1.2451  -1.2208  -1.2129
    -1.1828  -1.1229  -1.1095  -1.0998  -1.0581  -1.0460  -1.0155  -0.9744
    -0.9603  -0.9457  -0.9254  -0.9065  -0.8936  -0.8755  -0.8528  -0.7666
    -0.7440  -0.7362  -0.7180  -0.7063  -0.6995  -0.6919  -0.6861  -0.6755
    -0.6660  -0.6364  -0.5576  -0.5499  -0.5391  -0.5312  -0.5250  -0.5132
    -0.5009  -0.4887  -0.4651  -0.4584  -0.4454  -0.4215  -0.3711  -0.3531
    -0.3461  -0.3257  -0.3104  -0.2528  -0.2477  -0.2217  -0.2145  -0.1728
    -0.1413  -0.1400  -0.1298  -0.1172  -0.1032  -0.0985  -0.0933  -0.0433
     0.0002   0.0283   0.4981   0.5838   0.9089   1.1088   1.1360   1.3318
     1.4830   1.4999

          k = 0.4000 0.0000 0.0000 ( 51202 PWs)   bands (ev):

   -21.9668  -9.1618  -7.2345  -6.2489  -6.0207  -5.9191  -5.6741  -5.4868
    -5.3623  -4.9789  -4.7317  -4.6160  -4.4819  -4.4667  -4.3133  -4.2593
    -4.2490  -4.1608  -4.1545  -4.0579  -4.0284  -3.9862  -3.8866  -3.8623
    -3.8142  -3.7673  -3.6763  -3.6612  -3.6372  -3.6249  -3.6173  -3.6109
    -3.5781  -3.5709  -3.5312  -3.5065  -3.4674  -3.4305  -3.4264  -3.3739
    -3.2870  -3.2281  -3.2039  -3.1820  -3.1590  -3.1447  -3.0903  -3.0433
    -3.0064  -2.9826  -2.9683  -2.9521  -2.9375  -2.9072  -2.9000  -2.8736
    -2.8592  -2.8347  -2.7487  -2.7125  -2.6788  -2.6583  -2.6468  -2.6265
    -2.5994  -2.5555  -2.4918  -2.4250  -2.4092  -2.3815  -2.3662  -2.3348
    -2.3214  -2.3124  -2.3061  -2.2836  -2.2682  -2.2547  -2.2430  -2.2371
    -2.2290  -2.1785  -2.1529  -2.1104  -2.0595  -2.0538  -2.0300  -2.0154
    -2.0076  -1.9852  -1.9583  -1.9504  -1.9397  -1.9158  -1.8986  -1.8969
    -1.8896  -1.8784  -1.8726  -1.8534  -1.8440  -1.8345  -1.8204  -1.8103
    -1.7934  -1.7810  -1.7539  -1.7151  -1.7074  -1.6687  -1.6625  -1.6595
    -1.6505  -1.6361  -1.6042  -1.5711  -1.5550  -1.5480  -1.5302  -1.4979
    -1.4942  -1.4837  -1.4701  -1.4520  -1.4316  -1.4240  -1.4117  -1.3638
    -1.3488  -1.3235  -1.3055  -1.2335  -1.2124  -1.1828  -1.1660  -1.0921
    -1.0678  -1.0475  -1.0375  -1.0305  -1.0252  -1.0183  -0.9891  -0.9825
    -0.9662  -0.9534  -0.9304  -0.8906  -0.8830  -0.8611  -0.8507  -0.8381
    -0.8134  -0.7946  -0.7802  -0.7671  -0.7551  -0.7418  -0.6237  -0.5997
    -0.5974  -0.5758  -0.5615  -0.5501  -0.5355  -0.5274  -0.5093  -0.5031
    -0.4829  -0.4592  -0.4314  -0.4226  -0.4002  -0.3878  -0.3500  -0.3343
    -0.3240  -0.3219  -0.3175  -0.2930  -0.2829  -0.2736  -0.2709  -0.2541
    -0.2418  -0.1686  -0.1538  -0.1509  -0.1064  -0.1010  -0.0840   0.0401
     0.1627   0.2407   0.2671   0.4311   0.5331   0.6486   1.0098   1.1310
     1.2444   1.4325

          k = 0.4000 0.2309 0.0000 ( 51204 PWs)   bands (ev):

   -21.9668  -9.1555  -7.1022  -6.4584  -6.1481  -5.8559  -5.4668  -5.4028
    -5.1937  -5.1451  -5.0634  -4.7984  -4.3428  -4.3025  -4.2882  -4.2322
    -4.1814  -4.1167  -4.1125  -4.0044  -3.9830  -3.9774  -3.9120  -3.8269
    -3.7988  -3.7884  -3.7854  -3.7803  -3.6932  -3.6823  -3.6648  -3.6521
    -3.5165  -3.5127  -3.4987  -3.4693  -3.4659  -3.4162  -3.3587  -3.3531
    -3.3397  -3.3287  -3.2978  -3.2120  -3.1297  -3.0892  -3.0360  -3.0117
    -3.0012  -2.9714  -2.9559  -2.9527  -2.9399  -2.9162  -2.8879  -2.8554
    -2.8435  -2.8213  -2.7872  -2.7363  -2.6417  -2.6314  -2.6185  -2.5841
    -2.5581  -2.5212  -2.4992  -2.4957  -2.4819  -2.4130  -2.3604  -2.3553
    -2.3511  -2.3428  -2.3292  -2.3132  -2.2971  -2.2916  -2.2672  -2.2300
    -2.2154  -2.1968  -2.1801  -2.1630  -2.1211  -2.1059  -2.0584  -2.0406
    -2.0269  -2.0145  -1.9961  -1.9788  -1.9554  -1.9214  -1.9153  -1.9044
    -1.8920  -1.8804  -1.8667  -1.8546  -1.8430  -1.8349  -1.8280  -1.7985
    -1.7835  -1.7621  -1.7329  -1.7209  -1.6579  -1.6435  -1.6154  -1.6018
    -1.5803  -1.5688  -1.5476  -1.5090  -1.5064  -1.4964  -1.4874  -1.4811
    -1.4726  -1.4661  -1.4527  -1.4487  -1.4400  -1.4282  -1.4023  -1.3962
    -1.3798  -1.3678  -1.3238  -1.2719  -1.2564  -1.2454  -1.2259  -1.2020
    -1.1830  -1.1337  -1.1125  -1.0962  -1.0820  -1.0498  -1.0382  -1.0009
    -0.9762  -0.9449  -0.9255  -0.9180  -0.8872  -0.8589  -0.8358  -0.7967
    -0.7298  -0.7223  -0.7093  -0.7002  -0.6959  -0.6846  -0.6774  -0.6663
    -0.6586  -0.6532  -0.5531  -0.5464  -0.5412  -0.5272  -0.5178  -0.4970
    -0.4909  -0.4848  -0.4684  -0.4576  -0.4430  -0.4219  -0.3617  -0.3467
    -0.3407  -0.3285  -0.2937  -0.2504  -0.2499  -0.2134  -0.2119  -0.1725
    -0.1457  -0.1314  -0.1273  -0.1055  -0.1027  -0.0983  -0.0785  -0.0559
     0.0004   0.0258   0.3983   0.6680   0.8840   1.0372   1.1351   1.2092
     1.4820   1.5460

          k = 0.4000-0.6928 0.0000 ( 51262 PWs)   bands (ev):

   -21.9668  -9.1512  -6.7420  -6.6619  -6.1428  -5.9323  -5.8478  -5.4170
    -5.2080  -5.1880  -4.9124  -4.6241  -4.4597  -4.2203  -4.1766  -4.0487
    -4.0435  -4.0203  -4.0127  -3.9886  -3.9602  -3.9363  -3.9311  -3.9261
    -3.9119  -3.8067  -3.7882  -3.7803  -3.7624  -3.7459  -3.7275  -3.6206
    -3.5980  -3.5927  -3.5774  -3.5550  -3.4935  -3.4346  -3.3371  -3.3053
    -3.3015  -3.2767  -3.2079  -3.1988  -3.1715  -3.1249  -3.0873  -3.0848
    -3.0639  -3.0033  -2.9935  -2.9222  -2.8900  -2.8639  -2.8551  -2.8025
    -2.7843  -2.7265  -2.7193  -2.7118  -2.6996  -2.6921  -2.6430  -2.6260
    -2.5503  -2.5065  -2.4984  -2.4818  -2.4704  -2.4333  -2.4146  -2.3587
    -2.3506  -2.3191  -2.3125  -2.2968  -2.2902  -2.2676  -2.2486  -2.2349
    -2.2214  -2.2114  -2.1849  -2.1798  -2.1690  -2.1515  -2.1047  -2.0877
    -2.0737  -2.0490  -2.0055  -1.9709  -1.9553  -1.9341  -1.9208  -1.9140
    -1.8934  -1.8862  -1.8809  -1.8589  -1.8424  -1.8372  -1.8236  -1.7644
    -1.7476  -1.7417  -1.7285  -1.7140  -1.7040  -1.7012  -1.6873  -1.6823
    -1.6773  -1.6707  -1.6468  -1.6387  -1.5876  -1.5681  -1.5616  -1.5299
    -1.5010  -1.4789  -1.4583  -1.4263  -1.4130  -1.4034  -1.3919  -1.3755
    -1.3281  -1.3253  -1.2966  -1.2486  -1.1960  -1.1893  -1.1784  -1.1553
    -1.1358  -1.1232  -1.1151  -1.0958  -1.0850  -1.0607  -1.0375  -1.0116
    -0.9785  -0.9718  -0.9480  -0.9307  -0.9209  -0.8835  -0.8681  -0.8632
    -0.8409  -0.8264  -0.8106  -0.7944  -0.7728  -0.7610  -0.7335  -0.5781
    -0.5642  -0.5582  -0.5493  -0.5382  -0.5347  -0.5179  -0.5101  -0.4753
    -0.4668  -0.4565  -0.4526  -0.4338  -0.3844  -0.3306  -0.3254  -0.3135
    -0.3046  -0.2915  -0.2756  -0.2423  -0.2319  -0.2232  -0.2145  -0.2049
    -0.1973  -0.1762  -0.1252  -0.1184  -0.1051  -0.0955  -0.0726  -0.0383
     0.1562   0.2762   0.5685   0.8025   0.9877   1.1826   1.2380   1.5784
     1.6854   1.7219

          k = 0.4000-0.4619 0.0000 ( 51262 PWs)   bands (ev):

   -21.9668  -9.1548  -6.7164  -6.6749  -6.1289  -6.0038  -5.6922  -5.5281
    -5.2392  -5.1936  -4.8572  -4.6242  -4.4623  -4.2241  -4.1749  -4.0716
    -4.0448  -4.0334  -4.0147  -4.0099  -3.9589  -3.9424  -3.9317  -3.9301
    -3.9039  -3.8494  -3.7836  -3.7764  -3.7553  -3.7515  -3.7016  -3.6080
    -3.5984  -3.5907  -3.5687  -3.5173  -3.4589  -3.4358  -3.3650  -3.3055
    -3.2986  -3.2483  -3.2186  -3.2002  -3.1731  -3.1216  -3.0868  -3.0814
    -3.0436  -3.0196  -2.9924  -2.9256  -2.8906  -2.8631  -2.8535  -2.8111
    -2.8004  -2.7258  -2.7182  -2.7069  -2.6956  -2.6844  -2.6617  -2.6389
    -2.5560  -2.5106  -2.4979  -2.4827  -2.4566  -2.4243  -2.4047  -2.3609
    -2.3571  -2.3159  -2.3070  -2.3041  -2.2938  -2.2734  -2.2480  -2.2460
    -2.2275  -2.2179  -2.2000  -2.1743  -2.1714  -2.1400  -2.0967  -2.0816
    -2.0647  -2.0298  -2.0030  -1.9784  -1.9593  -1.9354  -1.9234  -1.9131
    -1.8954  -1.8840  -1.8777  -1.8690  -1.8557  -1.8322  -1.8271  -1.7937
    -1.7636  -1.7405  -1.7314  -1.7218  -1.7043  -1.6983  -1.6916  -1.6804
    -1.6701  -1.6653  -1.6468  -1.6150  -1.5827  -1.5722  -1.5532  -1.5320
    -1.4778  -1.4745  -1.4496  -1.4322  -1.4168  -1.4061  -1.3926  -1.3705
    -1.3370  -1.3208  -1.2946  -1.2637  -1.2067  -1.1824  -1.1738  -1.1529
    -1.1392  -1.1277  -1.1186  -1.0881  -1.0699  -1.0529  -1.0386  -1.0255
    -0.9781  -0.9613  -0.9471  -0.9383  -0.9246  -0.8763  -0.8668  -0.8493
    -0.8438  -0.8243  -0.8187  -0.8025  -0.7750  -0.7598  -0.7266  -0.5879
    -0.5668  -0.5627  -0.5504  -0.5366  -0.5304  -0.5205  -0.5086  -0.4853
    -0.4671  -0.4538  -0.4448  -0.4378  -0.3954  -0.3476  -0.3252  -0.3184
    -0.3052  -0.2956  -0.2772  -0.2653  -0.2303  -0.2219  -0.2157  -0.2030
    -0.1969  -0.1303  -0.1255  -0.1170  -0.1055  -0.0940  -0.0736  -0.0400
     0.1377   0.2565   0.4881   0.8774   1.0930   1.1792   1.2883   1.5209
     1.6799   1.7293

 ------ SPIN DOWN ----------


          k = 0.0000 0.0000 0.0000 ( 51087 PWs)   bands (ev):

   -22.0512  -9.2687  -7.7882  -6.5668  -5.8099  -5.6485  -5.4294  -4.9166
    -4.6349  -4.6236  -4.6216  -4.5955  -4.5875  -4.5713  -4.1795  -3.7534
    -3.7518  -3.7348  -3.7212  -3.7102  -3.6632  -3.3139  -2.8162  -2.8069
    -2.7963  -2.7926  -2.7246  -2.5822  -2.3510  -2.3386  -2.3332  -2.3291
    -2.3085  -2.2204  -2.1403  -2.1361  -2.0692  -2.0499  -2.0404  -2.0397
    -1.9567  -1.9513  -1.9050  -1.9014  -1.8404  -1.8171  -1.8030  -1.7935
    -1.7541  -1.7347  -1.5561  -1.5492  -1.5362  -1.5298  -1.5176  -1.5157
    -1.5013  -1.5000  -1.4701  -1.4611  -1.4321  -1.4256  -1.4230  -1.4209
    -1.3544  -1.2516  -0.9076  -0.8709  -0.8470  -0.8437  -0.8014  -0.7455
    -0.6518  -0.6336  -0.5447  -0.5345  -0.5261  -0.5183  -0.5069  -0.4920
    -0.4710  -0.4638  -0.4403  -0.4362  -0.4265  -0.4262  -0.3779  -0.3655
    -0.3559  -0.3294  -0.3158  -0.3013  -0.2863  -0.2837  -0.2683  -0.2642
    -0.2587  -0.2525  -0.2420  -0.2375  -0.2362  -0.2345  -0.2025  -0.1542
    -0.1355  -0.1170  -0.0997  -0.0643  -0.0327  -0.0191  -0.0114  -0.0070
    -0.0051  -0.0027   0.0036   0.0554   0.0726   0.0734   0.1208   0.1482
     0.1590   0.1650   0.1743   0.2069   0.2563   0.3820   0.3940   0.4401
     0.4529   0.4672   0.4734   0.4804   0.6087   0.6819   0.7638   0.7999
     0.8151   0.8629   0.9770   1.0009   1.0225   1.0339   1.0424   1.0480
     1.0959   1.1659   1.1909   1.2091   1.2147   1.2234   1.2295   1.2530
     1.2615   1.2733   1.2835   1.3016   1.3158   1.3248   1.3274   1.3618
     1.3628   1.3728   1.3764   1.3860   1.4100   1.4294   1.4339   1.4434
     1.4549   1.4620   1.4763   1.4888   1.4925   1.5028   1.5058   1.5395
     1.5481   1.5643   1.5668   1.5721   1.5801   1.5862   1.5932   1.6298
     1.6363   1.6368   1.6404   1.6448   1.6486   1.6589   1.6680   1.6734
     1.6757   1.7211   1.7219   1.8642   1.8696   1.8722   1.8766   1.8783
     1.8802   2.0533

          k = 0.0000 0.2309 0.0000 ( 51134 PWs)   bands (ev):

   -22.0512  -9.2574  -7.6469  -6.4643  -5.8764  -5.6759  -5.5318  -5.3931
    -5.0102  -4.9823  -4.8132  -4.4086  -4.1689  -4.0703  -4.0559  -3.9288
    -3.8171  -3.7726  -3.4679  -3.3953  -3.3222  -3.2549  -2.9710  -2.7883
    -2.7679  -2.7401  -2.6830  -2.5800  -2.4534  -2.3702  -2.3663  -2.3562
    -2.3227  -2.2911  -2.2826  -2.2802  -2.2309  -2.1862  -2.1003  -2.0981
    -2.0132  -2.0113  -1.9674  -1.8481  -1.8339  -1.8179  -1.7993  -1.7081
    -1.6751  -1.6525  -1.6076  -1.5708  -1.5597  -1.5347  -1.5230  -1.5188
    -1.5005  -1.4906  -1.4158  -1.3952  -1.3823  -1.3618  -1.3322  -1.2941
    -1.2363  -1.1559  -0.9647  -0.9195  -0.9004  -0.8933  -0.8408  -0.7766
    -0.7681  -0.7175  -0.6841  -0.6412  -0.6249  -0.5798  -0.5501  -0.5408
    -0.5076  -0.4994  -0.4793  -0.4706  -0.4646  -0.4504  -0.4300  -0.3828
    -0.3431  -0.3246  -0.3137  -0.3113  -0.3055  -0.2688  -0.2566  -0.2450
    -0.2357  -0.2245  -0.2216  -0.2153  -0.2128  -0.2103  -0.1867  -0.1629
    -0.1365  -0.1298  -0.1109  -0.1046  -0.0993  -0.0821  -0.0579  -0.0336
    -0.0164  -0.0035   0.0360   0.0651   0.0915   0.1081   0.1123   0.1397
     0.2383   0.2651   0.2970   0.3443   0.3648   0.3735   0.4096   0.4294
     0.4345   0.4403   0.4515   0.4596   0.5869   0.7078   0.7587   0.7796
     0.7917   0.8036   0.8152   0.8307   0.8707   0.8886   0.9383   0.9671
     1.0146   1.0316   1.0572   1.0882   1.1001   1.1226   1.1442   1.1477
     1.2130   1.2322   1.2525   1.2630   1.2743   1.2889   1.3266   1.3346
     1.3513   1.3697   1.4071   1.4269   1.4425   1.4491   1.4742   1.4985
     1.5171   1.5272   1.5329   1.5359   1.5566   1.6042   1.6160   1.6242
     1.6296   1.6548   1.6608   1.6913   1.6982   1.7053   1.7118   1.7192
     1.7364   1.7817   1.7860   1.8013   1.8029   1.8118   1.8220   1.8399
     1.8546   1.8630   1.8686   1.8907   1.9584   1.9721   1.9764   2.0340
     2.0525   2.1069

          k = 0.0000 0.4619 0.0000 ( 51204 PWs)   bands (ev):

   -22.0512  -9.2395  -7.2271  -6.5580  -6.1923  -5.8532  -5.5762  -5.4119
    -5.2107  -5.1551  -5.0671  -4.6214  -4.1241  -4.0367  -3.7851  -3.4586
    -3.4511  -3.3871  -3.3279  -3.1491  -3.1016  -3.0114  -2.9751  -2.8557
    -2.8508  -2.7829  -2.7469  -2.7072  -2.6434  -2.6157  -2.5909  -2.5626
    -2.5347  -2.4378  -2.3287  -2.3120  -2.2408  -2.2147  -2.1223  -2.1168
    -2.1100  -2.0797  -2.0505  -1.8292  -1.8072  -1.7998  -1.7553  -1.7229
    -1.6078  -1.5971  -1.5807  -1.5657  -1.5582  -1.5288  -1.5239  -1.4998
    -1.4831  -1.4166  -1.4118  -1.3870  -1.3637  -1.3498  -1.2091  -1.1823
    -1.0761  -1.0506  -0.9625  -0.9393  -0.9211  -0.8857  -0.8671  -0.8610
    -0.8380  -0.8060  -0.7880  -0.7669  -0.7235  -0.6932  -0.6772  -0.6404
    -0.6196  -0.6022  -0.5748  -0.5633  -0.5300  -0.4936  -0.4634  -0.4172
    -0.3972  -0.3869  -0.3596  -0.3239  -0.2931  -0.2717  -0.2541  -0.2329
    -0.2087  -0.2023  -0.1905  -0.1700  -0.1626  -0.1575  -0.1382  -0.1259
    -0.0997  -0.0869  -0.0708  -0.0545  -0.0476  -0.0455  -0.0326  -0.0128
     0.0063   0.0280   0.0759   0.1290   0.1533   0.1556   0.1667   0.2045
     0.2175   0.2225   0.2447   0.2852   0.3099   0.3187   0.3359   0.3589
     0.3885   0.4009   0.4146   0.4257   0.4654   0.5517   0.5821   0.5999
     0.6495   0.6757   0.7332   0.7959   0.8235   0.8547   0.8712   0.8907
     0.9141   0.9340   0.9576   0.9719   0.9990   1.1051   1.1222   1.1726
     1.1842   1.2121   1.2473   1.2502   1.2877   1.3039   1.3268   1.3467
     1.3749   1.3897   1.3951   1.4605   1.4876   1.5043   1.5309   1.5377
     1.5469   1.5521   1.5766   1.5916   1.6177   1.6240   1.6375   1.6664
     1.6725   1.7047   1.7691   1.7738   1.7915   1.7956   1.8110   1.8266
     1.8365   1.8636   1.8705   1.8822   1.8994   1.9034   1.9129   1.9167
     1.9616   2.0110   2.0421   2.1227   2.1450   2.2250   2.5475   2.6111
     2.6523   2.6886

          k = 0.2000-0.1155 0.0000 ( 51134 PWs)   bands (ev):

   -22.0512  -9.2588  -7.6459  -6.4629  -5.8528  -5.6801  -5.5514  -5.3894
    -5.0237  -4.9742  -4.8028  -4.4575  -4.0977  -4.0717  -4.0489  -3.9443
    -3.8483  -3.7608  -3.4506  -3.3973  -3.3763  -3.2495  -2.9277  -2.8039
    -2.7724  -2.7192  -2.6807  -2.6087  -2.4318  -2.3717  -2.3679  -2.3486
    -2.3261  -2.2858  -2.2811  -2.2746  -2.2286  -2.2010  -2.1036  -2.0969
    -2.0125  -2.0095  -1.9486  -1.8718  -1.8351  -1.8192  -1.8115  -1.7053
    -1.6765  -1.6564  -1.6049  -1.5757  -1.5544  -1.5350  -1.5247  -1.5155
    -1.5068  -1.4988  -1.4091  -1.3968  -1.3833  -1.3669  -1.3282  -1.2855
    -1.2424  -1.1486  -0.9681  -0.9264  -0.8980  -0.8945  -0.8360  -0.7939
    -0.7363  -0.7109  -0.6852  -0.6423  -0.6241  -0.5739  -0.5544  -0.5442
    -0.5080  -0.4977  -0.4843  -0.4800  -0.4681  -0.4432  -0.4153  -0.3849
    -0.3568  -0.3166  -0.3132  -0.3067  -0.2946  -0.2731  -0.2540  -0.2418
    -0.2334  -0.2315  -0.2234  -0.2163  -0.2135  -0.2119  -0.1810  -0.1625
    -0.1458  -0.1305  -0.1188  -0.1063  -0.0845  -0.0712  -0.0545  -0.0321
    -0.0255   0.0020   0.0256   0.0514   0.0966   0.1076   0.1207   0.1396
     0.2325   0.2569   0.2927   0.3456   0.3638   0.3669   0.4220   0.4276
     0.4348   0.4429   0.4518   0.4554   0.5945   0.6966   0.7691   0.7833
     0.7911   0.7962   0.8135   0.8217   0.8795   0.8891   0.9374   0.9635
     1.0099   1.0285   1.0547   1.0711   1.0951   1.1133   1.1411   1.1992
     1.2106   1.2309   1.2472   1.2607   1.2779   1.2847   1.3267   1.3339
     1.3554   1.3753   1.4126   1.4213   1.4391   1.4485   1.4687   1.4801
     1.5142   1.5288   1.5308   1.5341   1.5628   1.6154   1.6190   1.6285
     1.6333   1.6581   1.6605   1.6904   1.6948   1.7041   1.7105   1.7157
     1.7380   1.7808   1.7850   1.7990   1.8022   1.8123   1.8236   1.8396
     1.8605   1.8645   1.8690   1.9055   1.9597   1.9731   1.9742   2.0279
     2.0558   2.1166

          k = 0.2000 0.1155 0.0000 ( 51134 PWs)   bands (ev):

   -22.0512  -9.2568  -7.6475  -6.4659  -5.8980  -5.6635  -5.4915  -5.4235
    -5.0060  -4.9819  -4.8283  -4.3588  -4.1885  -4.0736  -4.0563  -3.9614
    -3.8016  -3.7726  -3.4705  -3.4021  -3.3032  -3.2403  -2.9802  -2.8163
    -2.7634  -2.7240  -2.7014  -2.5554  -2.4605  -2.3733  -2.3647  -2.3487
    -2.3329  -2.2983  -2.2841  -2.2792  -2.2424  -2.1700  -2.0995  -2.0973
    -2.0141  -2.0114  -1.9642  -1.8627  -1.8210  -1.8146  -1.7987  -1.6974
    -1.6831  -1.6603  -1.5985  -1.5854  -1.5582  -1.5342  -1.5194  -1.5151
    -1.5117  -1.4643  -1.4343  -1.3913  -1.3820  -1.3618  -1.3320  -1.2922
    -1.2334  -1.1626  -0.9691  -0.9250  -0.9014  -0.8871  -0.8321  -0.8082
    -0.7738  -0.6898  -0.6722  -0.6497  -0.6332  -0.5787  -0.5605  -0.5322
    -0.5108  -0.4968  -0.4813  -0.4713  -0.4678  -0.4478  -0.4384  -0.3706
    -0.3417  -0.3229  -0.3153  -0.3097  -0.3020  -0.2645  -0.2513  -0.2435
    -0.2384  -0.2263  -0.2212  -0.2189  -0.2131  -0.2121  -0.1799  -0.1641
    -0.1443  -0.1291  -0.1112  -0.1074  -0.0993  -0.0759  -0.0576  -0.0419
    -0.0163   0.0025   0.0434   0.0758   0.0831   0.1061   0.1097   0.1398
     0.2142   0.2800   0.3054   0.3391   0.3558   0.3795   0.4105   0.4213
     0.4369   0.4414   0.4548   0.4598   0.6221   0.6823   0.7600   0.7776
     0.7948   0.8003   0.8183   0.8308   0.8650   0.8872   0.9372   0.9612
     0.9823   1.0492   1.0654   1.0839   1.1006   1.1297   1.1437   1.1492
     1.2093   1.2408   1.2529   1.2691   1.2817   1.2838   1.3253   1.3339
     1.3477   1.3757   1.4120   1.4315   1.4381   1.4496   1.4711   1.4957
     1.5124   1.5277   1.5342   1.5446   1.5511   1.6006   1.6095   1.6233
     1.6336   1.6548   1.6611   1.6921   1.6998   1.7060   1.7109   1.7193
     1.7379   1.7818   1.7866   1.8005   1.8018   1.8127   1.8234   1.8382
     1.8564   1.8623   1.8695   1.8798   1.9575   1.9700   1.9776   2.0268
     2.0570   2.1035

          k = 0.2000 0.3464 0.0000 ( 51202 PWs)   bands (ev):

   -22.0512  -9.2418  -7.3676  -6.2999  -6.1193  -5.9940  -5.6909  -5.4965
    -5.4164  -4.8792  -4.7081  -4.4047  -4.2660  -4.2593  -3.8860  -3.4387
    -3.4250  -3.4193  -3.3971  -3.2459  -3.1589  -3.1243  -3.1170  -2.9105
[...]
     atom    8 type  1   force =    -0.00011566   -0.00231291   -0.10406127
     atom    9 type  1   force =    -0.00132822    0.00255363   -0.10475122
     atom   10 type  1   force =     0.00075059   -0.00109492   -0.01673059
     atom   11 type  1   force =     0.00023542   -0.00132788   -0.00998134
     atom   12 type  1   force =    -0.00081706    0.00153040   -0.01164913
     atom   13 type  1   force =     0.00011890    0.00203062   -0.01004395
     atom   14 type  1   force =     0.00072707    0.00052976   -0.00649132
     atom   15 type  1   force =    -0.00131695   -0.00002465   -0.01047182
     atom   16 type  1   force =     0.00088478   -0.00211319   -0.01284899
     atom   17 type  1   force =     0.00050911    0.00018150   -0.00897513
     atom   18 type  1   force =    -0.00078069   -0.00039254   -0.01330929
     atom   19 type  1   force =    -0.00120747   -0.00125439    0.00994373
     atom   20 type  1   force =    -0.00812241   -0.00078463   -0.00158855
     atom   21 type  1   force =     0.01048659   -0.00752472   -0.00190849
     atom   22 type  1   force =     0.00024942    0.00033368    0.01216604
     atom   23 type  1   force =    -0.00187113    0.01016962   -0.00037490
     atom   24 type  1   force =     0.00063774   -0.00163744    0.01337535
     atom   25 type  1   force =     0.00050214    0.00019167    0.01974169
     atom   26 type  1   force =    -0.00511072    0.00056633    0.00007952
     atom   27 type  1   force =     0.00488868   -0.00037719    0.00903737
     atom   28 type  1   force =     0.00026666    0.00168227    0.11657324
     atom   29 type  1   force =     0.01121873    0.05019909    0.09802691
     atom   30 type  1   force =    -0.01564237    0.01386815    0.13625839
     atom   31 type  1   force =     0.04144510   -0.02255084    0.13716780
     atom   32 type  1   force =    -0.04928348   -0.04611052    0.04847994
     atom   33 type  1   force =    -0.01937078    0.01156296    0.12130803
     atom   34 type  1   force =     0.00963496   -0.00710558    0.12792826
     atom   35 type  1   force =     0.00439676    0.00269877    0.08477378
     atom   36 type  1   force =    -0.00087110   -0.00199953    0.10832626
     atom   37 type  2   force =    -0.09616551   -0.00363021    0.41616680
     atom   38 type  3   force =     0.32310683    0.14765981   -2.68521458
     atom   39 type  4   force =    -0.00453333   -0.00192032   -0.02274892
     The ionic contribution  to forces
     atom    1 type  1   force =    -0.00586497    0.00003975 -111.13707638
     atom    2 type  1   force =    -0.00368067    0.00043664 -111.15623108
     atom    3 type  1   force =     0.00954557   -0.00119654 -111.14440204
     atom    4 type  1   force =    -0.00442052    0.00601371 -111.13686096
     atom    5 type  1   force =     0.00153405    0.00859791 -111.14264993
     atom    6 type  1   force =     0.00288644    0.00015914 -111.13385492
     atom    7 type  1   force =     0.00077026   -0.00055984 -111.13114479
     atom    8 type  1   force =    -0.00508925   -0.00485689 -111.13969991
     atom    9 type  1   force =     0.00431906   -0.00863385 -111.14126514
     atom   10 type  1   force =    -0.03859925   -0.01706327  -40.06834281
     atom   11 type  1   force =    -0.01457030   -0.06032594  -40.17559974
     atom   12 type  1   force =     0.05315561   -0.04022237  -40.09615736
     atom   13 type  1   force =    -0.06322135    0.03271920  -40.14418348
     atom   14 type  1   force =     0.03586887    0.03346716  -40.20009225
     atom   15 type  1   force =     0.02735920    0.00620474  -40.07436898
     atom   16 type  1   force =    -0.01301787    0.05064726  -40.07508347
     atom   17 type  1   force =     0.00881396    0.00946734  -40.08306459
     atom   18 type  1   force =     0.00421103   -0.01489608  -40.05751005
     atom   19 type  1   force =    -0.28724407    0.00400983   31.53816997
     atom   20 type  1   force =    -0.20053191    0.03919265   30.48500145
     atom   21 type  1   force =     0.48445664   -0.07328031   31.19016442
     atom   22 type  1   force =    -0.20713283    0.28508928   31.55030060
     atom   23 type  1   force =     0.06103596    0.43094633   31.26109806
     atom   24 type  1   force =     0.14444993    0.01635700   31.65474483
     atom   25 type  1   force =     0.03312630   -0.02280284   31.78132647
     atom   26 type  1   force =    -0.24645327   -0.24653501   31.42040520
     atom   27 type  1   force =     0.21453688   -0.43085261   31.33622012
     atom   28 type  1   force =    -1.31793794   -0.58202278  104.14363814
     atom   29 type  1   force =    -1.01967511   -4.53892107   99.25909788
     atom   30 type  1   force =     2.04460019   -1.41185099  103.53483751
     atom   31 type  1   force =    -3.39776560    1.92935715  101.49724493
     atom   32 type  1   force =     2.42594191    2.29628459   98.31852400
     atom   33 type  1   force =     1.15872771   -0.03454694  104.04796221
     atom   34 type  1   force =    -0.44061601    1.63670624  104.10311639
     atom   35 type  1   force =     0.40784998    0.94675853  103.65741492
     atom   36 type  1   force =     0.14284533   -0.46373297  104.43527091
     atom   37 type  2   force =     0.69786218    0.38080648   51.15703047
     atom   38 type  3   force =    -1.29758853   -0.59190932   89.74264600
     atom   39 type  4   force =     0.59951239    0.43094868   15.12337336
     The local contribution  to forces
     atom    1 type  1   force =     0.00564822   -0.00064394  111.24301189
     atom    2 type  1   force =     0.00568639   -0.00039498  111.26494132
     atom    3 type  1   force =    -0.01127693    0.00305645  111.25242548
     atom    4 type  1   force =     0.00330107   -0.00374950  111.24503025
     atom    5 type  1   force =    -0.00167975   -0.01215318  111.25226078
     atom    6 type  1   force =    -0.00112995    0.00055523  111.23800973
     atom    7 type  1   force =    -0.00191911    0.00037932  111.23661601
     atom    8 type  1   force =     0.00610888    0.00647839  111.24745423
     atom    9 type  1   force =    -0.00375247    0.00610191  111.24760595
     atom   10 type  1   force =     0.03872892    0.01735966   40.06552141
     atom   11 type  1   force =     0.01232805    0.06084704   40.16568096
     atom   12 type  1   force =    -0.05151693    0.03778901   40.09083525
     atom   13 type  1   force =     0.06202365   -0.03474031   40.13674764
     atom   14 type  1   force =    -0.03613509   -0.03258454   40.18573131
     atom   15 type  1   force =    -0.02574092   -0.00706361   40.06479351
     atom   16 type  1   force =     0.01290471   -0.04804221   40.06891174
     atom   17 type  1   force =    -0.00906801   -0.00900911   40.07212719
     atom   18 type  1   force =    -0.00262000    0.01562393   40.04949619
     atom   19 type  1   force =     0.28584577   -0.00295494  -31.52584545
     atom   20 type  1   force =     0.20942184   -0.03809613  -30.46905995
     atom   21 type  1   force =    -0.49304237    0.07755101  -31.17440469
     atom   22 type  1   force =     0.20692188   -0.28345700  -31.54223838
     atom   23 type  1   force =    -0.06071533   -0.44079637  -31.24740934
     atom   24 type  1   force =    -0.14424364   -0.01378370  -31.64606276
     atom   25 type  1   force =    -0.03492267    0.02230045  -31.77590823
     atom   26 type  1   force =     0.24979696    0.24514949  -31.40516542
     atom   27 type  1   force =    -0.21575937    0.43073423  -31.32886401
     atom   28 type  1   force =     1.31510838    0.57931824 -104.26849141
     atom   29 type  1   force =     1.00099500    4.46782905  -99.36012277
     atom   30 type  1   force =    -2.02095922    1.38789609 -103.68055329
     atom   31 type  1   force =     3.34617308   -1.90290723 -101.63836179
     atom   32 type  1   force =    -2.38040469   -2.24815829  -98.35053900
     atom   33 type  1   force =    -1.13579602    0.02212077 -104.17354643
     atom   34 type  1   force =     0.42534646   -1.62112785 -104.24003055
     atom   35 type  1   force =    -0.41035279   -0.94242913 -103.74493483
     atom   36 type  1   force =    -0.14017666    0.46707224 -104.55398429
     atom   37 type  2   force =    -0.60353668   -0.37514888  -51.57264709
     atom   38 type  3   force =     0.97771325    0.45015201  -87.07533433
     atom   39 type  4   force =    -0.58015989   -0.42132546  -15.10966326
     The core correction contribution to forces
     atom    1 type  1   force =     0.00005196    0.00009539    0.01000830
     atom    2 type  1   force =     0.00040120    0.00001486    0.00965232
     atom    3 type  1   force =    -0.00015016    0.00010464    0.01017233
     atom    4 type  1   force =    -0.00009219   -0.00002580    0.00988153
     atom    5 type  1   force =    -0.00020342   -0.00016391    0.01021422
     atom    6 type  1   force =     0.00017141    0.00019082    0.00985911
     atom    7 type  1   force =     0.00003578    0.00015925    0.01017096
     atom    8 type  1   force =    -0.00013327   -0.00000926    0.01008801
     atom    9 type  1   force =    -0.00002573   -0.00010078    0.00984835
     atom   10 type  1   force =    -0.00013186   -0.00009702   -0.00189820
     atom   11 type  1   force =    -0.00006558   -0.00011854   -0.00195519
     atom   12 type  1   force =     0.00015560   -0.00044083   -0.00178538
     atom   13 type  1   force =    -0.00014713   -0.00014020   -0.00191346
     atom   14 type  1   force =     0.00023220    0.00009456   -0.00174211
     atom   15 type  1   force =     0.00012722    0.00008510   -0.00194080
     atom   16 type  1   force =    -0.00013551    0.00028518   -0.00170376
     atom   17 type  1   force =     0.00010519   -0.00013114   -0.00186078
     atom   18 type  1   force =     0.00012237    0.00013631   -0.00167482
     atom   19 type  1   force =     0.00006757   -0.00046796    0.00170348
     atom   20 type  1   force =    -0.00121395   -0.00046153    0.00107325
     atom   21 type  1   force =     0.00075604   -0.00072968    0.00029564
     atom   22 type  1   force =    -0.00021651    0.00070662    0.00139446
     atom   23 type  1   force =    -0.00003020    0.00093821    0.00093022
     atom   24 type  1   force =     0.00037011    0.00037482    0.00196887
     atom   25 type  1   force =     0.00020955    0.00004892    0.00196237
     atom   26 type  1   force =    -0.00029134    0.00063851    0.00154572
     atom   27 type  1   force =     0.00069146   -0.00042052    0.00102421
     atom   28 type  1   force =     0.00165842    0.00029735   -0.00933226
     atom   29 type  1   force =     0.00276039    0.00980707   -0.00502217
     atom   30 type  1   force =    -0.00416459    0.00346860   -0.00767861
     atom   31 type  1   force =     0.00708846   -0.00390853   -0.00558459
     atom   32 type  1   force =    -0.00171293   -0.00295611    0.00115054
     atom   33 type  1   force =    -0.00695367    0.00307430   -0.00646054
     atom   34 type  1   force =     0.00313110   -0.00346628   -0.00762980
     atom   35 type  1   force =    -0.00270900   -0.00946964   -0.00561185
     atom   36 type  1   force =    -0.00114647    0.00034214   -0.01018093
     atom   37 type  2   force =     0.00103732   -0.00074509   -0.00058303
     atom   38 type  3   force =    -0.00236083   -0.00112731    0.01951763
     atom   39 type  4   force =     0.00000000    0.00000000    0.00000000
     The Hubbard contrib.    to forces
     atom    1 type  1   force =     0.00000000    0.00000000    0.00000000
     atom    2 type  1   force =     0.00000000    0.00000000    0.00000000
     atom    3 type  1   force =     0.00000000    0.00000000    0.00000000
     atom    4 type  1   force =     0.00000000    0.00000000    0.00000000
     atom    5 type  1   force =     0.00000000    0.00000000    0.00000000
     atom    6 type  1   force =     0.00000000    0.00000000    0.00000000
     atom    7 type  1   force =     0.00000000    0.00000000    0.00000000
     atom    8 type  1   force =     0.00000000    0.00000000    0.00000000
     atom    9 type  1   force =     0.00000000    0.00000000    0.00000000
     atom   10 type  1   force =     0.00000000    0.00000000    0.00000000
     atom   11 type  1   force =     0.00000000    0.00000000    0.00000000
     atom   12 type  1   force =     0.00000000    0.00000000    0.00000000
     atom   13 type  1   force =     0.00000000    0.00000000    0.00000000
     atom   14 type  1   force =     0.00000000    0.00000000    0.00000000
     atom   15 type  1   force =     0.00000000    0.00000000    0.00000000
     atom   16 type  1   force =     0.00000000    0.00000000    0.00000000
     atom   17 type  1   force =     0.00000000    0.00000000    0.00000000
     atom   18 type  1   force =     0.00000000    0.00000000    0.00000000
     atom   19 type  1   force =     0.00000000    0.00000000    0.00000000
     atom   20 type  1   force =     0.00000000    0.00000000    0.00000000
     atom   21 type  1   force =     0.00000000    0.00000000    0.00000000
     atom   22 type  1   force =     0.00000000    0.00000000    0.00000000
     atom   23 type  1   force =     0.00000000    0.00000000    0.00000000
     atom   24 type  1   force =     0.00000000    0.00000000    0.00000000
     atom   25 type  1   force =     0.00000000    0.00000000    0.00000000
     atom   26 type  1   force =     0.00000000    0.00000000    0.00000000
     atom   27 type  1   force =     0.00000000    0.00000000    0.00000000
     atom   28 type  1   force =     0.00000000    0.00000000    0.00000000
     atom   29 type  1   force =     0.00000000    0.00000000    0.00000000
     atom   30 type  1   force =     0.00000000    0.00000000    0.00000000
     atom   31 type  1   force =     0.00000000    0.00000000    0.00000000
     atom   32 type  1   force =     0.00000000    0.00000000    0.00000000
     atom   33 type  1   force =     0.00000000    0.00000000    0.00000000
     atom   34 type  1   force =     0.00000000    0.00000000    0.00000000
     atom   35 type  1   force =     0.00000000    0.00000000    0.00000000
     atom   36 type  1   force =     0.00000000    0.00000000    0.00000000
     atom   37 type  2   force =     0.00000000    0.00000000    0.00000000
     atom   38 type  3   force =     0.00000000    0.00000000    0.00000000
     atom   39 type  4   force =     0.00000000    0.00000000    0.00000000
     The SCF correction term to forces
     atom    1 type  1   force =     0.00000000   -0.00000000    0.00000000
     atom    2 type  1   force =    -0.00000000   -0.00000000    0.00000000
     atom    3 type  1   force =    -0.00000000   -0.00000000    0.00000000
     atom    4 type  1   force =    -0.00000000   -0.00000000    0.00000000
     atom    5 type  1   force =    -0.00000000   -0.00000000    0.00000000
     atom    6 type  1   force =     0.00000000    0.00000000    0.00000000
     atom    7 type  1   force =    -0.00000000    0.00000000    0.00000000
     atom    8 type  1   force =     0.00000000    0.00000000    0.00000000
     atom    9 type  1   force =    -0.00000000    0.00000000    0.00000000
     atom   10 type  1   force =     0.00000000    0.00000000    0.00000000
     atom   11 type  1   force =    -0.00000000    0.00000000    0.00000000
     atom   12 type  1   force =    -0.00000000   -0.00000000    0.00000000
     atom   13 type  1   force =     0.00000000   -0.00000000    0.00000000
     atom   14 type  1   force =    -0.00000000   -0.00000000    0.00000000
     atom   15 type  1   force =     0.00000000   -0.00000000    0.00000000
     atom   16 type  1   force =    -0.00000000   -0.00000000    0.00000000
     atom   17 type  1   force =     0.00000000    0.00000000    0.00000000
     atom   18 type  1   force =     0.00000000    0.00000000    0.00000000
     atom   19 type  1   force =     0.00000000   -0.00000000    0.00000000
     atom   20 type  1   force =    -0.00000000   -0.00000000    0.00000000
     atom   21 type  1   force =    -0.00000000    0.00000000    0.00000000
     atom   22 type  1   force =     0.00000000   -0.00000000    0.00000000
     atom   23 type  1   force =    -0.00000000    0.00000000    0.00000000
     atom   24 type  1   force =    -0.00000000    0.00000000    0.00000000
     atom   25 type  1   force =     0.00000000    0.00000000    0.00000000
     atom   26 type  1   force =     0.00000000    0.00000000    0.00000000
     atom   27 type  1   force =    -0.00000000    0.00000000    0.00000000
     atom   28 type  1   force =     0.00000000   -0.00000000    0.00000000
     atom   29 type  1   force =    -0.00000000    0.00000000    0.00000000
     atom   30 type  1   force =    -0.00000000    0.00000000    0.00000000
     atom   31 type  1   force =     0.00000000   -0.00000000    0.00000000
     atom   32 type  1   force =    -0.00000000   -0.00000000    0.00000000
     atom   33 type  1   force =     0.00000000    0.00000000    0.00000000
     atom   34 type  1   force =     0.00000000    0.00000000    0.00000000
     atom   35 type  1   force =    -0.00000000    0.00000000    0.00000000
     atom   36 type  1   force =    -0.00000000    0.00000000    0.00000000
     atom   37 type  2   force =    -0.00000226   -0.00001095   -0.00000231
     atom   38 type  3   force =     0.00000059   -0.00000335   -0.00002557
     atom   39 type  4   force =    -0.00000010   -0.00000039    0.00000127

     Total force =     0.019748     Total SCF correction =     0.000028

     Writing all to output data dir ./pwscf.save/

     init_run     :     13.33s CPU     16.54s WALL (       1 calls)
     electrons    :    986.56s CPU   1239.72s WALL (       1 calls)
     forces       :      4.17s CPU      5.28s WALL (       1 calls)

     Called by init_run:
     wfcinit      :     10.09s CPU     13.00s WALL (       1 calls)
     potinit      :      1.95s CPU      2.18s WALL (       1 calls)
     hinit0       :      0.83s CPU      0.85s WALL (       1 calls)

     Called by electrons:
     c_bands      :    823.45s CPU   1023.21s WALL (      57 calls)
     sum_band     :    113.05s CPU    148.87s WALL (      57 calls)
     v_of_rho     :      9.94s CPU     13.71s WALL (      58 calls)
     newd         :      4.33s CPU      6.64s WALL (      58 calls)
     PAW_pot      :     13.09s CPU     16.60s WALL (      58 calls)
     mix_rho      :     23.94s CPU     31.53s WALL (      57 calls)
     vdW_kernel   :      1.06s CPU      1.10s WALL (       1 calls)

     Called by c_bands:
     init_us_2    :      9.73s CPU      9.93s WALL (    3016 calls)
     init_us_2:cp :      9.72s CPU      9.93s WALL (    3016 calls)
     cegterg      :    792.94s CPU    986.96s WALL (    1482 calls)

     Called by *egterg:
     cdiaghg      :    215.07s CPU    230.31s WALL (    4921 calls)
     h_psi        :    365.83s CPU    483.77s WALL (    4947 calls)
     s_psi        :     41.49s CPU     42.48s WALL (    4947 calls)
     g_psi        :      0.96s CPU      1.04s WALL (    3439 calls)

     Called by h_psi:
     h_psi:calbec :     68.23s CPU     87.61s WALL (    4947 calls)
     vloc_psi     :    253.15s CPU    350.49s WALL (    4947 calls)
     add_vuspsi   :     41.93s CPU     43.07s WALL (    4947 calls)

     General routines
     calbec       :    101.85s CPU    130.68s WALL (    6533 calls)
     fft          :      8.76s CPU     15.51s WALL (    5239 calls)
     ffts         :     12.74s CPU     17.25s WALL (   25588 calls)
     fftw         :    301.85s CPU    418.53s WALL ( 1531214 calls)
     interpolate  :      0.40s CPU      0.71s WALL (     116 calls)

     Parallel routines

     PWSCF        :  16m49.38s CPU  21m13.90s WALL


   This run was terminated on:   4:45:39  11Dec2025            

=------------------------------------------------------------------------------=
   JOB DONE.
=------------------------------------------------------------------------------=
