
     Program PWSCF v.7.1 starts on 11Dec2025 at  5: 2: 7 
        Git branch: heads/qe-7.1
        Last git commit: 48ba0178f8fede6d020eb786884699a9f063f55d-dirty
        Last git commit date: Fri Jan 27 14:22:33 2023 +0000
        Last git commit subject: Merge branch 'fix_hubbard' into 'develop'

     This program is part of the open-source Quantum ESPRESSO suite
     for quantum simulation of materials; please cite
         "P. Giannozzi et al., J. Phys.:Condens. Matter 21 395502 (2009);
         "P. Giannozzi et al., J. Phys.:Condens. Matter 29 465901 (2017);
         "P. Giannozzi et al., J. Chem. Phys. 152 154105 (2020);
          URL http://www.quantum-espresso.org", 
     in publications or presentations arising from this work. More details at
     http://www.quantum-espresso.org/quote

     Parallel version (MPI), running on    96 processors

     MPI processes distributed on     2 nodes
     55201 MiB available memory on the printing compute node when the environment starts

     Reading input from espresso.pwi
Warning: card &CELL ignored
Warning: card / ignored
Warning: card &FCP ignored
Warning: card / ignored
Warning: card &RISM ignored
Warning: card / ignored

     Current dimensions of program PWSCF are:
     Max number of different atomic species (ntypx) = 10
     Max number of k-points (npk) =  40000
     Max angular momentum in pseudopotentials (lmaxx) =  4
     file Co.pbe-n-kjpaw_psl.1.0.0.UPF: wavefunction(s)  4S 3D renormalized
     file C.pbe-n-kjpaw_psl.1.0.0.UPF: wavefunction(s)  2S 2P renormalized
     file O.pbe-nl-kjpaw_psl.1.0.0.UPF: wavefunction(s)  2S 2P renormalized
     file H.pbe-kjpaw_psl.1.0.0.UPF: wavefunction(s)  1S renormalized

     **************************************************************************
     Initializing libbeef V0.1.2 with the BEEF-vdW functional.
     Citation: Wellendorff et al., PRB 85, 235149 (2012).
     **************************************************************************


     IMPORTANT: XC functional enforced from input :
     Exchange-correlation= BEEF-VDW
                           (   1   4  43  14   2   0   0)
     Any further DFT definition will be discarded
     Please, verify this is what you really want


     R & G space division:  proc/nbgrp/npool/nimage =      96
     Subspace diagonalization in iterative solution of the eigenvalue problem:
     one sub-group per band group will be used
     custom distributed-memory algorithm (size of sub-group:  2*  2 procs)


     Parallelization info
     --------------------
     sticks:   dense  smooth     PW     G-vecs:    dense   smooth      PW
     Min          43      28      7                 7829     4248     595
     Max          44      29      8                 7845     4281     630
     Sum        4153    2773    757               752179   409445   59217

     Using Slab Decomposition



     bravais-lattice index     =            0
     lattice parameter (alat)  =      14.1729  a.u.
     unit-cell volume          =    8574.3059 (a.u.)^3
     number of atoms/cell      =           39
     number of atomic types    =            4
     number of electrons       =       335.00
     number of Kohn-Sham states=          202
     kinetic-energy cutoff     =      50.0000  Ry
     charge density cutoff     =     300.0000  Ry
     scf convergence threshold =      1.0E-08
     mixing beta               =       0.7000
     number of iterations used =            8  local-TF  mixing
     Exchange-correlation= BEEF-VDW
                           (   1   4  43  14   2   0   0)

     celldm(1)=  14.172946  celldm(2)=   0.000000  celldm(3)=   0.000000
     celldm(4)=   0.000000  celldm(5)=   0.000000  celldm(6)=   0.000000

     crystal axes: (cart. coord. in units of alat)
               a(1) = (   1.000000   0.000000   0.000000 )  
               a(2) = (   0.500000   0.866025   0.000000 )  
               a(3) = (   0.000000   0.000000   3.477667 )  

     reciprocal axes: (cart. coord. in units 2 pi/alat)
               b(1) = (  1.000000 -0.577350  0.000000 )  
               b(2) = (  0.000000  1.154701  0.000000 )  
               b(3) = (  0.000000  0.000000  0.287549 )  


     PseudoPot. # 1 for Co read from file:
     /users/kbadger1/espresso/pseudo/pslibrary.1.0.0/pbe/PSEUDOPOTENTIALS/Co.pbe-n-kjpaw_psl.1.0.0.UPF
     MD5 check sum: 88af6ec42553d4236c267fdfcb472151
     Pseudo is Projector augmented-wave + core cor, Zval =  9.0
     Generated using 'atomic' code by A. Dal Corso  v.7.0
     Shape of augmentation charge: PSQ
     Using radial grid of 1193 points,  6 beta functions with: 
                l(1) =   0
                l(2) =   0
                l(3) =   1
                l(4) =   1
                l(5) =   2
                l(6) =   2
     Q(r) pseudized with 0 coefficients 


     PseudoPot. # 2 for C  read from file:
     /users/kbadger1/espresso/pseudo/pslibrary.1.0.0/pbe/PSEUDOPOTENTIALS/C.pbe-n-kjpaw_psl.1.0.0.UPF
     MD5 check sum: 6408e75cdba28732cea38a4db8498ce4
     Pseudo is Projector augmented-wave + core cor, Zval =  4.0
     Generated using 'atomic' code by A. Dal Corso  v.7.0
     Shape of augmentation charge: PSQ
     Using radial grid of 1073 points,  4 beta functions with: 
                l(1) =   0
                l(2) =   0
                l(3) =   1
                l(4) =   1
     Q(r) pseudized with 0 coefficients 


     PseudoPot. # 3 for O  read from file:
     /users/kbadger1/espresso/pseudo/pslibrary.1.0.0/pbe/PSEUDOPOTENTIALS/O.pbe-nl-kjpaw_psl.1.0.0.UPF
     MD5 check sum: f0439fab3598ca4e468f064226030408
     Pseudo is Projector augmented-wave + core cor, Zval =  6.0
     Generated using 'atomic' code by A. Dal Corso  v.7.0
     Shape of augmentation charge: PSQ
     Using radial grid of 1095 points,  4 beta functions with: 
                l(1) =   0
                l(2) =   0
                l(3) =   1
                l(4) =   1
     Q(r) pseudized with 0 coefficients 


     PseudoPot. # 4 for H  read from file:
     /users/kbadger1/espresso/pseudo/pslibrary.1.0.0/pbe/PSEUDOPOTENTIALS/H.pbe-kjpaw_psl.1.0.0.UPF
     MD5 check sum: fe4c6fa958fa6d3815bf5d2419cbf1df
     Pseudo is Projector augmented-wave, Zval =  1.0
     Generated using 'atomic' code by A. Dal Corso  v.7.0
     Shape of augmentation charge: PSQ
     Using radial grid of  929 points,  2 beta functions with: 
                l(1) =   0
                l(2) =   0
     Q(r) pseudized with 0 coefficients 


     atomic species   valence    mass     pseudopotential
        Co             9.00    58.93319     Co( 1.00)
        C              4.00    12.01100     C ( 1.00)
        O              6.00    15.99900     O ( 1.00)
        H              1.00     1.00800     H ( 1.00)

     Starting magnetic structure 
     atomic species   magnetization
        Co           1.000
        C            1.000
        O            0.000
        H            0.000

     No symmetry found



   Cartesian axes

     site n.     atom                  positions (alat units)
         1           Co  tau(   1) = (   0.0000000   0.1924501   1.3333333  )
         2           Co  tau(   2) = (   0.3333333   0.1924501   1.3333333  )
         3           Co  tau(   3) = (   0.6666667   0.1924501   1.3333333  )
         4           Co  tau(   4) = (   0.1666667   0.4811252   1.3333333  )
         5           Co  tau(   5) = (   0.5000000   0.4811252   1.3333333  )
         6           Co  tau(   6) = (   0.8333333   0.4811252   1.3333333  )
         7           Co  tau(   7) = (   0.3333333   0.7698004   1.3333333  )
         8           Co  tau(   8) = (   0.6666667   0.7698004   1.3333333  )
         9           Co  tau(   9) = (   1.0000000   0.7698004   1.3333333  )
        10           Co  tau(  10) = (   0.0000000   0.0000000   1.6036667  )
        11           Co  tau(  11) = (   0.3333333   0.0000000   1.6036667  )
        12           Co  tau(  12) = (   0.6666667   0.0000000   1.6036667  )
        13           Co  tau(  13) = (   0.1666667   0.2886751   1.6036667  )
        14           Co  tau(  14) = (   0.5000000   0.2886751   1.6036667  )
        15           Co  tau(  15) = (   0.8333333   0.2886751   1.6036667  )
        16           Co  tau(  16) = (   0.3333333   0.5773503   1.6036667  )
        17           Co  tau(  17) = (   0.6666667   0.5773503   1.6036667  )
        18           Co  tau(  18) = (   1.0000000   0.5773503   1.6036667  )
        19           Co  tau(  19) = (   0.0000000   0.1924501   1.8740000  )
        20           Co  tau(  20) = (   0.3333333   0.1924501   1.8740000  )
        21           Co  tau(  21) = (   0.6666667   0.1924501   1.8740000  )
        22           Co  tau(  22) = (   0.1666667   0.4811252   1.8740000  )
        23           Co  tau(  23) = (   0.5000000   0.4811252   1.8740000  )
        24           Co  tau(  24) = (   0.8333333   0.4811252   1.8740000  )
        25           Co  tau(  25) = (   0.3333333   0.7698004   1.8740000  )
        26           Co  tau(  26) = (   0.6666667   0.7698004   1.8740000  )
        27           Co  tau(  27) = (   1.0000000   0.7698004   1.8740000  )
        28           Co  tau(  28) = (   0.0000000   0.0000000   2.1443333  )
        29           Co  tau(  29) = (   0.3333333   0.0000000   2.1443333  )
        30           Co  tau(  30) = (   0.6666667   0.0000000   2.1443333  )
        31           Co  tau(  31) = (   0.1666667   0.2886751   2.1443333  )
        32           Co  tau(  32) = (   0.5000000   0.2886751   2.1443333  )
        33           Co  tau(  33) = (   0.8333333   0.2886751   2.1443333  )
        34           Co  tau(  34) = (   0.3333333   0.5773503   2.1443333  )
        35           Co  tau(  35) = (   0.6666667   0.5773503   2.1443333  )
        36           Co  tau(  36) = (   1.0000000   0.5773503   2.1443333  )
        37           C   tau(  37) = (   0.1659302  -0.0352809   2.3320058  )
        38           O   tau(  38) = (   0.1267806  -0.0460108   2.4858469  )
        39           H   tau(  39) = (   0.4110002   0.0157387   2.3299023  )

     number of k points=    13  Marzari-Vanderbilt smearing, width (Ry)=  0.0010
                       cart. coord. in units 2pi/alat
        k(    1) = (   0.0000000   0.0000000   0.0000000), wk =   0.0400000
        k(    2) = (   0.0000000   0.2309401   0.0000000), wk =   0.0800000
        k(    3) = (   0.0000000   0.4618802   0.0000000), wk =   0.0800000
        k(    4) = (   0.2000000  -0.1154701   0.0000000), wk =   0.0800000
        k(    5) = (   0.2000000   0.1154701   0.0000000), wk =   0.0800000
        k(    6) = (   0.2000000   0.3464102   0.0000000), wk =   0.0800000
        k(    7) = (   0.2000000  -0.5773503   0.0000000), wk =   0.0800000
        k(    8) = (   0.2000000  -0.3464102   0.0000000), wk =   0.0800000
        k(    9) = (   0.4000000  -0.2309401   0.0000000), wk =   0.0800000
        k(   10) = (   0.4000000   0.0000000   0.0000000), wk =   0.0800000
        k(   11) = (   0.4000000   0.2309401   0.0000000), wk =   0.0800000
        k(   12) = (   0.4000000  -0.6928203   0.0000000), wk =   0.0800000
        k(   13) = (   0.4000000  -0.4618802   0.0000000), wk =   0.0800000

     Dense  grid:   752179 G-vectors     FFT dimensions: (  80,  80, 288)

     Smooth grid:   409445 G-vectors     FFT dimensions: (  64,  64, 225)

     Estimated max dynamical RAM per process >      99.02 MB

     Estimated total dynamical RAM >       9.28 GB
     Generating pointlists ...
     new r_m :   0.0832 (alat units)  1.1797 (a.u.) for type    1
     new r_m :   0.0656 (alat units)  0.9302 (a.u.) for type    2
     new r_m :   0.0656 (alat units)  0.9302 (a.u.) for type    3
     new r_m :   0.0832 (alat units)  1.1797 (a.u.) for type    4

     Initial potential from superposition of free atoms

     starting charge     334.9897, renormalised to     335.0000

     negative rho (up, down):  3.047E-03 4.592E-04


     %%%%%%%%%%%%%%%%%%%%%%%%%%%%%%%%%%%%%%%%%%%%%%%%%%%%%%%%%%%%%%%%%%%%%%%%
     %                                                                      %
     % You are using vdW-DF, which was implemented by the Thonhauser group. %
     % Please cite the following two papers that made this development      %
     % possible and the two reviews that describe the various versions:     %
     %                                                                      %
     %   T. Thonhauser et al., PRL 115, 136402 (2015).                      %
     %   T. Thonhauser et al., PRB 76, 125112 (2007).                       %
     %   K. Berland et al., Rep. Prog. Phys. 78, 066501 (2015).             %
     %   D.C. Langreth et al., J. Phys.: Condens. Matter 21, 084203 (2009). %
     %                                                                      %
     % If you are calculating stress with vdW-DF, please also cite:         %
     %                                                                      %
     %   R. Sabatini et al., J. Phys.: Condens. Matter 24, 424209 (2012).   %
     %   C.M. Frostenson et al., Electr. Struct. 4, 014001 (2022).          %
     %                                                                      %
     %%%%%%%%%%%%%%%%%%%%%%%%%%%%%%%%%%%%%%%%%%%%%%%%%%%%%%%%%%%%%%%%%%%%%%%%

     %%%%%%%%%%%%%%%%%%%%%%%%%%%%%%%%%%%%%%%%%%%%%%%%%%%%%%%%%%%%%%%%%%%%%%%%
     %                                                                      %
     %  vdW-DF NEWS:                                                        %
     %                                                                      %
     %  * vdW-DF3 is now available. DOI: 10.1021/acs.jctc.0c00471           %
     %    use with input_dft = 'vdW-DF3-opt1' or 'vdW-DF3-opt2'             %
     %                                                                      %
     %  * Unscreened and range-separated hybrid vdW-DF-cx functionals       %
     %    DOI: 10.1063/1.4986522 and 10.1088/1361-648X/ac2ad2               %
     %    use with input_dft = 'vdW-DF-cx0'    and 'vdW-DF-ahcx'            %
     %  * Unscreened and range-separated hybrid vdW-DF2-b86r functionals    %
     %    DOI: 10.1063/1.4986522 and DOI: 10.1103/PhysRevX.12.041003        %
     %    use with input_dft = 'vdW-DF2-br0' and 'vdW-DF2-ahbr'             %
     %                                                                      %
     %%%%%%%%%%%%%%%%%%%%%%%%%%%%%%%%%%%%%%%%%%%%%%%%%%%%%%%%%%%%%%%%%%%%%%%%


     Starting wfcs are  333 randomized atomic wfcs
     Checking if some PAW data can be deallocated... 

     total cpu time spent up to now is       12.1 secs

     per-process dynamical memory:   230.3 Mb

     Self-consistent Calculation

     iteration #  1     ecut=    50.00 Ry     beta= 0.70
     Davidson diagonalization with overlap
     ethr =  1.00E-02,  avg # of iterations =  2.0

     negative rho (up, down):  3.240E-05 7.895E-08

     total cpu time spent up to now is       29.4 secs

     total energy              =   -6053.05391873 Ry
     estimated scf accuracy    <      39.34318628 Ry

     total magnetization       =    69.00 Bohr mag/cell
     absolute magnetization    =    81.21 Bohr mag/cell

     iteration #  2     ecut=    50.00 Ry     beta= 0.70
     Davidson diagonalization with overlap
     ethr =  1.00E-02,  avg # of iterations =  1.0

     negative rho (up, down):  4.916E-06 2.051E-08

     total cpu time spent up to now is       43.3 secs

     total energy              =   -6052.52222114 Ry
     estimated scf accuracy    <      25.02622526 Ry

     total magnetization       =    68.81 Bohr mag/cell
     absolute magnetization    =    76.65 Bohr mag/cell

     iteration #  3     ecut=    50.00 Ry     beta= 0.70
     Davidson diagonalization with overlap
     ethr =  7.47E-03,  avg # of iterations =  1.0

     negative rho (up, down):  2.960E-08 0.000E+00

     total cpu time spent up to now is       56.6 secs

     total energy              =   -6055.11131235 Ry
     estimated scf accuracy    <      84.16988105 Ry

     total magnetization       =    66.28 Bohr mag/cell
     absolute magnetization    =    73.58 Bohr mag/cell

     iteration #  4     ecut=    50.00 Ry     beta= 0.70
     Davidson diagonalization with overlap
     ethr =  7.47E-03,  avg # of iterations =  1.0

     total cpu time spent up to now is       70.2 secs

     total energy              =   -6056.37680989 Ry
     estimated scf accuracy    <       5.10047509 Ry

     total magnetization       =    60.36 Bohr mag/cell
     absolute magnetization    =    70.11 Bohr mag/cell

     iteration #  5     ecut=    50.00 Ry     beta= 0.70
     Davidson diagonalization with overlap
     ethr =  1.52E-03,  avg # of iterations =  1.2

     total cpu time spent up to now is       84.3 secs

     total energy              =   -6056.39870757 Ry
     estimated scf accuracy    <       2.30834943 Ry

     total magnetization       =    59.72 Bohr mag/cell
     absolute magnetization    =    69.19 Bohr mag/cell

     iteration #  6     ecut=    50.00 Ry     beta= 0.70
     Davidson diagonalization with overlap
     ethr =  6.89E-04,  avg # of iterations =  1.6

     total cpu time spent up to now is       98.2 secs

     total energy              =   -6056.50108968 Ry
     estimated scf accuracy    <       0.55977080 Ry

     total magnetization       =    59.72 Bohr mag/cell
     absolute magnetization    =    68.83 Bohr mag/cell

     iteration #  7     ecut=    50.00 Ry     beta= 0.70
     Davidson diagonalization with overlap
     ethr =  1.67E-04,  avg # of iterations =  6.3

     total cpu time spent up to now is      117.8 secs

     total energy              =   -6056.54792988 Ry
     estimated scf accuracy    <       0.87541552 Ry

     total magnetization       =    59.80 Bohr mag/cell
     absolute magnetization    =    68.55 Bohr mag/cell

     iteration #  8     ecut=    50.00 Ry     beta= 0.70
     Davidson diagonalization with overlap
     ethr =  1.67E-04,  avg # of iterations =  1.6

     total cpu time spent up to now is      131.8 secs

     total energy              =   -6056.56269102 Ry
     estimated scf accuracy    <       0.13746117 Ry

     total magnetization       =    59.80 Bohr mag/cell
     absolute magnetization    =    68.41 Bohr mag/cell

     iteration #  9     ecut=    50.00 Ry     beta= 0.70
     Davidson diagonalization with overlap
     c_bands:  1 eigenvalues not converged
     c_bands:  2 eigenvalues not converged
     ethr =  4.10E-05,  avg # of iterations =  8.8

     total cpu time spent up to now is      155.8 secs

     total energy              =   -6056.56745275 Ry
     estimated scf accuracy    <       0.16336498 Ry

     total magnetization       =    60.12 Bohr mag/cell
     absolute magnetization    =    68.34 Bohr mag/cell

     iteration # 10     ecut=    50.00 Ry     beta= 0.70
     Davidson diagonalization with overlap
     ethr =  4.10E-05,  avg # of iterations =  2.4

     total cpu time spent up to now is      170.2 secs

     total energy              =   -6056.57403864 Ry
     estimated scf accuracy    <       0.20299382 Ry

     total magnetization       =    60.30 Bohr mag/cell
     absolute magnetization    =    68.30 Bohr mag/cell

     iteration # 11     ecut=    50.00 Ry     beta= 0.70
     Davidson diagonalization with overlap
     ethr =  4.10E-05,  avg # of iterations =  1.3

     total cpu time spent up to now is      184.8 secs

     total energy              =   -6056.56709901 Ry
     estimated scf accuracy    <       0.12095455 Ry

     total magnetization       =    60.29 Bohr mag/cell
     absolute magnetization    =    68.20 Bohr mag/cell

     iteration # 12     ecut=    50.00 Ry     beta= 0.70
     Davidson diagonalization with overlap
     ethr =  3.61E-05,  avg # of iterations =  1.9

     negative rho (up, down):  1.433E-08 0.000E+00

     total cpu time spent up to now is      198.9 secs

     total energy              =   -6056.57094633 Ry
     estimated scf accuracy    <       0.08412758 Ry

     total magnetization       =    60.24 Bohr mag/cell
     absolute magnetization    =    67.99 Bohr mag/cell

     iteration # 13     ecut=    50.00 Ry     beta= 0.70
     Davidson diagonalization with overlap
     ethr =  2.51E-05,  avg # of iterations =  1.3

     total cpu time spent up to now is      212.5 secs

     total energy              =   -6056.57090549 Ry
     estimated scf accuracy    <       0.09092789 Ry

     total magnetization       =    60.24 Bohr mag/cell
     absolute magnetization    =    67.95 Bohr mag/cell

     iteration # 14     ecut=    50.00 Ry     beta= 0.70
     Davidson diagonalization with overlap
     ethr =  2.51E-05,  avg # of iterations =  1.7

     total cpu time spent up to now is      226.2 secs

     total energy              =   -6056.56557064 Ry
     estimated scf accuracy    <       0.10261800 Ry

     total magnetization       =    60.14 Bohr mag/cell
     absolute magnetization    =    67.92 Bohr mag/cell

     iteration # 15     ecut=    50.00 Ry     beta= 0.70
     Davidson diagonalization with overlap
     ethr =  2.51E-05,  avg # of iterations =  1.7

     negative rho (up, down):  4.261E-03 3.189E-03

     total cpu time spent up to now is      241.3 secs

     total energy              =   -6056.56225024 Ry
     estimated scf accuracy    <       0.10412337 Ry

     total magnetization       =    60.29 Bohr mag/cell
     absolute magnetization    =    68.01 Bohr mag/cell

     iteration # 16     ecut=    50.00 Ry     beta= 0.70
     Davidson diagonalization with overlap
     ethr =  2.51E-05,  avg # of iterations =  1.8

     negative rho (up, down):  1.615E-02 1.455E-02

     total cpu time spent up to now is      255.3 secs

     total energy              =   -6056.56103683 Ry
     estimated scf accuracy    <       0.06066641 Ry

     total magnetization       =    60.19 Bohr mag/cell
     absolute magnetization    =    67.82 Bohr mag/cell

     iteration # 17     ecut=    50.00 Ry     beta= 0.70
     Davidson diagonalization with overlap
     c_bands:  4 eigenvalues not converged
     ethr =  1.81E-05,  avg # of iterations =  2.9

     negative rho (up, down):  3.619E-02 3.406E-02

     total cpu time spent up to now is      270.6 secs

     total energy              =   -6056.56004121 Ry
     estimated scf accuracy    <       0.03618187 Ry

     total magnetization       =    60.18 Bohr mag/cell
     absolute magnetization    =    67.77 Bohr mag/cell

     iteration # 18     ecut=    50.00 Ry     beta= 0.70
     Davidson diagonalization with overlap
     c_bands:  2 eigenvalues not converged
     c_bands:  3 eigenvalues not converged
     c_bands:  3 eigenvalues not converged
     c_bands:  2 eigenvalues not converged
     ethr =  1.08E-05,  avg # of iterations =  5.5

     negative rho (up, down):  2.707E-02 2.537E-02

     total cpu time spent up to now is      288.5 secs

     total energy              =   -6056.56058717 Ry
     estimated scf accuracy    <       0.04800063 Ry

     total magnetization       =    60.16 Bohr mag/cell
     absolute magnetization    =    67.69 Bohr mag/cell

     iteration # 19     ecut=    50.00 Ry     beta= 0.70
     Davidson diagonalization with overlap
     ethr =  1.08E-05,  avg # of iterations =  1.3

     negative rho (up, down):  2.986E-02 2.804E-02

     total cpu time spent up to now is      303.1 secs

     total energy              =   -6056.56054919 Ry
     estimated scf accuracy    <       0.01767839 Ry

     total magnetization       =    60.18 Bohr mag/cell
     absolute magnetization    =    67.73 Bohr mag/cell

     iteration # 20     ecut=    50.00 Ry     beta= 0.70
     Davidson diagonalization with overlap
     ethr =  5.28E-06,  avg # of iterations =  4.8

     negative rho (up, down):  2.302E-02 2.142E-02

     total cpu time spent up to now is      319.9 secs

     total energy              =   -6056.55956216 Ry
     estimated scf accuracy    <       0.00863157 Ry

     total magnetization       =    60.30 Bohr mag/cell
     absolute magnetization    =    67.81 Bohr mag/cell

     iteration # 21     ecut=    50.00 Ry     beta= 0.70
     Davidson diagonalization with overlap
     c_bands:  1 eigenvalues not converged
     c_bands:  2 eigenvalues not converged
     c_bands:  1 eigenvalues not converged
     c_bands:  2 eigenvalues not converged
     c_bands:  2 eigenvalues not converged
     ethr =  2.58E-06,  avg # of iterations =  9.0

     negative rho (up, down):  1.977E-02 1.850E-02

     total cpu time spent up to now is      341.2 secs

     total energy              =   -6056.55849557 Ry
     estimated scf accuracy    <       0.01730852 Ry

     total magnetization       =    60.38 Bohr mag/cell
     absolute magnetization    =    67.88 Bohr mag/cell

     iteration # 22     ecut=    50.00 Ry     beta= 0.70
     Davidson diagonalization with overlap
     ethr =  2.58E-06,  avg # of iterations =  1.7

     negative rho (up, down):  1.840E-02 1.727E-02

     total cpu time spent up to now is      356.3 secs

     total energy              =   -6056.55870812 Ry
     estimated scf accuracy    <       0.00482466 Ry

     total magnetization       =    60.49 Bohr mag/cell
     absolute magnetization    =    67.96 Bohr mag/cell

     iteration # 23     ecut=    50.00 Ry     beta= 0.70
     Davidson diagonalization with overlap
     c_bands:  1 eigenvalues not converged
     ethr =  1.44E-06,  avg # of iterations =  3.2

     negative rho (up, down):  1.540E-02 1.436E-02

     total cpu time spent up to now is      372.1 secs

     total energy              =   -6056.55873826 Ry
     estimated scf accuracy    <       0.00537084 Ry

     total magnetization       =    60.42 Bohr mag/cell
     absolute magnetization    =    67.92 Bohr mag/cell

     iteration # 24     ecut=    50.00 Ry     beta= 0.70
     Davidson diagonalization with overlap
     ethr =  1.44E-06,  avg # of iterations =  1.3

     negative rho (up, down):  7.375E-03 6.712E-03

     total cpu time spent up to now is      385.7 secs

     total energy              =   -6056.55886023 Ry
     estimated scf accuracy    <       0.00198429 Ry

     total magnetization       =    60.42 Bohr mag/cell
     absolute magnetization    =    67.92 Bohr mag/cell

     iteration # 25     ecut=    50.00 Ry     beta= 0.70
     Davidson diagonalization with overlap
     ethr =  5.92E-07,  avg # of iterations =  2.4

     negative rho (up, down):  6.722E-03 6.056E-03

     total cpu time spent up to now is      400.3 secs

     total energy              =   -6056.55895499 Ry
     estimated scf accuracy    <       0.00083966 Ry

     total magnetization       =    60.47 Bohr mag/cell
     absolute magnetization    =    67.97 Bohr mag/cell

     iteration # 26     ecut=    50.00 Ry     beta= 0.70
     Davidson diagonalization with overlap
     ethr =  2.51E-07,  avg # of iterations =  2.6

     negative rho (up, down):  2.732E-03 1.898E-03

     total cpu time spent up to now is      415.5 secs

     total energy              =   -6056.55891108 Ry
     estimated scf accuracy    <       0.00039046 Ry

     total magnetization       =    60.47 Bohr mag/cell
     absolute magnetization    =    67.98 Bohr mag/cell

     iteration # 27     ecut=    50.00 Ry     beta= 0.70
     Davidson diagonalization with overlap
     c_bands:  1 eigenvalues not converged
     ethr =  1.17E-07,  avg # of iterations =  3.9

     negative rho (up, down):  2.298E-03 1.218E-03

     total cpu time spent up to now is      432.3 secs

     total energy              =   -6056.55905574 Ry
     estimated scf accuracy    <       0.00119952 Ry

     total magnetization       =    60.46 Bohr mag/cell
     absolute magnetization    =    67.96 Bohr mag/cell

     iteration # 28     ecut=    50.00 Ry     beta= 0.70
     Davidson diagonalization with overlap
     ethr =  1.17E-07,  avg # of iterations =  1.8

     negative rho (up, down):  3.234E-03 2.175E-03

     total cpu time spent up to now is      446.9 secs

     total energy              =   -6056.55909095 Ry
     estimated scf accuracy    <       0.00012454 Ry

     total magnetization       =    60.46 Bohr mag/cell
     absolute magnetization    =    67.97 Bohr mag/cell

     iteration # 29     ecut=    50.00 Ry     beta= 0.70
     Davidson diagonalization with overlap
     ethr =  3.72E-08,  avg # of iterations =  3.0

     negative rho (up, down):  3.060E-03 1.977E-03

     total cpu time spent up to now is      462.3 secs

     total energy              =   -6056.55909537 Ry
     estimated scf accuracy    <       0.00011803 Ry

     total magnetization       =    60.46 Bohr mag/cell
     absolute magnetization    =    67.97 Bohr mag/cell

     iteration # 30     ecut=    50.00 Ry     beta= 0.70
     Davidson diagonalization with overlap
     ethr =  3.52E-08,  avg # of iterations =  1.3

     negative rho (up, down):  2.882E-03 1.793E-03

     total cpu time spent up to now is      476.3 secs

     total energy              =   -6056.55910035 Ry
     estimated scf accuracy    <       0.00003604 Ry

     total magnetization       =    60.46 Bohr mag/cell
     absolute magnetization    =    67.97 Bohr mag/cell

     iteration # 31     ecut=    50.00 Ry     beta= 0.70
     Davidson diagonalization with overlap
     ethr =  1.08E-08,  avg # of iterations =  4.4

     negative rho (up, down):  3.072E-03 2.012E-03

     total cpu time spent up to now is      493.8 secs

     total energy              =   -6056.55910314 Ry
     estimated scf accuracy    <       0.00004229 Ry

     total magnetization       =    60.46 Bohr mag/cell
     absolute magnetization    =    67.96 Bohr mag/cell

     iteration # 32     ecut=    50.00 Ry     beta= 0.70
     Davidson diagonalization with overlap
     ethr =  1.08E-08,  avg # of iterations =  1.7

     negative rho (up, down):  2.923E-03 1.814E-03

     total cpu time spent up to now is      508.1 secs

     total energy              =   -6056.55910049 Ry
     estimated scf accuracy    <       0.00003958 Ry

     total magnetization       =    60.46 Bohr mag/cell
     absolute magnetization    =    67.96 Bohr mag/cell

     iteration # 33     ecut=    50.00 Ry     beta= 0.70
     Davidson diagonalization with overlap
     ethr =  1.08E-08,  avg # of iterations =  1.5

     negative rho (up, down):  3.029E-03 1.945E-03

     total cpu time spent up to now is      522.0 secs

     total energy              =   -6056.55910270 Ry
     estimated scf accuracy    <       0.00002587 Ry

     total magnetization       =    60.46 Bohr mag/cell
     absolute magnetization    =    67.96 Bohr mag/cell

     iteration # 34     ecut=    50.00 Ry     beta= 0.70
     Davidson diagonalization with overlap
     ethr =  7.72E-09,  avg # of iterations =  1.6

     negative rho (up, down):  3.086E-03 2.041E-03

     total cpu time spent up to now is      536.2 secs

     total energy              =   -6056.55910470 Ry
     estimated scf accuracy    <       0.00001767 Ry

     total magnetization       =    60.46 Bohr mag/cell
     absolute magnetization    =    67.96 Bohr mag/cell

     iteration # 35     ecut=    50.00 Ry     beta= 0.70
     Davidson diagonalization with overlap
     ethr =  5.27E-09,  avg # of iterations =  2.0

     negative rho (up, down):  2.910E-03 1.861E-03

     total cpu time spent up to now is      551.5 secs

     total energy              =   -6056.55910429 Ry
     estimated scf accuracy    <       0.00001014 Ry

     total magnetization       =    60.46 Bohr mag/cell
     absolute magnetization    =    67.96 Bohr mag/cell

     iteration # 36     ecut=    50.00 Ry     beta= 0.70
     Davidson diagonalization with overlap
     c_bands:  1 eigenvalues not converged
     ethr =  3.03E-09,  avg # of iterations =  2.9

     negative rho (up, down):  2.835E-03 1.783E-03

     total cpu time spent up to now is      566.8 secs

     total energy              =   -6056.55910380 Ry
     estimated scf accuracy    <       0.00001486 Ry

     total magnetization       =    60.45 Bohr mag/cell
     absolute magnetization    =    67.96 Bohr mag/cell

     iteration # 37     ecut=    50.00 Ry     beta= 0.70
     Davidson diagonalization with overlap
     ethr =  3.03E-09,  avg # of iterations =  2.0

     negative rho (up, down):  2.811E-03 1.757E-03

     total cpu time spent up to now is      581.4 secs

     total energy              =   -6056.55910374 Ry
     estimated scf accuracy    <       0.00001317 Ry

     total magnetization       =    60.45 Bohr mag/cell
     absolute magnetization    =    67.96 Bohr mag/cell

     iteration # 38     ecut=    50.00 Ry     beta= 0.70
     Davidson diagonalization with overlap
     ethr =  3.03E-09,  avg # of iterations =  1.3

     negative rho (up, down):  2.560E-03 1.494E-03

     total cpu time spent up to now is      595.1 secs

     total energy              =   -6056.55910321 Ry
     estimated scf accuracy    <       0.00000651 Ry

     total magnetization       =    60.45 Bohr mag/cell
     absolute magnetization    =    67.96 Bohr mag/cell

     iteration # 39     ecut=    50.00 Ry     beta= 0.70
     Davidson diagonalization with overlap
     ethr =  1.94E-09,  avg # of iterations =  2.3

     negative rho (up, down):  2.467E-03 1.393E-03

     total cpu time spent up to now is      610.8 secs

     total energy              =   -6056.55910286 Ry
     estimated scf accuracy    <       0.00001980 Ry

     total magnetization       =    60.45 Bohr mag/cell
     absolute magnetization    =    67.96 Bohr mag/cell

     iteration # 40     ecut=    50.00 Ry     beta= 0.70
     Davidson diagonalization with overlap
     ethr =  1.94E-09,  avg # of iterations =  1.3

     negative rho (up, down):  2.395E-03 1.310E-03

     total cpu time spent up to now is      624.3 secs

     total energy              =   -6056.55910349 Ry
     estimated scf accuracy    <       0.00000267 Ry

     total magnetization       =    60.45 Bohr mag/cell
     absolute magnetization    =    67.96 Bohr mag/cell

     iteration # 41     ecut=    50.00 Ry     beta= 0.70
     Davidson diagonalization with overlap
     ethr =  7.96E-10,  avg # of iterations =  4.4

     negative rho (up, down):  2.288E-03 1.205E-03

     total cpu time spent up to now is      641.8 secs

     total energy              =   -6056.55910321 Ry
     estimated scf accuracy    <       0.00001463 Ry

     total magnetization       =    60.45 Bohr mag/cell
     absolute magnetization    =    67.96 Bohr mag/cell

     iteration # 42     ecut=    50.00 Ry     beta= 0.70
     Davidson diagonalization with overlap
     ethr =  7.96E-10,  avg # of iterations =  1.5

     negative rho (up, down):  2.315E-03 1.233E-03

     total cpu time spent up to now is      655.8 secs

     total energy              =   -6056.55910350 Ry
     estimated scf accuracy    <       0.00000163 Ry

     total magnetization       =    60.45 Bohr mag/cell
     absolute magnetization    =    67.96 Bohr mag/cell

     iteration # 43     ecut=    50.00 Ry     beta= 0.70
     Davidson diagonalization with overlap
     ethr =  4.87E-10,  avg # of iterations =  2.7

     negative rho (up, down):  2.275E-03 1.192E-03

     total cpu time spent up to now is      672.9 secs

     total energy              =   -6056.55910333 Ry
     estimated scf accuracy    <       0.00001045 Ry

     total magnetization       =    60.45 Bohr mag/cell
     absolute magnetization    =    67.96 Bohr mag/cell

     iteration # 44     ecut=    50.00 Ry     beta= 0.70
     Davidson diagonalization with overlap
     ethr =  4.87E-10,  avg # of iterations =  1.3

     negative rho (up, down):  2.256E-03 1.174E-03

     total cpu time spent up to now is      686.6 secs

     total energy              =   -6056.55910366 Ry
     estimated scf accuracy    <       0.00000047 Ry

     total magnetization       =    60.45 Bohr mag/cell
     absolute magnetization    =    67.95 Bohr mag/cell

     iteration # 45     ecut=    50.00 Ry     beta= 0.70
     Davidson diagonalization with overlap
     ethr =  1.40E-10,  avg # of iterations =  4.0

     negative rho (up, down):  2.251E-03 1.168E-03

     total cpu time spent up to now is      703.1 secs

     total energy              =   -6056.55910368 Ry
     estimated scf accuracy    <       0.00000025 Ry

     total magnetization       =    60.45 Bohr mag/cell
     absolute magnetization    =    67.95 Bohr mag/cell

     iteration # 46     ecut=    50.00 Ry     beta= 0.70
     Davidson diagonalization with overlap
     ethr =  7.52E-11,  avg # of iterations =  4.6

     negative rho (up, down):  2.242E-03 1.159E-03

     total cpu time spent up to now is      720.7 secs

     total energy              =   -6056.55910367 Ry
     estimated scf accuracy    <       0.00000018 Ry

     total magnetization       =    60.45 Bohr mag/cell
     absolute magnetization    =    67.95 Bohr mag/cell

     iteration # 47     ecut=    50.00 Ry     beta= 0.70
     Davidson diagonalization with overlap
     ethr =  5.33E-11,  avg # of iterations =  1.8

     negative rho (up, down):  2.246E-03 1.162E-03

     total cpu time spent up to now is      735.7 secs

     total energy              =   -6056.55910368 Ry
     estimated scf accuracy    <       0.00000014 Ry

     total magnetization       =    60.45 Bohr mag/cell
     absolute magnetization    =    67.96 Bohr mag/cell

     iteration # 48     ecut=    50.00 Ry     beta= 0.70
     Davidson diagonalization with overlap
     ethr =  4.17E-11,  avg # of iterations =  1.7

     negative rho (up, down):  2.251E-03 1.167E-03

     total cpu time spent up to now is      750.2 secs

     total energy              =   -6056.55910369 Ry
     estimated scf accuracy    <       0.00000009 Ry

     total magnetization       =    60.45 Bohr mag/cell
     absolute magnetization    =    67.96 Bohr mag/cell

     iteration # 49     ecut=    50.00 Ry     beta= 0.70
     Davidson diagonalization with overlap
     ethr =  2.57E-11,  avg # of iterations =  2.4

     negative rho (up, down):  2.242E-03 1.158E-03

     total cpu time spent up to now is      765.2 secs

     total energy              =   -6056.55910368 Ry
     estimated scf accuracy    <       0.00000007 Ry

     total magnetization       =    60.45 Bohr mag/cell
     absolute magnetization    =    67.96 Bohr mag/cell

     iteration # 50     ecut=    50.00 Ry     beta= 0.70
     Davidson diagonalization with overlap
     ethr =  2.09E-11,  avg # of iterations =  2.5

     negative rho (up, down):  2.240E-03 1.156E-03

     total cpu time spent up to now is      780.5 secs

     total energy              =   -6056.55910367 Ry
     estimated scf accuracy    <       0.00000006 Ry

     total magnetization       =    60.45 Bohr mag/cell
     absolute magnetization    =    67.96 Bohr mag/cell

     iteration # 51     ecut=    50.00 Ry     beta= 0.70
     Davidson diagonalization with overlap
     ethr =  1.92E-11,  avg # of iterations =  1.2

     negative rho (up, down):  2.233E-03 1.149E-03

     total cpu time spent up to now is      795.2 secs

     total energy              =   -6056.55910366 Ry
     estimated scf accuracy    <       0.00000003 Ry

     total magnetization       =    60.45 Bohr mag/cell
     absolute magnetization    =    67.96 Bohr mag/cell

     iteration # 52     ecut=    50.00 Ry     beta= 0.70
     Davidson diagonalization with overlap
     ethr =  8.61E-12,  avg # of iterations =  4.0

     negative rho (up, down):  2.236E-03 1.152E-03

     total cpu time spent up to now is      812.4 secs

     total energy              =   -6056.55910366 Ry
     estimated scf accuracy    <       0.00000016 Ry

     total magnetization       =    60.45 Bohr mag/cell
     absolute magnetization    =    67.96 Bohr mag/cell

     iteration # 53     ecut=    50.00 Ry     beta= 0.70
     Davidson diagonalization with overlap
     ethr =  8.61E-12,  avg # of iterations =  1.8

     negative rho (up, down):  2.237E-03 1.153E-03

     total cpu time spent up to now is      826.7 secs

     total energy              =   -6056.55910367 Ry
     estimated scf accuracy    <       0.00000003 Ry

     total magnetization       =    60.45 Bohr mag/cell
     absolute magnetization    =    67.96 Bohr mag/cell

     iteration # 54     ecut=    50.00 Ry     beta= 0.70
     Davidson diagonalization with overlap
     ethr =  8.50E-12,  avg # of iterations =  1.2

     negative rho (up, down):  2.237E-03 1.153E-03

     total cpu time spent up to now is      840.2 secs

     total energy              =   -6056.55910367 Ry
     estimated scf accuracy    <       0.00000004 Ry

     total magnetization       =    60.45 Bohr mag/cell
     absolute magnetization    =    67.96 Bohr mag/cell

     iteration # 55     ecut=    50.00 Ry     beta= 0.70
     Davidson diagonalization with overlap
     ethr =  8.50E-12,  avg # of iterations =  1.1

     negative rho (up, down):  2.237E-03 1.154E-03

     Magnetic moment per site  (integrated on atomic sphere of radius R)
     atom   1 (R=0.083)  charge=  5.2979  magn=  1.5667
     atom   2 (R=0.083)  charge=  5.2997  magn=  1.5628
     atom   3 (R=0.083)  charge=  5.2994  magn=  1.5709
     atom   4 (R=0.083)  charge=  5.3003  magn=  1.5758
     atom   5 (R=0.083)  charge=  5.2996  magn=  1.5714
     atom   6 (R=0.083)  charge=  5.3004  magn=  1.5704
     atom   7 (R=0.083)  charge=  5.2979  magn=  1.5697
     atom   8 (R=0.083)  charge=  5.2990  magn=  1.5547
     atom   9 (R=0.083)  charge=  5.3005  magn=  1.5662
     atom  10 (R=0.083)  charge=  5.2916  magn=  1.5091
     atom  11 (R=0.083)  charge=  5.2927  magn=  1.5004
     atom  12 (R=0.083)  charge=  5.2926  magn=  1.5171
     atom  13 (R=0.083)  charge=  5.2919  magn=  1.5193
     atom  14 (R=0.083)  charge=  5.2933  magn=  1.5163
     atom  15 (R=0.083)  charge=  5.2922  magn=  1.5108
     atom  16 (R=0.083)  charge=  5.2920  magn=  1.5052
     atom  17 (R=0.083)  charge=  5.2922  magn=  1.5157
     atom  18 (R=0.083)  charge=  5.2932  magn=  1.5126
     atom  19 (R=0.083)  charge=  5.2908  magn=  1.5043
     atom  20 (R=0.083)  charge=  5.2918  magn=  1.4989
     atom  21 (R=0.083)  charge=  5.2915  magn=  1.5263
     atom  22 (R=0.083)  charge=  5.2923  magn=  1.5080
     atom  23 (R=0.083)  charge=  5.2923  magn=  1.4989
     atom  24 (R=0.083)  charge=  5.2921  magn=  1.5102
     atom  25 (R=0.083)  charge=  5.2903  magn=  1.4922
     atom  26 (R=0.083)  charge=  5.2894  magn=  1.5084
     atom  27 (R=0.083)  charge=  5.2911  magn=  1.5008
     atom  28 (R=0.083)  charge=  5.3054  magn=  1.2077
     atom  29 (R=0.083)  charge=  5.2974  magn=  0.7322
     atom  30 (R=0.083)  charge=  5.2984  magn=  1.5587
     atom  31 (R=0.083)  charge=  5.3014  magn=  1.5871
     atom  32 (R=0.083)  charge=  5.3008  magn=  1.5822
     atom  33 (R=0.083)  charge=  5.2976  magn=  1.5840
     atom  34 (R=0.083)  charge=  5.2986  magn=  1.5928
     atom  35 (R=0.083)  charge=  5.3038  magn=  1.5179
     atom  36 (R=0.083)  charge=  5.3010  magn=  1.5988
     atom  37 (R=0.066)  charge=  1.0498  magn= -0.0189
     atom  38 (R=0.066)  charge=  2.9356  magn= -0.0330
     atom  39 (R=0.083)  charge=  0.6979  magn= -0.0143

     total cpu time spent up to now is      854.3 secs

     End of self-consistent calculation

 ------ SPIN UP ------------


          k = 0.0000 0.0000 0.0000 ( 51087 PWs)   bands (ev):

   -21.9583  -9.3579  -7.6210  -6.3983  -5.9813  -5.8096  -5.4157  -4.8199
    -4.7939  -4.7913  -4.7881  -4.7682  -4.7591  -4.7308  -4.4221  -4.2610
    -4.2586  -4.2553  -4.2262  -4.2124  -4.2044  -3.7778  -3.7439  -3.7372
    -3.7328  -3.7169  -3.6834  -3.6339  -3.6087  -3.6069  -3.5980  -3.5952
    -3.5599  -3.5322  -3.5231  -3.3708  -3.2249  -3.2212  -3.2169  -3.2146
    -3.1604  -3.1555  -3.1499  -3.1442  -3.1399  -3.1334  -3.1229  -3.1115
    -2.9891  -2.9875  -2.9200  -2.9179  -2.9103  -2.9071  -2.8987  -2.8896
    -2.8850  -2.8812  -2.8801  -2.8499  -2.7829  -2.7762  -2.7693  -2.7620
    -2.6883  -2.6516  -2.2717  -2.2434  -2.2393  -2.2354  -2.2320  -2.1376
    -2.1129  -2.1082  -2.0879  -2.0834  -2.0731  -2.0616  -2.0581  -2.0532
    -2.0115  -2.0081  -1.9872  -1.9615  -1.9579  -1.9513  -1.9375  -1.9308
    -1.9245  -1.9221  -1.9141  -1.9098  -1.9071  -1.8857  -1.8826  -1.8768
    -1.8737  -1.8706  -1.8680  -1.8662  -1.8630  -1.8624  -1.8575  -1.8540
    -1.8380  -1.8376  -1.8050  -1.7844  -1.7734  -1.7073  -1.7016  -1.5968
    -1.5244  -1.4193  -1.4182  -1.4162  -1.4098  -1.4015  -1.3867  -1.3764
    -1.3725  -1.3646  -1.3477  -1.3218  -1.3186  -1.2304  -1.1984  -1.1963
    -1.1691  -1.1584  -1.0724  -1.0213  -0.9959  -0.9856  -0.9755  -0.9533
    -0.9345  -0.9331  -0.9239  -0.9201  -0.9099  -0.8644  -0.8100  -0.7867
    -0.7060  -0.6803  -0.6768  -0.6721  -0.6527  -0.6340  -0.6147  -0.6110
    -0.6081  -0.6054  -0.6047  -0.6016  -0.5939  -0.5844  -0.5822  -0.5748
    -0.5687  -0.5617  -0.5529  -0.5414  -0.5333  -0.5317  -0.5207  -0.5127
    -0.5059  -0.4946  -0.4871  -0.4847  -0.4768  -0.4657  -0.4632  -0.4579
    -0.4531  -0.4480  -0.4263  -0.4031  -0.3851  -0.3789  -0.3753  -0.3672
    -0.3620  -0.3535  -0.3371  -0.3308  -0.3188  -0.2857  -0.2803  -0.2783
    -0.2731  -0.2646  -0.2154  -0.2113  -0.2037  -0.1947  -0.1549  -0.1358
     0.4624   0.8738

          k = 0.0000 0.2309 0.0000 ( 51134 PWs)   bands (ev):

   -21.9583  -9.3501  -7.4774  -6.3047  -5.9822  -5.8127  -5.5276  -5.3807
    -5.0315  -5.0164  -4.6702  -4.5364  -4.4497  -4.4454  -4.3813  -4.3289
    -4.2770  -4.2624  -4.1781  -4.1254  -4.1185  -3.8601  -3.7631  -3.7424
    -3.7042  -3.6667  -3.6245  -3.6149  -3.6125  -3.5976  -3.5885  -3.5743
    -3.5399  -3.4983  -3.4805  -3.4625  -3.4529  -3.3424  -3.2554  -3.2341
    -3.2278  -3.1798  -3.1771  -3.1696  -3.1471  -3.0778  -3.0481  -3.0406
    -3.0116  -3.0081  -3.0025  -2.9707  -2.9487  -2.8756  -2.8649  -2.8371
    -2.8032  -2.7966  -2.7713  -2.7651  -2.7400  -2.7131  -2.7027  -2.6875
    -2.6633  -2.6036  -2.3609  -2.3541  -2.3326  -2.3274  -2.2963  -2.2140
    -2.2039  -2.1940  -2.1858  -2.1758  -2.1702  -2.1596  -2.1375  -2.0823
    -2.0675  -2.0584  -2.0361  -2.0044  -2.0025  -1.9972  -1.9811  -1.9752
    -1.9632  -1.9561  -1.9512  -1.9471  -1.9389  -1.9157  -1.8975  -1.8644
    -1.8453  -1.8381  -1.7766  -1.7732  -1.7615  -1.7584  -1.7499  -1.7473
    -1.7333  -1.7241  -1.7146  -1.7124  -1.6987  -1.6886  -1.6704  -1.6611
    -1.6430  -1.6345  -1.6129  -1.5464  -1.5348  -1.4714  -1.4448  -1.4398
    -1.4329  -1.4196  -1.4115  -1.4021  -1.3866  -1.3687  -1.3386  -1.2440
    -1.2284  -1.2218  -1.1528  -1.1446  -1.1280  -1.0788  -1.0557  -1.0456
    -1.0238  -0.9577  -0.9461  -0.9285  -0.9032  -0.9018  -0.8708  -0.8593
    -0.8448  -0.8300  -0.8212  -0.7863  -0.7727  -0.7616  -0.7544  -0.7503
    -0.7119  -0.6899  -0.6768  -0.6721  -0.6641  -0.6372  -0.6168  -0.6072
    -0.5978  -0.5902  -0.5862  -0.5744  -0.5548  -0.5472  -0.5379  -0.5169
    -0.4916  -0.4803  -0.4619  -0.4255  -0.4106  -0.3901  -0.3776  -0.3549
    -0.3491  -0.3324  -0.3308  -0.3216  -0.3026  -0.2973  -0.2901  -0.2562
    -0.2166  -0.2120  -0.2015  -0.1800  -0.1740  -0.1588  -0.1347  -0.1200
    -0.0529   0.0134   0.1627   0.1781   0.2749   0.3539   0.4385   0.4534
     0.4777   0.7929

          k = 0.0000 0.4619 0.0000 ( 51204 PWs)   bands (ev):

   -21.9583  -9.3378  -7.0548  -6.4026  -6.1060  -5.9625  -5.6671  -5.3632
    -5.1775  -5.1415  -5.0313  -4.3512  -4.2773  -4.2732  -4.2590  -4.2047
    -4.0987  -4.0888  -4.0455  -3.9618  -3.9522  -3.9503  -3.8851  -3.7817
    -3.7739  -3.7650  -3.7594  -3.7108  -3.6783  -3.6504  -3.6240  -3.5187
    -3.4863  -3.4745  -3.4591  -3.4394  -3.4283  -3.3651  -3.3276  -3.3201
    -3.3094  -3.3012  -3.2531  -3.1866  -3.1069  -3.0879  -3.0120  -3.0063
    -2.9728  -2.9587  -2.9315  -2.9214  -2.9124  -2.8839  -2.8756  -2.8252
    -2.8137  -2.7812  -2.7561  -2.7548  -2.6203  -2.6125  -2.5852  -2.5704
    -2.5376  -2.5015  -2.4756  -2.4653  -2.4439  -2.3906  -2.3324  -2.3301
    -2.3236  -2.3178  -2.3081  -2.2880  -2.2754  -2.2640  -2.2469  -2.2312
    -2.1995  -2.1618  -2.1512  -2.1322  -2.1031  -2.0888  -2.0448  -2.0073
    -1.9983  -1.9929  -1.9696  -1.9514  -1.9422  -1.9006  -1.8886  -1.8794
    -1.8746  -1.8575  -1.8486  -1.8227  -1.8073  -1.8000  -1.7924  -1.7770
    -1.7623  -1.7357  -1.6973  -1.6937  -1.6258  -1.6130  -1.6027  -1.5942
    -1.5664  -1.5473  -1.5253  -1.4953  -1.4792  -1.4592  -1.4554  -1.4490
    -1.4455  -1.4419  -1.4329  -1.4207  -1.4164  -1.3978  -1.3904  -1.3805
    -1.3770  -1.3376  -1.2719  -1.2565  -1.2319  -1.2084  -1.1978  -1.1814
    -1.1467  -1.0907  -1.0835  -1.0765  -1.0585  -1.0288  -0.9905  -0.9494
    -0.9277  -0.9097  -0.9027  -0.8801  -0.8645  -0.8522  -0.8276  -0.7601
    -0.7268  -0.7155  -0.6954  -0.6905  -0.6748  -0.6684  -0.6604  -0.6497
    -0.6380  -0.6244  -0.5359  -0.5255  -0.5161  -0.5076  -0.4994  -0.4866
    -0.4763  -0.4645  -0.4420  -0.4341  -0.4068  -0.3927  -0.3473  -0.3273
    -0.3204  -0.2944  -0.2869  -0.2372  -0.2222  -0.1973  -0.1861  -0.1472
    -0.1158  -0.1053  -0.1028  -0.0846  -0.0777  -0.0727  -0.0626  -0.0039
     0.0296   0.0812   0.4768   0.6836   0.9674   1.1414   1.1634   1.3842
     1.5023   1.5394

          k = 0.2000-0.1155 0.0000 ( 51134 PWs)   bands (ev):

   -21.9583  -9.3488  -7.4786  -6.3107  -6.0077  -5.7762  -5.5323  -5.3800
    -5.0305  -5.0193  -4.6694  -4.5350  -4.4508  -4.4447  -4.3824  -4.3318
    -4.2845  -4.2525  -4.1801  -4.1243  -4.1199  -3.8615  -3.7724  -3.7380
    -3.6890  -3.6632  -3.6279  -3.6161  -3.6124  -3.6055  -3.5920  -3.5719
    -3.5410  -3.4994  -3.4801  -3.4642  -3.4546  -3.3534  -3.2545  -3.2371
    -3.2267  -3.1814  -3.1766  -3.1633  -3.1464  -3.0868  -3.0483  -3.0388
    -3.0125  -3.0068  -3.0010  -2.9681  -2.9374  -2.8753  -2.8664  -2.8397
    -2.8013  -2.7818  -2.7697  -2.7662  -2.7375  -2.7100  -2.7018  -2.6882
    -2.6599  -2.6107  -2.3650  -2.3529  -2.3298  -2.3184  -2.2955  -2.2127
    -2.2053  -2.1965  -2.1861  -2.1778  -2.1719  -2.1554  -2.1201  -2.0805
    -2.0719  -2.0578  -2.0374  -2.0028  -2.0006  -1.9951  -1.9929  -1.9697
    -1.9655  -1.9609  -1.9545  -1.9495  -1.9358  -1.9213  -1.8791  -1.8636
    -1.8491  -1.8217  -1.7955  -1.7736  -1.7681  -1.7597  -1.7506  -1.7433
    -1.7362  -1.7255  -1.7165  -1.7121  -1.7035  -1.6909  -1.6687  -1.6587
    -1.6451  -1.6318  -1.6203  -1.5602  -1.5382  -1.4882  -1.4396  -1.4373
    -1.4274  -1.4188  -1.4076  -1.4061  -1.3849  -1.3717  -1.2887  -1.2593
    -1.2361  -1.2157  -1.1552  -1.1449  -1.1221  -1.0872  -1.0622  -1.0474
    -0.9934  -0.9699  -0.9548  -0.9435  -0.9152  -0.9021  -0.8759  -0.8721
    -0.8541  -0.8247  -0.8051  -0.7805  -0.7740  -0.7663  -0.7567  -0.7412
    -0.7147  -0.6841  -0.6756  -0.6711  -0.6504  -0.6289  -0.6124  -0.6054
    -0.5977  -0.5923  -0.5850  -0.5759  -0.5611  -0.5487  -0.5342  -0.5280
    -0.4800  -0.4634  -0.4535  -0.4267  -0.4141  -0.3963  -0.3702  -0.3556
    -0.3463  -0.3332  -0.3254  -0.3234  -0.3033  -0.2962  -0.2914  -0.2494
    -0.2158  -0.2043  -0.2008  -0.1798  -0.1725  -0.1518  -0.1352  -0.1172
    -0.0598  -0.0017   0.1484   0.1779   0.2459   0.3262   0.4256   0.4547
     0.4870   0.7947

          k = 0.2000 0.1155 0.0000 ( 51134 PWs)   bands (ev):

   -21.9583  -9.3485  -7.4790  -6.3141  -6.0172  -5.7628  -5.5068  -5.4096
    -5.0294  -5.0158  -4.6690  -4.5335  -4.4500  -4.4439  -4.3855  -4.3306
    -4.2835  -4.2557  -4.1820  -4.1243  -4.1176  -3.8651  -3.7594  -3.7421
    -3.6940  -3.6617  -3.6241  -3.6178  -3.6124  -3.6084  -3.5872  -3.5797
    -3.5284  -3.5005  -3.4894  -3.4613  -3.4551  -3.3696  -3.2516  -3.2356
    -3.2270  -3.1814  -3.1761  -3.1631  -3.1492  -3.0665  -3.0483  -3.0416
    -3.0094  -3.0041  -2.9990  -2.9671  -2.9556  -2.8778  -2.8675  -2.8355
    -2.8046  -2.7811  -2.7700  -2.7596  -2.7416  -2.7099  -2.6996  -2.6948
    -2.6487  -2.6149  -2.3631  -2.3575  -2.3247  -2.3182  -2.2966  -2.2124
    -2.2071  -2.2001  -2.1841  -2.1805  -2.1684  -2.1535  -2.1187  -2.0805
    -2.0737  -2.0575  -2.0287  -2.0033  -1.9982  -1.9961  -1.9901  -1.9705
    -1.9652  -1.9609  -1.9538  -1.9500  -1.9371  -1.9161  -1.8888  -1.8647
    -1.8519  -1.8246  -1.7862  -1.7723  -1.7687  -1.7565  -1.7501  -1.7462
    -1.7370  -1.7274  -1.7195  -1.7120  -1.7097  -1.6882  -1.6663  -1.6605
    -1.6482  -1.6313  -1.6113  -1.5574  -1.5330  -1.4998  -1.4414  -1.4350
    -1.4244  -1.4154  -1.4107  -1.4038  -1.3852  -1.3727  -1.2790  -1.2584
    -1.2437  -1.2162  -1.1550  -1.1471  -1.1183  -1.0937  -1.0645  -1.0577
    -0.9944  -0.9703  -0.9574  -0.9321  -0.9214  -0.9037  -0.8745  -0.8695
    -0.8523  -0.8235  -0.8088  -0.7785  -0.7768  -0.7655  -0.7643  -0.7413
    -0.7142  -0.6810  -0.6724  -0.6707  -0.6518  -0.6189  -0.6159  -0.6057
    -0.5962  -0.5933  -0.5849  -0.5772  -0.5600  -0.5470  -0.5419  -0.5357
    -0.4772  -0.4584  -0.4490  -0.4300  -0.4099  -0.4060  -0.3683  -0.3558
    -0.3497  -0.3361  -0.3271  -0.3188  -0.3022  -0.2960  -0.2896  -0.2463
    -0.2130  -0.2049  -0.2001  -0.1779  -0.1739  -0.1324  -0.1275  -0.1158
    -0.0604  -0.0172   0.1532   0.1786   0.2163   0.3289   0.4265   0.4497
     0.4842   0.7787

          k = 0.2000 0.3464 0.0000 ( 51202 PWs)   bands (ev):

   -21.9583  -9.3384  -7.1960  -6.1946  -6.0684  -5.8986  -5.7554  -5.6158
    -5.3819  -4.7593  -4.6799  -4.4565  -4.4419  -4.4121  -4.2406  -4.2333
    -4.1404  -4.1322  -4.1200  -4.0042  -3.9867  -3.8663  -3.8510  -3.7907
    -3.7683  -3.7134  -3.6527  -3.6343  -3.6076  -3.5989  -3.5870  -3.5712
    -3.5527  -3.5379  -3.4939  -3.4687  -3.4378  -3.4076  -3.3855  -3.3401
    -3.2556  -3.2236  -3.1765  -3.1574  -3.1355  -3.1151  -3.0670  -3.0178
    -2.9777  -2.9617  -2.9431  -2.9267  -2.9208  -2.8805  -2.8710  -2.8479
    -2.8243  -2.8011  -2.7199  -2.6864  -2.6510  -2.6422  -2.6267  -2.5956
    -2.5705  -2.5606  -2.4685  -2.3975  -2.3830  -2.3580  -2.3369  -2.3101
    -2.2953  -2.2838  -2.2797  -2.2570  -2.2419  -2.2290  -2.2155  -2.2129
    -2.2054  -2.1639  -2.1267  -2.0839  -2.0351  -2.0301  -2.0035  -1.9917
    -1.9821  -1.9558  -1.9454  -1.9251  -1.9115  -1.8862  -1.8730  -1.8690
    -1.8626  -1.8492  -1.8361  -1.8281  -1.8161  -1.8084  -1.7910  -1.7824
    -1.7621  -1.7529  -1.7236  -1.6913  -1.6843  -1.6618  -1.6346  -1.6331
    -1.6231  -1.6003  -1.5900  -1.5564  -1.5340  -1.5231  -1.5045  -1.4753
    -1.4687  -1.4565  -1.4518  -1.4285  -1.4234  -1.3971  -1.3867  -1.3518
    -1.3155  -1.2957  -1.2793  -1.2296  -1.1850  -1.1568  -1.1381  -1.0732
    -1.0403  -1.0226  -1.0170  -0.9993  -0.9962  -0.9884  -0.9645  -0.9558
    -0.9401  -0.9256  -0.9018  -0.8634  -0.8589  -0.8408  -0.8186  -0.8125
    -0.7966  -0.7765  -0.7497  -0.7403  -0.7320  -0.7226  -0.6243  -0.5754
    -0.5722  -0.5499  -0.5371  -0.5279  -0.5160  -0.5076  -0.4880  -0.4813
    -0.4560  -0.4284  -0.3978  -0.3882  -0.3733  -0.3608  -0.3253  -0.3136
    -0.3026  -0.2955  -0.2934  -0.2685  -0.2580  -0.2524  -0.2484  -0.2201
    -0.2123  -0.1412  -0.1246  -0.1207  -0.0772  -0.0702  -0.0457   0.0520
     0.2341   0.2680   0.3086   0.4768   0.5765   0.6765   1.0646   1.1463
     1.2941   1.3907

          k = 0.2000-0.5774 0.0000 ( 51262 PWs)   bands (ev):

   -21.9583  -9.3326  -6.6583  -6.6465  -6.1521  -6.0047  -5.8199  -5.5696
    -5.2171  -5.1785  -4.7669  -4.4379  -4.1994  -4.1551  -4.0758  -4.0467
    -4.0181  -3.9938  -3.9915  -3.9766  -3.9184  -3.9103  -3.9043  -3.8966
    -3.8282  -3.8083  -3.7594  -3.7508  -3.7286  -3.7197  -3.6431  -3.5809
    -3.5688  -3.5515  -3.5424  -3.4752  -3.4185  -3.3902  -3.3263  -3.2796
    -3.2775  -3.2492  -3.1939  -3.1773  -3.1487  -3.1222  -3.0641  -3.0590
    -3.0265  -2.9921  -2.9570  -2.8954  -2.8627  -2.8443  -2.8254  -2.7818
    -2.7714  -2.7017  -2.6880  -2.6737  -2.6661  -2.6543  -2.6328  -2.6086
    -2.5297  -2.4848  -2.4703  -2.4572  -2.4534  -2.3989  -2.3859  -2.3378
    -2.3270  -2.2896  -2.2839  -2.2797  -2.2689  -2.2452  -2.2209  -2.2149
    -2.1998  -2.1906  -2.1695  -2.1478  -2.1440  -2.1174  -2.0713  -2.0496
    -2.0400  -2.0064  -1.9771  -1.9625  -1.9411  -1.9143  -1.8986  -1.8873
    -1.8670  -1.8546  -1.8475  -1.8428  -1.8277  -1.8142  -1.8021  -1.7926
    -1.7372  -1.7118  -1.7022  -1.6932  -1.6789  -1.6744  -1.6689  -1.6600
    -1.6547  -1.6441  -1.6261  -1.5877  -1.5780  -1.5517  -1.5401  -1.5097
    -1.4549  -1.4498  -1.4224  -1.4077  -1.3918  -1.3859  -1.3641  -1.3335
    -1.3080  -1.2903  -1.2620  -1.2284  -1.1921  -1.1566  -1.1459  -1.1314
    -1.1082  -1.1045  -1.0885  -1.0635  -1.0433  -1.0215  -1.0101  -1.0011
    -0.9529  -0.9282  -0.9193  -0.9155  -0.9098  -0.8673  -0.8359  -0.8202
    -0.8127  -0.7992  -0.7807  -0.7757  -0.7635  -0.7404  -0.6993  -0.5849
    -0.5443  -0.5390  -0.5302  -0.5190  -0.5064  -0.5009  -0.4813  -0.4739
    -0.4429  -0.4282  -0.4238  -0.4116  -0.3727  -0.3200  -0.3020  -0.2927
    -0.2783  -0.2675  -0.2490  -0.2379  -0.2049  -0.1943  -0.1883  -0.1716
    -0.1632  -0.1033  -0.0990  -0.0910  -0.0782  -0.0625  -0.0448   0.0059
     0.1823   0.2899   0.5292   0.8666   1.1596   1.2090   1.3676   1.5388
     1.7173   1.7555

          k = 0.2000-0.3464 0.0000 ( 51202 PWs)   bands (ev):

   -21.9583  -9.3389  -7.1947  -6.1915  -6.0485  -5.9084  -5.7731  -5.6245
    -5.3703  -4.7572  -4.6798  -4.4580  -4.4421  -4.4154  -4.2362  -4.2343
    -4.1398  -4.1326  -4.1220  -4.0039  -3.9864  -3.8643  -3.8495  -3.8009
    -3.7739  -3.7074  -3.6524  -3.6271  -3.6164  -3.6008  -3.5914  -3.5647
    -3.5515  -3.5386  -3.4891  -3.4599  -3.4397  -3.4024  -3.3859  -3.3312
    -3.2563  -3.2319  -3.1747  -3.1635  -3.1306  -3.1157  -3.0749  -3.0148
    -2.9732  -2.9665  -2.9423  -2.9283  -2.9193  -2.8822  -2.8627  -2.8428
    -2.8231  -2.8161  -2.7141  -2.7012  -2.6505  -2.6412  -2.6096  -2.5984
    -2.5784  -2.5644  -2.4645  -2.3969  -2.3785  -2.3559  -2.3374  -2.3087
    -2.2934  -2.2855  -2.2824  -2.2577  -2.2385  -2.2330  -2.2176  -2.2091
    -2.1984  -2.1718  -2.1320  -2.1046  -2.0343  -2.0274  -2.0051  -1.9898
    -1.9794  -1.9548  -1.9520  -1.9223  -1.9071  -1.8877  -1.8776  -1.8716
    -1.8607  -1.8486  -1.8444  -1.8261  -1.8145  -1.8098  -1.7918  -1.7750
    -1.7648  -1.7541  -1.7301  -1.6921  -1.6843  -1.6707  -1.6382  -1.6316
    -1.6272  -1.5963  -1.5896  -1.5586  -1.5314  -1.5090  -1.5036  -1.4782
    -1.4623  -1.4570  -1.4481  -1.4314  -1.4243  -1.3970  -1.3884  -1.3423
    -1.3177  -1.2845  -1.2746  -1.2301  -1.1821  -1.1494  -1.1467  -1.0608
    -1.0441  -1.0240  -1.0100  -1.0039  -0.9943  -0.9890  -0.9640  -0.9546
    -0.9397  -0.9294  -0.9042  -0.8635  -0.8547  -0.8428  -0.8220  -0.8045
    -0.7917  -0.7794  -0.7566  -0.7421  -0.7336  -0.7211  -0.6228  -0.5826
    -0.5721  -0.5517  -0.5397  -0.5286  -0.5162  -0.5023  -0.4908  -0.4797
    -0.4578  -0.4265  -0.3893  -0.3845  -0.3755  -0.3632  -0.3292  -0.3115
    -0.3012  -0.2976  -0.2919  -0.2667  -0.2606  -0.2514  -0.2426  -0.2244
    -0.2205  -0.1442  -0.1227  -0.1207  -0.0783  -0.0719  -0.0559   0.0638
     0.2198   0.2673   0.3035   0.4996   0.5564   0.6791   1.0994   1.1560
     1.3016   1.3596

          k = 0.4000-0.2309 0.0000 ( 51204 PWs)   bands (ev):

   -21.9583  -9.3342  -7.0607  -6.4211  -6.1223  -5.9567  -5.6082  -5.3951
    -5.1694  -5.1409  -5.0369  -4.3547  -4.2906  -4.2801  -4.2405  -4.2060
    -4.0963  -4.0889  -4.0556  -3.9637  -3.9543  -3.9477  -3.8640  -3.7810
    -3.7730  -3.7638  -3.7586  -3.7128  -3.6704  -3.6529  -3.6291  -3.5448
    -3.4875  -3.4801  -3.4655  -3.4421  -3.4263  -3.3682  -3.3332  -3.3234
    -3.3126  -3.3040  -3.2599  -3.1912  -3.0979  -3.0836  -3.0056  -2.9955
    -2.9707  -2.9504  -2.9291  -2.9240  -2.9080  -2.8972  -2.8569  -2.8263
    -2.8147  -2.7868  -2.7492  -2.7263  -2.6186  -2.6053  -2.5850  -2.5621
    -2.5343  -2.4996  -2.4787  -2.4632  -2.4436  -2.3894  -2.3308  -2.3299
    -2.3270  -2.3151  -2.3040  -2.2863  -2.2771  -2.2630  -2.2608  -2.2105
    -2.1945  -2.1657  -2.1505  -2.1315  -2.1066  -2.0873  -2.0634  -2.0081
    -1.9995  -1.9951  -1.9687  -1.9564  -1.9316  -1.8969  -1.8899  -1.8829
    -1.8732  -1.8504  -1.8442  -1.8253  -1.8152  -1.8013  -1.7988  -1.7724
    -1.7620  -1.7344  -1.6973  -1.6942  -1.6271  -1.6186  -1.5905  -1.5776
    -1.5686  -1.5475  -1.5356  -1.4902  -1.4792  -1.4650  -1.4584  -1.4509
    -1.4449  -1.4378  -1.4306  -1.4252  -1.4201  -1.4091  -1.3912  -1.3754
    -1.3525  -1.3422  -1.2932  -1.2470  -1.2310  -1.2145  -1.2007  -1.1684
    -1.1563  -1.1075  -1.0846  -1.0748  -1.0614  -1.0323  -1.0030  -0.9711
    -0.9522  -0.9147  -0.8994  -0.8889  -0.8613  -0.8329  -0.8063  -0.7736
    -0.7492  -0.7009  -0.6933  -0.6735  -0.6709  -0.6668  -0.6536  -0.6483
    -0.6266  -0.6213  -0.5332  -0.5210  -0.5180  -0.5090  -0.4930  -0.4843
    -0.4675  -0.4535  -0.4468  -0.4392  -0.4048  -0.3859  -0.3385  -0.3258
    -0.3139  -0.3010  -0.2730  -0.2325  -0.2245  -0.1945  -0.1838  -0.1477
    -0.1085  -0.1029  -0.0972  -0.0809  -0.0770  -0.0732  -0.0605  -0.0109
     0.0299   0.0763   0.4346   0.6961   0.9596   1.1103   1.1583   1.3092
     1.4683   1.5400

          k = 0.4000 0.0000 0.0000 ( 51202 PWs)   bands (ev):

   -21.9583  -9.3362  -7.1998  -6.2049  -6.0920  -5.8884  -5.7247  -5.6070
    -5.3997  -4.7452  -4.6846  -4.4595  -4.4543  -4.4059  -4.2399  -4.2342
    -4.1379  -4.1324  -4.1264  -4.0045  -3.9913  -3.8638  -3.8558  -3.7888
    -3.7476  -3.6943  -3.6542  -3.6469  -3.6079  -3.6034  -3.5873  -3.5786
    -3.5509  -3.5333  -3.5115  -3.4790  -3.4381  -3.4114  -3.3822  -3.3589
    -3.2685  -3.2148  -3.1754  -3.1464  -3.1331  -3.1175  -3.0608  -3.0152
    -2.9831  -2.9513  -2.9430  -2.9369  -2.9109  -2.8823  -2.8603  -2.8544
    -2.8313  -2.7836  -2.7288  -2.6597  -2.6500  -2.6368  -2.6234  -2.5882
    -2.5851  -2.5486  -2.4702  -2.3939  -2.3796  -2.3550  -2.3388  -2.3122
    -2.2949  -2.2858  -2.2804  -2.2579  -2.2420  -2.2310  -2.2268  -2.2087
    -2.1829  -2.1666  -2.1351  -2.0797  -2.0344  -2.0278  -2.0153  -1.9945
    -1.9760  -1.9629  -1.9417  -1.9233  -1.9152  -1.8845  -1.8713  -1.8641
    -1.8552  -1.8527  -1.8453  -1.8247  -1.8196  -1.8042  -1.7947  -1.7829
    -1.7552  -1.7287  -1.7098  -1.6903  -1.6822  -1.6700  -1.6380  -1.6351
    -1.6199  -1.6075  -1.5895  -1.5674  -1.5387  -1.5233  -1.4998  -1.4832
    -1.4701  -1.4616  -1.4493  -1.4310  -1.4195  -1.4117  -1.3900  -1.3599
    -1.3104  -1.3064  -1.2942  -1.2215  -1.1726  -1.1608  -1.1428  -1.0809
    -1.0347  -1.0248  -1.0179  -1.0108  -0.9936  -0.9846  -0.9707  -0.9655
    -0.9430  -0.9213  -0.9013  -0.8607  -0.8449  -0.8388  -0.8170  -0.8100
    -0.7887  -0.7719  -0.7510  -0.7436  -0.7358  -0.7233  -0.6223  -0.5773
    -0.5699  -0.5451  -0.5366  -0.5275  -0.5150  -0.5067  -0.4873  -0.4796
    -0.4620  -0.4248  -0.4046  -0.3859  -0.3726  -0.3554  -0.3160  -0.3118
    -0.2997  -0.2978  -0.2890  -0.2691  -0.2581  -0.2533  -0.2451  -0.2213
    -0.2099  -0.1397  -0.1248  -0.1220  -0.0816  -0.0774  -0.0289   0.0536
     0.2619   0.2688   0.3292   0.4396   0.5888   0.6513   0.9817   1.1555
     1.2579   1.3972

          k = 0.4000 0.2309 0.0000 ( 51204 PWs)   bands (ev):

   -21.9583  -9.3334  -7.0628  -6.4287  -6.1307  -5.9533  -5.5644  -5.4262
    -5.1703  -5.1329  -5.0399  -4.3526  -4.3023  -4.2765  -4.2410  -4.2074
    -4.0952  -4.0869  -4.0549  -3.9615  -3.9543  -3.9490  -3.8554  -3.7777
    -3.7731  -3.7642  -3.7570  -3.7095  -3.6577  -3.6552  -3.6345  -3.5650
    -3.4905  -3.4839  -3.4710  -3.4408  -3.4316  -3.3793  -3.3312  -3.3250
    -3.3136  -3.3021  -3.2608  -3.1653  -3.0986  -3.0697  -3.0053  -2.9900
    -2.9705  -2.9594  -2.9294  -2.9271  -2.9150  -2.9009  -2.8482  -2.8260
    -2.8192  -2.7867  -2.7555  -2.7138  -2.6120  -2.6015  -2.5912  -2.5693
    -2.5371  -2.4919  -2.4761  -2.4675  -2.4566  -2.3866  -2.3367  -2.3283
    -2.3244  -2.3172  -2.3056  -2.2878  -2.2718  -2.2674  -2.2504  -2.2057
    -2.1885  -2.1695  -2.1539  -2.1333  -2.1003  -2.0848  -2.0523  -2.0175
    -2.0000  -1.9948  -1.9661  -1.9550  -1.9253  -1.8964  -1.8902  -1.8779
    -1.8700  -1.8537  -1.8466  -1.8216  -1.8139  -1.8069  -1.8007  -1.7756
    -1.7568  -1.7328  -1.7026  -1.6959  -1.6340  -1.6205  -1.5906  -1.5740
    -1.5626  -1.5525  -1.5306  -1.4857  -1.4768  -1.4708  -1.4600  -1.4543
    -1.4432  -1.4400  -1.4300  -1.4242  -1.4178  -1.4118  -1.3972  -1.3736
    -1.3539  -1.3341  -1.3018  -1.2467  -1.2242  -1.2183  -1.2030  -1.1639
    -1.1576  -1.1143  -1.0938  -1.0753  -1.0672  -1.0228  -1.0119  -0.9745
    -0.9515  -0.9136  -0.8978  -0.8937  -0.8624  -0.8328  -0.8048  -0.7745
    -0.7453  -0.7027  -0.6936  -0.6760  -0.6695  -0.6616  -0.6557  -0.6424
    -0.6308  -0.6256  -0.5297  -0.5222  -0.5199  -0.5030  -0.4910  -0.4800
    -0.4701  -0.4591  -0.4435  -0.4321  -0.4145  -0.3854  -0.3362  -0.3221
    -0.3150  -0.3031  -0.2711  -0.2312  -0.2227  -0.1912  -0.1843  -0.1462
    -0.1076  -0.1007  -0.0971  -0.0787  -0.0752  -0.0722  -0.0530  -0.0147
     0.0291   0.0744   0.4111   0.7724   0.9277   1.0739   1.1623   1.2300
     1.4991   1.5378

          k = 0.4000-0.6928 0.0000 ( 51262 PWs)   bands (ev):

   -21.9583  -9.3299  -6.6909  -6.6372  -6.1238  -5.9937  -5.8979  -5.4515
    -5.2708  -5.1890  -4.7610  -4.4378  -4.2127  -4.1561  -4.0970  -4.0236
    -4.0170  -3.9967  -3.9880  -3.9616  -3.9235  -3.9086  -3.9049  -3.8963
    -3.8372  -3.7824  -3.7584  -3.7514  -3.7272  -3.7184  -3.6291  -3.5814
    -3.5729  -3.5633  -3.5467  -3.5007  -3.4612  -3.3997  -3.3172  -3.2789
    -3.2735  -3.2499  -3.1866  -3.1771  -3.1482  -3.0861  -3.0655  -3.0566
    -3.0466  -2.9863  -2.9659  -2.8970  -2.8596  -2.8370  -2.8183  -2.7759
    -2.7515  -2.6994  -2.6880  -2.6831  -2.6728  -2.6588  -2.6107  -2.6008
    -2.5319  -2.4819  -2.4707  -2.4585  -2.4500  -2.4039  -2.3915  -2.3369
    -2.3255  -2.2908  -2.2864  -2.2723  -2.2612  -2.2483  -2.2182  -2.2043
    -2.1946  -2.1853  -2.1677  -2.1496  -2.1433  -2.1094  -2.0856  -2.0639
    -2.0445  -2.0315  -1.9783  -1.9515  -1.9212  -1.9138  -1.9025  -1.8896
    -1.8636  -1.8603  -1.8412  -1.8306  -1.8292  -1.8028  -1.7931  -1.7739
    -1.7314  -1.7127  -1.7022  -1.6986  -1.6829  -1.6761  -1.6734  -1.6616
    -1.6536  -1.6470  -1.6232  -1.6102  -1.5710  -1.5537  -1.5348  -1.5302
    -1.4649  -1.4582  -1.4329  -1.4041  -1.3888  -1.3771  -1.3641  -1.3472
    -1.2992  -1.2938  -1.2732  -1.2241  -1.1784  -1.1620  -1.1538  -1.1262
    -1.1143  -1.0969  -1.0858  -1.0771  -1.0553  -1.0334  -1.0007  -0.9829
    -0.9514  -0.9416  -0.9274  -0.9108  -0.8988  -0.8718  -0.8407  -0.8354
    -0.8091  -0.7989  -0.7857  -0.7667  -0.7539  -0.7351  -0.7059  -0.5880
    -0.5434  -0.5352  -0.5255  -0.5120  -0.5088  -0.4955  -0.4806  -0.4582
    -0.4483  -0.4315  -0.4302  -0.4206  -0.3583  -0.3059  -0.2979  -0.2905
    -0.2828  -0.2669  -0.2484  -0.2228  -0.2033  -0.1951  -0.1858  -0.1730
    -0.1669  -0.1263  -0.0987  -0.0904  -0.0780  -0.0618  -0.0444   0.0047
     0.1850   0.3065   0.6069   0.8831   0.9799   1.2082   1.2832   1.6144
     1.7087   1.7492

          k = 0.4000-0.4619 0.0000 ( 51262 PWs)   bands (ev):

   -21.9583  -9.3304  -6.6848  -6.6364  -6.1341  -6.0015  -5.8674  -5.4962
    -5.2508  -5.1846  -4.7589  -4.4384  -4.2056  -4.1543  -4.1034  -4.0276
    -4.0169  -3.9969  -3.9896  -3.9669  -3.9201  -3.9080  -3.9050  -3.8979
    -3.8382  -3.7849  -3.7591  -3.7512  -3.7289  -3.7166  -3.6329  -3.5840
    -3.5725  -3.5579  -3.5462  -3.4909  -3.4379  -3.4027  -3.3225  -3.2786
    -3.2743  -3.2574  -3.1866  -3.1734  -3.1496  -3.1210  -3.0656  -3.0556
    -3.0303  -2.9876  -2.9439  -2.8960  -2.8595  -2.8402  -2.8287  -2.7752
    -2.7598  -2.6980  -2.6928  -2.6785  -2.6733  -2.6536  -2.6266  -2.5841
    -2.5297  -2.4779  -2.4706  -2.4614  -2.4539  -2.4001  -2.3838  -2.3369
    -2.3258  -2.2903  -2.2808  -2.2772  -2.2672  -2.2510  -2.2240  -2.2084
    -2.1957  -2.1844  -2.1695  -2.1517  -2.1456  -2.1058  -2.0791  -2.0624
    -2.0510  -2.0374  -1.9722  -1.9581  -1.9308  -1.9080  -1.8922  -1.8875
    -1.8664  -1.8582  -1.8491  -1.8348  -1.8263  -1.8036  -1.7965  -1.7804
    -1.7333  -1.7140  -1.7031  -1.6966  -1.6832  -1.6737  -1.6674  -1.6639
    -1.6489  -1.6477  -1.6233  -1.5990  -1.5684  -1.5541  -1.5397  -1.5242
    -1.4703  -1.4585  -1.4318  -1.4013  -1.3916  -1.3774  -1.3688  -1.3382
    -1.3021  -1.2912  -1.2732  -1.2028  -1.1870  -1.1651  -1.1528  -1.1304
    -1.1142  -1.1012  -1.0839  -1.0689  -1.0497  -1.0334  -1.0084  -0.9926
    -0.9505  -0.9439  -0.9252  -0.9185  -0.8920  -0.8685  -0.8364  -0.8250
    -0.8167  -0.7960  -0.7793  -0.7681  -0.7617  -0.7340  -0.7070  -0.5843
    -0.5463  -0.5341  -0.5232  -0.5172  -0.5036  -0.4971  -0.4852  -0.4650
    -0.4435  -0.4397  -0.4272  -0.4110  -0.3617  -0.3171  -0.2967  -0.2908
    -0.2734  -0.2670  -0.2502  -0.2288  -0.2087  -0.1940  -0.1897  -0.1725
    -0.1609  -0.1159  -0.0972  -0.0920  -0.0792  -0.0617  -0.0433   0.0055
     0.1798   0.3039   0.5779   0.8757   1.0240   1.2101   1.3032   1.5940
     1.7141   1.7523

 ------ SPIN DOWN ----------


          k = 0.0000 0.0000 0.0000 ( 51087 PWs)   bands (ev):

   -22.0300  -9.4348  -7.7558  -6.4794  -6.0216  -5.8055  -5.4419  -4.6303
    -4.5996  -4.5965  -4.5933  -4.5721  -4.5563  -4.4758  -3.7514  -3.7252
    -3.7205  -3.7051  -3.6943  -3.6885  -3.6058  -3.1450  -2.7870  -2.7794
    -2.7727  -2.7636  -2.7013  -2.5809  -2.3259  -2.3156  -2.3091  -2.3039
    -2.2856  -2.2762  -2.1139  -2.1078  -2.0445  -2.0266  -2.0136  -2.0121
    -1.9298  -1.9257  -1.8778  -1.8737  -1.8342  -1.8084  -1.7945  -1.7658
    -1.7469  -1.7134  -1.5412  -1.5352  -1.5140  -1.5009  -1.4848  -1.4835
    -1.4730  -1.4715  -1.4416  -1.4383  -1.4113  -1.3973  -1.3934  -1.3926
    -1.3104  -1.2678  -0.8910  -0.8447  -0.8276  -0.8166  -0.8034  -0.7320
    -0.6443  -0.6112  -0.5246  -0.5099  -0.4981  -0.4901  -0.4802  -0.4710
    -0.4489  -0.4309  -0.4060  -0.4010  -0.3969  -0.3962  -0.3538  -0.3395
    -0.3350  -0.3021  -0.2889  -0.2864  -0.2620  -0.2497  -0.2415  -0.2373
    -0.2327  -0.2237  -0.2140  -0.2119  -0.2080  -0.2054  -0.1493  -0.1145
    -0.1061  -0.0803  -0.0654  -0.0563   0.0038   0.0111   0.0185   0.0204
     0.0236   0.0270   0.0313   0.0491   0.1004   0.1022   0.1529   0.1782
     0.1883   0.1964   0.2049   0.2264   0.2721   0.4097   0.4206   0.4589
     0.4776   0.4968   0.5085   0.5104   0.5826   0.7157   0.7934   0.8266
     0.8450   0.8864   0.9756   1.0180   1.0334   1.0658   1.0745   1.0767
     1.1403   1.2180   1.2244   1.2304   1.2436   1.2514   1.2583   1.2798
     1.2910   1.3099   1.3188   1.3348   1.3466   1.3500   1.3599   1.3910
     1.3973   1.4007   1.4038   1.4117   1.4455   1.4583   1.4679   1.4773
     1.4870   1.5051   1.5101   1.5174   1.5258   1.5323   1.5339   1.5675
     1.5722   1.5927   1.5965   1.6040   1.6130   1.6200   1.6247   1.6578
     1.6611   1.6673   1.6695   1.6743   1.6792   1.6861   1.6932   1.6967
     1.7031   1.7479   1.7496   1.8899   1.8985   1.9018   1.9029   1.9061
     1.9092   1.9834

          k = 0.0000 0.2309 0.0000 ( 51134 PWs)   bands (ev):

   -22.0300  -9.4270  -7.6115  -6.3785  -6.0253  -5.8308  -5.5461  -5.4022
    -4.9707  -4.9542  -4.4642  -4.3350  -4.0508  -4.0431  -3.9435  -3.9216
    -3.7561  -3.5405  -3.3999  -3.3704  -3.3060  -3.1734  -2.9109  -2.7756
    -2.7451  -2.7012  -2.6523  -2.5893  -2.4177  -2.3477  -2.3410  -2.3364
    -2.3005  -2.2965  -2.2538  -2.2493  -2.2152  -2.2005  -2.0774  -2.0645
    -1.9868  -1.9829  -1.9550  -1.8586  -1.8251  -1.7906  -1.7820  -1.6852
    -1.6601  -1.6396  -1.5833  -1.5519  -1.5326  -1.5156  -1.4901  -1.4873
    -1.4789  -1.4713  -1.3865  -1.3667  -1.3522  -1.3357  -1.3013  -1.2533
    -1.2377  -1.1414  -0.9522  -0.9177  -0.8753  -0.8682  -0.8179  -0.7674
    -0.7304  -0.6979  -0.6607  -0.6245  -0.6064  -0.5449  -0.5307  -0.5186
    -0.4723  -0.4592  -0.4577  -0.4504  -0.4373  -0.4101  -0.3957  -0.3633
    -0.3403  -0.3030  -0.2861  -0.2850  -0.2657  -0.2459  -0.2311  -0.2114
    -0.2048  -0.2004  -0.1908  -0.1853  -0.1830  -0.1797  -0.1560  -0.1377
    -0.1188  -0.0983  -0.0907  -0.0801  -0.0537  -0.0368  -0.0240  -0.0082
     0.0097   0.0337   0.0547   0.0735   0.1135   0.1305   0.1362   0.1678
     0.2521   0.2888   0.3237   0.3724   0.3891   0.4031   0.4430   0.4516
     0.4616   0.4670   0.4812   0.4903   0.6113   0.7022   0.7886   0.8139
     0.8196   0.8316   0.8437   0.8538   0.9043   0.9227   0.9733   0.9906
     1.0272   1.0367   1.0825   1.1040   1.1282   1.1460   1.1727   1.2226
     1.2346   1.2647   1.2790   1.2992   1.3089   1.3166   1.3546   1.3639
     1.3932   1.4072   1.4410   1.4515   1.4729   1.4836   1.4935   1.5086
     1.5467   1.5585   1.5627   1.5671   1.5923   1.6414   1.6478   1.6563
     1.6614   1.6755   1.6923   1.7148   1.7169   1.7332   1.7404   1.7452
     1.7659   1.8057   1.8105   1.8261   1.8334   1.8403   1.8538   1.8685
     1.8883   1.8920   1.9020   1.9227   1.9878   2.0012   2.0067   2.0559
     2.0838   2.1202

          k = 0.0000 0.4619 0.0000 ( 51204 PWs)   bands (ev):

   -22.0300  -9.4146  -7.1840  -6.5070  -6.1587  -5.9994  -5.7084  -5.3891
    -5.1904  -5.1471  -5.0214  -4.1399  -4.0633  -3.9829  -3.5741  -3.4345
    -3.4243  -3.3195  -3.2532  -3.1428  -3.0329  -2.9815  -2.9489  -2.8290
    -2.8252  -2.7620  -2.7133  -2.6891  -2.6363  -2.5852  -2.5721  -2.5270
    -2.5005  -2.4268  -2.2986  -2.2860  -2.2182  -2.2105  -2.0994  -2.0943
    -2.0785  -2.0704  -2.0586  -1.8408  -1.7967  -1.7802  -1.7447  -1.7309
    -1.5823  -1.5640  -1.5519  -1.5412  -1.5382  -1.5041  -1.4971  -1.4838
    -1.4637  -1.3904  -1.3769  -1.3607  -1.3489  -1.3301  -1.1869  -1.1501
    -1.0664  -1.0130  -0.9390  -0.9073  -0.8956  -0.8642  -0.8425  -0.8263
    -0.8100  -0.7969  -0.7767  -0.7439  -0.7045  -0.6649  -0.6532  -0.6230
    -0.5907  -0.5759  -0.5469  -0.5382  -0.5028  -0.4884  -0.4381  -0.3755
    -0.3642  -0.3436  -0.3367  -0.3057  -0.2868  -0.2635  -0.2289  -0.2182
    -0.1799  -0.1731  -0.1568  -0.1430  -0.1318  -0.1266  -0.1095  -0.0787
    -0.0725  -0.0485  -0.0378  -0.0327  -0.0211  -0.0112   0.0061   0.0181
     0.0311   0.0582   0.0786   0.1295   0.1754   0.1793   0.2008   0.2328
     0.2393   0.2555   0.2658   0.3013   0.3372   0.3536   0.3570   0.3825
     0.4189   0.4226   0.4464   0.4575   0.4939   0.5500   0.6250   0.6373
     0.6863   0.7194   0.7530   0.8189   0.8582   0.8842   0.9016   0.9154
     0.9369   0.9543   0.9823   1.0038   1.0187   1.0795   1.1621   1.2063
     1.2193   1.2497   1.2663   1.2918   1.3277   1.3389   1.3638   1.3781
     1.4062   1.4255   1.4313   1.4816   1.5085   1.5206   1.5599   1.5723
     1.5804   1.5841   1.6128   1.6326   1.6471   1.6582   1.6690   1.6945
     1.7039   1.7627   1.7655   1.8015   1.8137   1.8342   1.8414   1.8582
     1.8645   1.8874   1.8924   1.9080   1.9254   1.9308   1.9400   1.9423
     1.9880   2.0278   2.0595   2.1354   2.1528   2.2518   2.5812   2.6537
     2.6774   2.7212

          k = 0.2000-0.1155 0.0000 ( 51134 PWs)   bands (ev):

   -22.0300  -9.4258  -7.6127  -6.3847  -6.0495  -5.7897  -5.5533  -5.4085
    -4.9655  -4.9572  -4.4622  -4.3405  -4.0504  -4.0430  -3.9556  -3.9046
    -3.7597  -3.5436  -3.4101  -3.3702  -3.2840  -3.1542  -2.9452  -2.7668
    -2.7376  -2.7157  -2.6558  -2.5695  -2.4326  -2.3478  -2.3411  -2.3329
    -2.3057  -2.2857  -2.2553  -2.2531  -2.2127  -2.2016  -2.0747  -2.0658
    -1.9889  -1.9846  -1.9569  -1.8414  -1.8172  -1.7929  -1.7727  -1.6913
    -1.6553  -1.6394  -1.5820  -1.5532  -1.5363  -1.5089  -1.4912  -1.4885
    -1.4781  -1.4561  -1.3992  -1.3650  -1.3515  -1.3325  -1.3073  -1.2758
    -1.2275  -1.1421  -0.9525  -0.9175  -0.8754  -0.8712  -0.8267  -0.7595
    -0.7389  -0.7184  -0.6693  -0.6224  -0.6022  -0.5466  -0.5218  -0.5124
    -0.4724  -0.4680  -0.4537  -0.4450  -0.4319  -0.4150  -0.4053  -0.3702
    -0.3237  -0.3031  -0.2871  -0.2840  -0.2745  -0.2523  -0.2240  -0.2164
    -0.2038  -0.1935  -0.1919  -0.1840  -0.1833  -0.1791  -0.1631  -0.1354
    -0.1112  -0.0968  -0.0828  -0.0782  -0.0722  -0.0448  -0.0351  -0.0076
     0.0223   0.0280   0.0673   0.0810   0.1072   0.1298   0.1375   0.1679
     0.2557   0.2959   0.3254   0.3673   0.3931   0.4130   0.4335   0.4469
     0.4598   0.4666   0.4859   0.4910   0.5965   0.7245   0.7864   0.8083
     0.8164   0.8323   0.8453   0.8586   0.9026   0.9128   0.9760   0.9975
     1.0290   1.0578   1.0852   1.1142   1.1349   1.1502   1.1760   1.1883
     1.2390   1.2587   1.2793   1.2952   1.3047   1.3189   1.3544   1.3636
     1.3851   1.4066   1.4341   1.4549   1.4719   1.4868   1.5022   1.5301
     1.5468   1.5578   1.5642   1.5664   1.5856   1.6294   1.6451   1.6509
     1.6591   1.6769   1.6893   1.7163   1.7212   1.7323   1.7394   1.7520
     1.7631   1.8075   1.8097   1.8296   1.8340   1.8403   1.8511   1.8675
     1.8814   1.8909   1.9003   1.9120   1.9872   2.0011   2.0093   2.0574
     2.0823   2.1282

          k = 0.2000 0.1155 0.0000 ( 51134 PWs)   bands (ev):

   -22.0300  -9.4255  -7.6131  -6.3883  -6.0581  -5.7749  -5.5294  -5.4373
    -4.9620  -4.9581  -4.4643  -4.3371  -4.0484  -4.0444  -3.9502  -3.9133
    -3.7574  -3.5444  -3.4103  -3.3731  -3.2816  -3.1498  -2.9454  -2.7875
    -2.7290  -2.6965  -2.6723  -2.5617  -2.4395  -2.3484  -2.3414  -2.3303
    -2.3057  -2.2859  -2.2545  -2.2452  -2.2131  -2.2054  -2.0745  -2.0697
    -1.9904  -1.9844  -1.9383  -1.8428  -1.8224  -1.7921  -1.7845  -1.6738
    -1.6614  -1.6471  -1.5752  -1.5623  -1.5382  -1.5059  -1.4910  -1.4880
    -1.4809  -1.4353  -1.3980  -1.3785  -1.3548  -1.3366  -1.3080  -1.2726
    -1.2340  -1.1338  -0.9548  -0.9205  -0.8742  -0.8577  -0.8109  -0.7878
    -0.7474  -0.7045  -0.6613  -0.6248  -0.6036  -0.5474  -0.5314  -0.4999
    -0.4805  -0.4648  -0.4558  -0.4469  -0.4383  -0.4191  -0.4067  -0.3654
    -0.3183  -0.3010  -0.2864  -0.2849  -0.2751  -0.2491  -0.2224  -0.2136
    -0.2045  -0.1960  -0.1909  -0.1853  -0.1834  -0.1826  -0.1500  -0.1357
    -0.1103  -0.1002  -0.0856  -0.0804  -0.0695  -0.0432  -0.0290  -0.0157
     0.0204   0.0314   0.0782   0.0902   0.0958   0.1249   0.1385   0.1691
     0.2388   0.2942   0.3311   0.3604   0.3822   0.4064   0.4337   0.4464
     0.4571   0.4725   0.4863   0.4900   0.6343   0.7040   0.7886   0.8045
     0.8173   0.8258   0.8504   0.8622   0.8877   0.9147   0.9550   0.9891
     1.0094   1.0771   1.0918   1.1149   1.1333   1.1597   1.1759   1.1860
     1.2365   1.2688   1.2923   1.3010   1.3065   1.3160   1.3539   1.3624
     1.3837   1.4077   1.4385   1.4633   1.4701   1.4867   1.5029   1.5206
     1.5435   1.5545   1.5636   1.5700   1.5839   1.6286   1.6390   1.6505
     1.6609   1.6751   1.6947   1.7178   1.7232   1.7322   1.7401   1.7501
     1.7649   1.8077   1.8113   1.8283   1.8326   1.8412   1.8479   1.8667
     1.8828   1.8951   1.9000   1.9036   1.9873   1.9991   2.0097   2.0496
     2.0846   2.1319

          k = 0.2000 0.3464 0.0000 ( 51202 PWs)   bands (ev):

   -22.0300  -9.4154  -7.3274  -6.2524  -6.1235  -5.9793  -5.8144  -5.6347
    -5.4104  -4.7132  -4.5969  -4.2439  -4.2224  -4.1469  -3.4907  -3.4108
    -3.3940  -3.3912  -3.3589  -3.2550  -3.1301  -3.1073  -3.0726  -2.8751
    -2.7254  -2.6512  -2.6401  -2.6226  -2.5538  -2.5375  -2.5228  -2.4441
    -2.4391  -2.4256  -2.3981  -2.3543  -2.2776  -2.2278  -2.0745  -2.0525
    -2.0271  -1.9860  -1.9556  -1.9190  -1.9062  -1.7643  -1.7139  -1.7027
    -1.6535  -1.5781  -1.5393  -1.5326  -1.5162  -1.5083  -1.4915  -1.4778
    -1.4571  -1.4461  -1.3911  -1.3573  -1.3181  -1.2694  -1.1825  -1.1500
    -1.0733  -1.0560  -0.9585  -0.9414  -0.8816  -0.8375  -0.8241  -0.7946
    -0.7829  -0.7536  -0.7426  -0.7013  -0.6727  -0.6523  -0.6375  -0.6189
    -0.6039  -0.5764  -0.5672  -0.5463  -0.5235  -0.4361  -0.4151  -0.3892
    -0.3753  -0.3647  -0.3327  -0.3101  -0.2859  -0.2694  -0.2589  -0.2425
    -0.2274  -0.2095  -0.2014  -0.1767  -0.1677  -0.1480  -0.1365  -0.1022
    -0.0923  -0.0825  -0.0720  -0.0515  -0.0392  -0.0352  -0.0194  -0.0083
     0.0300   0.0754   0.0810   0.0957   0.1821   0.2049   0.2348   0.2563
     0.2818   0.3061   0.3291   0.3353   0.3841   0.3991   0.4048   0.4151
     0.4268   0.4432   0.4768   0.4924   0.5613   0.6330   0.6605   0.7234
[...]
     atom    8 type  1   force =    -0.00325302   -0.00098369   -0.10435679
     atom    9 type  1   force =     0.00437057   -0.00036479   -0.10519485
     atom   10 type  1   force =    -0.00045565    0.00060456   -0.00951587
     atom   11 type  1   force =    -0.00019632   -0.00028835   -0.00732737
     atom   12 type  1   force =     0.00050639    0.00053443   -0.00853014
     atom   13 type  1   force =     0.00009942   -0.00145929   -0.01105518
     atom   14 type  1   force =    -0.00010955   -0.00136789   -0.01139196
     atom   15 type  1   force =    -0.00059988   -0.00050133   -0.01306364
     atom   16 type  1   force =    -0.00048490    0.00178060   -0.01654184
     atom   17 type  1   force =     0.00198706   -0.00036369   -0.00867892
     atom   18 type  1   force =    -0.00139750    0.00140122   -0.01250012
     atom   19 type  1   force =     0.00266805    0.00391496    0.00949617
     atom   20 type  1   force =    -0.00041885    0.01755751   -0.00262645
     atom   21 type  1   force =    -0.00191869   -0.00020699    0.01482445
     atom   22 type  1   force =     0.00013699    0.00066145    0.01862081
     atom   23 type  1   force =    -0.00080613   -0.00098514    0.01327029
     atom   24 type  1   force =    -0.00089944    0.00039478    0.01273638
     atom   25 type  1   force =    -0.00417811   -0.00287649    0.00591093
     atom   26 type  1   force =    -0.00911849   -0.00923136   -0.00387786
     atom   27 type  1   force =     0.01498889   -0.00752040   -0.00151498
     atom   28 type  1   force =     0.04469253   -0.01383556    0.11350986
     atom   29 type  1   force =    -0.08274722   -0.01981440    0.07351231
     atom   30 type  1   force =    -0.00379163    0.00039935    0.12404852
     atom   31 type  1   force =     0.00387544   -0.02432912    0.13878031
     atom   32 type  1   force =    -0.00051472   -0.00810533    0.12545384
     atom   33 type  1   force =    -0.00047204   -0.00042214    0.10551650
     atom   34 type  1   force =     0.00158303    0.00123247    0.11497075
     atom   35 type  1   force =    -0.00028527    0.04402048    0.14135243
     atom   36 type  1   force =     0.00142444    0.00865313    0.12545476
     atom   37 type  2   force =    -0.02193621   -0.04932901    0.40037827
     atom   38 type  3   force =     0.69653395    0.17823055   -2.62087297
     atom   39 type  4   force =    -0.00974937   -0.00198276   -0.02745481
     The ionic contribution  to forces
     atom    1 type  1   force =    -0.00591879    0.00827312 -111.13526666
     atom    2 type  1   force =     0.00513934    0.00864143 -111.13681854
     atom    3 type  1   force =     0.00077942    0.00228710 -111.12506169
     atom    4 type  1   force =    -0.00007926    0.00173745 -111.12397781
     atom    5 type  1   force =    -0.00250810   -0.00566341 -111.12908738
     atom    6 type  1   force =     0.00258736   -0.00650427 -111.12892237
     atom    7 type  1   force =    -0.00773000   -0.00208460 -111.13229712
     atom    8 type  1   force =    -0.00069704   -0.00409485 -111.14924551
     atom    9 type  1   force =     0.00842709   -0.00259200 -111.13370058
     atom   10 type  1   force =    -0.06234538    0.01402487  -40.17820563
     atom   11 type  1   force =     0.05628864    0.01228549  -40.19021553
     atom   12 type  1   force =     0.00604721    0.00438329  -40.06714469
     atom   13 type  1   force =    -0.00418142    0.06911300  -40.09805698
     atom   14 type  1   force =     0.02327167    0.01744443  -40.05954579
     atom   15 type  1   force =    -0.01908698    0.01304283  -40.05119979
     atom   16 type  1   force =    -0.03450619   -0.02482619  -40.06197208
     atom   17 type  1   force =    -0.00137661   -0.07485259  -40.13450551
     atom   18 type  1   force =     0.03588589   -0.03061358  -40.06475613
     atom   19 type  1   force =    -0.29638931    0.41886832   31.26446844
     atom   20 type  1   force =     0.25584223    0.44652507   31.19089908
     atom   21 type  1   force =     0.03958118    0.10157123   31.71968491
     atom   22 type  1   force =    -0.00367637    0.07307563   31.76862851
     atom   23 type  1   force =    -0.12028504   -0.27185233   31.56017133
     atom   24 type  1   force =     0.12386088   -0.30461699   31.57170749
     atom   25 type  1   force =    -0.38260576   -0.09617272   31.41144799
     atom   26 type  1   force =    -0.03293778   -0.23894665   30.46477376
     atom   27 type  1   force =     0.41710893   -0.13239206   31.33462335
     atom   28 type  1   force =    -4.65424221    1.10587771   98.66211950
     atom   29 type  1   force =     3.80318172    0.82559230   97.74065949
     atom   30 type  1   force =     0.37912621    0.09572846  104.01667789
     atom   31 type  1   force =    -0.10256948    2.73364704  103.26576069
     atom   32 type  1   force =     0.69753190    0.69962454  104.21107494
     atom   33 type  1   force =    -0.57087732    0.45706655  104.36604880
     atom   34 type  1   force =    -1.15409985   -0.87327406  104.08482670
     atom   35 type  1   force =     0.04932273   -3.82859724  101.78159289
     atom   36 type  1   force =     1.13125230   -1.05884530  104.12463505
     atom   37 type  2   force =     1.72496384    0.29693519   51.45271411
     atom   38 type  3   force =    -2.61100434   -0.72754025   89.77361312
     atom   39 type  4   force =     1.30691870    0.27772404   15.33385175
     The local contribution  to forces
     atom    1 type  1   force =     0.00323452   -0.00645843  111.24201344
     atom    2 type  1   force =    -0.00352094   -0.01195934  111.24284013
     atom    3 type  1   force =     0.00077180   -0.00061514  111.22944174
     atom    4 type  1   force =    -0.00017526   -0.00239545  111.23069793
     atom    5 type  1   force =     0.00144618    0.00508437  111.23474022
     atom    6 type  1   force =    -0.00088246    0.00494897  111.23610508
     atom    7 type  1   force =     0.00962897    0.00239527  111.24035483
     atom    8 type  1   force =     0.00380905    0.00565420  111.25736419
     atom    9 type  1   force =    -0.01349208    0.00431714  111.24170547
     atom   10 type  1   force =     0.06137872   -0.01596508   40.16772750
     atom   11 type  1   force =    -0.05538786   -0.01274613   40.17574635
     atom   12 type  1   force =    -0.00604890   -0.00494952   40.05666859
     atom   13 type  1   force =     0.00382439   -0.06680144   40.09259638
     atom   14 type  1   force =    -0.02380535   -0.01593098   40.05116545
     atom   15 type  1   force =     0.02017283   -0.01261857   40.04321592
     atom   16 type  1   force =     0.03480174    0.02435292   40.05772204
     atom   17 type  1   force =    -0.00096479    0.07479852   40.12675964
     atom   18 type  1   force =    -0.03370696    0.02984680   40.05818602
     atom   19 type  1   force =     0.29480807   -0.41990510  -31.25713910
     atom   20 type  1   force =    -0.25618531   -0.46180890  -31.17260126
     atom   21 type  1   force =    -0.03656203   -0.10074051  -31.71202850
     atom   22 type  1   force =     0.00251298   -0.07480105  -31.76179633
     atom   23 type  1   force =     0.12042475    0.27125425  -31.55014454
     atom   24 type  1   force =    -0.12253838    0.30370290  -31.56422795
     atom   25 type  1   force =     0.38435555    0.09812438  -31.40092081
     atom   26 type  1   force =     0.04168373    0.24735520  -30.45077351
     atom   27 type  1   force =    -0.43287749    0.13965290  -31.31742528
     atom   28 type  1   force =     4.57901524   -1.08609453  -98.79091671
     atom   29 type  1   force =    -3.71443071   -0.80706711  -97.77975453
     atom   30 type  1   force =    -0.37337984   -0.09689433 -104.14638273
     atom   31 type  1   force =     0.09386056   -2.69524888 -103.41434691
     atom   32 type  1   force =    -0.69474880   -0.68623419 -104.34526308
     atom   33 type  1   force =     0.57116454   -0.45574376 -104.48145918
     atom   34 type  1   force =     1.15036413    0.87018805 -104.20754500
     atom   35 type  1   force =    -0.05267569    3.76984316 -101.92913432
     atom   36 type  1   force =    -1.12706811    1.04223690 -104.25807150
     atom   37 type  2   force =    -1.70703177   -0.25103256  -51.85380187
     atom   38 type  3   force =     1.93229531    0.54858895  -87.16861229
     atom   39 type  4   force =    -1.26788563   -0.26979387  -15.31950602
     The core correction contribution to forces
     atom    1 type  1   force =    -0.00005274    0.00006583    0.00980075
     atom    2 type  1   force =     0.00008279   -0.00023541    0.01014782
     atom    3 type  1   force =     0.00023732    0.00005290    0.00971606
     atom    4 type  1   force =     0.00009879   -0.00009711    0.01023777
     atom    5 type  1   force =     0.00018232   -0.00002419    0.01002395
     atom    6 type  1   force =     0.00001798   -0.00005192    0.00982725
     atom    7 type  1   force =     0.00006210    0.00009252    0.01015370
     atom    8 type  1   force =     0.00030419    0.00031983    0.00997111
     atom    9 type  1   force =    -0.00043703    0.00000278    0.01023906
     atom   10 type  1   force =    -0.00023286    0.00014536   -0.00189732
     atom   11 type  1   force =     0.00010707    0.00014946   -0.00155063
     atom   12 type  1   force =     0.00012895    0.00009588   -0.00168453
     atom   13 type  1   force =    -0.00034661    0.00022350   -0.00180088
     atom   14 type  1   force =     0.00014016    0.00008336   -0.00188228
     atom   15 type  1   force =     0.00019733   -0.00005854   -0.00168869
     atom   16 type  1   force =    -0.00020397   -0.00001943   -0.00184063
     atom   17 type  1   force =    -0.00015960   -0.00008951   -0.00179384
     atom   18 type  1   force =     0.00010013   -0.00024422   -0.00179944
     atom   19 type  1   force =    -0.00004322    0.00040089    0.00110972
     atom   20 type  1   force =    -0.00011282    0.00076212   -0.00001010
     atom   21 type  1   force =     0.00045088    0.00011432    0.00186598
     atom   22 type  1   force =     0.00022713    0.00021342    0.00206397
     atom   23 type  1   force =    -0.00017205    0.00004128    0.00197662
     atom   24 type  1   force =     0.00047353   -0.00052678    0.00132001
     atom   25 type  1   force =     0.00041437   -0.00022902    0.00194251
     atom   26 type  1   force =    -0.00077657   -0.00054402    0.00048647
     atom   27 type  1   force =     0.00064792   -0.00031908    0.00067156
     atom   28 type  1   force =     0.01048062   -0.00170485   -0.00376499
     atom   29 type  1   force =    -0.01301259   -0.00224680    0.00628147
     atom   30 type  1   force =    -0.00577871    0.00037140   -0.00719459
     atom   31 type  1   force =     0.00105251   -0.00641498   -0.00729337
     atom   32 type  1   force =    -0.00143111   -0.00455560   -0.00730606
     atom   33 type  1   force =     0.00028141   -0.00082586   -0.01038679
     atom   34 type  1   force =     0.00088844    0.00102657   -0.00946214
     atom   35 type  1   force =     0.00066660    0.00822159   -0.00587841
     atom   36 type  1   force =    -0.00188902    0.00439218   -0.00754802
     atom   37 type  2   force =    -0.00144823    0.00036192   -0.00115864
     atom   38 type  3   force =    -0.00527421   -0.00130441    0.01926597
     atom   39 type  4   force =     0.00000000    0.00000000    0.00000000
     The Hubbard contrib.    to forces
     atom    1 type  1   force =     0.00000000    0.00000000    0.00000000
     atom    2 type  1   force =     0.00000000    0.00000000    0.00000000
     atom    3 type  1   force =     0.00000000    0.00000000    0.00000000
     atom    4 type  1   force =     0.00000000    0.00000000    0.00000000
     atom    5 type  1   force =     0.00000000    0.00000000    0.00000000
     atom    6 type  1   force =     0.00000000    0.00000000    0.00000000
     atom    7 type  1   force =     0.00000000    0.00000000    0.00000000
     atom    8 type  1   force =     0.00000000    0.00000000    0.00000000
     atom    9 type  1   force =     0.00000000    0.00000000    0.00000000
     atom   10 type  1   force =     0.00000000    0.00000000    0.00000000
     atom   11 type  1   force =     0.00000000    0.00000000    0.00000000
     atom   12 type  1   force =     0.00000000    0.00000000    0.00000000
     atom   13 type  1   force =     0.00000000    0.00000000    0.00000000
     atom   14 type  1   force =     0.00000000    0.00000000    0.00000000
     atom   15 type  1   force =     0.00000000    0.00000000    0.00000000
     atom   16 type  1   force =     0.00000000    0.00000000    0.00000000
     atom   17 type  1   force =     0.00000000    0.00000000    0.00000000
     atom   18 type  1   force =     0.00000000    0.00000000    0.00000000
     atom   19 type  1   force =     0.00000000    0.00000000    0.00000000
     atom   20 type  1   force =     0.00000000    0.00000000    0.00000000
     atom   21 type  1   force =     0.00000000    0.00000000    0.00000000
     atom   22 type  1   force =     0.00000000    0.00000000    0.00000000
     atom   23 type  1   force =     0.00000000    0.00000000    0.00000000
     atom   24 type  1   force =     0.00000000    0.00000000    0.00000000
     atom   25 type  1   force =     0.00000000    0.00000000    0.00000000
     atom   26 type  1   force =     0.00000000    0.00000000    0.00000000
     atom   27 type  1   force =     0.00000000    0.00000000    0.00000000
     atom   28 type  1   force =     0.00000000    0.00000000    0.00000000
     atom   29 type  1   force =     0.00000000    0.00000000    0.00000000
     atom   30 type  1   force =     0.00000000    0.00000000    0.00000000
     atom   31 type  1   force =     0.00000000    0.00000000    0.00000000
     atom   32 type  1   force =     0.00000000    0.00000000    0.00000000
     atom   33 type  1   force =     0.00000000    0.00000000    0.00000000
     atom   34 type  1   force =     0.00000000    0.00000000    0.00000000
     atom   35 type  1   force =     0.00000000    0.00000000    0.00000000
     atom   36 type  1   force =     0.00000000    0.00000000    0.00000000
     atom   37 type  2   force =     0.00000000    0.00000000    0.00000000
     atom   38 type  3   force =     0.00000000    0.00000000    0.00000000
     atom   39 type  4   force =     0.00000000    0.00000000    0.00000000
     The SCF correction term to forces
     atom    1 type  1   force =    -0.00000000    0.00000000    0.00000000
     atom    2 type  1   force =     0.00000000   -0.00000000    0.00000000
     atom    3 type  1   force =     0.00000000   -0.00000000    0.00000000
     atom    4 type  1   force =    -0.00000000    0.00000000    0.00000000
     atom    5 type  1   force =     0.00000000   -0.00000000    0.00000000
     atom    6 type  1   force =     0.00000000   -0.00000000    0.00000000
     atom    7 type  1   force =    -0.00000000    0.00000000    0.00000000
     atom    8 type  1   force =     0.00000000   -0.00000000    0.00000000
     atom    9 type  1   force =     0.00000000    0.00000000    0.00000000
     atom   10 type  1   force =    -0.00000000    0.00000000    0.00000000
     atom   11 type  1   force =     0.00000000    0.00000000    0.00000000
     atom   12 type  1   force =     0.00000000   -0.00000000    0.00000000
     atom   13 type  1   force =    -0.00000000    0.00000000    0.00000000
     atom   14 type  1   force =     0.00000000   -0.00000000    0.00000000
     atom   15 type  1   force =     0.00000000   -0.00000000    0.00000000
     atom   16 type  1   force =    -0.00000000    0.00000000    0.00000000
     atom   17 type  1   force =     0.00000000   -0.00000000    0.00000000
     atom   18 type  1   force =     0.00000000   -0.00000000    0.00000000
     atom   19 type  1   force =    -0.00000000    0.00000000   -0.00000000
     atom   20 type  1   force =    -0.00000000    0.00000000   -0.00000000
     atom   21 type  1   force =     0.00000000   -0.00000000   -0.00000000
     atom   22 type  1   force =    -0.00000000    0.00000000   -0.00000000
     atom   23 type  1   force =    -0.00000000    0.00000000   -0.00000000
     atom   24 type  1   force =     0.00000000   -0.00000000   -0.00000000
     atom   25 type  1   force =    -0.00000000   -0.00000000   -0.00000000
     atom   26 type  1   force =    -0.00000000   -0.00000000   -0.00000000
     atom   27 type  1   force =     0.00000000   -0.00000000   -0.00000000
     atom   28 type  1   force =    -0.00000000   -0.00000000   -0.00000000
     atom   29 type  1   force =     0.00000000    0.00000000   -0.00000000
     atom   30 type  1   force =     0.00000000   -0.00000000   -0.00000000
     atom   31 type  1   force =    -0.00000000    0.00000000   -0.00000000
     atom   32 type  1   force =    -0.00000000    0.00000000   -0.00000000
     atom   33 type  1   force =     0.00000000   -0.00000000   -0.00000000
     atom   34 type  1   force =    -0.00000000    0.00000000   -0.00000000
     atom   35 type  1   force =    -0.00000000   -0.00000000   -0.00000000
     atom   36 type  1   force =     0.00000000   -0.00000000   -0.00000000
     atom   37 type  2   force =    -0.00000146    0.00000090   -0.00000978
     atom   38 type  3   force =    -0.00000144    0.00000011   -0.00001120
     atom   39 type  4   force =     0.00000197    0.00000023   -0.00000050

     Total force =     0.035808     Total SCF correction =     0.000015

     Writing all to output data dir ./pwscf.save/

     init_run     :     11.36s CPU     11.78s WALL (       1 calls)
     electrons    :    832.21s CPU    842.42s WALL (       1 calls)
     forces       :      3.31s CPU      3.42s WALL (       1 calls)

     Called by init_run:
     wfcinit      :      8.37s CPU      8.67s WALL (       1 calls)
     potinit      :      1.93s CPU      2.01s WALL (       1 calls)
     hinit0       :      0.83s CPU      0.84s WALL (       1 calls)

     Called by electrons:
     c_bands      :    703.86s CPU    711.87s WALL (      55 calls)
     sum_band     :     85.39s CPU     86.54s WALL (      55 calls)
     v_of_rho     :      9.60s CPU     10.01s WALL (      56 calls)
     newd         :      3.13s CPU      3.17s WALL (      56 calls)
     PAW_pot      :     14.12s CPU     14.27s WALL (      56 calls)
     mix_rho      :     17.35s CPU     17.61s WALL (      55 calls)
     vdW_kernel   :      1.07s CPU      1.08s WALL (       1 calls)

     Called by c_bands:
     init_us_2    :      9.71s CPU      9.87s WALL (    2912 calls)
     init_us_2:cp :      9.69s CPU      9.86s WALL (    2912 calls)
     cegterg      :    679.39s CPU    686.85s WALL (    1430 calls)

     Called by *egterg:
     cdiaghg      :    215.08s CPU    216.49s WALL (    5030 calls)
     h_psi        :    308.74s CPU    313.13s WALL (    5056 calls)
     s_psi        :     39.90s CPU     40.30s WALL (    5056 calls)
     g_psi        :      0.97s CPU      0.99s WALL (    3600 calls)

     Called by h_psi:
     h_psi:calbec :     54.20s CPU     54.92s WALL (    5056 calls)
     vloc_psi     :    211.76s CPU    214.99s WALL (    5056 calls)
     add_vuspsi   :     40.25s CPU     40.66s WALL (    5056 calls)

     General routines
     calbec       :     78.30s CPU     79.24s WALL (    6590 calls)
     fft          :      6.46s CPU      6.91s WALL (    5061 calls)
     ffts         :     10.23s CPU     10.39s WALL (   24522 calls)
     fftw         :    240.31s CPU    243.89s WALL ( 1483008 calls)
     interpolate  :      0.39s CPU      0.39s WALL (     112 calls)

     Parallel routines

     PWSCF        :  14m12.49s CPU  14m28.12s WALL


   This run was terminated on:   5:16:35  11Dec2025            

=------------------------------------------------------------------------------=
   JOB DONE.
=------------------------------------------------------------------------------=
