
     Program PWSCF v.7.1 starts on 27Jan2025 at  8:54:37 
        Git branch: heads/qe-7.1
        Last git commit: 48ba0178f8fede6d020eb786884699a9f063f55d-dirty
        Last git commit date: Fri Jan 27 14:22:33 2023 +0000
        Last git commit subject: Merge branch 'fix_hubbard' into 'develop'

     This program is part of the open-source Quantum ESPRESSO suite
     for quantum simulation of materials; please cite
         "P. Giannozzi et al., J. Phys.:Condens. Matter 21 395502 (2009);
         "P. Giannozzi et al., J. Phys.:Condens. Matter 29 465901 (2017);
         "P. Giannozzi et al., J. Chem. Phys. 152 154105 (2020);
          URL http://www.quantum-espresso.org", 
     in publications or presentations arising from this work. More details at
     http://www.quantum-espresso.org/quote

     Parallel version (MPI), running on    48 processors

     MPI processes distributed on     1 nodes
     270065 MiB available memory on the printing compute node when the environment starts

     Reading input from espresso.pwi
Warning: card &CELL ignored
Warning: card / ignored
Warning: card &FCP ignored
Warning: card / ignored
Warning: card &RISM ignored
Warning: card / ignored

     Current dimensions of program PWSCF are:
     Max number of different atomic species (ntypx) = 10
     Max number of k-points (npk) =  40000
     Max angular momentum in pseudopotentials (lmaxx) =  4
     file Pt.pbe-n-kjpaw_psl.1.0.0.UPF: wavefunction(s)  6S 5D renormalized
     file H.pbe-kjpaw_psl.1.0.0.UPF: wavefunction(s)  1S renormalized

     **************************************************************************
     Initializing libbeef V0.1.2 with the BEEF-vdW functional.
     Citation: Wellendorff et al., PRB 85, 235149 (2012).
     **************************************************************************


     IMPORTANT: XC functional enforced from input :
     Exchange-correlation= BEEF-VDW
                           (   1   4  43  14   2   0   0)
     Any further DFT definition will be discarded
     Please, verify this is what you really want


     R & G space division:  proc/nbgrp/npool/nimage =      48
     Subspace diagonalization in iterative solution of the eigenvalue problem:
     one sub-group per band group will be used
     custom distributed-memory algorithm (size of sub-group:  2*  2 procs)


     Parallelization info
     --------------------
     sticks:   dense  smooth     PW     G-vecs:    dense   smooth      PW
     Min         150      59     16                30552     7447    1068
     Max         151      60     17                30571     7456    1081
     Sum        7243    2839    769              1467143   357639   51591

     Using Slab Decomposition



     bravais-lattice index     =            0
     lattice parameter (alat)  =      16.0028  a.u.
     unit-cell volume          =   10463.1828 (a.u.)^3
     number of atoms/cell      =           37
     number of atomic types    =            2
     number of electrons       =       361.00
     number of Kohn-Sham states=          217
     kinetic-energy cutoff     =      40.0000  Ry
     charge density cutoff     =     410.0000  Ry
     scf convergence threshold =      1.0E-06
     mixing beta               =       0.7000
     number of iterations used =            8  local-TF  mixing
     Exchange-correlation= BEEF-VDW
                           (   1   4  43  14   2   0   0)

     celldm(1)=  16.002787  celldm(2)=   0.000000  celldm(3)=   0.000000
     celldm(4)=   0.000000  celldm(5)=   0.000000  celldm(6)=   0.000000

     crystal axes: (cart. coord. in units of alat)
               a(1) = (   1.000000   0.000000   0.000000 )  
               a(2) = (   0.500000   0.866025   0.000000 )  
               a(3) = (   0.000000   0.000000   2.948128 )  

     reciprocal axes: (cart. coord. in units 2 pi/alat)
               b(1) = (  1.000000 -0.577350  0.000000 )  
               b(2) = (  0.000000  1.154701  0.000000 )  
               b(3) = (  0.000000  0.000000  0.339198 )  


     PseudoPot. # 1 for Pt read from file:
     /users/kbadger1/espresso/pseudo/pslibrary.1.0.0/pbe/PSEUDOPOTENTIALS/Pt.pbe-n-kjpaw_psl.1.0.0.UPF
     MD5 check sum: 2e24a0b5bf98a4ed1a57fa81bca8c143
     Pseudo is Projector augmented-wave + core cor, Zval = 10.0
     Generated using 'atomic' code by A. Dal Corso  v.7.0
     Shape of augmentation charge: PSQ
     Using radial grid of 1277 points,  6 beta functions with: 
                l(1) =   0
                l(2) =   0
                l(3) =   1
                l(4) =   1
                l(5) =   2
                l(6) =   2
     Q(r) pseudized with 0 coefficients 


     PseudoPot. # 2 for H  read from file:
     /users/kbadger1/espresso/pseudo/pslibrary.1.0.0/pbe/PSEUDOPOTENTIALS/H.pbe-kjpaw_psl.1.0.0.UPF
     MD5 check sum: fe4c6fa958fa6d3815bf5d2419cbf1df
     Pseudo is Projector augmented-wave, Zval =  1.0
     Generated using 'atomic' code by A. Dal Corso  v.7.0
     Shape of augmentation charge: PSQ
     Using radial grid of  929 points,  2 beta functions with: 
                l(1) =   0
                l(2) =   0
     Q(r) pseudized with 0 coefficients 


     atomic species   valence    mass     pseudopotential
        Pt            10.00   195.08400     Pt( 1.00)
        H              1.00     1.00800     H ( 1.00)

     No symmetry found



   Cartesian axes

     site n.     atom                  positions (alat units)
         1           Pt  tau(   1) = (   0.0000000   0.0000000   1.0037422  )
         2           Pt  tau(   2) = (   0.3340014   0.0000000   1.0037422  )
         3           Pt  tau(   3) = (   0.6680027   0.0000000   1.0037422  )
         4           Pt  tau(   4) = (   0.1670007   0.2892537   1.0037422  )
         5           Pt  tau(   5) = (   0.5010021   0.2892537   1.0037422  )
         6           Pt  tau(   6) = (   0.8350034   0.2892537   1.0037422  )
         7           Pt  tau(   7) = (   0.3340014   0.5785073   1.0037422  )
         8           Pt  tau(   8) = (   0.6680027   0.5785073   1.0037422  )
         9           Pt  tau(   9) = (   1.0020041   0.5785073   1.0037422  )
        10           Pt  tau(  10) = (   0.1670007   0.0964179   1.2764532  )
        11           Pt  tau(  11) = (   0.5010021   0.0964179   1.2764532  )
        12           Pt  tau(  12) = (   0.8350034   0.0964179   1.2764532  )
        13           Pt  tau(  13) = (   0.3340014   0.3856716   1.2764532  )
        14           Pt  tau(  14) = (   0.6680027   0.3856716   1.2764532  )
        15           Pt  tau(  15) = (   1.0020041   0.3856716   1.2764532  )
        16           Pt  tau(  16) = (   0.5010021   0.6749252   1.2764532  )
        17           Pt  tau(  17) = (   0.8350034   0.6749252   1.2764532  )
        18           Pt  tau(  18) = (   1.1690048   0.6749252   1.2764532  )
        19           Pt  tau(  19) = (   0.0020575   0.1925349   1.5484781  )
        20           Pt  tau(  20) = (   0.3341705   0.1924033   1.5481497  )
        21           Pt  tau(  21) = (   0.6681577   0.1923760   1.5458203  )
        22           Pt  tau(  22) = (   0.1682038   0.4793851   1.5493882  )
        23           Pt  tau(  23) = (   0.5013613   0.4812633   1.5459691  )
        24           Pt  tau(  24) = (   0.8349814   0.4812927   1.5458564  )
        25           Pt  tau(  25) = (   0.3355202   0.7700551   1.5477021  )
        26           Pt  tau(  26) = (   0.6682138   0.7703256   1.5479859  )
        27           Pt  tau(  27) = (   1.0011527   0.7699178   1.5472528  )
        28           Pt  tau(  28) = (  -0.0005214  -0.0014852   1.8265272  )
        29           Pt  tau(  29) = (   0.3373404  -0.0015369   1.8261371  )
        30           Pt  tau(  30) = (   0.6683151  -0.0000819   1.8222292  )
        31           Pt  tau(  31) = (   0.1683869   0.2918815   1.8317082  )
        32           Pt  tau(  32) = (   0.5031304   0.2890116   1.8212372  )
        33           Pt  tau(  33) = (   0.8335125   0.2890575   1.8212559  )
        34           Pt  tau(  34) = (   0.3355689   0.5776599   1.8222186  )
        35           Pt  tau(  35) = (   0.6683591   0.5763567   1.8214133  )
        36           Pt  tau(  36) = (   1.0011062   0.5776681   1.8220961  )
        37           H   tau(  37) = (   0.1676480   0.1398503   1.9564161  )

     number of k points=    13  Marzari-Vanderbilt smearing, width (Ry)=  0.0200
                       cart. coord. in units 2pi/alat
        k(    1) = (   0.0000000   0.0000000   0.0000000), wk =   0.0800000
        k(    2) = (   0.0000000   0.2309401   0.0000000), wk =   0.1600000
        k(    3) = (   0.0000000   0.4618802   0.0000000), wk =   0.1600000
        k(    4) = (   0.2000000  -0.1154701   0.0000000), wk =   0.1600000
        k(    5) = (   0.2000000   0.1154701   0.0000000), wk =   0.1600000
        k(    6) = (   0.2000000   0.3464102   0.0000000), wk =   0.1600000
        k(    7) = (   0.2000000  -0.5773503   0.0000000), wk =   0.1600000
        k(    8) = (   0.2000000  -0.3464102   0.0000000), wk =   0.1600000
        k(    9) = (   0.4000000  -0.2309401   0.0000000), wk =   0.1600000
        k(   10) = (   0.4000000   0.0000000   0.0000000), wk =   0.1600000
        k(   11) = (   0.4000000   0.2309401   0.0000000), wk =   0.1600000
        k(   12) = (   0.4000000  -0.6928203   0.0000000), wk =   0.1600000
        k(   13) = (   0.4000000  -0.4618802   0.0000000), wk =   0.1600000

     Dense  grid:  1467143 G-vectors     FFT dimensions: ( 108, 108, 320)

     Smooth grid:   357639 G-vectors     FFT dimensions: (  72,  72, 192)

     Estimated max dynamical RAM per process >     211.30 MB

     Estimated total dynamical RAM >       9.90 GB

     Initial potential from superposition of free atoms

     starting charge     360.9939, renormalised to     361.0000

     negative rho (up, down):  3.545E-03 0.000E+00


     %%%%%%%%%%%%%%%%%%%%%%%%%%%%%%%%%%%%%%%%%%%%%%%%%%%%%%%%%%%%%%%%%%%%%%%%
     %                                                                      %
     % You are using vdW-DF, which was implemented by the Thonhauser group. %
     % Please cite the following two papers that made this development      %
     % possible and the two reviews that describe the various versions:     %
     %                                                                      %
     %   T. Thonhauser et al., PRL 115, 136402 (2015).                      %
     %   T. Thonhauser et al., PRB 76, 125112 (2007).                       %
     %   K. Berland et al., Rep. Prog. Phys. 78, 066501 (2015).             %
     %   D.C. Langreth et al., J. Phys.: Condens. Matter 21, 084203 (2009). %
     %                                                                      %
     % If you are calculating stress with vdW-DF, please also cite:         %
     %                                                                      %
     %   R. Sabatini et al., J. Phys.: Condens. Matter 24, 424209 (2012).   %
     %                                                                      %
     %%%%%%%%%%%%%%%%%%%%%%%%%%%%%%%%%%%%%%%%%%%%%%%%%%%%%%%%%%%%%%%%%%%%%%%%

     %%%%%%%%%%%%%%%%%%%%%%%%%%%%%%%%%%%%%%%%%%%%%%%%%%%%%%%%%%%%%%%%%%%%%%%%
     %                                                                      %
     %  vdW-DF NEWS:                                                        %
     %                                                                      %
     %  * vdW-DF3 is now available. DOI: 10.1021/acs.jctc.0c00471           %
     %    use with input_dft = 'vdW-DF3-opt1' or 'vdW-DF3-opt2'             %
     %                                                                      %
     %  * Unscreened and range-separated hybrid vdW-DF-cx functionals       %
     %    DOI: 10.1063/1.4986522 and 10.1088/1361-648X/ac2ad2               %
     %    use with input_dft = 'vdW-DF-cx0'    and 'vdW-DF-ahcx'            %
     %  * Unscreened and range-separated hybrid vdW-DF2-b86r functionals    %
     %    DOI: 10.1063/1.4986522 and DOI: 10.1103/PhysRevX.12.041003        %
     %    use with input_dft = 'vdW-DF2-br0' and 'vdW-DF2-ahbr'             %
     %                                                                      %
     %%%%%%%%%%%%%%%%%%%%%%%%%%%%%%%%%%%%%%%%%%%%%%%%%%%%%%%%%%%%%%%%%%%%%%%%


     Starting wfcs are  325 randomized atomic wfcs
     Checking if some PAW data can be deallocated... 

     total cpu time spent up to now is       16.0 secs

     per-process dynamical memory:   208.8 Mb

     Self-consistent Calculation

     iteration #  1     ecut=    40.00 Ry     beta= 0.70
     Davidson diagonalization with overlap
     ethr =  1.00E-02,  avg # of iterations =  2.0

     Threshold (ethr) on eigenvalues was too large:
     Diagonalizing with lowered threshold

     Davidson diagonalization with overlap
     ethr =  3.74E-04,  avg # of iterations =  4.1

     negative rho (up, down):  1.785E-02 0.000E+00

     total cpu time spent up to now is       54.2 secs

     total energy              =  -27755.28939019 Ry
     estimated scf accuracy    <       1.55123730 Ry

     iteration #  2     ecut=    40.00 Ry     beta= 0.70
     Davidson diagonalization with overlap
     ethr =  4.30E-04,  avg # of iterations =  2.0

     negative rho (up, down):  1.612E-02 0.000E+00

     total cpu time spent up to now is       73.5 secs

     total energy              =  -27755.38827912 Ry
     estimated scf accuracy    <       0.77623234 Ry

     iteration #  3     ecut=    40.00 Ry     beta= 0.70
     Davidson diagonalization with overlap
     ethr =  2.15E-04,  avg # of iterations =  2.0

     negative rho (up, down):  1.089E-02 0.000E+00

     total cpu time spent up to now is       86.5 secs

     total energy              =  -27755.44023016 Ry
     estimated scf accuracy    <       0.09051860 Ry

     iteration #  4     ecut=    40.00 Ry     beta= 0.70
     Davidson diagonalization with overlap
     c_bands:  2 eigenvalues not converged
     c_bands:  1 eigenvalues not converged
     c_bands:  1 eigenvalues not converged
     ethr =  2.51E-05,  avg # of iterations = 14.9

     negative rho (up, down):  8.032E-03 0.000E+00

     total cpu time spent up to now is      131.5 secs

     total energy              =  -27755.48850612 Ry
     estimated scf accuracy    <       0.07253411 Ry

     iteration #  5     ecut=    40.00 Ry     beta= 0.70
     Davidson diagonalization with overlap
     c_bands:  1 eigenvalues not converged
     c_bands:  1 eigenvalues not converged
     ethr =  2.01E-05,  avg # of iterations =  5.6

     negative rho (up, down):  3.925E-03 0.000E+00

     total cpu time spent up to now is      146.6 secs

     total energy              =  -27755.48847578 Ry
     estimated scf accuracy    <       0.02778194 Ry

     iteration #  6     ecut=    40.00 Ry     beta= 0.70
     Davidson diagonalization with overlap
     c_bands:  1 eigenvalues not converged
     ethr =  7.70E-06,  avg # of iterations =  4.9

     negative rho (up, down):  2.102E-03 0.000E+00

     total cpu time spent up to now is      166.8 secs

     total energy              =  -27755.49047616 Ry
     estimated scf accuracy    <       0.00231993 Ry

     iteration #  7     ecut=    40.00 Ry     beta= 0.70
     Davidson diagonalization with overlap
     c_bands:  1 eigenvalues not converged
     c_bands:  2 eigenvalues not converged
     ethr =  6.43E-07,  avg # of iterations = 13.3

     negative rho (up, down):  1.662E-03 0.000E+00

     total cpu time spent up to now is      200.8 secs

     total energy              =  -27755.49095864 Ry
     estimated scf accuracy    <       0.00173123 Ry

     iteration #  8     ecut=    40.00 Ry     beta= 0.70
     Davidson diagonalization with overlap
     ethr =  4.80E-07,  avg # of iterations =  2.2

     negative rho (up, down):  1.414E-03 0.000E+00

     total cpu time spent up to now is      220.5 secs

     total energy              =  -27755.49109979 Ry
     estimated scf accuracy    <       0.00018798 Ry

     iteration #  9     ecut=    40.00 Ry     beta= 0.70
     Davidson diagonalization with overlap
     ethr =  5.21E-08,  avg # of iterations =  5.4

     negative rho (up, down):  1.079E-03 0.000E+00

     total cpu time spent up to now is      252.7 secs

     total energy              =  -27755.49120986 Ry
     estimated scf accuracy    <       0.00008456 Ry

     iteration # 10     ecut=    40.00 Ry     beta= 0.70
     Davidson diagonalization with overlap
     ethr =  2.34E-08,  avg # of iterations =  4.3

     negative rho (up, down):  1.017E-03 0.000E+00

     total cpu time spent up to now is      279.3 secs

     total energy              =  -27755.49122689 Ry
     estimated scf accuracy    <       0.00007696 Ry

     iteration # 11     ecut=    40.00 Ry     beta= 0.70
     Davidson diagonalization with overlap
     ethr =  2.13E-08,  avg # of iterations =  1.8

     negative rho (up, down):  1.090E-03 0.000E+00

     total cpu time spent up to now is      291.7 secs

     total energy              =  -27755.49123187 Ry
     estimated scf accuracy    <       0.00004479 Ry

     iteration # 12     ecut=    40.00 Ry     beta= 0.70
     Davidson diagonalization with overlap
     ethr =  1.24E-08,  avg # of iterations =  1.5

     negative rho (up, down):  1.277E-03 0.000E+00

     total cpu time spent up to now is      311.8 secs

     total energy              =  -27755.49123468 Ry
     estimated scf accuracy    <       0.00002040 Ry

     iteration # 13     ecut=    40.00 Ry     beta= 0.70
     Davidson diagonalization with overlap
     ethr =  5.65E-09,  avg # of iterations =  2.0

     negative rho (up, down):  1.736E-03 0.000E+00

     total cpu time spent up to now is      324.5 secs

     total energy              =  -27755.49123730 Ry
     estimated scf accuracy    <       0.00001208 Ry

     iteration # 14     ecut=    40.00 Ry     beta= 0.70
     Davidson diagonalization with overlap
     ethr =  3.35E-09,  avg # of iterations =  2.1

     negative rho (up, down):  2.013E-03 0.000E+00

     total cpu time spent up to now is      343.2 secs

     total energy              =  -27755.49124047 Ry
     estimated scf accuracy    <       0.00000740 Ry

     iteration # 15     ecut=    40.00 Ry     beta= 0.70
     Davidson diagonalization with overlap
     ethr =  2.05E-09,  avg # of iterations =  1.8

     negative rho (up, down):  2.902E-03 0.000E+00

     total cpu time spent up to now is      356.3 secs

     total energy              =  -27755.49123717 Ry
     estimated scf accuracy    <       0.00000659 Ry

     iteration # 16     ecut=    40.00 Ry     beta= 0.70
     Davidson diagonalization with overlap
     ethr =  1.83E-09,  avg # of iterations =  1.5

     negative rho (up, down):  3.340E-03 0.000E+00

     total cpu time spent up to now is      374.7 secs

     End of self-consistent calculation

          k = 0.0000 0.0000 0.0000 ( 44645 PWs)   bands (ev):

    -6.6445  -5.4657  -4.6704  -4.2433  -4.2134  -4.2080  -4.1999  -4.1897
    -4.1855  -4.1796  -3.8217  -3.6620  -3.6552  -3.6532  -3.6505  -3.6445
    -3.5486  -3.2018  -3.1927  -3.1834  -3.1820  -3.1764  -3.0914  -2.9737
    -2.9686  -2.9660  -2.9640  -2.9613  -2.8595  -2.7613  -2.7533  -2.7474
    -2.7452  -2.7361  -2.7126  -2.6997  -2.6936  -2.6903  -2.6665  -2.6589
    -2.3675  -2.1233  -2.1202  -2.0818  -2.0744  -2.0586  -2.0497  -2.0296
    -2.0261  -2.0214  -1.8811  -1.8801  -1.8169  -1.7778  -1.7544  -1.3291
    -1.3236  -1.3096  -1.3006  -1.2986  -1.2489  -1.2258  -1.1140  -1.1133
    -1.1130  -1.0997  -1.0952  -1.0938  -1.0886  -1.0603  -1.0464  -1.0431
    -1.0423  -1.0354  -0.9995  -0.9955  -0.9858  -0.8995  -0.8954  -0.8881
    -0.8811  -0.8771  -0.8734  -0.6777  -0.6693  -0.6665  -0.6636  -0.6453
    -0.6436  -0.6362  -0.6286  -0.5590  -0.5420  -0.4885  -0.4779  -0.4659
    -0.4535  -0.4390  -0.4241  -0.4182  -0.3588  -0.2620  -0.2601  -0.2529
    -0.2411  -0.2346  -0.2312   0.0267   0.2380   0.2648   0.2667   0.2768
     0.2784   0.2835   0.2924   0.3009   0.3196   0.3222   0.3258   0.3792
     0.3886   0.4617   0.5409   0.5426   0.5540   0.5605   0.5625   0.6611
     0.6672   0.7233   0.7247   0.7341   0.7473   0.9588   0.9895   0.9994
     1.0084   1.0199   1.0206   1.0719   1.0842   1.1812   1.2300   1.2328
     1.2399   1.2423   1.2444   1.3261   1.4039   1.4094   1.4283   1.4347
     1.4435   1.4495   1.4514   1.4550   1.4564   1.4599   1.4613   1.5379
     1.5674   1.5866   1.5872   1.6051   1.6165   1.6196   1.6317   1.6805
     1.6875   1.7096   1.7179   1.7208   1.7345   1.7417   1.7441   1.8131
     1.8234   1.8288   1.8326   1.8351   1.8423   1.8638   1.9112   1.9255
     1.9346   1.9352   1.9458   1.9530   2.1346   2.1484   2.2297   2.2391
     2.2489   2.2603   2.2613   2.2658   2.7563   3.0829   3.1024   3.1222
     3.1494   3.1509   3.1574   5.0434   5.3968   5.4181   5.4653   5.4697
     5.4811   6.8567   7.0513   7.0827   7.1115   7.1187   7.1235   7.2039
     7.3207

          k = 0.0000 0.2309 0.0000 ( 44694 PWs)   bands (ev):

    -6.4965  -5.3285  -4.7236  -4.5837  -4.3119  -4.2870  -4.1006  -4.0118
    -3.9700  -3.9600  -3.8210  -3.7430  -3.7116  -3.5907  -3.5874  -3.5715
    -3.4618  -3.2766  -3.1557  -3.1492  -3.1440  -3.1254  -3.0704  -3.0371
    -3.0141  -2.9650  -2.9625  -2.9553  -2.8956  -2.8600  -2.8436  -2.7768
    -2.7642  -2.7440  -2.7366  -2.5996  -2.5397  -2.5202  -2.5105  -2.4851
    -2.3525  -2.2386  -2.2355  -2.1748  -2.1544  -2.1362  -2.1218  -2.0260
    -1.9403  -1.8921  -1.8610  -1.8572  -1.8014  -1.7849  -1.7397  -1.5659
    -1.4724  -1.4684  -1.4208  -1.4048  -1.3718  -1.3228  -1.3062  -1.2972
    -1.2732  -1.2548  -1.1899  -1.1802  -1.1433  -1.1049  -1.0942  -1.0556
    -1.0222  -1.0088  -1.0050  -0.9184  -0.9126  -0.8943  -0.8711  -0.8273
    -0.8169  -0.8109  -0.7802  -0.7189  -0.7018  -0.6888  -0.6824  -0.6785
    -0.6508  -0.6261  -0.5849  -0.5522  -0.5346  -0.5285  -0.5047  -0.4987
    -0.4743  -0.4453  -0.4423  -0.4268  -0.3465  -0.2758  -0.2726  -0.2470
    -0.2368  -0.2362  -0.2249  -0.2143  -0.1694  -0.1677  -0.1489  -0.1337
     0.0733   0.1938   0.2203   0.2401   0.2662   0.2672   0.2803   0.3205
     0.3243   0.4094   0.4777   0.4892   0.5445   0.6082   0.6136   0.6595
     0.6664   0.6813   0.7200   0.7348   0.7532   0.8288   0.8393   0.8722
     0.8785   0.8819   0.9573   1.0837   1.0855   1.1019   1.1203   1.1277
     1.1428   1.1892   1.2309   1.2638   1.2784   1.2836   1.3448   1.3487
     1.3665   1.3753   1.4458   1.4723   1.4856   1.5070   1.5333   1.6066
     1.6471   1.6577   1.6606   1.6765   1.6832   1.7211   1.7840   1.7930
     1.8301   1.8552   1.8713   1.8742   1.9041   1.9116   1.9199   1.9295
     1.9345   1.9834   1.9873   2.1094   2.1358   2.1568   2.1809   2.1886
     2.1906   2.2206   2.2551   2.2600   2.2785   2.3507   2.3797   2.4039
     2.4327   2.5693   2.5720   2.5837   2.6026   2.9508   3.0054   3.4856
     3.7280   3.7474   3.8630   4.6426   5.0317   5.1682   5.7977   5.9318
     5.9346   6.0100   6.2595   6.6689   6.8920   7.0188   7.2697   7.2885
     7.3021

          k = 0.0000 0.4619 0.0000 ( 44748 PWs)   bands (ev):

    -6.0705  -5.4314  -4.9634  -4.5004  -4.3441  -4.3146  -4.1098  -3.9732
    -3.8334  -3.7149  -3.6294  -3.6165  -3.5662  -3.4566  -3.4133  -3.3986
    -3.3970  -3.3760  -3.2556  -3.2269  -3.2151  -3.1837  -3.1763  -3.1608
    -3.0912  -3.0511  -3.0463  -2.9722  -2.7965  -2.7868  -2.7818  -2.7681
    -2.7620  -2.6826  -2.5391  -2.5280  -2.5170  -2.4863  -2.4793  -2.4021
    -2.2699  -2.2103  -2.1919  -2.1831  -2.1593  -2.1266  -2.0788  -2.0504
    -2.0472  -2.0127  -1.9804  -1.8628  -1.8319  -1.8265  -1.7998  -1.7463
    -1.6765  -1.6403  -1.6096  -1.6044  -1.5740  -1.4559  -1.3987  -1.3972
    -1.3863  -1.3736  -1.2863  -1.2822  -1.2384  -1.1485  -1.1455  -1.1413
    -1.0794  -1.0240  -1.0219  -0.9887  -0.9883  -0.9411  -0.9241  -0.9048
    -0.8997  -0.8766  -0.8744  -0.8571  -0.8471  -0.8391  -0.7706  -0.7313
    -0.7134  -0.7013  -0.6968  -0.6890  -0.6682  -0.5645  -0.5247  -0.5024
    -0.4889  -0.4877  -0.4583  -0.4330  -0.3893  -0.3860  -0.3150  -0.2722
    -0.2306  -0.1977  -0.1922  -0.1651  -0.1440  -0.0035   0.0129   0.0953
     0.0987   0.1530   0.1602   0.2026   0.2096   0.2148   0.2201   0.2692
     0.2944   0.3125   0.3300   0.3344   0.3696   0.3808   0.3843   0.3923
     0.4321   0.5291   0.5570   0.5788   0.6384   0.6429   0.7492   0.7622
     0.8302   0.8672   0.9026   0.9649   1.0345   1.0485   1.0888   1.0989
     1.1222   1.1377   1.1600   1.2032   1.2390   1.2428   1.3082   1.3346
     1.3539   1.3959   1.4096   1.4155   1.4376   1.4705   1.5652   1.6052
     1.6795   1.6974   1.7069   1.7161   1.7340   1.8153   1.8186   1.8610
     1.8937   1.9010   1.9150   1.9630   1.9918   2.0084   2.0237   2.1296
     2.1435   2.1622   2.1639   2.1793   2.1807   2.1994   2.2221   2.3924
     2.4146   2.4204   2.4305   2.4331   2.6090   2.6503   2.8617   3.0141
     3.0662   3.2430   3.4804   3.4870   3.7495   3.8692   3.9578   4.1713
     4.4280   4.7112   4.7142   4.7737   4.8919   4.9466   5.0252   5.0677
     5.3076   5.3623   5.8611   5.9792   6.3910   6.5208   6.8220   6.9815
     7.3665

          k = 0.2000-0.1155 0.0000 ( 44694 PWs)   bands (ev):

    -6.4970  -5.3326  -4.7498  -4.5472  -4.3136  -4.2983  -4.1006  -4.0111
    -3.9665  -3.9623  -3.8477  -3.7452  -3.6629  -3.5863  -3.5828  -3.5741
    -3.4892  -3.2789  -3.1556  -3.1493  -3.1435  -3.1040  -3.0676  -3.0402
    -3.0117  -2.9796  -2.9661  -2.9555  -2.8761  -2.8565  -2.8499  -2.7729
    -2.7612  -2.7430  -2.7328  -2.5916  -2.5374  -2.5192  -2.5159  -2.4875
    -2.3473  -2.2395  -2.2361  -2.1907  -2.1514  -2.1440  -2.1237  -2.0338
    -1.9462  -1.8770  -1.8612  -1.8535  -1.8047  -1.7853  -1.7266  -1.5685
    -1.4738  -1.4649  -1.4211  -1.4056  -1.3807  -1.3264  -1.3025  -1.2888
    -1.2710  -1.2527  -1.1956  -1.1838  -1.1483  -1.1159  -1.0946  -1.0605
    -1.0115  -1.0043  -0.9984  -0.9185  -0.9140  -0.8907  -0.8706  -0.8304
    -0.8188  -0.8163  -0.7746  -0.7269  -0.7021  -0.6875  -0.6791  -0.6757
    -0.6433  -0.6336  -0.5895  -0.5447  -0.5359  -0.5264  -0.5150  -0.4965
    -0.4902  -0.4460  -0.4298  -0.4153  -0.3515  -0.2786  -0.2657  -0.2544
    -0.2401  -0.2329  -0.2317  -0.2157  -0.1796  -0.1610  -0.1520  -0.1392
     0.0692   0.1815   0.2223   0.2560   0.2603   0.2770   0.2801   0.3161
     0.3256   0.3753   0.4661   0.4886   0.5519   0.6038   0.6136   0.6508
     0.6713   0.6769   0.7231   0.7369   0.7453   0.8345   0.8623   0.8681
     0.8810   0.8854   1.0172   1.0860   1.0914   1.1029   1.1150   1.1249
     1.1377   1.1964   1.2232   1.2534   1.2755   1.2849   1.3274   1.3531
     1.3601   1.3722   1.4310   1.4674   1.4947   1.5058   1.5439   1.6041
     1.6355   1.6465   1.6631   1.6703   1.6955   1.7227   1.7821   1.7966
     1.8454   1.8517   1.8687   1.8844   1.9023   1.9115   1.9220   1.9294
     1.9334   1.9857   1.9917   2.1239   2.1334   2.1480   2.1789   2.1869
     2.1904   2.2148   2.2453   2.2566   2.2788   2.3562   2.3826   2.4012
     2.4435   2.5636   2.5728   2.5853   2.6105   2.9420   2.9940   3.5043
     3.7207   3.7489   3.8681   4.6272   5.0750   5.1603   5.7881   5.9293
     5.9475   6.0037   6.2283   6.6819   6.8858   7.0030   7.2578   7.2977
     7.3036

          k = 0.2000 0.1155 0.0000 ( 44694 PWs)   bands (ev):

    -6.4970  -5.3327  -4.7483  -4.5502  -4.3132  -4.2965  -4.1008  -4.0126
    -3.9652  -3.9620  -3.8472  -3.7443  -3.6644  -3.5876  -3.5832  -3.5744
    -3.4875  -3.2782  -3.1553  -3.1487  -3.1422  -3.1055  -3.0675  -3.0434
    -3.0118  -2.9782  -2.9667  -2.9565  -2.8769  -2.8551  -2.8500  -2.7748
    -2.7614  -2.7432  -2.7320  -2.5914  -2.5378  -2.5184  -2.5163  -2.4856
    -2.3482  -2.2395  -2.2344  -2.1906  -2.1516  -2.1432  -2.1231  -2.0352
    -1.9454  -1.8785  -1.8608  -1.8526  -1.8053  -1.7857  -1.7260  -1.5670
    -1.4733  -1.4655  -1.4207  -1.4041  -1.3789  -1.3235  -1.3051  -1.2902
    -1.2726  -1.2528  -1.1943  -1.1841  -1.1448  -1.1158  -1.0931  -1.0603
    -1.0151  -1.0066  -1.0013  -0.9196  -0.9115  -0.8916  -0.8704  -0.8282
    -0.8187  -0.8112  -0.7772  -0.7270  -0.7032  -0.6868  -0.6786  -0.6765
    -0.6435  -0.6346  -0.5904  -0.5450  -0.5365  -0.5252  -0.5144  -0.4961
    -0.4916  -0.4464  -0.4299  -0.4159  -0.3516  -0.2791  -0.2653  -0.2549
    -0.2442  -0.2339  -0.2300  -0.2152  -0.1752  -0.1597  -0.1543  -0.1407
     0.0726   0.1822   0.2201   0.2544   0.2630   0.2743   0.2815   0.3164
     0.3253   0.3760   0.4663   0.4880   0.5514   0.6019   0.6124   0.6528
     0.6715   0.6761   0.7217   0.7359   0.7459   0.8325   0.8634   0.8715
     0.8815   0.8842   1.0166   1.0838   1.0911   1.1025   1.1135   1.1251
     1.1351   1.1982   1.2238   1.2551   1.2758   1.2838   1.3274   1.3553
     1.3604   1.3708   1.4330   1.4676   1.4944   1.5064   1.5456   1.6036
     1.6359   1.6466   1.6623   1.6694   1.6929   1.7228   1.7823   1.7970
     1.8455   1.8511   1.8667   1.8845   1.9035   1.9122   1.9220   1.9282
     1.9343   1.9840   1.9897   2.1233   2.1314   2.1499   2.1808   2.1867
     2.1920   2.2160   2.2468   2.2591   2.2795   2.3551   2.3835   2.4004
     2.4431   2.5653   2.5730   2.5848   2.6085   2.9448   2.9966   3.5032
     3.7201   3.7479   3.8675   4.6249   5.0767   5.1624   5.7892   5.9300
     5.9449   6.0036   6.2298   6.6806   6.8852   7.0001   7.2580   7.2978
     7.3034

          k = 0.2000 0.3464 0.0000 ( 44714 PWs)   bands (ev):

    -6.2093  -5.1088  -4.9627  -4.9541  -4.4360  -3.8866  -3.8837  -3.8796
    -3.8662  -3.8317  -3.8128  -3.7893  -3.7026  -3.6984  -3.5099  -3.3156
    -3.3017  -3.2976  -3.2884  -3.2285  -3.1982  -3.0732  -3.0628  -3.0584
    -3.0468  -3.0005  -2.9431  -2.9064  -2.9000  -2.8962  -2.8418  -2.8143
    -2.8032  -2.7518  -2.7387  -2.6450  -2.5468  -2.4027  -2.3103  -2.3055
    -2.2663  -2.2566  -2.2412  -2.2352  -2.1773  -2.1500  -2.1003  -2.0120
    -2.0037  -1.9084  -1.8986  -1.8735  -1.8340  -1.8208  -1.7614  -1.7264
    -1.7166  -1.5648  -1.5350  -1.5293  -1.4625  -1.4499  -1.4191  -1.4129
    -1.4008  -1.3427  -1.3095  -1.2037  -1.1935  -1.1751  -1.1587  -1.1259
    -1.1139  -1.0643  -1.0320  -1.0110  -0.9570  -0.8955  -0.8869  -0.8622
    -0.8556  -0.8358  -0.8171  -0.7979  -0.7783  -0.7611  -0.7425  -0.7253
    -0.6962  -0.6742  -0.5912  -0.5724  -0.5655  -0.5451  -0.5153  -0.5056
    -0.4866  -0.4510  -0.4351  -0.4248  -0.4185  -0.4126  -0.4080  -0.3901
    -0.3556  -0.3253  -0.2372  -0.2182  -0.1806  -0.1248  -0.1003  -0.0879
    -0.0720   0.0881   0.1247   0.1484   0.2227   0.2361   0.2799   0.2903
     0.3080   0.3315   0.3523   0.3847   0.3978   0.4170   0.4346   0.5143
     0.5800   0.6304   0.6688   0.6833   0.7197   0.7346   0.7651   0.8031
     0.8609   0.9121   0.9232   0.9456   1.0081   1.0271   1.0721   1.1290
     1.1424   1.1514   1.1957   1.2126   1.2297   1.2403   1.2466   1.2644
     1.2750   1.2834   1.2926   1.3981   1.4538   1.4886   1.6123   1.6199
     1.6426   1.7556   1.7908   1.8062   1.8113   1.8709   1.9029   1.9325
     1.9488   1.9665   1.9791   1.9916   2.0119   2.0123   2.0241   2.0571
     2.0797   2.0959   2.1659   2.1896   2.2011   2.2354   2.2450   2.2798
     2.4169   2.4478   2.4681   2.4798   2.5454   2.5520   2.5705   2.6685
     2.7125   2.9995   3.2174   3.2491   3.5954   3.7785   3.7836   3.7942
     4.2336   4.4680   4.4850   4.6527   4.7236   4.7515   5.3499   5.7414
     5.9084   5.9185   6.1313   6.3574   6.6243   6.6635   6.6951   6.7239
     7.1312

          k = 0.2000-0.5774 0.0000 ( 44692 PWs)   bands (ev):

    -5.6821  -5.6590  -5.0773  -4.7490  -4.4333  -4.1635  -3.8833  -3.8078
    -3.7496  -3.6984  -3.5950  -3.5831  -3.4976  -3.4900  -3.3992  -3.3813
    -3.3641  -3.3359  -3.3230  -3.3028  -3.2041  -3.1640  -3.1574  -3.1301
    -3.1081  -3.1043  -3.0519  -2.9469  -2.9043  -2.7950  -2.7771  -2.7611
    -2.7444  -2.7299  -2.6960  -2.6417  -2.5205  -2.5078  -2.4451  -2.3336
    -2.3181  -2.2420  -2.1836  -2.1479  -2.1328  -2.0660  -2.0074  -1.9531
    -1.9207  -1.8974  -1.8842  -1.8373  -1.8315  -1.7980  -1.7117  -1.6998
    -1.6951  -1.6743  -1.6680  -1.6622  -1.6080  -1.6003  -1.5835  -1.4710
    -1.4599  -1.3921  -1.3583  -1.3094  -1.2665  -1.2421  -1.2144  -1.1757
    -1.1717  -1.1557  -1.0816  -1.0684  -1.0529  -1.0305  -1.0010  -0.9546
    -0.9385  -0.8648  -0.8356  -0.8232  -0.8169  -0.8054  -0.7385  -0.6742
    -0.6360  -0.6240  -0.6120  -0.5819  -0.5530  -0.5444  -0.5402  -0.5148
    -0.5003  -0.4876  -0.4740  -0.4299  -0.4149  -0.3999  -0.3933  -0.3817
    -0.3719  -0.3652  -0.3218  -0.2987  -0.2773  -0.0901  -0.0625  -0.0079
     0.0209   0.0460   0.1305   0.1419   0.1650   0.1885   0.2151   0.2327
     0.2368   0.2560   0.3030   0.3642   0.3830   0.3998   0.4388   0.4614
     0.5110   0.5343   0.5733   0.6726   0.7182   0.7791   0.7955   0.8089
     0.8461   0.8884   0.9186   0.9346   0.9484   0.9499   0.9652   0.9834
     1.0796   1.1020   1.1083   1.1565   1.1757   1.1863   1.2097   1.2289
     1.2306   1.3569   1.4077   1.4556   1.5272   1.5458   1.6272   1.6380
     1.6757   1.7358   1.7597   1.7729   1.8353   1.8559   1.9322   1.9446
     1.9760   1.9886   1.9983   2.0232   2.0362   2.0866   2.1513   2.1533
     2.1628   2.1890   2.2000   2.2092   2.2132   2.2843   2.3946   2.4174
     2.4249   2.4313   2.4367   2.5014   2.5307   2.6273   2.7450   3.4150
     3.5993   3.6128   3.7616   3.8344   3.9196   3.9782   3.9896   4.3018
     4.5847   4.6081   4.7763   5.0453   5.0736   5.1708   5.1958   5.3501
     5.4615   5.5277   5.5635   5.8352   5.9967   6.0247   6.4415   6.6818
     6.6945

          k = 0.2000-0.3464 0.0000 ( 44714 PWs)   bands (ev):

    -6.2093  -5.1072  -4.9678  -4.9517  -4.4345  -3.8854  -3.8825  -3.8800
    -3.8673  -3.8318  -3.8145  -3.7901  -3.7030  -3.6977  -3.5089  -3.3124
    -3.3034  -3.2984  -3.2886  -3.2277  -3.1990  -3.0708  -3.0638  -3.0604
    -3.0484  -2.9975  -2.9429  -2.9096  -2.8989  -2.8966  -2.8423  -2.8151
    -2.7986  -2.7525  -2.7372  -2.6431  -2.5466  -2.4041  -2.3104  -2.3034
    -2.2695  -2.2547  -2.2417  -2.2375  -2.1776  -2.1507  -2.1016  -2.0131
    -2.0010  -1.9093  -1.9002  -1.8737  -1.8312  -1.8250  -1.7584  -1.7255
    -1.7178  -1.5644  -1.5345  -1.5322  -1.4650  -1.4524  -1.4202  -1.4137
    -1.3994  -1.3428  -1.3102  -1.2040  -1.1927  -1.1754  -1.1583  -1.1262
    -1.1115  -1.0637  -1.0349  -1.0102  -0.9575  -0.8981  -0.8862  -0.8634
    -0.8549  -0.8356  -0.8171  -0.7989  -0.7788  -0.7611  -0.7421  -0.7221
    -0.6948  -0.6719  -0.5901  -0.5715  -0.5653  -0.5444  -0.5169  -0.5031
    -0.4860  -0.4520  -0.4331  -0.4241  -0.4198  -0.4114  -0.4082  -0.3891
    -0.3563  -0.3259  -0.2368  -0.2201  -0.1797  -0.1240  -0.0987  -0.0875
    -0.0723   0.0911   0.1196   0.1480   0.2252   0.2365   0.2823   0.2888
     0.3102   0.3276   0.3535   0.3827   0.3991   0.4127   0.4346   0.5119
     0.5834   0.6323   0.6685   0.6827   0.7174   0.7377   0.7662   0.8043
     0.8605   0.9129   0.9256   0.9453   1.0067   1.0284   1.0719   1.1270
     1.1422   1.1516   1.1966   1.2131   1.2296   1.2407   1.2458   1.2654
     1.2758   1.2804   1.2929   1.3978   1.4536   1.4885   1.6115   1.6207
     1.6426   1.7564   1.7911   1.8053   1.8113   1.8709   1.9041   1.9304
     1.9488   1.9663   1.9795   1.9924   2.0121   2.0144   2.0246   2.0588
     2.0799   2.0920   2.1675   2.1889   2.2023   2.2354   2.2446   2.2809
     2.4141   2.4461   2.4666   2.4778   2.5424   2.5543   2.5677   2.6702
     2.7117   3.0018   3.2187   3.2503   3.5939   3.7777   3.7828   3.7942
     4.2345   4.4677   4.4837   4.6546   4.7238   4.7512   5.3495   5.7388
     5.9077   5.9183   6.1313   6.3563   6.6246   6.6640   6.6964   6.7215
     6.7349

          k = 0.4000-0.2309 0.0000 ( 44748 PWs)   bands (ev):

    -6.0728  -5.4389  -4.9783  -4.4867  -4.3437  -4.3318  -4.1042  -3.9586
    -3.8344  -3.7134  -3.6227  -3.6182  -3.5485  -3.4589  -3.4136  -3.4067
    -3.3982  -3.3913  -3.2546  -3.2295  -3.2211  -3.1856  -3.1756  -3.1534
    -3.0864  -3.0516  -3.0476  -2.9018  -2.7943  -2.7877  -2.7812  -2.7670
    -2.7650  -2.6714  -2.5389  -2.5299  -2.5164  -2.4865  -2.4773  -2.3960
    -2.2797  -2.2088  -2.1929  -2.1826  -2.1680  -2.1271  -2.0808  -2.0549
    -2.0442  -2.0198  -1.9808  -1.8771  -1.8323  -1.8265  -1.8014  -1.7463
    -1.6750  -1.6479  -1.6112  -1.6017  -1.5741  -1.4563  -1.4088  -1.3859
    -1.3839  -1.3677  -1.2903  -1.2779  -1.2457  -1.1562  -1.1347  -1.1333
    -1.0807  -1.0254  -1.0229  -0.9933  -0.9857  -0.9521  -0.9380  -0.9070
    -0.8917  -0.8826  -0.8756  -0.8573  -0.8447  -0.8341  -0.7374  -0.7239
    -0.7161  -0.7050  -0.6944  -0.6899  -0.6724  -0.6013  -0.5413  -0.5180
    -0.4850  -0.4723  -0.4536  -0.4299  -0.4073  -0.3867  -0.3115  -0.2615
    -0.2332  -0.2262  -0.1888  -0.1676  -0.1399  -0.0087   0.0138   0.0609
     0.0995   0.1469   0.1758   0.1960   0.2085   0.2132   0.2203   0.2431
     0.2944   0.3180   0.3283   0.3427   0.3573   0.3823   0.3902   0.4126
     0.4354   0.5298   0.5611   0.5720   0.6411   0.6687   0.7637   0.7693
     0.8567   0.8715   0.9088   0.9583   1.0284   1.0451   1.0791   1.1032
     1.1265   1.1329   1.1717   1.1940   1.2316   1.2436   1.2849   1.3312
     1.3537   1.3879   1.4070   1.4236   1.4335   1.4870   1.5412   1.5982
     1.6562   1.6910   1.7030   1.7201   1.7583   1.8078   1.8225   1.8768
     1.8960   1.9059   1.9149   1.9696   1.9996   2.0084   2.0221   2.1288
     2.1435   2.1572   2.1675   2.1760   2.1805   2.1967   2.2185   2.3948
     2.4037   2.4167   2.4252   2.4311   2.6059   2.6490   2.8858   3.0021
     3.0800   3.2319   3.4824   3.4890   3.7709   3.8704   3.9559   4.1862
     4.4577   4.7077   4.7139   4.7639   4.9020   4.9394   5.0381   5.0631
     5.3096   5.3612   5.8371   5.9853   6.3791   6.5166   6.8479   6.9736
     7.3784

          k = 0.4000 0.0000 0.0000 ( 44714 PWs)   bands (ev):

    -6.2108  -5.1212  -4.9647  -4.9532  -4.4309  -3.8873  -3.8842  -3.8798
    -3.8631  -3.8311  -3.8131  -3.7939  -3.7047  -3.6969  -3.4864  -3.3143
    -3.3075  -3.2997  -3.2935  -3.2240  -3.2002  -3.0797  -3.0631  -3.0607
    -3.0475  -2.9833  -2.9488  -2.9070  -2.9028  -2.8992  -2.8354  -2.8145
    -2.7986  -2.7445  -2.7364  -2.6407  -2.4901  -2.4033  -2.3134  -2.3058
    -2.2687  -2.2549  -2.2424  -2.2359  -2.1777  -2.1594  -2.1413  -2.0096
    -2.0034  -1.9054  -1.8910  -1.8765  -1.8298  -1.8198  -1.7642  -1.7244
    -1.7062  -1.5672  -1.5399  -1.5165  -1.4690  -1.4541  -1.4203  -1.4094
    -1.4001  -1.3471  -1.3203  -1.2062  -1.1978  -1.1810  -1.1610  -1.1178
    -1.1156  -1.0666  -1.0397  -1.0072  -0.9669  -0.9028  -0.8848  -0.8659
    -0.8476  -0.8290  -0.8191  -0.8110  -0.7804  -0.7610  -0.7416  -0.7259
    -0.6948  -0.6846  -0.5838  -0.5822  -0.5677  -0.5446  -0.5163  -0.5010
    -0.4757  -0.4601  -0.4398  -0.4313  -0.4229  -0.4158  -0.4050  -0.3893
    -0.3461  -0.3285  -0.2522  -0.2184  -0.1824  -0.1287  -0.0968  -0.0868
    -0.0714   0.0990   0.1226   0.1324   0.2279   0.2376   0.2855   0.2892
     0.3145   0.3255   0.3677   0.3741   0.4053   0.4149   0.4334   0.5027
     0.6107   0.6256   0.6698   0.6894   0.7229   0.7338   0.7609   0.8062
     0.8771   0.9088   0.9301   0.9777   1.0013   1.0368   1.0778   1.1132
     1.1220   1.1462   1.1988   1.2088   1.2245   1.2435   1.2506   1.2633
     1.2722   1.2777   1.2881   1.3689   1.4609   1.4859   1.6008   1.6243
     1.6501   1.7631   1.7850   1.8050   1.8117   1.8892   1.9119   1.9299
     1.9433   1.9620   1.9819   1.9948   2.0092   2.0146   2.0253   2.0582
     2.0751   2.0888   2.1695   2.1945   2.2031   2.2339   2.2422   2.2830
     2.3743   2.4303   2.4709   2.4868   2.5384   2.5558   2.5665   2.6664
     2.7111   3.0275   3.2365   3.2471   3.6208   3.7675   3.7784   3.7904
     4.2376   4.4639   4.4889   4.6779   4.7262   4.7473   5.3790   5.7582
     5.8890   5.9159   6.0989   6.3173   6.6149   6.6655   6.6953   6.7212
     6.7317

          k = 0.4000 0.2309 0.0000 ( 44748 PWs)   bands (ev):

    -6.0728  -5.4397  -4.9759  -4.4893  -4.3438  -4.3305  -4.1034  -3.9601
    -3.8346  -3.7138  -3.6222  -3.6175  -3.5489  -3.4589  -3.4162  -3.4064
    -3.3968  -3.3908  -3.2551  -3.2290  -3.2199  -3.1852  -3.1763  -3.1556
    -3.0866  -3.0512  -3.0473  -2.9048  -2.7960  -2.7920  -2.7765  -2.7691
    -2.7612  -2.6740  -2.5387  -2.5287  -2.5169  -2.4865  -2.4766  -2.3941
    -2.2804  -2.2087  -2.1967  -2.1824  -2.1619  -2.1251  -2.0777  -2.0535
    -2.0450  -2.0206  -1.9817  -1.8800  -1.8311  -1.8257  -1.8015  -1.7438
    -1.6751  -1.6443  -1.6104  -1.6013  -1.5738  -1.4583  -1.4075  -1.3858
    -1.3819  -1.3713  -1.2862  -1.2801  -1.2449  -1.1570  -1.1390  -1.1343
    -1.0839  -1.0259  -1.0208  -0.9913  -0.9842  -0.9494  -0.9376  -0.9055
    -0.8915  -0.8828  -0.8731  -0.8574  -0.8469  -0.8337  -0.7378  -0.7264
    -0.7150  -0.7033  -0.6910  -0.6874  -0.6738  -0.6009  -0.5426  -0.5203
    -0.4894  -0.4739  -0.4532  -0.4339  -0.4076  -0.3914  -0.3129  -0.2605
    -0.2335  -0.2269  -0.1916  -0.1673  -0.1387  -0.0096   0.0143   0.0621
     0.0989   0.1464   0.1766   0.1963   0.2120   0.2148   0.2197   0.2458
     0.2949   0.3203   0.3281   0.3397   0.3585   0.3802   0.3867   0.4112
     0.4381   0.5306   0.5593   0.5726   0.6405   0.6670   0.7619   0.7683
     0.8562   0.8707   0.9092   0.9599   1.0285   1.0447   1.0765   1.0999
     1.1277   1.1338   1.1720   1.1937   1.2321   1.2440   1.2875   1.3323
     1.3550   1.3901   1.4094   1.4232   1.4316   1.4823   1.5420   1.5985
     1.6553   1.6903   1.7026   1.7201   1.7580   1.8079   1.8226   1.8772
     1.8945   1.9062   1.9132   1.9702   1.9973   2.0065   2.0227   2.1292
     2.1426   2.1580   2.1683   2.1760   2.1818   2.1998   2.2197   2.3950
     2.4050   2.4193   2.4265   2.4340   2.6057   2.6483   2.8862   3.0048
     3.0761   3.2312   3.4822   3.4893   3.7699   3.8702   3.9546   4.1865
     4.4607   4.7091   4.7140   4.7635   4.9002   4.9392   5.0400   5.0653
     5.3098   5.3609   5.8373   5.9856   6.3799   6.5160   6.8449   6.9737
     7.3783

          k = 0.4000-0.6928 0.0000 ( 44692 PWs)   bands (ev):

    -5.6885  -5.6598  -5.0660  -4.7802  -4.4275  -4.1352  -3.8879  -3.8117
    -3.7519  -3.7009  -3.5979  -3.5884  -3.4952  -3.4907  -3.3993  -3.3766
    -3.3606  -3.3373  -3.3233  -3.3050  -3.1891  -3.1667  -3.1576  -3.1305
    -3.1117  -3.1048  -3.0389  -2.9381  -2.9031  -2.7956  -2.7693  -2.7540
    -2.7457  -2.7260  -2.6977  -2.6329  -2.5244  -2.5147  -2.4369  -2.3294
    -2.3150  -2.2624  -2.1847  -2.1429  -2.1244  -2.0783  -1.9915  -1.9562
    -1.9264  -1.9022  -1.8770  -1.8438  -1.8306  -1.7939  -1.7172  -1.7083
    -1.6958  -1.6720  -1.6678  -1.6628  -1.6146  -1.5947  -1.5804  -1.4696
    -1.4555  -1.3959  -1.3625  -1.2965  -1.2717  -1.2372  -1.2129  -1.1731
    -1.1677  -1.1634  -1.0897  -1.0792  -1.0523  -1.0390  -1.0014  -0.9537
    -0.9237  -0.8723  -0.8374  -0.8205  -0.8194  -0.8053  -0.7494  -0.6770
    -0.6331  -0.6275  -0.6089  -0.5937  -0.5577  -0.5456  -0.5315  -0.5168
    -0.5038  -0.4972  -0.4718  -0.4214  -0.4166  -0.4043  -0.3977  -0.3826
    -0.3700  -0.3686  -0.3416  -0.2943  -0.2751  -0.1229  -0.0642   0.0122
     0.0303   0.0625   0.1325   0.1433   0.1669   0.1804   0.2154   0.2364
     0.2394   0.2611   0.3173   0.3635   0.3814   0.3983   0.4461   0.4586
     0.5136   0.5304   0.5635   0.6579   0.7270   0.7825   0.7951   0.8141
     0.8606   0.8845   0.9075   0.9293   0.9433   0.9493   0.9705   0.9788
     1.0669   1.1132   1.1159   1.1625   1.1682   1.1913   1.1983   1.2182
     1.2316   1.3800   1.4096   1.4471   1.5044   1.5565   1.6250   1.6384
     1.6913   1.7372   1.7576   1.7735   1.8385   1.8622   1.9321   1.9559
     1.9718   1.9853   1.9930   2.0138   2.0379   2.0825   2.1494   2.1532
     2.1739   2.1848   2.2001   2.2094   2.2155   2.2851   2.3868   2.4166
     2.4243   2.4287   2.4363   2.4979   2.5226   2.6232   2.7254   3.4390
     3.6003   3.6120   3.7747   3.8308   3.9438   3.9778   3.9923   4.3096
     4.5716   4.6134   4.8106   5.0506   5.0696   5.1490   5.2043   5.3490
     5.4492   5.5218   5.5752   5.8377   5.9631   6.0404   6.4494   6.6593
     6.6983

          k = 0.4000-0.4619 0.0000 ( 44692 PWs)   bands (ev):

    -5.6917  -5.6561  -5.0669  -4.7818  -4.4244  -4.1368  -3.8873  -3.8109
    -3.7516  -3.7015  -3.5984  -3.5888  -3.4949  -3.4903  -3.4008  -3.3765
    -3.3616  -3.3336  -3.3245  -3.3052  -3.1887  -3.1666  -3.1573  -3.1308
    -3.1110  -3.1058  -3.0370  -2.9372  -2.9047  -2.7943  -2.7682  -2.7557
    -2.7441  -2.7257  -2.6991  -2.6336  -2.5245  -2.5151  -2.4373  -2.3296
    -2.3144  -2.2627  -2.1841  -2.1406  -2.1279  -2.0762  -1.9961  -1.9569
    -1.9244  -1.9014  -1.8779  -1.8442  -1.8309  -1.7956  -1.7165  -1.7115
    -1.6941  -1.6743  -1.6678  -1.6618  -1.6164  -1.5959  -1.5750  -1.4715
    -1.4549  -1.3962  -1.3642  -1.2948  -1.2743  -1.2362  -1.2128  -1.1739
    -1.1666  -1.1613  -1.0893  -1.0789  -1.0542  -1.0381  -1.0014  -0.9549
    -0.9270  -0.8724  -0.8371  -0.8225  -0.8178  -0.8070  -0.7473  -0.6748
    -0.6326  -0.6287  -0.6100  -0.5977  -0.5557  -0.5456  -0.5321  -0.5125
    -0.4993  -0.4952  -0.4715  -0.4265  -0.4157  -0.4026  -0.3938  -0.3813
    -0.3722  -0.3709  -0.3403  -0.2948  -0.2735  -0.1207  -0.0628   0.0120
     0.0301   0.0621   0.1347   0.1424   0.1669   0.1782   0.2134   0.2377
     0.2417   0.2598   0.3152   0.3612   0.3821   0.3997   0.4465   0.4577
     0.5097   0.5348   0.5653   0.6580   0.7266   0.7825   0.7958   0.8132
     0.8601   0.8861   0.9081   0.9273   0.9422   0.9495   0.9690   0.9806
     1.0647   1.1124   1.1151   1.1636   1.1681   1.1911   1.1987   1.2201
     1.2327   1.3798   1.4137   1.4462   1.5051   1.5558   1.6251   1.6367
     1.6909   1.7375   1.7571   1.7725   1.8381   1.8635   1.9329   1.9578
     1.9729   1.9863   1.9928   2.0139   2.0370   2.0812   2.1487   2.1535
     2.1742   2.1866   2.2003   2.2093   2.2152   2.2850   2.3864   2.4156
     2.4222   2.4284   2.4334   2.4981   2.5207   2.6228   2.7251   3.4403
     3.6000   3.6119   3.7774   3.8292   3.9447   3.9767   3.9966   4.3076
     4.5716   4.6113   4.8110   5.0524   5.0692   5.1510   5.2020   5.3464
     5.4435   5.5180   5.5814   5.8359   5.9626   6.0422   6.4490   6.6606
     6.7014

     the Fermi energy is     2.1939 ev

!    total energy              =  -27755.49123546 Ry
     total all-electron energy =  -1326642.256652 Ry
     estimated scf accuracy    <       0.00000081 Ry
     smearing contrib. (-TS)   =       0.00460199 Ry
     internal energy E=F+TS    =  -27755.49583745 Ry

     The total energy is F=E-TS. E is the sum of the following terms:
     one-electron contribution =  -22789.36761028 Ry
     hartree contribution      =   11697.52405540 Ry
     xc contribution           =    -890.77507159 Ry
     ewald contribution        =    9701.11868921 Ry
     one-center paw contrib.   =  -25473.99590019 Ry

     convergence has been achieved in  16 iterations

     negative rho (up, down):  3.340E-03 0.000E+00

     Forces acting on atoms (cartesian axes, Ry/au):

     atom    1 type  1   force =     0.00226564    0.00164944   -0.00572723
     atom    2 type  1   force =     0.00061131    0.00239107   -0.00430599
     atom    3 type  1   force =    -0.00161056    0.00476414   -0.00611450
     atom    4 type  1   force =     0.00210599   -0.00035612   -0.00422849
     atom    5 type  1   force =     0.00006495   -0.00011074   -0.00344708
     atom    6 type  1   force =    -0.00199363    0.00056141   -0.00401465
     atom    7 type  1   force =     0.00192112   -0.00294087   -0.00478439
     atom    8 type  1   force =    -0.00037838   -0.00194005   -0.00375519
     atom    9 type  1   force =    -0.00259177   -0.00146991   -0.00399209
     atom   10 type  1   force =     0.00304421    0.00143279    0.00737123
     atom   11 type  1   force =     0.00039852    0.00128687    0.00282414
     atom   12 type  1   force =    -0.00207030    0.00233644    0.00427915
     atom   13 type  1   force =     0.00085632   -0.00049942    0.00574621
     atom   14 type  1   force =     0.00001871   -0.00036871    0.00192784
     atom   15 type  1   force =    -0.00105450    0.00132747    0.00665267
     atom   16 type  1   force =     0.00170574   -0.00342949    0.00541683
     atom   17 type  1   force =    -0.00013362   -0.00254702    0.00492098
     atom   18 type  1   force =    -0.00314463   -0.00134332    0.00390101
     atom   19 type  1   force =     0.00001383    0.00007127    0.00016426
     atom   20 type  1   force =    -0.00000402    0.00008435    0.00016729
     atom   21 type  1   force =     0.00000288    0.00013381    0.00001863
     atom   22 type  1   force =     0.00001076    0.00025651   -0.00024828
     atom   23 type  1   force =     0.00005040    0.00019397    0.00007478
     atom   24 type  1   force =    -0.00005070    0.00019231    0.00008033
     atom   25 type  1   force =     0.00010990    0.00026872    0.00028107
     atom   26 type  1   force =     0.00000630    0.00019520    0.00019733
     atom   27 type  1   force =    -0.00010297    0.00026135    0.00025962
     atom   28 type  1   force =     0.00005789    0.00040844    0.00087597
     atom   29 type  1   force =    -0.00001214    0.00039240    0.00082549
     atom   30 type  1   force =     0.00001490    0.00043399    0.00009300
     atom   31 type  1   force =     0.00001626    0.00114623   -0.00039342
     atom   32 type  1   force =     0.00011166    0.00032212    0.00006274
     atom   33 type  1   force =    -0.00010042    0.00032054    0.00007344
     atom   34 type  1   force =    -0.00002311    0.00037586    0.00000915
     atom   35 type  1   force =     0.00000388    0.00045828    0.00014429
     atom   36 type  1   force =     0.00004744    0.00037571    0.00000391
     atom   37 type  2   force =    -0.00016782   -0.00663502   -0.00536004
     The non-local contrib.  to forces
     atom    1 type  1   force =     0.00283440    0.00159491   -0.01653023
     atom    2 type  1   force =     0.00000812    0.00211023   -0.01713097
     atom    3 type  1   force =    -0.00089729    0.00062760   -0.01638969
     atom    4 type  1   force =     0.00188745   -0.00141424   -0.01770582
     atom    5 type  1   force =    -0.00013982    0.00008050   -0.01775229
     atom    6 type  1   force =    -0.00136542    0.00032738   -0.01682674
     atom    7 type  1   force =     0.00142481   -0.00128522   -0.01721595
     atom    8 type  1   force =    -0.00052091   -0.00155590   -0.01723496
     atom    9 type  1   force =    -0.00189800   -0.00049186   -0.01692095
     atom   10 type  1   force =     0.00180944    0.00041114    0.00045280
     atom   11 type  1   force =    -0.00068016    0.00177761    0.00069843
     atom   12 type  1   force =     0.00021491    0.00230419    0.00116636
     atom   13 type  1   force =     0.00166019   -0.00103254    0.00123925
     atom   14 type  1   force =     0.00015914   -0.00007798   -0.00047601
     atom   15 type  1   force =    -0.00197946   -0.00045990    0.00173507
     atom   16 type  1   force =     0.00200562   -0.00194133    0.00098853
     atom   17 type  1   force =    -0.00146803   -0.00184846    0.00102637
     atom   18 type  1   force =    -0.00203278   -0.00235016    0.00199107
     atom   19 type  1   force =    -0.00184150   -0.00045262    0.00307525
     atom   20 type  1   force =     0.00169270   -0.00034169    0.00352534
     atom   21 type  1   force =     0.00009116    0.00079336    0.00243959
     atom   22 type  1   force =    -0.00000615    0.00595150   -0.00539415
     atom   23 type  1   force =     0.00155832    0.00025366    0.00250966
     atom   24 type  1   force =    -0.00161152    0.00010482    0.00284378
     atom   25 type  1   force =    -0.00104960   -0.00003548    0.00056317
     atom   26 type  1   force =    -0.00016422   -0.00219883    0.00032044
     atom   27 type  1   force =     0.00106527   -0.00006483    0.00145745
     atom   28 type  1   force =     0.03430159    0.02758802    0.02457831
     atom   29 type  1   force =    -0.03472088    0.02750470    0.02484740
     atom   30 type  1   force =     0.00003950   -0.00025140    0.01405361
     atom   31 type  1   force =    -0.00022661   -0.01073583   -0.03307488
     atom   32 type  1   force =    -0.00528487   -0.00176113    0.01758671
     atom   33 type  1   force =     0.00525547   -0.00183847    0.01771180
     atom   34 type  1   force =    -0.00042110   -0.00046926    0.01516433
     atom   35 type  1   force =    -0.00007439    0.00069913    0.01490090
     atom   36 type  1   force =     0.00033071   -0.00053050    0.01509395
     atom   37 type  2   force =    -0.00001397    0.01585495   -0.02269078
     The ionic contribution  to forces
     atom    1 type  1   force =     0.13851759    0.08187097  -96.24665069
     atom    2 type  1   force =     0.01521216    0.14525967  -96.18542531
     atom    3 type  1   force =    -0.13330558    0.21216861  -96.20098915
     atom    4 type  1   force =     0.13177088   -0.05429477  -96.17665151
     atom    5 type  1   force =     0.00193558    0.00434911  -96.13572930
     atom    6 type  1   force =    -0.12671334    0.08226089  -96.14730002
     atom    7 type  1   force =     0.11453902   -0.22627740  -96.19409631
     atom    8 type  1   force =     0.00508971   -0.15441470  -96.15048824
     atom    9 type  1   force =    -0.13500438   -0.08415805  -96.14467942
     atom   10 type  1   force =     0.14025923    0.10154152  -32.38951584
     atom   11 type  1   force =    -0.06565042    0.13310672  -32.46109708
     atom   12 type  1   force =    -0.05474382    0.18857645  -32.38318860
     atom   13 type  1   force =     0.04478370   -0.09084200  -32.42998179
     atom   14 type  1   force =    -0.01502824   -0.01216278  -32.57522248
     atom   15 type  1   force =    -0.03378411    0.03894776  -32.37783606
     atom   16 type  1   force =     0.11188426   -0.16463004  -32.39936006
     atom   17 type  1   force =    -0.00605524   -0.08772237  -32.42454155
     atom   18 type  1   force =    -0.12637428   -0.14565739  -32.22272850
     atom   19 type  1   force =     0.10116476   -0.00285659   32.28758395
     atom   20 type  1   force =    -0.08272146   -0.02116288   32.17744894
     atom   21 type  1   force =    -0.02006963   -0.03494046   31.52650986
     atom   22 type  1   force =    -0.00535360    0.05373950   32.26417018
     atom   23 type  1   force =    -0.04260990   -0.01350683   31.55642989
     atom   24 type  1   force =     0.04646518    0.01235048   31.52828394
     atom   25 type  1   force =    -0.06646815   -0.02504419   31.98712193
     atom   26 type  1   force =     0.02608699    0.08408656   32.14838829
     atom   27 type  1   force =     0.04291506   -0.01975095   31.84553090
     atom   28 type  1   force =    -0.28269913   -0.29138865   95.42647508
     atom   29 type  1   force =     0.28317070   -0.27968348   95.35646864
     atom   30 type  1   force =    -0.00859718    0.00267264   95.35574979
     atom   31 type  1   force =     0.01117412    0.95420457   95.47465700
     atom   32 type  1   force =     0.04379460    0.02672377   95.09297230
     atom   33 type  1   force =    -0.05361128    0.03495030   95.10434004
     atom   34 type  1   force =     0.02207584    0.02283348   95.32200919
     atom   35 type  1   force =     0.00230115   -0.00216423   95.23295102
     atom   36 type  1   force =    -0.02646750    0.03076045   95.29609227
     atom   37 type  2   force =     0.00211675   -0.49974567   12.26229868
     The local contribution  to forces
     atom    1 type  1   force =    -0.13884060   -0.08165730   96.23978359
     atom    2 type  1   force =    -0.01440393   -0.14460847   96.18070888
     atom    3 type  1   force =     0.13224035   -0.20743889   96.19363474
     atom    4 type  1   force =    -0.13114957    0.05517362   96.17263664
     atom    5 type  1   force =    -0.00163775   -0.00459734   96.13269240
     atom    6 type  1   force =     0.12561332   -0.08192255   96.14274430
     atom    7 type  1   force =    -0.11380017    0.22425420   96.18902261
     atom    8 type  1   force =    -0.00499900    0.15365435   96.14651740
     atom    9 type  1   force =     0.13402090    0.08318152   96.14021378
     atom   10 type  1   force =    -0.13859111   -0.10020433   32.39601455
     atom   11 type  1   force =     0.06692273   -0.13333735   32.46251767
     atom   12 type  1   force =     0.05193460   -0.18818262   32.38578016
     atom   13 type  1   force =    -0.04538542    0.09123220   32.43402403
     atom   14 type  1   force =     0.01480959    0.01162809   32.57661056
     atom   15 type  1   force =     0.03455230   -0.03697567   32.38234905
     atom   16 type  1   force =    -0.11209046    0.16264783   32.40313701
     atom   17 type  1   force =     0.00752478    0.08674893   32.42767633
     atom   18 type  1   force =     0.12488724    0.14635981   32.22481977
     atom   19 type  1   force =    -0.09920977    0.00334792  -32.28745132
     atom   20 type  1   force =     0.08104460    0.02161077  -32.17778211
     atom   21 type  1   force =     0.01986416    0.03403981  -31.52654351
     atom   22 type  1   force =     0.00549183   -0.05920545  -32.25656235
     atom   23 type  1   force =     0.04089762    0.01329049  -31.55640604
     atom   24 type  1   force =    -0.04482563   -0.01235288  -31.52853904
     atom   25 type  1   force =     0.06712584    0.02526994  -31.98505383
     atom   26 type  1   force =    -0.02589689   -0.08146725  -32.14556828
     atom   27 type  1   force =    -0.04358578    0.02012758  -31.84435898
     atom   28 type  1   force =     0.24692663    0.26278240  -95.43586731
     atom   29 type  1   force =    -0.24697452    0.25127764  -95.36617879
     atom   30 type  1   force =     0.00855073   -0.00187522  -95.35300403
     atom   31 type  1   force =    -0.01081102   -0.93171411  -95.43439494
     atom   32 type  1   force =    -0.03905481   -0.02483152  -95.09397022
     atom   33 type  1   force =     0.04884006   -0.03297233  -95.10533747
     atom   34 type  1   force =    -0.02174099   -0.02222193  -95.32026589
     atom   35 type  1   force =    -0.00225417    0.00236809  -95.23087412
     atom   36 type  1   force =     0.02626559   -0.03004711  -95.29423836
     atom   37 type  2   force =    -0.00226700    0.47725363  -12.24506091
     The core correction contribution to forces
     atom    1 type  1   force =    -0.00043273   -0.00025245    0.01758135
     atom    2 type  1   force =    -0.00000010   -0.00044135    0.01744669
     atom    3 type  1   force =     0.00033016   -0.00063439    0.01764605
     atom    4 type  1   force =    -0.00038011    0.00023021    0.01741432
     atom    5 type  1   force =     0.00001094   -0.00005276    0.01731169
     atom    6 type  1   force =     0.00033668   -0.00020695    0.01731324
     atom    7 type  1   force =    -0.00030110    0.00054075    0.01744277
     atom    8 type  1   force =     0.00003952    0.00038389    0.01730634
     atom    9 type  1   force =     0.00035918    0.00019377    0.01731393
     atom   10 type  1   force =    -0.00039269   -0.00027465    0.00081741
     atom   11 type  1   force =     0.00002109   -0.00029818    0.00112589
     atom   12 type  1   force =     0.00026198   -0.00046072    0.00091736
     atom   13 type  1   force =    -0.00014298    0.00017237    0.00096050
     atom   14 type  1   force =     0.00001012    0.00002314    0.00142336
     atom   15 type  1   force =     0.00016085   -0.00014172    0.00081356
     atom   16 type  1   force =    -0.00032653    0.00049434    0.00098250
     atom   17 type  1   force =     0.00006276    0.00033776    0.00103994
     atom   18 type  1   force =     0.00040527    0.00049575    0.00017866
     atom   19 type  1   force =    -0.00020865    0.00006110   -0.00245315
     atom   20 type  1   force =     0.00019286    0.00007233   -0.00242092
     atom   21 type  1   force =     0.00001185    0.00011816   -0.00188209
     atom   22 type  1   force =    -0.00000285   -0.00016680   -0.00183232
     atom   23 type  1   force =     0.00004466   -0.00001515   -0.00184751
     atom   24 type  1   force =    -0.00004025   -0.00002737   -0.00188111
     atom   25 type  1   force =     0.00028685    0.00009675   -0.00183541
     atom   26 type  1   force =    -0.00002378   -0.00017440   -0.00232167
     atom   27 type  1   force =    -0.00028279    0.00010364   -0.00182954
     atom   28 type  1   force =     0.00141258    0.00140214   -0.01401510
     atom   29 type  1   force =    -0.00133918    0.00131783   -0.01403442
     atom   30 type  1   force =    -0.00001334   -0.00008573   -0.01651533
     atom   31 type  1   force =    -0.00006421   -0.01045421   -0.00746781
     atom   32 type  1   force =     0.00068050    0.00017062   -0.01629054
     atom   33 type  1   force =    -0.00067164    0.00017969   -0.01630816
     atom   34 type  1   force =     0.00000859    0.00017728   -0.01666192
     atom   35 type  1   force =     0.00001321   -0.00054809   -0.01642602
     atom   36 type  1   force =    -0.00001429    0.00018828   -0.01663919
     atom   37 type  2   force =     0.00000000    0.00000000    0.00000000
     The Hubbard contrib.    to forces
     atom    1 type  1   force =     0.00000000    0.00000000    0.00000000
     atom    2 type  1   force =     0.00000000    0.00000000    0.00000000
     atom    3 type  1   force =     0.00000000    0.00000000    0.00000000
     atom    4 type  1   force =     0.00000000    0.00000000    0.00000000
     atom    5 type  1   force =     0.00000000    0.00000000    0.00000000
     atom    6 type  1   force =     0.00000000    0.00000000    0.00000000
     atom    7 type  1   force =     0.00000000    0.00000000    0.00000000
     atom    8 type  1   force =     0.00000000    0.00000000    0.00000000
     atom    9 type  1   force =     0.00000000    0.00000000    0.00000000
     atom   10 type  1   force =     0.00000000    0.00000000    0.00000000
     atom   11 type  1   force =     0.00000000    0.00000000    0.00000000
     atom   12 type  1   force =     0.00000000    0.00000000    0.00000000
     atom   13 type  1   force =     0.00000000    0.00000000    0.00000000
     atom   14 type  1   force =     0.00000000    0.00000000    0.00000000
     atom   15 type  1   force =     0.00000000    0.00000000    0.00000000
     atom   16 type  1   force =     0.00000000    0.00000000    0.00000000
     atom   17 type  1   force =     0.00000000    0.00000000    0.00000000
     atom   18 type  1   force =     0.00000000    0.00000000    0.00000000
     atom   19 type  1   force =     0.00000000    0.00000000    0.00000000
     atom   20 type  1   force =     0.00000000    0.00000000    0.00000000
     atom   21 type  1   force =     0.00000000    0.00000000    0.00000000
     atom   22 type  1   force =     0.00000000    0.00000000    0.00000000
     atom   23 type  1   force =     0.00000000    0.00000000    0.00000000
     atom   24 type  1   force =     0.00000000    0.00000000    0.00000000
     atom   25 type  1   force =     0.00000000    0.00000000    0.00000000
     atom   26 type  1   force =     0.00000000    0.00000000    0.00000000
     atom   27 type  1   force =     0.00000000    0.00000000    0.00000000
     atom   28 type  1   force =     0.00000000    0.00000000    0.00000000
     atom   29 type  1   force =     0.00000000    0.00000000    0.00000000
     atom   30 type  1   force =     0.00000000    0.00000000    0.00000000
     atom   31 type  1   force =     0.00000000    0.00000000    0.00000000
     atom   32 type  1   force =     0.00000000    0.00000000    0.00000000
     atom   33 type  1   force =     0.00000000    0.00000000    0.00000000
     atom   34 type  1   force =     0.00000000    0.00000000    0.00000000
     atom   35 type  1   force =     0.00000000    0.00000000    0.00000000
     atom   36 type  1   force =     0.00000000    0.00000000    0.00000000
     atom   37 type  2   force =     0.00000000    0.00000000    0.00000000
     The SCF correction term to forces
     atom    1 type  1   force =     0.00000000    0.00000000   -0.00000000
     atom    2 type  1   force =    -0.00000000    0.00000000    0.00000000
     atom    3 type  1   force =     0.00000000    0.00000000   -0.00000000
     atom    4 type  1   force =    -0.00000000   -0.00000000   -0.00000000
     atom    5 type  1   force =    -0.00000000    0.00000000   -0.00000000
     atom    6 type  1   force =     0.00000000    0.00000000   -0.00000000
     atom    7 type  1   force =     0.00000000   -0.00000000   -0.00000000
     atom    8 type  1   force =     0.00000000   -0.00000000    0.00000000
     atom    9 type  1   force =    -0.00000000   -0.00000000   -0.00000000
     atom   10 type  1   force =    -0.00000000   -0.00000000   -0.00000000
     atom   11 type  1   force =    -0.00000000    0.00000000   -0.00000000
     atom   12 type  1   force =     0.00000000    0.00000000   -0.00000000
     atom   13 type  1   force =    -0.00000000   -0.00000000   -0.00000000
     atom   14 type  1   force =     0.00000000    0.00000000   -0.00000000
     atom   15 type  1   force =    -0.00000000   -0.00000000   -0.00000000
     atom   16 type  1   force =     0.00000000   -0.00000000   -0.00000000
     atom   17 type  1   force =    -0.00000000   -0.00000000   -0.00000000
     atom   18 type  1   force =    -0.00000000   -0.00000000   -0.00000000
     atom   19 type  1   force =     0.00010762   -0.00002849   -0.00068269
     atom   20 type  1   force =    -0.00021409   -0.00009412   -0.00069616
     atom   21 type  1   force =     0.00010396    0.00012300   -0.00059742
     atom   22 type  1   force =    -0.00011984   -0.00006218   -0.00072186
     atom   23 type  1   force =     0.00015833    0.00017185   -0.00070343
     atom   24 type  1   force =    -0.00003985    0.00011731   -0.00071944
     atom   25 type  1   force =     0.00021358   -0.00001826   -0.00060699
     atom   26 type  1   force =     0.00000283   -0.00005082   -0.00071366
     atom   27 type  1   force =    -0.00021611   -0.00015404   -0.00063241
     atom   28 type  1   force =     0.00011483    0.00002459   -0.00038722
     atom   29 type  1   force =    -0.00014964   -0.00002422   -0.00036956
     atom   30 type  1   force =     0.00003382   -0.00002624   -0.00028325
     atom   31 type  1   force =    -0.00005739   -0.00015413   -0.00020500
     atom   32 type  1   force =    -0.00002513    0.00002042   -0.00032772
     atom   33 type  1   force =     0.00008560    0.00000141   -0.00042497
     atom   34 type  1   force =     0.00005319    0.00005635   -0.00032877
     atom   35 type  1   force =     0.00001671    0.00010343   -0.00049969
     atom   36 type  1   force =    -0.00006845    0.00000465   -0.00039696
     atom   37 type  2   force =    -0.00000498    0.00000213    0.00000077

     Total force =     0.008813     Total SCF correction =     0.002393
     SCF correction compared to forces is large: reduce conv_thr to get better values

     Writing all to output data dir ./pwscf.save/

     init_run     :     15.47s CPU     15.83s WALL (       1 calls)
     electrons    :    345.47s CPU    358.93s WALL (       1 calls)
     forces       :      3.53s CPU      4.22s WALL (       1 calls)

     Called by init_run:
     wfcinit      :      5.77s CPU      5.95s WALL (       1 calls)
     potinit      :      8.28s CPU      8.39s WALL (       1 calls)
     hinit0       :      0.83s CPU      0.84s WALL (       1 calls)

     Called by electrons:
     c_bands      :    292.27s CPU    301.75s WALL (      17 calls)
     sum_band     :     31.77s CPU     32.93s WALL (      17 calls)
     v_of_rho     :     19.16s CPU     20.97s WALL (      17 calls)
     newd         :      2.15s CPU      2.74s WALL (      17 calls)
     PAW_pot      :      3.64s CPU      3.73s WALL (      17 calls)
     mix_rho      :      3.85s CPU      4.03s WALL (      17 calls)
     vdW_kernel   :      6.91s CPU      6.95s WALL (       1 calls)

     Called by c_bands:
     init_us_2    :      2.43s CPU      2.48s WALL (     468 calls)
     init_us_2:cp :      2.43s CPU      2.48s WALL (     468 calls)
     cegterg      :    284.09s CPU    293.19s WALL (     221 calls)

     Called by *egterg:
     cdiaghg      :     63.04s CPU     64.13s WALL (    1136 calls)
     h_psi        :    142.11s CPU    148.76s WALL (    1162 calls)
     s_psi        :     13.62s CPU     13.75s WALL (    1162 calls)
     g_psi        :      0.43s CPU      0.44s WALL (     928 calls)

     Called by h_psi:
     h_psi:calbec :     19.95s CPU     21.55s WALL (    1162 calls)
     vloc_psi     :    107.23s CPU    111.88s WALL (    1162 calls)
     add_vuspsi   :     13.83s CPU     14.21s WALL (    1162 calls)

     General routines
     calbec       :     27.34s CPU     29.24s WALL (    1435 calls)
     fft          :     10.78s CPU     12.58s WALL (    1131 calls)
     ffts         :      2.26s CPU      2.30s WALL (    4371 calls)
     fftw         :    109.44s CPU    113.45s WALL (  290445 calls)
     interpolate  :      0.58s CPU      0.61s WALL (      17 calls)

     Parallel routines

     PWSCF        :   6m 6.20s CPU   6m23.70s WALL


   This run was terminated on:   9: 1: 0  27Jan2025            

=------------------------------------------------------------------------------=
   JOB DONE.
=------------------------------------------------------------------------------=
