
     Program PWSCF v.7.1 starts on  2Dec2025 at 15:59:11 
        Git branch: heads/qe-7.1
        Last git commit: 48ba0178f8fede6d020eb786884699a9f063f55d-dirty
        Last git commit date: Fri Jan 27 14:22:33 2023 +0000
        Last git commit subject: Merge branch 'fix_hubbard' into 'develop'

     This program is part of the open-source Quantum ESPRESSO suite
     for quantum simulation of materials; please cite
         "P. Giannozzi et al., J. Phys.:Condens. Matter 21 395502 (2009);
         "P. Giannozzi et al., J. Phys.:Condens. Matter 29 465901 (2017);
         "P. Giannozzi et al., J. Chem. Phys. 152 154105 (2020);
          URL http://www.quantum-espresso.org", 
     in publications or presentations arising from this work. More details at
     http://www.quantum-espresso.org/quote

     Parallel version (MPI), running on    96 processors

     MPI processes distributed on     2 nodes
     281213 MiB available memory on the printing compute node when the environment starts

     Reading input from espresso.pwi
Warning: card &CELL ignored
Warning: card / ignored
Warning: card &FCP ignored
Warning: card / ignored
Warning: card &RISM ignored
Warning: card / ignored

     Current dimensions of program PWSCF are:
     Max number of different atomic species (ntypx) = 10
     Max number of k-points (npk) =  40000
     Max angular momentum in pseudopotentials (lmaxx) =  4
     file Co.pbe-n-kjpaw_psl.1.0.0.UPF: wavefunction(s)  4S 3D renormalized
     file C.pbe-n-kjpaw_psl.1.0.0.UPF: wavefunction(s)  2S 2P renormalized
     file O.pbe-nl-kjpaw_psl.1.0.0.UPF: wavefunction(s)  2S 2P renormalized
     file H.pbe-kjpaw_psl.1.0.0.UPF: wavefunction(s)  1S renormalized

     **************************************************************************
     Initializing libbeef V0.1.2 with the BEEF-vdW functional.
     Citation: Wellendorff et al., PRB 85, 235149 (2012).
     **************************************************************************


     IMPORTANT: XC functional enforced from input :
     Exchange-correlation= BEEF-VDW
                           (   1   4  43  14   2   0   0)
     Any further DFT definition will be discarded
     Please, verify this is what you really want


     R & G space division:  proc/nbgrp/npool/nimage =      96
     Subspace diagonalization in iterative solution of the eigenvalue problem:
     one sub-group per band group will be used
     custom distributed-memory algorithm (size of sub-group:  2*  2 procs)


     Parallelization info
     --------------------
     sticks:   dense  smooth     PW     G-vecs:    dense   smooth      PW
     Min          43      23      6                 7829     3049     440
     Max          44      24      7                 7845     3068     465
     Sum        4153    2221    613               752179   293251   42993

     Using Slab Decomposition



     bravais-lattice index     =            0
     lattice parameter (alat)  =      14.1729  a.u.
     unit-cell volume          =    8574.3059 (a.u.)^3
     number of atoms/cell      =           39
     number of atomic types    =            4
     number of electrons       =       335.00
     number of Kohn-Sham states=          202
     kinetic-energy cutoff     =      40.0000  Ry
     charge density cutoff     =     300.0000  Ry
     scf convergence threshold =      1.0E-06
     mixing beta               =       0.7000
     number of iterations used =            8  local-TF  mixing
     Exchange-correlation= BEEF-VDW
                           (   1   4  43  14   2   0   0)

     celldm(1)=  14.172946  celldm(2)=   0.000000  celldm(3)=   0.000000
     celldm(4)=   0.000000  celldm(5)=   0.000000  celldm(6)=   0.000000

     crystal axes: (cart. coord. in units of alat)
               a(1) = (   1.000000   0.000000   0.000000 )  
               a(2) = (   0.500000   0.866025   0.000000 )  
               a(3) = (   0.000000   0.000000   3.477667 )  

     reciprocal axes: (cart. coord. in units 2 pi/alat)
               b(1) = (  1.000000 -0.577350  0.000000 )  
               b(2) = (  0.000000  1.154701  0.000000 )  
               b(3) = (  0.000000  0.000000  0.287549 )  


     PseudoPot. # 1 for Co read from file:
     /users/kbadger1/espresso/pseudo/pslibrary.1.0.0/pbe/PSEUDOPOTENTIALS/Co.pbe-n-kjpaw_psl.1.0.0.UPF
     MD5 check sum: 88af6ec42553d4236c267fdfcb472151
     Pseudo is Projector augmented-wave + core cor, Zval =  9.0
     Generated using 'atomic' code by A. Dal Corso  v.7.0
     Shape of augmentation charge: PSQ
     Using radial grid of 1193 points,  6 beta functions with: 
                l(1) =   0
                l(2) =   0
                l(3) =   1
                l(4) =   1
                l(5) =   2
                l(6) =   2
     Q(r) pseudized with 0 coefficients 


     PseudoPot. # 2 for C  read from file:
     /users/kbadger1/espresso/pseudo/pslibrary.1.0.0/pbe/PSEUDOPOTENTIALS/C.pbe-n-kjpaw_psl.1.0.0.UPF
     MD5 check sum: 6408e75cdba28732cea38a4db8498ce4
     Pseudo is Projector augmented-wave + core cor, Zval =  4.0
     Generated using 'atomic' code by A. Dal Corso  v.7.0
     Shape of augmentation charge: PSQ
     Using radial grid of 1073 points,  4 beta functions with: 
                l(1) =   0
                l(2) =   0
                l(3) =   1
                l(4) =   1
     Q(r) pseudized with 0 coefficients 


     PseudoPot. # 3 for O  read from file:
     /users/kbadger1/espresso/pseudo/pslibrary.1.0.0/pbe/PSEUDOPOTENTIALS/O.pbe-nl-kjpaw_psl.1.0.0.UPF
     MD5 check sum: f0439fab3598ca4e468f064226030408
     Pseudo is Projector augmented-wave + core cor, Zval =  6.0
     Generated using 'atomic' code by A. Dal Corso  v.7.0
     Shape of augmentation charge: PSQ
     Using radial grid of 1095 points,  4 beta functions with: 
                l(1) =   0
                l(2) =   0
                l(3) =   1
                l(4) =   1
     Q(r) pseudized with 0 coefficients 


     PseudoPot. # 4 for H  read from file:
     /users/kbadger1/espresso/pseudo/pslibrary.1.0.0/pbe/PSEUDOPOTENTIALS/H.pbe-kjpaw_psl.1.0.0.UPF
     MD5 check sum: fe4c6fa958fa6d3815bf5d2419cbf1df
     Pseudo is Projector augmented-wave, Zval =  1.0
     Generated using 'atomic' code by A. Dal Corso  v.7.0
     Shape of augmentation charge: PSQ
     Using radial grid of  929 points,  2 beta functions with: 
                l(1) =   0
                l(2) =   0
     Q(r) pseudized with 0 coefficients 


     atomic species   valence    mass     pseudopotential
        Co             9.00    58.93319     Co( 1.00)
        C              4.00    12.00000     C ( 1.00)
        O              6.00    15.99491     O ( 1.00)
        H              1.00     1.00783     H ( 1.00)

     Starting magnetic structure 
     atomic species   magnetization
        Co           1.000
        C            1.000
        O            0.000
        H            0.000

     No symmetry found



   Cartesian axes

     site n.     atom                  positions (alat units)
         1           Co  tau(   1) = (   0.0000000   0.1924501   1.3333333  )
         2           Co  tau(   2) = (   0.3333333   0.1924501   1.3333333  )
         3           Co  tau(   3) = (   0.6666667   0.1924501   1.3333333  )
         4           Co  tau(   4) = (   0.1666667   0.4811252   1.3333333  )
         5           Co  tau(   5) = (   0.5000000   0.4811252   1.3333333  )
         6           Co  tau(   6) = (   0.8333333   0.4811252   1.3333333  )
         7           Co  tau(   7) = (   0.3333333   0.7698004   1.3333333  )
         8           Co  tau(   8) = (   0.6666667   0.7698004   1.3333333  )
         9           Co  tau(   9) = (   1.0000000   0.7698004   1.3333333  )
        10           Co  tau(  10) = (   0.0000000   0.0000000   1.6036667  )
        11           Co  tau(  11) = (   0.3333333   0.0000000   1.6036667  )
        12           Co  tau(  12) = (   0.6666667   0.0000000   1.6036667  )
        13           Co  tau(  13) = (   0.1666667   0.2886751   1.6036667  )
        14           Co  tau(  14) = (   0.5000000   0.2886751   1.6036667  )
        15           Co  tau(  15) = (   0.8333333   0.2886751   1.6036667  )
        16           Co  tau(  16) = (   0.3333333   0.5773503   1.6036667  )
        17           Co  tau(  17) = (   0.6666667   0.5773503   1.6036667  )
        18           Co  tau(  18) = (   1.0000000   0.5773503   1.6036667  )
        19           Co  tau(  19) = (   0.0000000   0.1924501   1.8740000  )
        20           Co  tau(  20) = (   0.3333333   0.1924501   1.8740000  )
        21           Co  tau(  21) = (   0.6666667   0.1924501   1.8740000  )
        22           Co  tau(  22) = (   0.1666667   0.4811252   1.8740000  )
        23           Co  tau(  23) = (   0.5000000   0.4811252   1.8740000  )
        24           Co  tau(  24) = (   0.8333333   0.4811252   1.8740000  )
        25           Co  tau(  25) = (   0.3333333   0.7698004   1.8740000  )
        26           Co  tau(  26) = (   0.6666667   0.7698004   1.8740000  )
        27           Co  tau(  27) = (   1.0000000   0.7698004   1.8740000  )
        28           Co  tau(  28) = (   0.0000000   0.0000000   2.1443333  )
        29           Co  tau(  29) = (   0.3333333   0.0000000   2.1443333  )
        30           Co  tau(  30) = (   0.6666667   0.0000000   2.1443333  )
        31           Co  tau(  31) = (   0.1666667   0.2886751   2.1443333  )
        32           Co  tau(  32) = (   0.5000000   0.2886751   2.1443333  )
        33           Co  tau(  33) = (   0.8333333   0.2886751   2.1443333  )
        34           Co  tau(  34) = (   0.3333333   0.5773503   2.1443333  )
        35           Co  tau(  35) = (   0.6666667   0.5773503   2.1443333  )
        36           Co  tau(  36) = (   1.0000000   0.5773503   2.1443333  )
        37           C   tau(  37) = (   0.3903554   0.1692267   2.3345502  )
        38           O   tau(  38) = (   0.3453891   0.1214448   2.4809657  )
        39           H   tau(  39) = (   0.5260494   0.3170039   2.3476497  )

     number of k points=    13  Marzari-Vanderbilt smearing, width (Ry)=  0.0010
                       cart. coord. in units 2pi/alat
        k(    1) = (   0.0000000   0.0000000   0.0000000), wk =   0.0400000
        k(    2) = (   0.0000000   0.2309401   0.0000000), wk =   0.0800000
        k(    3) = (   0.0000000   0.4618802   0.0000000), wk =   0.0800000
        k(    4) = (   0.2000000  -0.1154701   0.0000000), wk =   0.0800000
        k(    5) = (   0.2000000   0.1154701   0.0000000), wk =   0.0800000
        k(    6) = (   0.2000000   0.3464102   0.0000000), wk =   0.0800000
        k(    7) = (   0.2000000  -0.5773503   0.0000000), wk =   0.0800000
        k(    8) = (   0.2000000  -0.3464102   0.0000000), wk =   0.0800000
        k(    9) = (   0.4000000  -0.2309401   0.0000000), wk =   0.0800000
        k(   10) = (   0.4000000   0.0000000   0.0000000), wk =   0.0800000
        k(   11) = (   0.4000000   0.2309401   0.0000000), wk =   0.0800000
        k(   12) = (   0.4000000  -0.6928203   0.0000000), wk =   0.0800000
        k(   13) = (   0.4000000  -0.4618802   0.0000000), wk =   0.0800000

     Dense  grid:   752179 G-vectors     FFT dimensions: (  80,  80, 288)

     Smooth grid:   293251 G-vectors     FFT dimensions: (  60,  60, 200)

     Estimated max dynamical RAM per process >      84.82 MB

     Estimated total dynamical RAM >       7.95 GB
     Generating pointlists ...
     new r_m :   0.0854 (alat units)  1.2098 (a.u.) for type    1
     new r_m :   0.0662 (alat units)  0.9380 (a.u.) for type    2
     new r_m :   0.0662 (alat units)  0.9380 (a.u.) for type    3
     new r_m :   0.0829 (alat units)  1.1754 (a.u.) for type    4

     Initial potential from superposition of free atoms

     starting charge     334.9897, renormalised to     335.0000

     negative rho (up, down):  3.046E-03 4.635E-04


     %%%%%%%%%%%%%%%%%%%%%%%%%%%%%%%%%%%%%%%%%%%%%%%%%%%%%%%%%%%%%%%%%%%%%%%%
     %                                                                      %
     % You are using vdW-DF, which was implemented by the Thonhauser group. %
     % Please cite the following two papers that made this development      %
     % possible and the two reviews that describe the various versions:     %
     %                                                                      %
     %   T. Thonhauser et al., PRL 115, 136402 (2015).                      %
     %   T. Thonhauser et al., PRB 76, 125112 (2007).                       %
     %   K. Berland et al., Rep. Prog. Phys. 78, 066501 (2015).             %
     %   D.C. Langreth et al., J. Phys.: Condens. Matter 21, 084203 (2009). %
     %                                                                      %
     % If you are calculating stress with vdW-DF, please also cite:         %
     %                                                                      %
     %   R. Sabatini et al., J. Phys.: Condens. Matter 24, 424209 (2012).   %
     %   C.M. Frostenson et al., Electr. Struct. 4, 014001 (2022).          %
     %                                                                      %
     %%%%%%%%%%%%%%%%%%%%%%%%%%%%%%%%%%%%%%%%%%%%%%%%%%%%%%%%%%%%%%%%%%%%%%%%

     %%%%%%%%%%%%%%%%%%%%%%%%%%%%%%%%%%%%%%%%%%%%%%%%%%%%%%%%%%%%%%%%%%%%%%%%
     %                                                                      %
     %  vdW-DF NEWS:                                                        %
     %                                                                      %
     %  * vdW-DF3 is now available. DOI: 10.1021/acs.jctc.0c00471           %
     %    use with input_dft = 'vdW-DF3-opt1' or 'vdW-DF3-opt2'             %
     %                                                                      %
     %  * Unscreened and range-separated hybrid vdW-DF-cx functionals       %
     %    DOI: 10.1063/1.4986522 and 10.1088/1361-648X/ac2ad2               %
     %    use with input_dft = 'vdW-DF-cx0'    and 'vdW-DF-ahcx'            %
     %  * Unscreened and range-separated hybrid vdW-DF2-b86r functionals    %
     %    DOI: 10.1063/1.4986522 and DOI: 10.1103/PhysRevX.12.041003        %
     %    use with input_dft = 'vdW-DF2-br0' and 'vdW-DF2-ahbr'             %
     %                                                                      %
     %%%%%%%%%%%%%%%%%%%%%%%%%%%%%%%%%%%%%%%%%%%%%%%%%%%%%%%%%%%%%%%%%%%%%%%%


     Starting wfcs are  333 randomized atomic wfcs
     Checking if some PAW data can be deallocated... 

     total cpu time spent up to now is       13.2 secs

     per-process dynamical memory:   212.5 Mb

     Self-consistent Calculation

     iteration #  1     ecut=    40.00 Ry     beta= 0.70
     Davidson diagonalization with overlap
     ethr =  1.00E-02,  avg # of iterations =  2.0

     negative rho (up, down):  6.245E-05 1.293E-06

     total cpu time spent up to now is       31.2 secs

     total energy              =   -6052.93861515 Ry
     estimated scf accuracy    <      39.52594807 Ry

     total magnetization       =    69.00 Bohr mag/cell
     absolute magnetization    =    81.30 Bohr mag/cell

     iteration #  2     ecut=    40.00 Ry     beta= 0.70
     Davidson diagonalization with overlap
     ethr =  1.00E-02,  avg # of iterations =  1.0

     negative rho (up, down):  2.539E-05 7.877E-07

     total cpu time spent up to now is       45.5 secs

     total energy              =   -6052.41809654 Ry
     estimated scf accuracy    <      24.85667158 Ry

     total magnetization       =    68.59 Bohr mag/cell
     absolute magnetization    =    76.63 Bohr mag/cell

     iteration #  3     ecut=    40.00 Ry     beta= 0.70
     Davidson diagonalization with overlap
     ethr =  7.42E-03,  avg # of iterations =  1.1

     negative rho (up, down):  1.327E-06 2.421E-06

     total cpu time spent up to now is       58.8 secs

     total energy              =   -6054.98399352 Ry
     estimated scf accuracy    <      84.69957752 Ry

     total magnetization       =    66.04 Bohr mag/cell
     absolute magnetization    =    73.33 Bohr mag/cell

     iteration #  4     ecut=    40.00 Ry     beta= 0.70
     Davidson diagonalization with overlap
     ethr =  7.42E-03,  avg # of iterations =  1.0

     negative rho (up, down):  1.488E-06 6.703E-07

     total cpu time spent up to now is       71.0 secs

     total energy              =   -6056.24146018 Ry
     estimated scf accuracy    <       5.08601822 Ry

     total magnetization       =    60.62 Bohr mag/cell
     absolute magnetization    =    70.38 Bohr mag/cell

     iteration #  5     ecut=    40.00 Ry     beta= 0.70
     Davidson diagonalization with overlap
     ethr =  1.52E-03,  avg # of iterations =  1.3

     negative rho (up, down):  1.349E-06 4.718E-07

     total cpu time spent up to now is       86.9 secs

     total energy              =   -6056.26683078 Ry
     estimated scf accuracy    <       2.65466907 Ry

     total magnetization       =    59.94 Bohr mag/cell
     absolute magnetization    =    69.36 Bohr mag/cell

     iteration #  6     ecut=    40.00 Ry     beta= 0.70
     Davidson diagonalization with overlap
     ethr =  7.92E-04,  avg # of iterations =  1.5

     negative rho (up, down):  1.126E-06 4.624E-07

     total cpu time spent up to now is       99.6 secs

     total energy              =   -6056.37424277 Ry
     estimated scf accuracy    <       0.54604913 Ry

     total magnetization       =    59.64 Bohr mag/cell
     absolute magnetization    =    68.87 Bohr mag/cell

     iteration #  7     ecut=    40.00 Ry     beta= 0.70
     Davidson diagonalization with overlap
     c_bands:  1 eigenvalues not converged
     ethr =  1.63E-04,  avg # of iterations =  7.2

     negative rho (up, down):  9.709E-07 4.469E-07

     total cpu time spent up to now is      120.8 secs

     total energy              =   -6056.41735144 Ry
     estimated scf accuracy    <       0.92126892 Ry

     total magnetization       =    60.09 Bohr mag/cell
     absolute magnetization    =    68.77 Bohr mag/cell

     iteration #  8     ecut=    40.00 Ry     beta= 0.70
     Davidson diagonalization with overlap
     ethr =  1.63E-04,  avg # of iterations =  1.7

     negative rho (up, down):  5.444E-07 2.332E-07

     total cpu time spent up to now is      133.5 secs

     total energy              =   -6056.42960555 Ry
     estimated scf accuracy    <       0.13749906 Ry

     total magnetization       =    60.14 Bohr mag/cell
     absolute magnetization    =    68.65 Bohr mag/cell

     iteration #  9     ecut=    40.00 Ry     beta= 0.70
     Davidson diagonalization with overlap
     c_bands:  2 eigenvalues not converged
     c_bands:  1 eigenvalues not converged
     c_bands:  2 eigenvalues not converged
     c_bands:  3 eigenvalues not converged
     ethr =  4.10E-05,  avg # of iterations =  9.6

     negative rho (up, down):  3.874E-07 1.840E-07

     total cpu time spent up to now is      159.2 secs

     total energy              =   -6056.42916389 Ry
     estimated scf accuracy    <       0.19601983 Ry

     total magnetization       =    60.16 Bohr mag/cell
     absolute magnetization    =    68.40 Bohr mag/cell

     iteration # 10     ecut=    40.00 Ry     beta= 0.70
     Davidson diagonalization with overlap
     ethr =  4.10E-05,  avg # of iterations =  2.6

     negative rho (up, down):  2.323E-07 1.334E-07

     total cpu time spent up to now is      176.5 secs

     total energy              =   -6056.43635453 Ry
     estimated scf accuracy    <       0.19481351 Ry

     total magnetization       =    60.85 Bohr mag/cell
     absolute magnetization    =    68.69 Bohr mag/cell

     iteration # 11     ecut=    40.00 Ry     beta= 0.70
     Davidson diagonalization with overlap
     ethr =  4.10E-05,  avg # of iterations =  2.2

     negative rho (up, down):  1.491E-07 8.304E-08

     total cpu time spent up to now is      189.8 secs

     total energy              =   -6056.43449815 Ry
     estimated scf accuracy    <       0.13500132 Ry

     total magnetization       =    60.88 Bohr mag/cell
     absolute magnetization    =    68.58 Bohr mag/cell

     iteration # 12     ecut=    40.00 Ry     beta= 0.70
     Davidson diagonalization with overlap
     ethr =  4.03E-05,  avg # of iterations =  1.6

     negative rho (up, down):  1.442E-06 1.293E-07

     total cpu time spent up to now is      205.5 secs

     total energy              =   -6056.43756297 Ry
     estimated scf accuracy    <       0.08425942 Ry

     total magnetization       =    60.90 Bohr mag/cell
     absolute magnetization    =    68.46 Bohr mag/cell

     iteration # 13     ecut=    40.00 Ry     beta= 0.70
     Davidson diagonalization with overlap
     ethr =  2.52E-05,  avg # of iterations =  1.5

     negative rho (up, down):  2.876E-08 3.918E-09

     total cpu time spent up to now is      218.4 secs

     total energy              =   -6056.43655451 Ry
     estimated scf accuracy    <       0.08219040 Ry

     total magnetization       =    60.93 Bohr mag/cell
     absolute magnetization    =    68.42 Bohr mag/cell

     iteration # 14     ecut=    40.00 Ry     beta= 0.70
     Davidson diagonalization with overlap
     ethr =  2.45E-05,  avg # of iterations =  2.3

     negative rho (up, down):  6.939E-07 6.102E-08

     total cpu time spent up to now is      235.0 secs

     total energy              =   -6056.43247366 Ry
     estimated scf accuracy    <       0.07101409 Ry

     total magnetization       =    60.80 Bohr mag/cell
     absolute magnetization    =    68.35 Bohr mag/cell

     iteration # 15     ecut=    40.00 Ry     beta= 0.70
     Davidson diagonalization with overlap
     ethr =  2.12E-05,  avg # of iterations =  1.8

     negative rho (up, down):  9.178E-03 7.752E-03

     total cpu time spent up to now is      248.2 secs

     total energy              =   -6056.42873708 Ry
     estimated scf accuracy    <       0.12296628 Ry

     total magnetization       =    60.94 Bohr mag/cell
     absolute magnetization    =    68.39 Bohr mag/cell

     iteration # 16     ecut=    40.00 Ry     beta= 0.70
     Davidson diagonalization with overlap
     ethr =  2.12E-05,  avg # of iterations =  1.9

     negative rho (up, down):  2.387E-02 2.222E-02

     total cpu time spent up to now is      264.0 secs

     total energy              =   -6056.43066873 Ry
     estimated scf accuracy    <       0.02978967 Ry

     total magnetization       =    60.90 Bohr mag/cell
     absolute magnetization    =    68.31 Bohr mag/cell

     iteration # 17     ecut=    40.00 Ry     beta= 0.70
     Davidson diagonalization with overlap
     c_bands:  1 eigenvalues not converged
     c_bands:  2 eigenvalues not converged
     c_bands:  2 eigenvalues not converged
     c_bands:  2 eigenvalues not converged
     c_bands:  4 eigenvalues not converged
     ethr =  8.89E-06,  avg # of iterations =  9.0

     negative rho (up, down):  3.496E-02 3.334E-02

     total cpu time spent up to now is      287.6 secs

     total energy              =   -6056.43108932 Ry
     estimated scf accuracy    <       0.03076782 Ry

     total magnetization       =    61.03 Bohr mag/cell
     absolute magnetization    =    68.35 Bohr mag/cell

     iteration # 18     ecut=    40.00 Ry     beta= 0.70
     Davidson diagonalization with overlap
     ethr =  8.89E-06,  avg # of iterations =  2.2

     negative rho (up, down):  2.398E-02 2.256E-02

     total cpu time spent up to now is      300.7 secs

     total energy              =   -6056.43180198 Ry
     estimated scf accuracy    <       0.03299526 Ry

     total magnetization       =    61.08 Bohr mag/cell
     absolute magnetization    =    68.37 Bohr mag/cell

     iteration # 19     ecut=    40.00 Ry     beta= 0.70
     Davidson diagonalization with overlap
     ethr =  8.89E-06,  avg # of iterations =  1.2

     negative rho (up, down):  1.700E-02 1.575E-02

     total cpu time spent up to now is      313.2 secs

     total energy              =   -6056.43154318 Ry
     estimated scf accuracy    <       0.00778964 Ry

     total magnetization       =    61.08 Bohr mag/cell
     absolute magnetization    =    68.37 Bohr mag/cell

     iteration # 20     ecut=    40.00 Ry     beta= 0.70
     Davidson diagonalization with overlap
     ethr =  2.33E-06,  avg # of iterations =  7.3

     negative rho (up, down):  1.162E-02 1.084E-02

     total cpu time spent up to now is      334.4 secs

     total energy              =   -6056.43096954 Ry
     estimated scf accuracy    <       0.01410012 Ry

     total magnetization       =    61.13 Bohr mag/cell
     absolute magnetization    =    68.40 Bohr mag/cell

     iteration # 21     ecut=    40.00 Ry     beta= 0.70
     Davidson diagonalization with overlap
     ethr =  2.33E-06,  avg # of iterations =  1.9

     negative rho (up, down):  1.608E-02 1.525E-02

     total cpu time spent up to now is      350.7 secs

     total energy              =   -6056.43158380 Ry
     estimated scf accuracy    <       0.00783757 Ry

     total magnetization       =    61.12 Bohr mag/cell
     absolute magnetization    =    68.40 Bohr mag/cell

     iteration # 22     ecut=    40.00 Ry     beta= 0.70
     Davidson diagonalization with overlap
     ethr =  2.33E-06,  avg # of iterations =  1.1

     negative rho (up, down):  1.724E-02 1.643E-02

     total cpu time spent up to now is      362.9 secs

     total energy              =   -6056.43174934 Ry
     estimated scf accuracy    <       0.00394955 Ry

     total magnetization       =    61.13 Bohr mag/cell
     absolute magnetization    =    68.41 Bohr mag/cell

     iteration # 23     ecut=    40.00 Ry     beta= 0.70
     Davidson diagonalization with overlap
     ethr =  1.18E-06,  avg # of iterations =  2.0

     negative rho (up, down):  1.422E-02 1.345E-02

     total cpu time spent up to now is      379.4 secs

     total energy              =   -6056.43172248 Ry
     estimated scf accuracy    <       0.00598937 Ry

     total magnetization       =    61.13 Bohr mag/cell
     absolute magnetization    =    68.41 Bohr mag/cell

     iteration # 24     ecut=    40.00 Ry     beta= 0.70
     Davidson diagonalization with overlap
     ethr =  1.18E-06,  avg # of iterations =  1.1

     negative rho (up, down):  1.090E-02 1.018E-02

     total cpu time spent up to now is      391.0 secs

     total energy              =   -6056.43196969 Ry
     estimated scf accuracy    <       0.00051514 Ry

     total magnetization       =    61.13 Bohr mag/cell
     absolute magnetization    =    68.41 Bohr mag/cell

     iteration # 25     ecut=    40.00 Ry     beta= 0.70
     Davidson diagonalization with overlap
     ethr =  1.54E-07,  avg # of iterations =  5.1

     negative rho (up, down):  8.124E-03 7.414E-03

     total cpu time spent up to now is      410.9 secs

     total energy              =   -6056.43201324 Ry
     estimated scf accuracy    <       0.00063261 Ry

     total magnetization       =    61.13 Bohr mag/cell
     absolute magnetization    =    68.41 Bohr mag/cell

     iteration # 26     ecut=    40.00 Ry     beta= 0.70
     Davidson diagonalization with overlap
     ethr =  1.54E-07,  avg # of iterations =  1.8

     negative rho (up, down):  7.293E-03 6.581E-03

     total cpu time spent up to now is      424.4 secs

     total energy              =   -6056.43208022 Ry
     estimated scf accuracy    <       0.00070489 Ry

     total magnetization       =    61.13 Bohr mag/cell
     absolute magnetization    =    68.41 Bohr mag/cell

     iteration # 27     ecut=    40.00 Ry     beta= 0.70
     Davidson diagonalization with overlap
     ethr =  1.54E-07,  avg # of iterations =  1.1

     negative rho (up, down):  6.080E-03 5.341E-03

     total cpu time spent up to now is      439.5 secs

     total energy              =   -6056.43208534 Ry
     estimated scf accuracy    <       0.00017621 Ry

     total magnetization       =    61.13 Bohr mag/cell
     absolute magnetization    =    68.41 Bohr mag/cell

     iteration # 28     ecut=    40.00 Ry     beta= 0.70
     Davidson diagonalization with overlap
     ethr =  5.26E-08,  avg # of iterations =  2.0

     negative rho (up, down):  3.621E-03 2.554E-03

     total cpu time spent up to now is      452.3 secs

     total energy              =   -6056.43212474 Ry
     estimated scf accuracy    <       0.00022954 Ry

     total magnetization       =    61.13 Bohr mag/cell
     absolute magnetization    =    68.41 Bohr mag/cell

     iteration # 29     ecut=    40.00 Ry     beta= 0.70
     Davidson diagonalization with overlap
     ethr =  5.26E-08,  avg # of iterations =  2.0

     negative rho (up, down):  2.601E-03 1.499E-03

     total cpu time spent up to now is      468.7 secs

     total energy              =   -6056.43213026 Ry
     estimated scf accuracy    <       0.00026868 Ry

     total magnetization       =    61.13 Bohr mag/cell
     absolute magnetization    =    68.41 Bohr mag/cell

     iteration # 30     ecut=    40.00 Ry     beta= 0.70
     Davidson diagonalization with overlap
     ethr =  5.26E-08,  avg # of iterations =  1.5

     negative rho (up, down):  2.673E-03 1.633E-03

     total cpu time spent up to now is      482.0 secs

     total energy              =   -6056.43209382 Ry
     estimated scf accuracy    <       0.00008157 Ry

     total magnetization       =    61.13 Bohr mag/cell
     absolute magnetization    =    68.41 Bohr mag/cell

     iteration # 31     ecut=    40.00 Ry     beta= 0.70
     Davidson diagonalization with overlap
     ethr =  2.43E-08,  avg # of iterations =  2.0

     negative rho (up, down):  2.449E-03 1.410E-03

     total cpu time spent up to now is      498.3 secs

     total energy              =   -6056.43212930 Ry
     estimated scf accuracy    <       0.00024195 Ry

     total magnetization       =    61.13 Bohr mag/cell
     absolute magnetization    =    68.41 Bohr mag/cell

     iteration # 32     ecut=    40.00 Ry     beta= 0.70
     Davidson diagonalization with overlap
     ethr =  2.43E-08,  avg # of iterations =  2.1

     negative rho (up, down):  2.473E-03 1.399E-03

     total cpu time spent up to now is      511.7 secs

     total energy              =   -6056.43213577 Ry
     estimated scf accuracy    <       0.00005784 Ry

     total magnetization       =    61.13 Bohr mag/cell
     absolute magnetization    =    68.41 Bohr mag/cell

     iteration # 33     ecut=    40.00 Ry     beta= 0.70
     Davidson diagonalization with overlap
     ethr =  1.73E-08,  avg # of iterations =  1.4

     negative rho (up, down):  2.544E-03 1.558E-03

     total cpu time spent up to now is      526.9 secs

     total energy              =   -6056.43213632 Ry
     estimated scf accuracy    <       0.00003849 Ry

     total magnetization       =    61.13 Bohr mag/cell
     absolute magnetization    =    68.41 Bohr mag/cell

     iteration # 34     ecut=    40.00 Ry     beta= 0.70
     Davidson diagonalization with overlap
     ethr =  1.15E-08,  avg # of iterations =  1.9

     negative rho (up, down):  2.537E-03 1.519E-03

     total cpu time spent up to now is      540.2 secs

     total energy              =   -6056.43213793 Ry
     estimated scf accuracy    <       0.00000498 Ry

     total magnetization       =    61.13 Bohr mag/cell
     absolute magnetization    =    68.41 Bohr mag/cell

     iteration # 35     ecut=    40.00 Ry     beta= 0.70
     Davidson diagonalization with overlap
     ethr =  1.49E-09,  avg # of iterations =  8.2

     negative rho (up, down):  2.542E-03 1.509E-03

     total cpu time spent up to now is      562.8 secs

     total energy              =   -6056.43213864 Ry
     estimated scf accuracy    <       0.00000496 Ry

     total magnetization       =    61.13 Bohr mag/cell
     absolute magnetization    =    68.40 Bohr mag/cell

     iteration # 36     ecut=    40.00 Ry     beta= 0.70
     Davidson diagonalization with overlap
     ethr =  1.48E-09,  avg # of iterations =  1.7

     negative rho (up, down):  2.538E-03 1.503E-03

     total cpu time spent up to now is      576.2 secs

     total energy              =   -6056.43213869 Ry
     estimated scf accuracy    <       0.00000476 Ry

     total magnetization       =    61.13 Bohr mag/cell
     absolute magnetization    =    68.40 Bohr mag/cell

     iteration # 37     ecut=    40.00 Ry     beta= 0.70
     Davidson diagonalization with overlap
     ethr =  1.42E-09,  avg # of iterations =  1.0

     negative rho (up, down):  2.502E-03 1.453E-03

     total cpu time spent up to now is      591.1 secs

     total energy              =   -6056.43213889 Ry
     estimated scf accuracy    <       0.00000160 Ry

     total magnetization       =    61.13 Bohr mag/cell
     absolute magnetization    =    68.40 Bohr mag/cell

     iteration # 38     ecut=    40.00 Ry     beta= 0.70
     Davidson diagonalization with overlap
     ethr =  4.77E-10,  avg # of iterations =  1.9

     negative rho (up, down):  2.493E-03 1.429E-03

     total cpu time spent up to now is      605.0 secs

     total energy              =   -6056.43213914 Ry
     estimated scf accuracy    <       0.00000207 Ry

     total magnetization       =    61.13 Bohr mag/cell
     absolute magnetization    =    68.40 Bohr mag/cell

     iteration # 39     ecut=    40.00 Ry     beta= 0.70
     Davidson diagonalization with overlap
     ethr =  4.77E-10,  avg # of iterations =  1.6

     negative rho (up, down):  2.446E-03 1.358E-03

     total cpu time spent up to now is      620.6 secs

     total energy              =   -6056.43213930 Ry
     estimated scf accuracy    <       0.00000121 Ry

     total magnetization       =    61.13 Bohr mag/cell
     absolute magnetization    =    68.40 Bohr mag/cell

     iteration # 40     ecut=    40.00 Ry     beta= 0.70
     Davidson diagonalization with overlap
     ethr =  3.60E-10,  avg # of iterations =  2.8

     negative rho (up, down):  2.439E-03 1.363E-03

     total cpu time spent up to now is      634.4 secs

     total energy              =   -6056.43213930 Ry
     estimated scf accuracy    <       0.00000160 Ry

     total magnetization       =    61.13 Bohr mag/cell
     absolute magnetization    =    68.40 Bohr mag/cell

     iteration # 41     ecut=    40.00 Ry     beta= 0.70
     Davidson diagonalization with overlap
     ethr =  3.60E-10,  avg # of iterations =  1.6

     negative rho (up, down):  2.365E-03 1.275E-03

     total cpu time spent up to now is      650.2 secs

     total energy              =   -6056.43213927 Ry
     estimated scf accuracy    <       0.00000225 Ry

     total magnetization       =    61.13 Bohr mag/cell
     absolute magnetization    =    68.40 Bohr mag/cell

     iteration # 42     ecut=    40.00 Ry     beta= 0.70
     Davidson diagonalization with overlap
     ethr =  3.60E-10,  avg # of iterations =  1.6

     negative rho (up, down):  2.227E-03 1.142E-03

     Magnetic moment per site  (integrated on atomic sphere of radius R)
     atom   1 (R=0.085)  charge=  5.4084  magn=  1.6100
     atom   2 (R=0.085)  charge=  5.4098  magn=  1.5931
     atom   3 (R=0.085)  charge=  5.4091  magn=  1.5999
     atom   4 (R=0.085)  charge=  5.4091  magn=  1.6043
     atom   5 (R=0.085)  charge=  5.4090  magn=  1.6021
     atom   6 (R=0.085)  charge=  5.4089  magn=  1.6066
     atom   7 (R=0.085)  charge=  5.4085  magn=  1.6107
     atom   8 (R=0.085)  charge=  5.4086  magn=  1.6076
     atom   9 (R=0.085)  charge=  5.4089  magn=  1.6050
     atom  10 (R=0.085)  charge=  5.4024  magn=  1.5368
     atom  11 (R=0.085)  charge=  5.4039  magn=  1.5422
     atom  12 (R=0.085)  charge=  5.4033  magn=  1.5490
     atom  13 (R=0.085)  charge=  5.4036  magn=  1.5465
     atom  14 (R=0.085)  charge=  5.4047  magn=  1.5412
     atom  15 (R=0.085)  charge=  5.4038  magn=  1.5483
     atom  16 (R=0.085)  charge=  5.4037  magn=  1.5430
     atom  17 (R=0.085)  charge=  5.4041  magn=  1.5491
     atom  18 (R=0.085)  charge=  5.4041  magn=  1.5410
     atom  19 (R=0.085)  charge=  5.4029  magn=  1.5452
     atom  20 (R=0.085)  charge=  5.4012  magn=  1.5479
     atom  21 (R=0.085)  charge=  5.4024  magn=  1.5349
     atom  22 (R=0.085)  charge=  5.4034  magn=  1.5500
     atom  23 (R=0.085)  charge=  5.4013  magn=  1.5335
     atom  24 (R=0.085)  charge=  5.4030  magn=  1.5587
     atom  25 (R=0.085)  charge=  5.4028  magn=  1.5504
     atom  26 (R=0.085)  charge=  5.4018  magn=  1.5463
     atom  27 (R=0.085)  charge=  5.4034  magn=  1.5439
     atom  28 (R=0.085)  charge=  5.4065  magn=  1.6178
     atom  29 (R=0.085)  charge=  5.4199  magn=  1.2884
     atom  30 (R=0.085)  charge=  5.4125  magn=  1.6166
     atom  31 (R=0.085)  charge=  5.4148  magn=  1.5495
     atom  32 (R=0.085)  charge=  5.4138  magn=  0.8170
     atom  33 (R=0.085)  charge=  5.4093  magn=  1.6158
     atom  34 (R=0.085)  charge=  5.4102  magn=  1.6275
     atom  35 (R=0.085)  charge=  5.4095  magn=  1.6010
     atom  36 (R=0.085)  charge=  5.4083  magn=  1.6144
     atom  37 (R=0.066)  charge=  1.0672  magn= -0.0177
     atom  38 (R=0.066)  charge=  2.9699  magn= -0.0226
     atom  39 (R=0.083)  charge=  0.7142  magn= -0.0076

     total cpu time spent up to now is      662.8 secs

     End of self-consistent calculation

 ------ SPIN UP ------------


          k = 0.0000 0.0000 0.0000 ( 36693 PWs)   bands (ev):

   -21.9543  -9.9056  -7.6172  -6.5986  -6.3817  -5.8318  -5.4653  -4.7998
    -4.7739  -4.7722  -4.7687  -4.7512  -4.7465  -4.7095  -4.3991  -4.2381
    -4.2357  -4.2328  -4.2062  -4.1984  -4.1655  -3.7194  -3.7159  -3.7113
    -3.7004  -3.6933  -3.6559  -3.5908  -3.5822  -3.5798  -3.5739  -3.5715
    -3.5173  -3.5080  -3.5063  -3.2067  -3.1968  -3.1925  -3.1917  -3.1893
    -3.1318  -3.1311  -3.1249  -3.1232  -3.1175  -3.1136  -3.1079  -3.0105
    -2.9670  -2.9643  -2.8987  -2.8926  -2.8889  -2.8822  -2.8784  -2.8635
    -2.8581  -2.8556  -2.8543  -2.8072  -2.7566  -2.7512  -2.7433  -2.7380
    -2.6766  -2.6161  -2.2339  -2.2197  -2.2118  -2.2106  -2.2028  -2.1092
    -2.0881  -2.0823  -2.0614  -2.0564  -2.0496  -2.0379  -2.0340  -2.0280
    -1.9948  -1.9803  -1.9742  -1.9347  -1.9263  -1.9222  -1.9057  -1.9026
    -1.8997  -1.8939  -1.8872  -1.8857  -1.8826  -1.8592  -1.8561  -1.8495
    -1.8493  -1.8443  -1.8423  -1.8419  -1.8378  -1.8352  -1.8338  -1.8296
    -1.8221  -1.8082  -1.7822  -1.7537  -1.7431  -1.6785  -1.6732  -1.5797
    -1.4772  -1.3926  -1.3882  -1.3858  -1.3831  -1.3794  -1.3668  -1.3518
    -1.3498  -1.3441  -1.3188  -1.2977  -1.2925  -1.2649  -1.1734  -1.1705
    -1.1413  -1.1339  -1.0501  -0.9948  -0.9758  -0.9602  -0.9553  -0.9325
    -0.9065  -0.8994  -0.8930  -0.8897  -0.8837  -0.8474  -0.7789  -0.7653
    -0.6772  -0.6502  -0.6483  -0.6445  -0.6216  -0.6090  -0.5857  -0.5850
    -0.5816  -0.5785  -0.5754  -0.5708  -0.5633  -0.5581  -0.5559  -0.5513
    -0.5445  -0.5410  -0.5265  -0.5225  -0.5061  -0.5016  -0.4955  -0.4905
    -0.4772  -0.4673  -0.4596  -0.4564  -0.4496  -0.4408  -0.4337  -0.4269
    -0.4216  -0.4188  -0.3998  -0.3792  -0.3588  -0.3511  -0.3481  -0.3408
    -0.3350  -0.3317  -0.3194  -0.3045  -0.2957  -0.2650  -0.2548  -0.2532
    -0.2510  -0.2438  -0.1874  -0.1837  -0.1783  -0.1672  -0.1461  -0.1197
     0.4156   0.9574

          k = 0.0000 0.2309 0.0000 ( 36641 PWs)   bands (ev):

   -21.9542  -9.9007  -7.4726  -6.6106  -6.2777  -5.8110  -5.5427  -5.4135
    -5.0142  -5.0072  -4.6451  -4.5158  -4.4298  -4.4247  -4.3598  -4.3097
    -4.2633  -4.2260  -4.1579  -4.1029  -4.0893  -3.8359  -3.7258  -3.7134
    -3.6397  -3.6158  -3.5977  -3.5923  -3.5889  -3.5822  -3.5624  -3.5374
    -3.5114  -3.4727  -3.4511  -3.4402  -3.4367  -3.2496  -3.2183  -3.2111
    -3.1877  -3.1565  -3.1519  -3.1419  -3.0853  -3.0683  -3.0221  -3.0050
    -2.9882  -2.9771  -2.9733  -2.9450  -2.8860  -2.8463  -2.8368  -2.8094
    -2.7781  -2.7554  -2.7451  -2.7338  -2.7152  -2.6979  -2.6788  -2.6685
    -2.6179  -2.5839  -2.3396  -2.3260  -2.3030  -2.2902  -2.2617  -2.1852
    -2.1810  -2.1739  -2.1605  -2.1529  -2.1455  -2.1275  -2.0973  -2.0621
    -2.0447  -2.0352  -2.0165  -1.9779  -1.9735  -1.9719  -1.9671  -1.9423
    -1.9392  -1.9334  -1.9291  -1.9239  -1.9122  -1.9004  -1.8461  -1.8398
    -1.8238  -1.7944  -1.7765  -1.7461  -1.7414  -1.7362  -1.7239  -1.7162
    -1.7094  -1.6942  -1.6887  -1.6840  -1.6729  -1.6630  -1.6397  -1.6322
    -1.6226  -1.6100  -1.5954  -1.5348  -1.5165  -1.4636  -1.4149  -1.4104
    -1.4019  -1.3905  -1.3828  -1.3807  -1.3712  -1.3597  -1.2682  -1.2441
    -1.2144  -1.1924  -1.1258  -1.1183  -1.0974  -1.0577  -1.0322  -1.0188
    -0.9648  -0.9503  -0.9263  -0.9127  -0.8865  -0.8750  -0.8474  -0.8418
    -0.8265  -0.7974  -0.7842  -0.7507  -0.7477  -0.7365  -0.7291  -0.7182
    -0.6954  -0.6546  -0.6482  -0.6446  -0.6190  -0.6022  -0.5845  -0.5809
    -0.5717  -0.5648  -0.5595  -0.5490  -0.5298  -0.5232  -0.5093  -0.5017
    -0.4516  -0.4390  -0.4241  -0.4036  -0.3874  -0.3709  -0.3454  -0.3296
    -0.3217  -0.3112  -0.3037  -0.2998  -0.2798  -0.2722  -0.2658  -0.2256
    -0.1878  -0.1801  -0.1764  -0.1528  -0.1479  -0.1330  -0.1059  -0.0914
    -0.0374  -0.0097   0.1687   0.1991   0.2746   0.3643   0.4488   0.4818
     0.5104   0.7876

          k = 0.0000 0.4619 0.0000 ( 36606 PWs)   bands (ev):

   -21.9542  -9.8927  -7.0543  -6.6324  -6.3493  -6.0714  -5.6410  -5.4299
    -5.1563  -5.1354  -5.0333  -4.3247  -4.2629  -4.2568  -4.2161  -4.1825
    -4.0708  -4.0662  -4.0221  -3.9352  -3.9307  -3.9238  -3.8248  -3.7549
    -3.7480  -3.7399  -3.7349  -3.6814  -3.6348  -3.6277  -3.6079  -3.4731
    -3.4630  -3.4510  -3.4344  -3.4194  -3.4050  -3.3116  -3.3076  -3.2980
    -3.2970  -3.2853  -3.1731  -3.1480  -3.0742  -3.0450  -2.9801  -2.9700
    -2.9462  -2.9268  -2.9025  -2.9009  -2.8856  -2.8654  -2.8169  -2.8026
    -2.7845  -2.7451  -2.7279  -2.6760  -2.5905  -2.5842  -2.5673  -2.5334
    -2.4967  -2.4737  -2.4549  -2.4388  -2.4103  -2.3575  -2.3089  -2.3041
    -2.2993  -2.2920  -2.2755  -2.2636  -2.2560  -2.2435  -2.2344  -2.1856
    -2.1666  -2.1434  -2.1329  -2.1076  -2.0868  -2.0643  -2.0406  -1.9836
    -1.9738  -1.9697  -1.9428  -1.9306  -1.9011  -1.8703  -1.8662  -1.8582
    -1.8446  -1.8248  -1.8190  -1.7997  -1.7936  -1.7764  -1.7636  -1.7520
    -1.7359  -1.7129  -1.6733  -1.6555  -1.6058  -1.5947  -1.5693  -1.5575
    -1.5415  -1.5225  -1.5081  -1.4637  -1.4511  -1.4391  -1.4290  -1.4232
    -1.4184  -1.4119  -1.4032  -1.3992  -1.3920  -1.3827  -1.3699  -1.3529
    -1.3299  -1.3191  -1.2672  -1.2207  -1.2006  -1.1851  -1.1751  -1.1424
    -1.1344  -1.0855  -1.0635  -1.0468  -1.0379  -1.0001  -0.9727  -0.9350
    -0.9202  -0.8852  -0.8690  -0.8621  -0.8320  -0.8125  -0.7804  -0.7596
    -0.7221  -0.6723  -0.6649  -0.6457  -0.6435  -0.6392  -0.6268  -0.6230
    -0.6018  -0.5990  -0.5101  -0.4937  -0.4879  -0.4805  -0.4648  -0.4600
    -0.4446  -0.4263  -0.4247  -0.4128  -0.3831  -0.3634  -0.3129  -0.3004
    -0.2903  -0.2777  -0.2533  -0.2106  -0.1955  -0.1709  -0.1556  -0.1247
    -0.0849  -0.0763  -0.0719  -0.0535  -0.0524  -0.0488  -0.0335   0.0071
     0.0606   0.1005   0.3933   0.7589   0.9792   1.1288   1.1804   1.3334
     1.4407   1.5485

          k = 0.2000-0.1155 0.0000 ( 36641 PWs)   bands (ev):

   -21.9542  -9.9013  -7.4711  -6.6000  -6.2858  -5.8289  -5.5292  -5.4133
    -5.0152  -5.0078  -4.6478  -4.5052  -4.4289  -4.4259  -4.3596  -4.3023
    -4.2591  -4.2432  -4.1501  -4.1030  -4.0970  -3.8319  -3.7236  -3.7163
    -3.6441  -3.6133  -3.5992  -3.5914  -3.5887  -3.5708  -3.5617  -3.5468
    -3.4999  -3.4725  -3.4536  -3.4393  -3.4370  -3.2543  -3.2179  -3.2084
    -3.1752  -3.1540  -3.1527  -3.1457  -3.1028  -3.0470  -3.0220  -3.0101
    -2.9871  -2.9828  -2.9637  -2.9454  -2.8880  -2.8513  -2.8337  -2.8141
    -2.7793  -2.7658  -2.7473  -2.7392  -2.7204  -2.6996  -2.6782  -2.6676
    -2.6122  -2.5843  -2.3343  -2.3270  -2.3079  -2.3008  -2.2626  -2.1872
    -2.1801  -2.1725  -2.1604  -2.1487  -2.1453  -2.1313  -2.1139  -2.0620
    -2.0420  -2.0350  -2.0151  -1.9780  -1.9760  -1.9726  -1.9580  -1.9486
    -1.9372  -1.9292  -1.9263  -1.9214  -1.9141  -1.8926  -1.8656  -1.8397
    -1.8208  -1.8066  -1.7559  -1.7501  -1.7373  -1.7324  -1.7250  -1.7197
    -1.7049  -1.6945  -1.6860  -1.6850  -1.6727  -1.6654  -1.6406  -1.6375
    -1.6179  -1.6105  -1.5925  -1.5253  -1.5124  -1.4573  -1.4179  -1.4111
    -1.4046  -1.3940  -1.3861  -1.3769  -1.3684  -1.3535  -1.3048  -1.2269
    -1.2162  -1.1949  -1.1244  -1.1175  -1.0999  -1.0530  -1.0301  -1.0185
    -0.9935  -0.9327  -0.9206  -0.9014  -0.8809  -0.8726  -0.8428  -0.8310
    -0.8195  -0.8074  -0.7928  -0.7538  -0.7467  -0.7328  -0.7277  -0.7187
    -0.6953  -0.6580  -0.6499  -0.6436  -0.6366  -0.6095  -0.5878  -0.5813
    -0.5715  -0.5628  -0.5590  -0.5482  -0.5273  -0.5226  -0.5100  -0.4920
    -0.4611  -0.4509  -0.4316  -0.4017  -0.3856  -0.3688  -0.3491  -0.3289
    -0.3220  -0.3109  -0.3054  -0.3010  -0.2789  -0.2739  -0.2646  -0.2284
    -0.1900  -0.1833  -0.1764  -0.1545  -0.1487  -0.1397  -0.1096  -0.0911
    -0.0314   0.0047   0.1848   0.2004   0.2940   0.3929   0.4522   0.4801
     0.4954   0.7950

          k = 0.2000 0.1155 0.0000 ( 36641 PWs)   bands (ev):

   -21.9542  -9.9004  -7.4734  -6.6171  -6.2734  -5.8024  -5.5152  -5.4501
    -5.0124  -5.0033  -4.6456  -4.5195  -4.4290  -4.4240  -4.3617  -4.3096
    -4.2623  -4.2241  -4.1616  -4.1015  -4.0873  -3.8370  -3.7237  -3.7140
    -3.6377  -3.6192  -3.5972  -3.5935  -3.5881  -3.5824  -3.5617  -3.5404
    -3.5077  -3.4723  -3.4531  -3.4386  -3.4332  -3.2662  -3.2177  -3.2103
    -3.1844  -3.1562  -3.1513  -3.1434  -3.1015  -3.0426  -3.0232  -3.0066
    -2.9829  -2.9752  -2.9618  -2.9433  -2.9114  -2.8527  -2.8403  -2.8023
    -2.7797  -2.7583  -2.7442  -2.7247  -2.7118  -2.6974  -2.6788  -2.6638
    -2.6348  -2.5761  -2.3383  -2.3328  -2.3014  -2.2881  -2.2619  -2.1850
    -2.1822  -2.1730  -2.1612  -2.1561  -2.1433  -2.1241  -2.0999  -2.0581
    -2.0506  -2.0330  -2.0106  -1.9781  -1.9730  -1.9700  -1.9652  -1.9444
    -1.9394  -1.9344  -1.9287  -1.9245  -1.9102  -1.8890  -1.8532  -1.8438
    -1.8263  -1.7962  -1.7623  -1.7464  -1.7405  -1.7303  -1.7220  -1.7177
    -1.7116  -1.7001  -1.6910  -1.6837  -1.6795  -1.6609  -1.6381  -1.6334
    -1.6212  -1.6089  -1.5911  -1.5368  -1.5108  -1.4772  -1.4131  -1.4069
    -1.4046  -1.3946  -1.3829  -1.3797  -1.3680  -1.3609  -1.2558  -1.2320
    -1.2222  -1.1909  -1.1272  -1.1201  -1.0917  -1.0620  -1.0328  -1.0278
    -0.9706  -0.9420  -0.9307  -0.9045  -0.8946  -0.8772  -0.8449  -0.8414
    -0.8218  -0.7974  -0.7864  -0.7495  -0.7447  -0.7415  -0.7364  -0.7176
    -0.6971  -0.6551  -0.6457  -0.6430  -0.6205  -0.5930  -0.5870  -0.5814
    -0.5671  -0.5650  -0.5601  -0.5501  -0.5329  -0.5202  -0.5147  -0.5116
    -0.4501  -0.4332  -0.4209  -0.4052  -0.3838  -0.3812  -0.3427  -0.3295
    -0.3252  -0.3113  -0.3035  -0.2992  -0.2783  -0.2714  -0.2648  -0.2220
    -0.1862  -0.1799  -0.1758  -0.1505  -0.1493  -0.1297  -0.1022  -0.0927
    -0.0379  -0.0158   0.1757   0.2007   0.2432   0.3664   0.4466   0.4749
     0.5153   0.7741

          k = 0.2000 0.3464 0.0000 ( 36608 PWs)   bands (ev):

   -21.9542  -9.8937  -7.1941  -6.6245  -6.1523  -5.8753  -5.8160  -5.6257
    -5.4454  -4.7288  -4.6746  -4.4409  -4.4344  -4.3756  -4.2148  -4.2098
    -4.1140  -4.1117  -4.1005  -3.9816  -3.9535  -3.8377  -3.8276  -3.7660
    -3.7224  -3.6319  -3.6279  -3.5991  -3.5810  -3.5720  -3.5642  -3.5460
    -3.5261  -3.5070  -3.4753  -3.4550  -3.4163  -3.3843  -3.3674  -3.2682
    -3.2422  -3.1647  -3.1478  -3.1210  -3.1072  -3.0930  -3.0296  -2.9918
    -2.9528  -2.9227  -2.9167  -2.9089  -2.8698  -2.8568  -2.8346  -2.8266
    -2.8047  -2.7260  -2.6977  -2.6384  -2.6237  -2.6210  -2.6007  -2.5676
    -2.5625  -2.4970  -2.4462  -2.3666  -2.3586  -2.3247  -2.3111  -2.2850
    -2.2705  -2.2576  -2.2539  -2.2286  -2.2219  -2.2064  -2.2013  -2.1811
    -2.1628  -2.1512  -2.1045  -2.0639  -2.0106  -2.0036  -1.9885  -1.9684
    -1.9482  -1.9406  -1.9216  -1.8945  -1.8871  -1.8568  -1.8468  -1.8393
    -1.8306  -1.8287  -1.8139  -1.7979  -1.7926  -1.7780  -1.7686  -1.7521
    -1.7298  -1.7081  -1.6895  -1.6693  -1.6594  -1.6492  -1.6156  -1.6089
    -1.5913  -1.5802  -1.5664  -1.5433  -1.5074  -1.4974  -1.4741  -1.4515
    -1.4405  -1.4354  -1.4233  -1.4013  -1.3934  -1.3867  -1.3643  -1.3370
    -1.2809  -1.2750  -1.2646  -1.2074  -1.1407  -1.1344  -1.1186  -1.0498
    -1.0071  -0.9967  -0.9880  -0.9796  -0.9662  -0.9590  -0.9433  -0.9392
    -0.9135  -0.8957  -0.8735  -0.8360  -0.8213  -0.8150  -0.7897  -0.7831
    -0.7648  -0.7479  -0.7222  -0.7164  -0.7093  -0.6972  -0.6068  -0.5488
    -0.5430  -0.5177  -0.5072  -0.5028  -0.4894  -0.4756  -0.4614  -0.4535
    -0.4397  -0.4006  -0.3768  -0.3588  -0.3472  -0.3338  -0.2950  -0.2890
    -0.2756  -0.2734  -0.2640  -0.2430  -0.2322  -0.2269  -0.2225  -0.1956
    -0.1888  -0.1134  -0.0987  -0.0959  -0.0540  -0.0486  -0.0109   0.0363
     0.2855   0.2921   0.3538   0.4816   0.6075   0.6652   1.0124   1.1679
     1.2449   1.3558

          k = 0.2000-0.5774 0.0000 ( 36660 PWs)   bands (ev):

   -21.9542  -9.8905  -6.7482  -6.6274  -6.5064  -6.0809  -5.9002  -5.5386
    -5.2738  -5.1831  -4.7464  -4.4201  -4.1766  -4.1315  -4.0383  -4.0007
    -3.9939  -3.9745  -3.9678  -3.9413  -3.8944  -3.8863  -3.8830  -3.8738
    -3.8023  -3.7602  -3.7336  -3.7269  -3.7029  -3.6937  -3.5765  -3.5530
    -3.5495  -3.5339  -3.5201  -3.4684  -3.3837  -3.3570  -3.2845  -3.2582
    -3.2503  -3.2073  -3.1634  -3.1490  -3.1242  -3.0810  -3.0397  -3.0326
    -2.9873  -2.9632  -2.9123  -2.8572  -2.8281  -2.8099  -2.7936  -2.7533
    -2.7228  -2.6724  -2.6636  -2.6506  -2.6440  -2.6141  -2.5997  -2.5440
    -2.5015  -2.4571  -2.4443  -2.4351  -2.4306  -2.3727  -2.3540  -2.3153
    -2.2958  -2.2649  -2.2586  -2.2514  -2.2453  -2.2294  -2.1960  -2.1813
    -2.1712  -2.1576  -2.1456  -2.1286  -2.1204  -2.0835  -2.0541  -2.0367
    -2.0215  -2.0153  -1.9574  -1.9335  -1.9030  -1.8851  -1.8682  -1.8577
    -1.8436  -1.8307  -1.8251  -1.8129  -1.8092  -1.7836  -1.7668  -1.7596
    -1.7040  -1.6874  -1.6763  -1.6697  -1.6586  -1.6512  -1.6455  -1.6374
    -1.6232  -1.6207  -1.5994  -1.5717  -1.5527  -1.5274  -1.5146  -1.4951
    -1.4398  -1.4308  -1.3966  -1.3742  -1.3687  -1.3545  -1.3431  -1.3045
    -1.2738  -1.2628  -1.2467  -1.1903  -1.1615  -1.1362  -1.1235  -1.0992
    -1.0859  -1.0749  -1.0564  -1.0448  -1.0201  -1.0041  -0.9759  -0.9652
    -0.9221  -0.9132  -0.9034  -0.8910  -0.8666  -0.8450  -0.8071  -0.7994
    -0.7860  -0.7749  -0.7528  -0.7413  -0.7388  -0.7066  -0.6773  -0.5735
    -0.5134  -0.5043  -0.4967  -0.4902  -0.4790  -0.4729  -0.4623  -0.4398
    -0.4167  -0.4130  -0.4012  -0.3878  -0.3394  -0.2979  -0.2716  -0.2667
    -0.2490  -0.2431  -0.2252  -0.2059  -0.1846  -0.1671  -0.1616  -0.1472
    -0.1394  -0.0817  -0.0716  -0.0667  -0.0509  -0.0387  -0.0157   0.0295
     0.1977   0.3277   0.5900   0.7859   1.0781   1.2308   1.3474   1.6131
     1.7297   1.7713

          k = 0.2000-0.3464 0.0000 ( 36608 PWs)   bands (ev):

   -21.9542  -9.8951  -7.1849  -6.6137  -6.1585  -5.9005  -5.8324  -5.6299
    -5.4125  -4.7436  -4.6637  -4.4382  -4.4251  -4.3798  -4.2128  -4.2111
    -4.1183  -4.1098  -4.0867  -3.9804  -3.9662  -3.8361  -3.8250  -3.7711
    -3.7251  -3.6381  -3.6299  -3.6015  -3.5792  -3.5716  -3.5678  -3.5341
    -3.5261  -3.5087  -3.4653  -3.4431  -3.4171  -3.3769  -3.3603  -3.2536
    -3.2436  -3.1716  -3.1517  -3.1327  -3.1057  -3.0912  -3.0243  -2.9728
    -2.9439  -2.9390  -2.9170  -2.8999  -2.8855  -2.8547  -2.8345  -2.8185
    -2.8006  -2.7592  -2.6856  -2.6712  -2.6285  -2.6169  -2.5847  -2.5683
    -2.5596  -2.5324  -2.4387  -2.3711  -2.3549  -2.3205  -2.3104  -2.2821
    -2.2675  -2.2628  -2.2554  -2.2302  -2.2162  -2.2110  -2.1947  -2.1827
    -2.1690  -2.1592  -2.1014  -2.0782  -2.0101  -2.0035  -1.9807  -1.9640
    -1.9556  -1.9421  -1.9249  -1.8934  -1.8840  -1.8617  -1.8521  -1.8462
    -1.8334  -1.8216  -1.8167  -1.8010  -1.7900  -1.7841  -1.7660  -1.7489
    -1.7386  -1.7245  -1.7011  -1.6803  -1.6608  -1.6480  -1.6127  -1.6094
    -1.5997  -1.5726  -1.5665  -1.5335  -1.5039  -1.4902  -1.4796  -1.4513
    -1.4343  -1.4293  -1.4245  -1.4029  -1.3977  -1.3763  -1.3647  -1.3194
    -1.2885  -1.2596  -1.2516  -1.2128  -1.1500  -1.1255  -1.1212  -1.0281
    -1.0110  -0.9955  -0.9852  -0.9749  -0.9643  -0.9613  -0.9422  -0.9232
    -0.9153  -0.8992  -0.8743  -0.8395  -0.8292  -0.8200  -0.7973  -0.7787
    -0.7658  -0.7492  -0.7293  -0.7119  -0.7053  -0.6950  -0.6002  -0.5540
    -0.5431  -0.5224  -0.5139  -0.5029  -0.4880  -0.4739  -0.4641  -0.4564
    -0.4359  -0.4037  -0.3609  -0.3591  -0.3482  -0.3412  -0.3037  -0.2899
    -0.2755  -0.2728  -0.2669  -0.2406  -0.2341  -0.2272  -0.2180  -0.2012
    -0.1940  -0.1180  -0.0969  -0.0946  -0.0508  -0.0473  -0.0303   0.0522
     0.2542   0.2911   0.3423   0.5207   0.5757   0.6872   1.1304   1.1645
     1.2670   1.3579

          k = 0.4000-0.2309 0.0000 ( 36606 PWs)   bands (ev):

   -21.9542  -9.8943  -7.0440  -6.6036  -6.3833  -6.0784  -5.6760  -5.3931
    -5.1608  -5.1397  -5.0200  -4.3152  -4.2571  -4.2532  -4.2387  -4.1784
    -4.0705  -4.0673  -4.0196  -3.9365  -3.9301  -3.9247  -3.8192  -3.7554
    -3.7513  -3.7383  -3.7361  -3.6814  -3.6305  -3.6255  -3.5822  -3.4745
    -3.4624  -3.4511  -3.4372  -3.4161  -3.4106  -3.3254  -3.3032  -3.2983
    -3.2912  -3.2836  -3.1873  -3.0960  -3.0809  -3.0371  -2.9829  -2.9767
    -2.9462  -2.9328  -2.9048  -2.8991  -2.8853  -2.8599  -2.8397  -2.8036
    -2.7851  -2.7418  -2.7309  -2.7089  -2.5944  -2.5831  -2.5645  -2.5419
    -2.5116  -2.4762  -2.4512  -2.4406  -2.4172  -2.3610  -2.3104  -2.3065
    -2.2979  -2.2942  -2.2846  -2.2638  -2.2567  -2.2435  -2.2211  -2.2033
    -2.1717  -2.1402  -2.1319  -2.1093  -2.0810  -2.0655  -2.0232  -1.9842
    -1.9724  -1.9696  -1.9420  -1.9260  -1.9102  -1.8737  -1.8641  -1.8526
    -1.8488  -1.8293  -1.8242  -1.7983  -1.7810  -1.7753  -1.7666  -1.7536
    -1.7357  -1.7134  -1.6724  -1.6675  -1.6059  -1.5920  -1.5778  -1.5696
    -1.5383  -1.5203  -1.4993  -1.4651  -1.4514  -1.4303  -1.4280  -1.4225
    -1.4205  -1.4135  -1.4048  -1.3956  -1.3892  -1.3710  -1.3643  -1.3602
    -1.3519  -1.3164  -1.2514  -1.2256  -1.1991  -1.1816  -1.1724  -1.1544
    -1.1189  -1.0829  -1.0563  -1.0492  -1.0355  -0.9993  -0.9638  -0.9221
    -0.9064  -0.8849  -0.8742  -0.8504  -0.8351  -0.8190  -0.7943  -0.7522
    -0.7019  -0.6795  -0.6659  -0.6628  -0.6472  -0.6415  -0.6318  -0.6232
    -0.6099  -0.6008  -0.5093  -0.4968  -0.4849  -0.4761  -0.4682  -0.4631
    -0.4511  -0.4396  -0.4161  -0.4110  -0.3856  -0.3725  -0.3176  -0.3008
    -0.2932  -0.2743  -0.2613  -0.2129  -0.1951  -0.1715  -0.1586  -0.1234
    -0.0957  -0.0788  -0.0755  -0.0564  -0.0531  -0.0483  -0.0369   0.0163
     0.0611   0.1022   0.4175   0.7509   1.0027   1.1618   1.1843   1.3970
     1.4759   1.5486

          k = 0.4000 0.0000 0.0000 ( 36608 PWs)   bands (ev):

   -21.9542  -9.8947  -7.1885  -6.6178  -6.1574  -5.8884  -5.8271  -5.6256
    -5.4271  -4.7423  -4.6661  -4.4363  -4.4259  -4.3794  -4.2148  -4.2106
    -4.1193  -4.1108  -4.0885  -3.9799  -3.9625  -3.8359  -3.8262  -3.7676
    -3.7222  -3.6391  -3.6309  -3.6042  -3.5796  -3.5698  -3.5642  -3.5336
    -3.5288  -3.5081  -3.4617  -3.4412  -3.4198  -3.3811  -3.3657  -3.2694
    -3.2406  -3.1691  -3.1496  -3.1252  -3.1100  -3.0914  -3.0103  -2.9851
    -2.9479  -2.9350  -2.9159  -2.9070  -2.8801  -2.8555  -2.8411  -2.8244
    -2.8024  -2.7346  -2.6911  -2.6618  -2.6316  -2.6172  -2.6006  -2.5694
    -2.5603  -2.5186  -2.4453  -2.3709  -2.3611  -2.3261  -2.3078  -2.2846
    -2.2715  -2.2583  -2.2532  -2.2323  -2.2174  -2.2038  -2.1938  -2.1857
    -2.1791  -2.1488  -2.1006  -2.0623  -2.0106  -2.0043  -1.9780  -1.9695
    -1.9581  -1.9352  -1.9245  -1.8944  -1.8839  -1.8592  -1.8472  -1.8441
    -1.8342  -1.8227  -1.8064  -1.8017  -1.7926  -1.7844  -1.7653  -1.7527
    -1.7390  -1.7253  -1.6980  -1.6728  -1.6584  -1.6433  -1.6093  -1.6062
    -1.5951  -1.5787  -1.5682  -1.5344  -1.5018  -1.4976  -1.4786  -1.4483
    -1.4387  -1.4303  -1.4229  -1.4059  -1.3948  -1.3760  -1.3627  -1.3295
    -1.2858  -1.2663  -1.2530  -1.2069  -1.1515  -1.1286  -1.1152  -1.0446
    -1.0080  -0.9960  -0.9903  -0.9767  -0.9665  -0.9592  -0.9390  -0.9325
    -0.9114  -0.8963  -0.8743  -0.8380  -0.8318  -0.8185  -0.7922  -0.7847
    -0.7689  -0.7500  -0.7217  -0.7132  -0.7063  -0.6965  -0.6053  -0.5495
    -0.5455  -0.5186  -0.5086  -0.4999  -0.4921  -0.4761  -0.4609  -0.4552
    -0.4382  -0.4041  -0.3684  -0.3623  -0.3471  -0.3373  -0.3000  -0.2901
    -0.2770  -0.2709  -0.2674  -0.2423  -0.2323  -0.2266  -0.2247  -0.1948
    -0.1898  -0.1140  -0.0987  -0.0953  -0.0522  -0.0430  -0.0294   0.0391
     0.2674   0.2911   0.3454   0.4993   0.5977   0.6830   1.0824   1.1567
     1.2645   1.3797

          k = 0.4000 0.2309 0.0000 ( 36606 PWs)   bands (ev):

   -21.9542  -9.8921  -7.0611  -6.6469  -6.3313  -6.0663  -5.6027  -5.4701
    -5.1571  -5.1261  -5.0425  -4.3249  -4.2639  -4.2585  -4.2120  -4.1865
    -4.0706  -4.0650  -4.0213  -3.9332  -3.9291  -3.9240  -3.8270  -3.7524
    -3.7471  -3.7402  -3.7342  -3.6803  -3.6319  -3.6278  -3.6127  -3.4729
    -3.4666  -3.4521  -3.4395  -3.4164  -3.4047  -3.3305  -3.3038  -3.2987
    -3.2903  -3.2873  -3.1987  -3.1141  -3.0755  -3.0261  -2.9805  -2.9647
    -2.9444  -2.9379  -2.9029  -2.8999  -2.8926  -2.8750  -2.8080  -2.8005
    -2.7903  -2.7486  -2.7308  -2.6612  -2.5864  -2.5805  -2.5718  -2.5397
    -2.5068  -2.4631  -2.4537  -2.4449  -2.4227  -2.3571  -2.3152  -2.3033
    -2.2995  -2.2971  -2.2772  -2.2622  -2.2513  -2.2482  -2.2250  -2.1804
    -2.1607  -2.1467  -2.1308  -2.1046  -2.0835  -2.0699  -2.0281  -1.9903
    -1.9753  -1.9709  -1.9420  -1.9294  -1.8945  -1.8701  -1.8637  -1.8595
    -1.8465  -1.8274  -1.8181  -1.7956  -1.7877  -1.7761  -1.7674  -1.7519
    -1.7340  -1.7158  -1.6721  -1.6492  -1.6103  -1.5957  -1.5665  -1.5603
    -1.5386  -1.5274  -1.5011  -1.4581  -1.4473  -1.4434  -1.4336  -1.4251
    -1.4172  -1.4113  -1.4025  -1.3966  -1.3918  -1.3874  -1.3680  -1.3498
    -1.3299  -1.3058  -1.2750  -1.2192  -1.1962  -1.1881  -1.1792  -1.1350
    -1.1251  -1.0927  -1.0671  -1.0463  -1.0410  -0.9943  -0.9842  -0.9421
    -0.9221  -0.8859  -0.8704  -0.8647  -0.8349  -0.8068  -0.7799  -0.7637
    -0.7252  -0.6770  -0.6657  -0.6487  -0.6422  -0.6345  -0.6271  -0.6184
    -0.6052  -0.5997  -0.5029  -0.4970  -0.4924  -0.4776  -0.4644  -0.4528
    -0.4444  -0.4294  -0.4184  -0.4091  -0.3910  -0.3649  -0.3103  -0.2976
    -0.2915  -0.2819  -0.2513  -0.2100  -0.1952  -0.1675  -0.1570  -0.1224
    -0.0860  -0.0757  -0.0731  -0.0532  -0.0519  -0.0492  -0.0282   0.0113
     0.0595   0.0954   0.3651   0.8320   0.9411   1.0967   1.1826   1.2413
     1.4668   1.5576

          k = 0.4000-0.6928 0.0000 ( 36660 PWs)   bands (ev):

   -21.9542  -9.8901  -6.7743  -6.6253  -6.4759  -6.0879  -5.9089  -5.4917
    -5.3134  -5.1859  -4.7414  -4.4193  -4.1791  -4.1343  -4.0374  -3.9978
    -3.9941  -3.9757  -3.9652  -3.9408  -3.8926  -3.8864  -3.8837  -3.8732
    -3.7997  -3.7653  -3.7342  -3.7260  -3.7013  -3.6969  -3.5720  -3.5542
    -3.5489  -3.5375  -3.5182  -3.4666  -3.3873  -3.3589  -3.3012  -3.2542
    -3.2514  -3.2006  -3.1669  -3.1536  -3.1240  -3.0522  -3.0409  -3.0308
    -2.9797  -2.9620  -2.9399  -2.8638  -2.8340  -2.8130  -2.7782  -2.7515
    -2.7082  -2.6736  -2.6589  -2.6550  -2.6474  -2.6184  -2.5837  -2.5518
    -2.5201  -2.4557  -2.4477  -2.4371  -2.4186  -2.3780  -2.3653  -2.3124
    -2.2994  -2.2653  -2.2613  -2.2506  -2.2361  -2.2302  -2.1910  -2.1791
    -2.1693  -2.1607  -2.1481  -2.1259  -2.1185  -2.0770  -2.0589  -2.0384
    -2.0200  -2.0131  -1.9496  -1.9397  -1.8993  -1.8857  -1.8748  -1.8622
    -1.8383  -1.8336  -1.8168  -1.8092  -1.8030  -1.7741  -1.7678  -1.7614
    -1.6995  -1.6850  -1.6781  -1.6718  -1.6552  -1.6507  -1.6482  -1.6357
    -1.6285  -1.6216  -1.5990  -1.5844  -1.5539  -1.5253  -1.5109  -1.4990
    -1.4361  -1.4278  -1.4001  -1.3769  -1.3614  -1.3534  -1.3373  -1.3107
    -1.2750  -1.2651  -1.2510  -1.1965  -1.1594  -1.1340  -1.1229  -1.0984
    -1.0860  -1.0667  -1.0588  -1.0482  -1.0232  -1.0052  -0.9687  -0.9575
    -0.9229  -0.9136  -0.9063  -0.8833  -0.8712  -0.8482  -0.8103  -0.8060
    -0.7873  -0.7758  -0.7585  -0.7449  -0.7291  -0.7073  -0.6803  -0.5764
    -0.5134  -0.5041  -0.4990  -0.4853  -0.4806  -0.4714  -0.4569  -0.4385
    -0.4204  -0.4077  -0.4041  -0.3941  -0.3351  -0.2857  -0.2722  -0.2672
    -0.2617  -0.2423  -0.2225  -0.2038  -0.1797  -0.1661  -0.1597  -0.1453
    -0.1437  -0.0896  -0.0725  -0.0657  -0.0503  -0.0373  -0.0173   0.0257
     0.1923   0.3289   0.6168   0.7871   1.0444   1.2294   1.3201   1.6490
     1.7134   1.7635

          k = 0.4000-0.4619 0.0000 ( 36660 PWs)   bands (ev):

   -21.9542  -9.8914  -6.6882  -6.6369  -6.5641  -6.0672  -5.8948  -5.5905
    -5.2261  -5.1785  -4.7597  -4.4203  -4.1759  -4.1317  -4.0277  -4.0046
    -3.9949  -3.9705  -3.9661  -3.9438  -3.8954  -3.8867  -3.8835  -3.8696
    -3.7987  -3.7556  -3.7370  -3.7285  -3.7033  -3.6938  -3.5957  -3.5538
    -3.5440  -3.5233  -3.5073  -3.4573  -3.3937  -3.3710  -3.2768  -3.2544
    -3.2460  -3.2035  -3.1680  -3.1519  -3.1229  -3.0616  -3.0389  -3.0331
    -2.9887  -2.9663  -2.9145  -2.8566  -2.8245  -2.8164  -2.7977  -2.7541
    -2.7367  -2.6752  -2.6606  -2.6469  -2.6408  -2.6226  -2.6055  -2.5581
    -2.5072  -2.4600  -2.4421  -2.4381  -2.4301  -2.3737  -2.3635  -2.3130
    -2.2995  -2.2682  -2.2605  -2.2547  -2.2467  -2.2179  -2.1960  -2.1862
    -2.1726  -2.1640  -2.1419  -2.1237  -2.1201  -2.0986  -2.0469  -2.0231
    -2.0155  -1.9976  -1.9583  -1.9385  -1.9082  -1.8912  -1.8760  -1.8605
    -1.8418  -1.8277  -1.8221  -1.8199  -1.8036  -1.7951  -1.7729  -1.7649
    -1.7092  -1.6846  -1.6736  -1.6683  -1.6560  -1.6526  -1.6432  -1.6361
    -1.6287  -1.6187  -1.6017  -1.5649  -1.5598  -1.5240  -1.5143  -1.4840
    -1.4294  -1.4261  -1.3918  -1.3792  -1.3655  -1.3598  -1.3390  -1.2964
    -1.2750  -1.2628  -1.2433  -1.1977  -1.1752  -1.1312  -1.1170  -1.1028
    -1.0788  -1.0738  -1.0619  -1.0380  -1.0156  -0.9979  -0.9798  -0.9711
    -0.9285  -0.9040  -0.8987  -0.8892  -0.8784  -0.8414  -0.8076  -0.7910
    -0.7835  -0.7746  -0.7572  -0.7479  -0.7362  -0.7123  -0.6759  -0.5700
    -0.5146  -0.5076  -0.5011  -0.4911  -0.4814  -0.4754  -0.4564  -0.4475
    -0.4168  -0.4038  -0.3982  -0.3906  -0.3446  -0.2984  -0.2756  -0.2678
    -0.2527  -0.2436  -0.2245  -0.2113  -0.1814  -0.1673  -0.1615  -0.1464
    -0.1366  -0.0792  -0.0738  -0.0666  -0.0506  -0.0382  -0.0171   0.0282
     0.2047   0.3148   0.5461   0.7944   1.1845   1.2284   1.4100   1.5537
     1.7298   1.7817

 ------ SPIN DOWN ----------


          k = 0.0000 0.0000 0.0000 ( 36693 PWs)   bands (ev):

   -22.0025  -9.9669  -7.7404  -6.5904  -6.4492  -5.8251  -5.4874  -4.5950
    -4.5692  -4.5665  -4.5639  -4.5438  -4.5337  -4.4344  -3.6970  -3.6910
    -3.6878  -3.6665  -3.6557  -3.6391  -3.5129  -2.8378  -2.7510  -2.7452
    -2.7363  -2.7275  -2.6279  -2.6017  -2.2889  -2.2808  -2.2748  -2.2674
    -2.2579  -2.2183  -2.0755  -2.0685  -2.0079  -1.9935  -1.9779  -1.9729
    -1.8964  -1.8911  -1.8411  -1.8369  -1.8015  -1.7656  -1.7501  -1.7251
    -1.7093  -1.6604  -1.5198  -1.4892  -1.4738  -1.4606  -1.4447  -1.4420
    -1.4373  -1.4356  -1.4047  -1.3974  -1.3769  -1.3592  -1.3560  -1.3549
    -1.2734  -1.2568  -0.8821  -0.8101  -0.7967  -0.7780  -0.7755  -0.6369
    -0.6127  -0.5546  -0.4797  -0.4715  -0.4585  -0.4526  -0.4435  -0.4333
    -0.4084  -0.3867  -0.3628  -0.3552  -0.3537  -0.3512  -0.3250  -0.2976
    -0.2879  -0.2613  -0.2535  -0.2526  -0.2247  -0.2110  -0.2030  -0.2005
    -0.1945  -0.1856  -0.1747  -0.1718  -0.1639  -0.1617  -0.0994  -0.0707
    -0.0558  -0.0358  -0.0231  -0.0130   0.0472   0.0502   0.0595   0.0614
     0.0649   0.0670   0.0705   0.0732   0.1398   0.1423   0.1949   0.2201
     0.2275   0.2368   0.2454   0.2600   0.3467   0.4470   0.4589   0.4954
     0.5211   0.5388   0.5490   0.5519   0.6132   0.7787   0.8350   0.8741
     0.8875   0.9483   1.0170   1.0598   1.0728   1.1066   1.1148   1.1181
     1.2170   1.2554   1.2675   1.2705   1.2813   1.2902   1.2978   1.3195
     1.3366   1.3504   1.3646   1.3747   1.3881   1.3924   1.4033   1.4282
     1.4352   1.4375   1.4408   1.4528   1.4880   1.5024   1.5085   1.5214
     1.5311   1.5487   1.5569   1.5583   1.5680   1.5712   1.5731   1.6082
     1.6138   1.6345   1.6381   1.6464   1.6550   1.6618   1.6660   1.6979
     1.7000   1.7065   1.7092   1.7139   1.7182   1.7227   1.7305   1.7353
     1.7427   1.7890   1.7896   1.9175   1.9405   1.9428   1.9446   1.9473
     1.9489   1.9569

          k = 0.0000 0.2309 0.0000 ( 36641 PWs)   bands (ev):

   -22.0024  -9.9620  -7.5948  -6.6065  -6.3345  -5.8218  -5.5563  -5.4339
    -4.9404  -4.9315  -4.4202  -4.3061  -4.0190  -4.0110  -3.9116  -3.8639
    -3.7257  -3.4690  -3.3417  -3.3182  -3.2370  -2.9774  -2.8161  -2.7281
    -2.6969  -2.6810  -2.5964  -2.5755  -2.4005  -2.3155  -2.3071  -2.2990
    -2.2674  -2.2444  -2.2174  -2.2128  -2.1789  -2.1556  -2.0383  -2.0271
    -1.9532  -1.9473  -1.9226  -1.8040  -1.7752  -1.7527  -1.7278  -1.6568
    -1.6165  -1.5905  -1.5427  -1.5208  -1.4940  -1.4727  -1.4510  -1.4492
    -1.4427  -1.4182  -1.3669  -1.3251  -1.3106  -1.2909  -1.2736  -1.2465
    -1.1909  -1.1148  -0.9448  -0.8666  -0.8365  -0.8303  -0.7917  -0.7180
    -0.7030  -0.6785  -0.6231  -0.5915  -0.5424  -0.5004  -0.4808  -0.4691
    -0.4302  -0.4210  -0.4180  -0.4070  -0.3892  -0.3679  -0.3620  -0.3376
    -0.2840  -0.2589  -0.2449  -0.2421  -0.2318  -0.2118  -0.1845  -0.1764
    -0.1644  -0.1549  -0.1519  -0.1419  -0.1405  -0.1378  -0.1245  -0.0970
    -0.0697  -0.0558  -0.0422  -0.0382  -0.0278  -0.0013   0.0051   0.0320
     0.0637   0.0737   0.0985   0.1206   0.1486   0.1703   0.1785   0.2077
     0.3080   0.3377   0.3706   0.4053   0.4338   0.4533   0.4724   0.4871
     0.5021   0.5092   0.5270   0.5323   0.6466   0.7762   0.8276   0.8497
     0.8568   0.8720   0.8882   0.9001   0.9413   0.9533   1.0223   1.0404
     1.0669   1.1092   1.1260   1.1618   1.1762   1.1946   1.2191   1.2370
     1.2793   1.3055   1.3240   1.3360   1.3462   1.3605   1.3936   1.4055
     1.4264   1.4498   1.4753   1.4949   1.5139   1.5312   1.5403   1.5725
     1.5885   1.5993   1.6067   1.6095   1.6282   1.6647   1.6840   1.6899
     1.6958   1.7068   1.7326   1.7537   1.7586   1.7713   1.7810   1.7940
     1.8044   1.8458   1.8476   1.8678   1.8742   1.8794   1.8912   1.9086
     1.9214   1.9321   1.9412   1.9476   2.0270   2.0420   2.0502   2.0934
     2.1201   2.1605

          k = 0.0000 0.4619 0.0000 ( 36606 PWs)   bands (ev):

   -22.0024  -9.9541  -7.1688  -6.6456  -6.4279  -6.0995  -5.6768  -5.4566
    -5.1585  -5.1295  -5.0144  -4.0850  -4.0334  -3.9319  -3.4658  -3.3985
    -3.3873  -3.2842  -3.1295  -3.0801  -2.9603  -2.9410  -2.8202  -2.7922
    -2.7830  -2.7176  -2.6810  -2.6594  -2.6167  -2.5435  -2.5331  -2.5019
    -2.4544  -2.4275  -2.2572  -2.2450  -2.1797  -2.1652  -2.0682  -2.0531
    -2.0500  -2.0409  -1.9895  -1.7747  -1.7584  -1.7377  -1.7033  -1.6611
    -1.5379  -1.5241  -1.5140  -1.4982  -1.4894  -1.4697  -1.4586  -1.4539
    -1.4060  -1.3558  -1.3420  -1.3228  -1.3041  -1.2812  -1.1602  -1.1319
    -1.0293  -0.9877  -0.9718  -0.8917  -0.8639  -0.8267  -0.7992  -0.7925
    -0.7704  -0.7555  -0.7327  -0.6931  -0.6731  -0.6265  -0.6143  -0.5842
    -0.5486  -0.5282  -0.5029  -0.4957  -0.4690  -0.4425  -0.4036  -0.3566
    -0.3292  -0.3043  -0.2778  -0.2633  -0.2290  -0.1991  -0.1907  -0.1666
    -0.1370  -0.1324  -0.1221  -0.0989  -0.0896  -0.0828  -0.0699  -0.0595
    -0.0301  -0.0066   0.0032   0.0140   0.0206   0.0252   0.0477   0.0509
     0.0737   0.0943   0.1177   0.1925   0.2230   0.2250   0.2456   0.2746
     0.2805   0.2960   0.3021   0.3522   0.3709   0.3861   0.4042   0.4269
     0.4525   0.4761   0.4859   0.4979   0.5314   0.5851   0.6681   0.6866
     0.7098   0.7600   0.7963   0.8811   0.9023   0.9253   0.9500   0.9662
     0.9816   1.0165   1.0290   1.0472   1.0660   1.1586   1.1786   1.2388
     1.2583   1.2897   1.3163   1.3300   1.3625   1.3790   1.3947   1.4164
     1.4436   1.4546   1.4725   1.5337   1.5612   1.5755   1.5904   1.6048
     1.6173   1.6208   1.6555   1.6666   1.6870   1.6969   1.7059   1.7416
     1.7476   1.7895   1.8343   1.8411   1.8532   1.8695   1.8828   1.8932
     1.9044   1.9267   1.9378   1.9453   1.9662   1.9720   1.9761   1.9820
     2.0152   2.0275   2.1031   2.1940   2.2276   2.2909   2.5499   2.6530
     2.7103   2.7438

          k = 0.2000-0.1155 0.0000 ( 36641 PWs)   bands (ev):

   -22.0024  -9.9625  -7.5936  -6.5931  -6.3448  -5.8427  -5.5434  -5.4267
    -4.9426  -4.9345  -4.4288  -4.2803  -4.0186  -4.0127  -3.9051  -3.8899
    -3.7207  -3.4665  -3.3421  -3.3318  -3.2263  -2.9644  -2.8266  -2.7413
    -2.6934  -2.6717  -2.6037  -2.5737  -2.3823  -2.3192  -2.3048  -2.2998
    -2.2630  -2.2598  -2.2154  -2.2105  -2.1802  -2.1561  -2.0395  -2.0265
    -1.9532  -1.9466  -1.9093  -1.8264  -1.7837  -1.7528  -1.7408  -1.6462
    -1.6173  -1.5949  -1.5459  -1.5180  -1.4927  -1.4778  -1.4531  -1.4482
    -1.4429  -1.4312  -1.3533  -1.3272  -1.3119  -1.2925  -1.2649  -1.2335
    -1.2002  -1.1158  -0.9399  -0.8685  -0.8366  -0.8283  -0.7811  -0.7193
    -0.7027  -0.6651  -0.6186  -0.5937  -0.5411  -0.5025  -0.4871  -0.4753
    -0.4278  -0.4193  -0.4149  -0.4085  -0.3972  -0.3788  -0.3501  -0.3260
    -0.2913  -0.2639  -0.2443  -0.2429  -0.2269  -0.2040  -0.1917  -0.1720
    -0.1664  -0.1604  -0.1499  -0.1424  -0.1399  -0.1375  -0.1195  -0.0990
    -0.0726  -0.0565  -0.0494  -0.0417  -0.0128   0.0048   0.0188   0.0294
     0.0551   0.0761   0.0925   0.1165   0.1544   0.1680   0.1770   0.2068
     0.3164   0.3351   0.3661   0.4094   0.4284   0.4421   0.4823   0.4910
     0.5050   0.5080   0.5220   0.5322   0.6619   0.7524   0.8372   0.8532
     0.8586   0.8744   0.8897   0.8964   0.9444   0.9603   1.0227   1.0342
     1.0649   1.0813   1.1254   1.1506   1.1722   1.1922   1.2164   1.2551
     1.2765   1.3071   1.3227   1.3458   1.3514   1.3585   1.3934   1.4050
     1.4365   1.4489   1.4814   1.4925   1.5157   1.5251   1.5365   1.5501
     1.5901   1.5990   1.6050   1.6110   1.6334   1.6755   1.6865   1.6949
     1.6999   1.7032   1.7358   1.7504   1.7554   1.7745   1.7811   1.7874
     1.8071   1.8439   1.8483   1.8657   1.8733   1.8788   1.8925   1.9099
     1.9265   1.9333   1.9438   1.9504   2.0280   2.0417   2.0484   2.1002
     2.1211   2.1487

          k = 0.2000 0.1155 0.0000 ( 36641 PWs)   bands (ev):

   -22.0024  -9.9618  -7.5955  -6.6145  -6.3287  -5.8116  -5.5298  -5.4711
    -4.9346  -4.9323  -4.4191  -4.3126  -4.0177  -4.0119  -3.9121  -3.8592
    -3.7253  -3.4688  -3.3408  -3.3129  -3.2429  -2.9880  -2.8023  -2.7524
    -2.7006  -2.6478  -2.6096  -2.5735  -2.3999  -2.3142  -2.3064  -2.2995
    -2.2715  -2.2398  -2.2162  -2.2096  -2.1804  -2.1584  -2.0387  -2.0331
    -1.9518  -1.9476  -1.8976  -1.8170  -1.7687  -1.7551  -1.7448  -1.6359
    -1.6258  -1.5977  -1.5427  -1.5237  -1.4973  -1.4675  -1.4560  -1.4487
    -1.4431  -1.3967  -1.3647  -1.3382  -1.3147  -1.2995  -1.2723  -1.2402
    -1.2055  -1.0996  -0.9494  -0.8657  -0.8345  -0.8156  -0.7802  -0.7384
    -0.7118  -0.6737  -0.6170  -0.5908  -0.5380  -0.5000  -0.4891  -0.4579
    -0.4387  -0.4212  -0.4167  -0.4085  -0.3899  -0.3823  -0.3640  -0.3330
    -0.2774  -0.2595  -0.2445  -0.2430  -0.2332  -0.2072  -0.1847  -0.1733
    -0.1642  -0.1571  -0.1522  -0.1421  -0.1406  -0.1396  -0.1130  -0.0978
    -0.0642  -0.0576  -0.0445  -0.0403  -0.0252   0.0009   0.0109   0.0224
     0.0656   0.0700   0.1165   0.1221   0.1425   0.1653   0.1789   0.2089
     0.2958   0.3387   0.3684   0.4024   0.4212   0.4496   0.4708   0.4879
     0.4987   0.5140   0.5272   0.5313   0.6727   0.7755   0.8267   0.8460
     0.8559   0.8659   0.8932   0.9025   0.9291   0.9602   0.9995   1.0299
     1.0469   1.1205   1.1329   1.1617   1.1761   1.2023   1.2187   1.2336
     1.2774   1.3105   1.3349   1.3418   1.3482   1.3627   1.3960   1.4028
     1.4283   1.4498   1.4786   1.5060   1.5099   1.5306   1.5442   1.5639
     1.5843   1.5961   1.6052   1.6117   1.6256   1.6664   1.6780   1.6853
     1.6991   1.7049   1.7380   1.7547   1.7582   1.7732   1.7795   1.7925
     1.8047   1.8464   1.8483   1.8654   1.8723   1.8799   1.8856   1.9069
     1.9197   1.9374   1.9429   1.9442   2.0270   2.0388   2.0504   2.0869
     2.1235   2.1633

          k = 0.2000 0.3464 0.0000 ( 36608 PWs)   bands (ev):

   -22.0024  -9.9552  -7.3116  -6.6256  -6.1892  -5.9428  -5.8792  -5.6407
    -5.4714  -4.6739  -4.5784  -4.2170  -4.2035  -4.0838  -3.3769  -3.3758
    -3.3610  -3.3527  -3.2534  -3.1646  -3.0667  -3.0601  -3.0317  -2.7622
    -2.6903  -2.6146  -2.6093  -2.5653  -2.5240  -2.5000  -2.4779  -2.4144
    -2.3994  -2.3862  -2.3753  -2.3402  -2.2403  -2.1887  -2.0270  -2.0111
    -1.9839  -1.9605  -1.8972  -1.8822  -1.8581  -1.7260  -1.6765  -1.6592
    -1.5842  -1.5378  -1.4968  -1.4926  -1.4864  -1.4717  -1.4475  -1.4359
    -1.4151  -1.3901  -1.3542  -1.3247  -1.2736  -1.2371  -1.1707  -1.1139
    -1.0493  -1.0154  -0.9680  -0.9004  -0.8435  -0.8102  -0.7918  -0.7553
    -0.7421  -0.7260  -0.6965  -0.6751  -0.6231  -0.6138  -0.6028  -0.5777
    -0.5589  -0.5360  -0.5179  -0.5099  -0.4725  -0.4064  -0.3550  -0.3427
    -0.3322  -0.3173  -0.2955  -0.2649  -0.2481  -0.2356  -0.2126  -0.1997
    -0.1791  -0.1626  -0.1465  -0.1367  -0.1258  -0.1038  -0.0859  -0.0690
    -0.0541  -0.0442  -0.0299  -0.0149  -0.0026   0.0069   0.0201   0.0310
     0.0626   0.0959   0.1270   0.1447   0.2361   0.2495   0.2702   0.2848
     0.3192   0.3280   0.3598   0.3748   0.4261   0.4434   0.4534   0.4562
     0.4692   0.4808   0.5323   0.5609   0.6032   0.6507   0.7342   0.7683
     0.8225   0.8575   0.8755   0.9055   0.9146   0.9202   0.9276   0.9635
     0.9780   0.9900   0.9978   1.0195   1.0524   1.1002   1.1613   1.1720
     1.2005   1.2124   1.2462   1.2593   1.2727   1.3097   1.3272   1.3594
     1.4166   1.4742   1.5236   1.5633   1.5834   1.5958   1.6138   1.6242
     1.6338   1.6493   1.6651   1.6759   1.7021   1.7354   1.7462   1.7552
     1.7658   1.7978   1.8051   1.8151   1.8260   1.8469   1.8588   1.8785
     1.8867   1.8949   1.8995   1.9169   1.9266   1.9505   1.9753   2.0109
     2.0168   2.0332   2.1210   2.1522   2.2604   2.2909   2.3459   2.4720
     2.5963   2.6171

          k = 0.2000-0.5774 0.0000 ( 36660 PWs)   bands (ev):

   -22.0024  -9.9519  -6.8165  -6.7320  -6.5453  -6.1238  -5.9490  -5.5730
    -5.3072  -5.1928  -4.6975  -4.2612  -3.7424  -3.6047  -3.4022  -3.3968
    -3.3604  -3.1766  -3.1399  -2.9997  -2.9816  -2.9748  -2.8735  -2.8460
    -2.8394  -2.8176  -2.8015  -2.7615  -2.6691  -2.5866  -2.4542  -2.4452
    -2.4205  -2.4124  -2.3737  -2.3500  -2.3317  -2.2349  -2.2210  -2.0119
    -1.9207  -1.9017  -1.8944  -1.8585  -1.8067  -1.7332  -1.6604  -1.6495
    -1.6105  -1.5992  -1.5897  -1.5003  -1.4499  -1.4361  -1.4193  -1.4026
    -1.3659  -1.3150  -1.2803  -1.2525  -1.2046  -1.1869  -1.1727  -1.0977
    -1.0681  -1.0157  -0.9408  -0.8848  -0.8699  -0.8266  -0.8062  -0.7925
    -0.7545  -0.7338  -0.7158  -0.6791  -0.6508  -0.6229  -0.5976  -0.5785
    -0.5742  -0.5432  -0.5316  -0.5220  -0.5081  -0.5022  -0.4720  -0.4437
    -0.4383  -0.4039  -0.3858  -0.3596  -0.3177  -0.2980  -0.2693  -0.2307
    -0.2015  -0.1729  -0.1533  -0.1265  -0.1060  -0.0890  -0.0812  -0.0613
    -0.0372   0.0046   0.0128   0.0280   0.0470   0.0547   0.1102   0.1469
     0.1731   0.1913   0.1975   0.2129   0.2314   0.2524   0.2818   0.2955
     0.3151   0.3177   0.3662   0.4055   0.4169   0.4308   0.4470   0.4855
     0.4945   0.5003   0.5193   0.5548   0.5629   0.5701   0.5838   0.6042
     0.6806   0.7448   0.7977   0.8402   0.8580   0.8740   0.9053   0.9220
     0.9278   0.9504   0.9687   1.0095   1.0550   1.1048   1.1220   1.1414
     1.1785   1.1936   1.2129   1.2447   1.2703   1.2858   1.3219   1.3632
     1.4043   1.4949   1.5261   1.5442   1.5942   1.6227   1.6500   1.6647
     1.6702   1.6837   1.6912   1.7067   1.7331   1.7521   1.7587   1.7702
     1.8172   1.8302   1.8370   1.8525   1.8565   1.8616   1.8710   1.8730
     1.8916   1.9252   1.9317   1.9578   1.9676   1.9826   1.9910   2.0140
     2.0742   2.1471   2.1961   2.3379   2.4758   2.7165   2.8105   2.8668
     2.8914   2.9528

          k = 0.2000-0.3464 0.0000 ( 36608 PWs)   bands (ev):

   -22.0024  -9.9564  -7.3042  -6.6106  -6.1950  -5.9696  -5.8971  -5.6443
    -5.4364  -4.6834  -4.5708  -4.2125  -4.1930  -4.0919  -3.3790  -3.3714
    -3.3634  -3.3599  -3.2493  -3.1807  -3.0838  -3.0609  -2.9998  -2.7450
    -2.6885  -2.6240  -2.6100  -2.5821  -2.5180  -2.5072  -2.4715  -2.4070
    -2.4024  -2.3924  -2.3765  -2.3217  -2.2431  -2.1815  -2.0356  -2.0164
    -1.9877  -1.9483  -1.9359  -1.8855  -1.8551  -1.7231  -1.6782  -1.6655
    -1.5969  -1.5245  -1.5035  -1.4942  -1.4859  -1.4733  -1.4593  -1.4399
    -1.4226  -1.4031  -1.3474  -1.3301  -1.2730  -1.2185  -1.1512  -1.1178
    -1.0505  -1.0241  -0.9373  -0.8956  -0.8303  -0.8016  -0.7844  -0.7691
    -0.7443  -0.7179  -0.7009  -0.6575  -0.6335  -0.6107  -0.5943  -0.5828
    -0.5633  -0.5427  -0.5213  -0.5168  -0.4810  -0.4118  -0.3499  -0.3439
    -0.3379  -0.3249  -0.2930  -0.2583  -0.2491  -0.2311  -0.2150  -0.1943
    -0.1798  -0.1729  -0.1568  -0.1358  -0.1202  -0.0936  -0.0832  -0.0715
    -0.0523  -0.0484  -0.0412  -0.0105   0.0026   0.0140   0.0230   0.0312
     0.0604   0.1218   0.1276   0.1370   0.2281   0.2498   0.2714   0.2969
     0.3188   0.3364   0.3746   0.3864   0.4307   0.4376   0.4471   0.4559
     0.4678   0.4790   0.5247   0.5522   0.5994   0.6363   0.7572   0.7628
     0.7993   0.8404   0.8946   0.9142   0.9232   0.9292   0.9409   0.9574
     0.9612   0.9897   1.0096   1.0253   1.0546   1.1054   1.1178   1.1628
     1.1974   1.2161   1.2409   1.2662   1.2738   1.3120   1.3391   1.3790
     1.3997   1.4578   1.5371   1.5626   1.5748   1.6053   1.6123   1.6179
     1.6408   1.6503   1.6700   1.6723   1.7076   1.7364   1.7455   1.7528
     1.7682   1.7906   1.8000   1.8114   1.8275   1.8462   1.8598   1.8765
     1.8871   1.8932   1.8974   1.9202   1.9261   1.9441   1.9766   2.0104
     2.0256   2.0582   2.1172   2.1483   2.2426   2.2905   2.4284   2.4590
     2.5367   2.6214

          k = 0.4000-0.2309 0.0000 ( 36606 PWs)   bands (ev):

   -22.0024  -9.9555  -7.1610  -6.6003  -6.4736  -6.1093  -5.7109  -5.4155
    -5.1624  -5.1345  -5.0021  -4.0817  -4.0275  -3.9475  -3.4531  -3.4022
    -3.3914  -3.2786  -3.1316  -3.0703  -2.9720  -2.9443  -2.8409  -2.7943
    -2.7821  -2.7259  -2.6758  -2.6609  -2.6040  -2.5471  -2.5262  -2.4929
    -2.4522  -2.4098  -2.2592  -2.2384  -2.1857  -2.1730  -2.0652  -2.0541
    -2.0435  -2.0337  -2.0060  -1.8120  -1.7564  -1.7398  -1.7050  -1.6900
    -1.5404  -1.5214  -1.5138  -1.5085  -1.4975  -1.4656  -1.4602  -1.4485
    -1.4213  -1.3525  -1.3388  -1.3238  -1.3153  -1.2836  -1.1600  -1.1090
    -1.0353  -0.9749  -0.9062  -0.8924  -0.8623  -0.8268  -0.8015  -0.7837
    -0.7712  -0.7588  -0.7319  -0.7006  -0.6701  -0.6257  -0.6187  -0.5837
    -0.5477  -0.5270  -0.5051  -0.4968  -0.4684  -0.4499  -0.3959  -0.3376
    -0.3255  -0.3068  -0.2824  -0.2607  -0.2357  -0.2195  -0.1880  -0.1753
    -0.1373  -0.1320  -0.1161  -0.0950  -0.0897  -0.0844  -0.0759  -0.0406
    -0.0324  -0.0043   0.0037   0.0086   0.0209   0.0271   0.0484   0.0550
     0.0710   0.0968   0.1232   0.1901   0.2175   0.2230   0.2454   0.2712
     0.2795   0.2972   0.3049   0.3505   0.3763   0.3942   0.4000   0.4239
     0.4570   0.4621   0.4867   0.4981   0.5324   0.6025   0.6683   0.6856
     0.7257   0.7571   0.7870   0.8776   0.9038   0.9263   0.9479   0.9589
[...]
     atom    8 type  1   force =    -0.00085772   -0.00209786   -0.10221588
     atom    9 type  1   force =    -0.00080309    0.00340520   -0.10159316
     atom   10 type  1   force =     0.00156512   -0.00048714   -0.01500017
     atom   11 type  1   force =     0.00004020   -0.00193012   -0.01101671
     atom   12 type  1   force =    -0.00070722   -0.00008022   -0.01116653
     atom   13 type  1   force =    -0.00086514    0.00210294   -0.00978192
     atom   14 type  1   force =    -0.00000238    0.00007974   -0.00664634
     atom   15 type  1   force =     0.00004901    0.00099555   -0.01152064
     atom   16 type  1   force =    -0.00052099   -0.00079324   -0.01226939
     atom   17 type  1   force =     0.00179460    0.00055634   -0.00986884
     atom   18 type  1   force =    -0.00058807   -0.00045019   -0.01324360
     atom   19 type  1   force =    -0.00183743   -0.00053007    0.01568887
     atom   20 type  1   force =    -0.01654724   -0.00550999   -0.00683344
     atom   21 type  1   force =     0.01898839   -0.01143879   -0.00742024
     atom   22 type  1   force =     0.00162343   -0.00069941    0.01397320
     atom   23 type  1   force =     0.00068089    0.02200705   -0.00706329
     atom   24 type  1   force =    -0.00265518   -0.00186409    0.01732007
     atom   25 type  1   force =     0.00039968   -0.00062269    0.01992483
     atom   26 type  1   force =    -0.00393998   -0.00333509    0.01069345
     atom   27 type  1   force =     0.00435404    0.00074867    0.01074908
     atom   28 type  1   force =     0.00410629    0.00060136    0.11011086
     atom   29 type  1   force =     0.00465996    0.03971497    0.13456009
     atom   30 type  1   force =    -0.02122179    0.01587987    0.13796223
     atom   31 type  1   force =     0.03671749   -0.02233515    0.14151063
     atom   32 type  1   force =    -0.05960181   -0.06081756    0.13377874
     atom   33 type  1   force =    -0.00191903    0.00082571    0.12116219
     atom   34 type  1   force =     0.00470142   -0.00443685    0.12397236
     atom   35 type  1   force =     0.00007031    0.00094729    0.12472638
     atom   36 type  1   force =    -0.00114489   -0.00078172    0.10107035
     atom   37 type  2   force =    -0.01631521    0.02436257    0.36189254
     atom   38 type  3   force =     0.77628364    0.82554045   -2.47616911
     atom   39 type  4   force =    -0.01169774   -0.01288802   -0.02490548
     The ionic contribution  to forces
     atom    1 type  1   force =    -0.00638658    0.00073733 -111.12980876
     atom    2 type  1   force =    -0.00367668    0.00154210 -111.14998810
     atom    3 type  1   force =     0.01006315    0.00039540 -111.13710294
     atom    4 type  1   force =    -0.00432313    0.00555623 -111.12961916
     atom    5 type  1   force =     0.00222594    0.00855781 -111.13385154
     atom    6 type  1   force =     0.00209722   -0.00052750 -111.12524913
     atom    7 type  1   force =     0.00151368   -0.00098424 -111.12457873
     atom    8 type  1   force =    -0.00569495   -0.00597433 -111.13284947
     atom    9 type  1   force =     0.00418133   -0.00930279 -111.13591524
     atom   10 type  1   force =    -0.03923832   -0.01844982  -40.06377559
     atom   11 type  1   force =    -0.01867474   -0.06190115  -40.18017807
     atom   12 type  1   force =     0.05789635   -0.03727103  -40.09911821
     atom   13 type  1   force =    -0.06556606    0.03689224  -40.13729279
     atom   14 type  1   force =     0.04079173    0.04411264  -40.18924844
     atom   15 type  1   force =     0.02479266    0.01271206  -40.05847183
     atom   16 type  1   force =    -0.00700458    0.04611087  -40.06523264
     atom   17 type  1   force =     0.00659798    0.00120850  -40.06481580
     atom   18 type  1   force =     0.00040646   -0.02341540  -40.05205563
     atom   19 type  1   force =    -0.30588813    0.03567026   31.54975286
     atom   20 type  1   force =    -0.21501358    0.09183183   30.45201710
     atom   21 type  1   force =     0.51616186    0.01379794   31.19986466
     atom   22 type  1   force =    -0.20168146    0.26374882   31.56217923
     atom   23 type  1   force =     0.10989281    0.42530080   31.35603186
     atom   24 type  1   force =     0.09223112   -0.02138049   31.73370508
     atom   25 type  1   force =     0.06285773   -0.04268493   31.76379105
     atom   26 type  1   force =    -0.27522400   -0.29738328   31.40604595
     atom   27 type  1   force =     0.21363371   -0.46725995   31.25872674
     atom   28 type  1   force =    -1.37300339   -0.59080327  104.01697342
     atom   29 type  1   force =    -1.29460594   -4.47902987   98.69368313
     atom   30 type  1   force =     2.32406239   -1.45145978  103.24374467
     atom   31 type  1   force =    -3.32406476    1.97396127  101.69052649
     atom   32 type  1   force =     2.96207636    3.21601026   97.57094494
     atom   33 type  1   force =     0.84334022    0.31987295  104.25246144
     atom   34 type  1   force =    -0.28973044    1.50755408  104.12203445
     atom   35 type  1   force =     0.20866662    0.09725887  104.10547063
     atom   36 type  1   force =     0.08684102   -0.73643522  104.34362760
     atom   37 type  2   force =     1.64872428    1.96313879   51.96806490
     atom   38 type  3   force =    -2.89126667   -3.01721932   89.54495338
     atom   39 type  4   force =     1.10198880    1.19551136   15.27455250
     The local contribution  to forces
     atom    1 type  1   force =     0.00702039   -0.00073446  111.23396256
     atom    2 type  1   force =     0.00719527    0.00077337  111.25180976
     atom    3 type  1   force =    -0.01389456    0.00365977  111.23719709
     atom    4 type  1   force =     0.00337701   -0.00338175  111.23312614
     atom    5 type  1   force =    -0.00287721   -0.01496241  111.23387815
     atom    6 type  1   force =    -0.00009673    0.00121720  111.22633505
     atom    7 type  1   force =    -0.00295041    0.00012943  111.22826500
     atom    8 type  1   force =     0.00754363    0.00763971  111.23778950
     atom    9 type  1   force =    -0.00442936    0.00591235  111.23842055
     atom   10 type  1   force =     0.03880855    0.01855330   40.05751973
     atom   11 type  1   force =     0.01700127    0.06361938   40.17002860
     atom   12 type  1   force =    -0.05632180    0.03784116   40.09388789
     atom   13 type  1   force =     0.06626662   -0.03955017   40.13064913
     atom   14 type  1   force =    -0.04112011   -0.04320156   40.17314668
     atom   15 type  1   force =    -0.02533785   -0.01413680   40.04976553
     atom   16 type  1   force =     0.00898095   -0.04471329   40.05834103
     atom   17 type  1   force =    -0.00851098   -0.00176534   40.05562263
     atom   18 type  1   force =     0.00010501    0.02401481   40.04396494
     atom   19 type  1   force =     0.30664378   -0.03494716  -31.54184235
     atom   20 type  1   force =     0.23043400   -0.08519169  -30.43417627
     atom   21 type  1   force =    -0.53327119   -0.00340185  -31.17590564
     atom   22 type  1   force =     0.19962730   -0.26256904  -31.55498743
     atom   23 type  1   force =    -0.11043014   -0.44779107  -31.33154818
     atom   24 type  1   force =    -0.08867610    0.02310358  -31.72749153
     atom   25 type  1   force =    -0.06431055    0.04330492  -31.75793284
     atom   26 type  1   force =     0.27653987    0.29910588  -31.39794710
     atom   27 type  1   force =    -0.21540380    0.46581171  -31.25032436
     atom   28 type  1   force =     1.36569389    0.58895692 -104.13484730
     atom   29 type  1   force =     1.28153112    4.41328531  -98.84010619
     atom   30 type  1   force =    -2.29183234    1.42250961 -103.39177707
     atom   31 type  1   force =     3.26935870   -1.94691838 -101.83869714
     atom   32 type  1   force =    -2.89213869   -3.14021802  -97.68084955
     atom   33 type  1   force =    -0.83347567   -0.32012068 -104.38344403
     atom   34 type  1   force =     0.28038383   -1.49259985 -104.25417350
     atom   35 type  1   force =    -0.20642435   -0.09462529 -104.23936616
     atom   36 type  1   force =    -0.08532161    0.73543906 -104.45335950
     atom   37 type  2   force =    -1.63457054   -1.98725147  -52.33015156
     atom   38 type  3   force =     2.12658322    2.20903259  -87.08280022
     atom   39 type  4   force =    -1.08125900   -1.17320745  -15.26147409
     The core correction contribution to forces
     atom    1 type  1   force =     0.00013090    0.00010452    0.01000059
     atom    2 type  1   force =     0.00058804    0.00032857    0.01013760
     atom    3 type  1   force =    -0.00023955    0.00019804    0.01027379
     atom    4 type  1   force =    -0.00003309    0.00005516    0.00989163
     atom    5 type  1   force =    -0.00017936   -0.00052195    0.01027950
     atom    6 type  1   force =     0.00009231    0.00006109    0.00959048
     atom    7 type  1   force =    -0.00002220    0.00003436    0.01034015
     atom    8 type  1   force =     0.00003822    0.00003220    0.01010697
     atom    9 type  1   force =    -0.00002804   -0.00003242    0.00984052
     atom   10 type  1   force =    -0.00018076   -0.00013666   -0.00189143
     atom   11 type  1   force =    -0.00009605   -0.00038513   -0.00188572
     atom   12 type  1   force =     0.00028626   -0.00034513   -0.00182255
     atom   13 type  1   force =    -0.00033771   -0.00015753   -0.00169944
     atom   14 type  1   force =     0.00013517    0.00011437   -0.00156871
     atom   15 type  1   force =     0.00029767   -0.00004380   -0.00195362
     atom   16 type  1   force =    -0.00008955    0.00041926   -0.00189834
     atom   17 type  1   force =     0.00003870    0.00016889   -0.00164639
     atom   18 type  1   force =    -0.00001019    0.00005531   -0.00166852
     atom   19 type  1   force =     0.00007070   -0.00013244    0.00191941
     atom   20 type  1   force =     0.00023183    0.00016189    0.00079272
     atom   21 type  1   force =     0.00004783    0.00008496    0.00010046
     atom   22 type  1   force =    -0.00016563    0.00048855    0.00136231
     atom   23 type  1   force =     0.00021472    0.00013159    0.00063315
     atom   24 type  1   force =     0.00018976    0.00016466    0.00182660
     atom   25 type  1   force =     0.00047429    0.00022360    0.00208648
     atom   26 type  1   force =     0.00005350    0.00060149    0.00190487
     atom   27 type  1   force =     0.00011508   -0.00012209    0.00115895
     atom   28 type  1   force =     0.00100634    0.00013122   -0.00955723
     atom   29 type  1   force =     0.00327137    0.00951525   -0.00247466
     atom   30 type  1   force =    -0.00451793    0.00429434   -0.00774037
     atom   31 type  1   force =     0.00742741   -0.00312552   -0.00621491
     atom   32 type  1   force =    -0.01344297   -0.01514026    0.01782809
     atom   33 type  1   force =    -0.00374659    0.00037899   -0.00790211
     atom   34 type  1   force =     0.00237633   -0.00356038   -0.00821337
     atom   35 type  1   force =    -0.00206715   -0.00358671   -0.00784637
     atom   36 type  1   force =    -0.00052030    0.00038901   -0.01060102
     atom   37 type  2   force =    -0.00078977   -0.00208854   -0.00281305
     atom   38 type  3   force =    -0.00595615   -0.00632343    0.01873658
     atom   39 type  4   force =     0.00000000    0.00000000    0.00000000
     The Hubbard contrib.    to forces
     atom    1 type  1   force =     0.00000000    0.00000000    0.00000000
     atom    2 type  1   force =     0.00000000    0.00000000    0.00000000
     atom    3 type  1   force =     0.00000000    0.00000000    0.00000000
     atom    4 type  1   force =     0.00000000    0.00000000    0.00000000
     atom    5 type  1   force =     0.00000000    0.00000000    0.00000000
     atom    6 type  1   force =     0.00000000    0.00000000    0.00000000
     atom    7 type  1   force =     0.00000000    0.00000000    0.00000000
     atom    8 type  1   force =     0.00000000    0.00000000    0.00000000
     atom    9 type  1   force =     0.00000000    0.00000000    0.00000000
     atom   10 type  1   force =     0.00000000    0.00000000    0.00000000
     atom   11 type  1   force =     0.00000000    0.00000000    0.00000000
     atom   12 type  1   force =     0.00000000    0.00000000    0.00000000
     atom   13 type  1   force =     0.00000000    0.00000000    0.00000000
     atom   14 type  1   force =     0.00000000    0.00000000    0.00000000
     atom   15 type  1   force =     0.00000000    0.00000000    0.00000000
     atom   16 type  1   force =     0.00000000    0.00000000    0.00000000
     atom   17 type  1   force =     0.00000000    0.00000000    0.00000000
     atom   18 type  1   force =     0.00000000    0.00000000    0.00000000
     atom   19 type  1   force =     0.00000000    0.00000000    0.00000000
     atom   20 type  1   force =     0.00000000    0.00000000    0.00000000
     atom   21 type  1   force =     0.00000000    0.00000000    0.00000000
     atom   22 type  1   force =     0.00000000    0.00000000    0.00000000
     atom   23 type  1   force =     0.00000000    0.00000000    0.00000000
     atom   24 type  1   force =     0.00000000    0.00000000    0.00000000
     atom   25 type  1   force =     0.00000000    0.00000000    0.00000000
     atom   26 type  1   force =     0.00000000    0.00000000    0.00000000
     atom   27 type  1   force =     0.00000000    0.00000000    0.00000000
     atom   28 type  1   force =     0.00000000    0.00000000    0.00000000
     atom   29 type  1   force =     0.00000000    0.00000000    0.00000000
     atom   30 type  1   force =     0.00000000    0.00000000    0.00000000
     atom   31 type  1   force =     0.00000000    0.00000000    0.00000000
     atom   32 type  1   force =     0.00000000    0.00000000    0.00000000
     atom   33 type  1   force =     0.00000000    0.00000000    0.00000000
     atom   34 type  1   force =     0.00000000    0.00000000    0.00000000
     atom   35 type  1   force =     0.00000000    0.00000000    0.00000000
     atom   36 type  1   force =     0.00000000    0.00000000    0.00000000
     atom   37 type  2   force =     0.00000000    0.00000000    0.00000000
     atom   38 type  3   force =     0.00000000    0.00000000    0.00000000
     atom   39 type  4   force =     0.00000000    0.00000000    0.00000000
     The SCF correction term to forces
     atom    1 type  1   force =     0.00000000    0.00000000    0.00000000
     atom    2 type  1   force =    -0.00000000   -0.00000000    0.00000000
     atom    3 type  1   force =    -0.00000000   -0.00000000    0.00000000
     atom    4 type  1   force =    -0.00000000   -0.00000000    0.00000000
     atom    5 type  1   force =    -0.00000000   -0.00000000    0.00000000
     atom    6 type  1   force =     0.00000000    0.00000000    0.00000000
     atom    7 type  1   force =    -0.00000000    0.00000000    0.00000000
     atom    8 type  1   force =     0.00000000    0.00000000    0.00000000
     atom    9 type  1   force =    -0.00000000    0.00000000    0.00000000
     atom   10 type  1   force =     0.00000000    0.00000000    0.00000000
     atom   11 type  1   force =     0.00000000    0.00000000    0.00000000
     atom   12 type  1   force =    -0.00000000    0.00000000    0.00000000
     atom   13 type  1   force =     0.00000000   -0.00000000    0.00000000
     atom   14 type  1   force =    -0.00000000   -0.00000000    0.00000000
     atom   15 type  1   force =    -0.00000000   -0.00000000    0.00000000
     atom   16 type  1   force =     0.00000000   -0.00000000    0.00000000
     atom   17 type  1   force =    -0.00000000   -0.00000000    0.00000000
     atom   18 type  1   force =    -0.00000000    0.00000000    0.00000000
     atom   19 type  1   force =     0.00000000    0.00000000   -0.00000000
     atom   20 type  1   force =     0.00000000    0.00000000   -0.00000000
     atom   21 type  1   force =    -0.00000000    0.00000000   -0.00000000
     atom   22 type  1   force =     0.00000000   -0.00000000   -0.00000000
     atom   23 type  1   force =    -0.00000000   -0.00000000   -0.00000000
     atom   24 type  1   force =    -0.00000000    0.00000000   -0.00000000
     atom   25 type  1   force =    -0.00000000   -0.00000000   -0.00000000
     atom   26 type  1   force =     0.00000000   -0.00000000   -0.00000000
     atom   27 type  1   force =    -0.00000000    0.00000000   -0.00000000
     atom   28 type  1   force =     0.00000000    0.00000000   -0.00000000
     atom   29 type  1   force =    -0.00000000    0.00000000   -0.00000000
     atom   30 type  1   force =    -0.00000000    0.00000000   -0.00000000
     atom   31 type  1   force =     0.00000000   -0.00000000   -0.00000000
     atom   32 type  1   force =    -0.00000000   -0.00000000   -0.00000000
     atom   33 type  1   force =     0.00000000   -0.00000000   -0.00000000
     atom   34 type  1   force =    -0.00000000   -0.00000000   -0.00000000
     atom   35 type  1   force =    -0.00000000   -0.00000000   -0.00000000
     atom   36 type  1   force =     0.00000000   -0.00000000   -0.00000000
     atom   37 type  2   force =    -0.00005870    0.00003813   -0.00020778
     atom   38 type  3   force =    -0.00003749    0.00002635   -0.00027293
     atom   39 type  4   force =    -0.00001713   -0.00001427   -0.00006119

     Total force =     0.022504     Total SCF correction =     0.000359

     Writing all to output data dir ./pwscf.save/

     init_run     :     12.47s CPU     12.89s WALL (       1 calls)
     electrons    :    629.95s CPU    649.82s WALL (       1 calls)
     forces       :      3.28s CPU      3.33s WALL (       1 calls)

     Called by init_run:
     wfcinit      :      8.78s CPU      9.09s WALL (       1 calls)
     potinit      :      2.40s CPU      2.48s WALL (       1 calls)
     hinit0       :      1.03s CPU      1.04s WALL (       1 calls)

     Called by electrons:
     c_bands      :    523.94s CPU    542.16s WALL (      42 calls)
     sum_band     :     68.14s CPU     69.06s WALL (      42 calls)
     v_of_rho     :      7.57s CPU      7.72s WALL (      43 calls)
     newd         :      5.60s CPU      5.67s WALL (      43 calls)
     PAW_pot      :     13.69s CPU     13.83s WALL (      43 calls)
     mix_rho      :     12.67s CPU     12.83s WALL (      42 calls)
     vdW_kernel   :      1.09s CPU      1.10s WALL (       1 calls)

     Called by c_bands:
     init_us_2    :      5.36s CPU      5.46s WALL (    2236 calls)
     init_us_2:cp :      5.35s CPU      5.46s WALL (    2236 calls)
     cegterg      :    507.14s CPU    524.32s WALL (    1092 calls)

     Called by *egterg:
     cdiaghg      :    169.43s CPU    175.01s WALL (    3878 calls)
     h_psi        :    235.51s CPU    243.02s WALL (    3904 calls)
     s_psi        :     23.59s CPU     24.85s WALL (    3904 calls)
     g_psi        :      0.46s CPU      0.47s WALL (    2786 calls)

     Called by h_psi:
     h_psi:calbec :     34.57s CPU     35.21s WALL (    3904 calls)
     vloc_psi     :    175.12s CPU    181.08s WALL (    3904 calls)
     add_vuspsi   :     24.68s CPU     25.58s WALL (    3904 calls)

     General routines
     calbec       :     51.34s CPU     52.17s WALL (    5100 calls)
     fft          :      6.86s CPU      6.98s WALL (    3904 calls)
     ffts         :      8.00s CPU      8.11s WALL (   15111 calls)
     fftw         :    202.62s CPU    208.72s WALL ( 1137956 calls)
     interpolate  :      0.50s CPU      0.51s WALL (      86 calls)

     Parallel routines

     PWSCF        :  10m51.74s CPU  11m19.42s WALL


   This run was terminated on:  16:10:30   2Dec2025            

=------------------------------------------------------------------------------=
   JOB DONE.
=------------------------------------------------------------------------------=
