  37  37   0   0
  0.4190497E+02  0.8468310E-09  0.8468310E-09  0.2496566E-08  0.5000000E-15
  1.000000000000000E-004
  CAR 
 unknown system                          
      8.86196731     -9.87636905  301     -0.06526048      1.00000000
     -9.876  0.0000E+00  0.0000E+00
     -9.814  0.0000E+00  0.0000E+00
     -9.751  0.0000E+00  0.0000E+00
     -9.689 -0.6156E-28 -0.3845E-29
     -9.627 -0.9858E-24 -0.6158E-25
     -9.564 -0.7185E-20 -0.4488E-21
     -9.502 -0.2380E-16 -0.1487E-17
     -9.439 -0.3461E-13 -0.2163E-14
     -9.377 -0.2335E-10 -0.1460E-11
     -9.314 -0.7065E-08 -0.4427E-09
     -9.252 -0.9513E-06 -0.5986E-07
     -9.189 -0.5606E-04 -0.3561E-05
     -9.127 -0.1396E-02 -0.9079E-04
     -9.064 -0.1342E-01 -0.9291E-03
     -9.002 -0.3324E-01 -0.3006E-02
     -8.939  0.9154E-01  0.2712E-02
     -8.877  0.3738E+00  0.2606E-01
     -8.815  0.7359E+00  0.7202E-01
     -8.752  0.2507E+01  0.2286E+00
     -8.690  0.3781E+01  0.4648E+00
     -8.627  0.1635E+01  0.5669E+00
     -8.565 -0.2226E+00  0.5530E+00
     -8.502  0.6211E+00  0.5918E+00
     -8.440  0.3111E+01  0.7861E+00
     -8.377  0.3719E+01  0.1018E+01
     -8.315  0.3623E+01  0.1245E+01
     -8.252  0.3476E+01  0.1462E+01
     -8.190  0.1194E+01  0.1536E+01
     -8.127 -0.1840E+00  0.1525E+01
     -8.065 -0.3931E+00  0.1500E+01
     -8.003 -0.8000E-01  0.1495E+01
     -7.940  0.3452E+01  0.1711E+01
     -7.878  0.7577E+01  0.2184E+01
     -7.815  0.4572E+01  0.2470E+01
     -7.753  0.4720E+00  0.2499E+01
     -7.690  0.1926E+01  0.2620E+01
     -7.628  0.4072E+01  0.2874E+01
     -7.565  0.2488E+01  0.3029E+01
     -7.503  0.2107E+01  0.3161E+01
     -7.440  0.3451E+01  0.3377E+01
     -7.378  0.1964E+01  0.3499E+01
     -7.315  0.2205E+01  0.3637E+01
     -7.253  0.7474E+01  0.4104E+01
     -7.191  0.1194E+02  0.4850E+01
     -7.128  0.8980E+01  0.5411E+01
     -7.066  0.4671E+01  0.5703E+01
     -7.003  0.4434E+01  0.5980E+01
     -6.941  0.4413E+01  0.6255E+01
     -6.878  0.2118E+01  0.6388E+01
     -6.816  0.8518E-01  0.6393E+01
     -6.753  0.1892E+01  0.6511E+01
     -6.691  0.5911E+01  0.6880E+01
     -6.628  0.1075E+02  0.7551E+01
     -6.566  0.1648E+02  0.8581E+01
     -6.503  0.1588E+02  0.9573E+01
     -6.441  0.1062E+02  0.1024E+02
     -6.379  0.7728E+01  0.1072E+02
     -6.316  0.8257E+01  0.1124E+02
     -6.254  0.1561E+02  0.1221E+02
     -6.191  0.2400E+02  0.1371E+02
     -6.129  0.2925E+02  0.1554E+02
     -6.066  0.3403E+02  0.1766E+02
     -6.004  0.3373E+02  0.1977E+02
     -5.941  0.3387E+02  0.2188E+02
     -5.879  0.3596E+02  0.2413E+02
     -5.816  0.3258E+02  0.2617E+02
     -5.754  0.2317E+02  0.2761E+02
     -5.691  0.2389E+02  0.2910E+02
     -5.629  0.3676E+02  0.3140E+02
     -5.567  0.4636E+02  0.3430E+02
     -5.504  0.4764E+02  0.3727E+02
     -5.442  0.5046E+02  0.4042E+02
     -5.379  0.6058E+02  0.4421E+02
     -5.317  0.6424E+02  0.4822E+02
     -5.254  0.5490E+02  0.5165E+02
     -5.192  0.4842E+02  0.5467E+02
     -5.129  0.4711E+02  0.5761E+02
     -5.067  0.5252E+02  0.6090E+02
     -5.004  0.7094E+02  0.6533E+02
     -4.942  0.6086E+02  0.6913E+02
     -4.879  0.3179E+02  0.7111E+02
     -4.817  0.2890E+02  0.7292E+02
     -4.755  0.4256E+02  0.7558E+02
     -4.692  0.3609E+02  0.7783E+02
     -4.630  0.1948E+02  0.7905E+02
     -4.567  0.2425E+02  0.8056E+02
     -4.505  0.4550E+02  0.8340E+02
     -4.442  0.6175E+02  0.8726E+02
     -4.380  0.6100E+02  0.9107E+02
     -4.317  0.4926E+02  0.9415E+02
     -4.255  0.4344E+02  0.9686E+02
     -4.192  0.4420E+02  0.9962E+02
     -4.130  0.5039E+02  0.1028E+03
     -4.067  0.5957E+02  0.1065E+03
     -4.005  0.5267E+02  0.1098E+03
     -3.943  0.4365E+02  0.1125E+03
     -3.880  0.4333E+02  0.1152E+03
     -3.818  0.3935E+02  0.1177E+03
     -3.755  0.3667E+02  0.1200E+03
     -3.693  0.4924E+02  0.1230E+03
     -3.630  0.6309E+02  0.1270E+03
     -3.568  0.6079E+02  0.1308E+03
     -3.505  0.5673E+02  0.1343E+03
     -3.443  0.6151E+02  0.1382E+03
     -3.380  0.7221E+02  0.1427E+03
     -3.318  0.7729E+02  0.1475E+03
     -3.255  0.7241E+02  0.1520E+03
     -3.193  0.6617E+02  0.1562E+03
     -3.131  0.7721E+02  0.1610E+03
     -3.068  0.8684E+02  0.1664E+03
     -3.006  0.7905E+02  0.1713E+03
     -2.943  0.7678E+02  0.1761E+03
     -2.881  0.7607E+02  0.1809E+03
     -2.818  0.7829E+02  0.1858E+03
     -2.756  0.9563E+02  0.1918E+03
     -2.693  0.1070E+03  0.1984E+03
     -2.631  0.9184E+02  0.2042E+03
     -2.568  0.6736E+02  0.2084E+03
     -2.506  0.6421E+02  0.2124E+03
     -2.443  0.6626E+02  0.2165E+03
     -2.381  0.5284E+02  0.2198E+03
     -2.319  0.3571E+02  0.2221E+03
     -2.256  0.3040E+02  0.2240E+03
     -2.194  0.2941E+02  0.2258E+03
     -2.131  0.3542E+02  0.2280E+03
     -2.069  0.5742E+02  0.2316E+03
     -2.006  0.8139E+02  0.2367E+03
     -1.944  0.9200E+02  0.2424E+03
     -1.881  0.8362E+02  0.2476E+03
     -1.819  0.6449E+02  0.2517E+03
     -1.756  0.4915E+02  0.2547E+03
     -1.694  0.4343E+02  0.2575E+03
     -1.632  0.4220E+02  0.2601E+03
     -1.569  0.4947E+02  0.2632E+03
     -1.507  0.6314E+02  0.2671E+03
     -1.444  0.6408E+02  0.2711E+03
     -1.382  0.5765E+02  0.2747E+03
     -1.319  0.5584E+02  0.2782E+03
     -1.257  0.5136E+02  0.2814E+03
     -1.194  0.5328E+02  0.2848E+03
     -1.132  0.6830E+02  0.2890E+03
     -1.069  0.8092E+02  0.2941E+03
     -1.007  0.8523E+02  0.2994E+03
     -0.944  0.7476E+02  0.3041E+03
     -0.882  0.5841E+02  0.3077E+03
     -0.820  0.5449E+02  0.3111E+03
     -0.757  0.5005E+02  0.3142E+03
     -0.695  0.4330E+02  0.3170E+03
     -0.632  0.5215E+02  0.3202E+03
     -0.570  0.6561E+02  0.3243E+03
     -0.507  0.6177E+02  0.3282E+03
     -0.445  0.5874E+02  0.3318E+03
     -0.382  0.6621E+02  0.3360E+03
     -0.320  0.8290E+02  0.3411E+03
     -0.257  0.9278E+02  0.3469E+03
     -0.195  0.7279E+02  0.3515E+03
     -0.132  0.5967E+02  0.3552E+03
     -0.070  0.8520E+02  0.3605E+03
     -0.008  0.9157E+02  0.3663E+03
      0.055  0.5346E+02  0.3696E+03
      0.117  0.3762E+02  0.3719E+03
      0.180  0.5433E+02  0.3753E+03
      0.242  0.5105E+02  0.3785E+03
      0.305  0.4046E+02  0.3811E+03
      0.367  0.3651E+02  0.3833E+03
      0.430  0.2455E+02  0.3849E+03
      0.492  0.1266E+02  0.3857E+03
      0.555  0.6288E+01  0.3861E+03
      0.617  0.4730E+01  0.3863E+03
      0.680  0.6350E+01  0.3867E+03
      0.742  0.9881E+01  0.3874E+03
      0.804  0.1213E+02  0.3881E+03
      0.867  0.9880E+01  0.3887E+03
      0.929  0.9539E+01  0.3893E+03
      0.992  0.1271E+02  0.3901E+03
      1.054  0.9792E+01  0.3907E+03
      1.117  0.4991E+01  0.3910E+03
      1.179  0.6238E+01  0.3914E+03
      1.242  0.1034E+02  0.3921E+03
      1.304  0.1144E+02  0.3928E+03
      1.367  0.1110E+02  0.3935E+03
      1.429  0.8179E+01  0.3940E+03
      1.492  0.1489E+02  0.3949E+03
      1.554  0.2751E+02  0.3967E+03
      1.616  0.2619E+02  0.3983E+03
      1.679  0.1857E+02  0.3994E+03
      1.741  0.1367E+02  0.4003E+03
      1.804  0.7676E+01  0.4008E+03
      1.866  0.4139E+01  0.4010E+03
      1.929  0.5020E+01  0.4014E+03
      1.991  0.6456E+01  0.4018E+03
      2.054  0.5189E+01  0.4021E+03
      2.116  0.3305E+01  0.4023E+03
      2.179  0.5528E+01  0.4026E+03
      2.241  0.1048E+02  0.4033E+03
      2.304  0.1191E+02  0.4040E+03
      2.366  0.1091E+02  0.4047E+03
      2.428  0.1709E+02  0.4058E+03
      2.491  0.2336E+02  0.4072E+03
      2.553  0.1520E+02  0.4082E+03
      2.616  0.6788E+01  0.4086E+03
      2.678  0.7537E+01  0.4091E+03
      2.741  0.1234E+02  0.4099E+03
      2.803  0.1585E+02  0.4108E+03
      2.866  0.1444E+02  0.4117E+03
      2.928  0.1285E+02  0.4125E+03
      2.991  0.1174E+02  0.4133E+03
      3.053  0.1049E+02  0.4139E+03
      3.116  0.1402E+02  0.4148E+03
      3.178  0.1320E+02  0.4156E+03
      3.240  0.1006E+02  0.4163E+03
      3.303  0.1089E+02  0.4169E+03
      3.365  0.8348E+01  0.4175E+03
      3.428  0.6083E+01  0.4178E+03
      3.490  0.6879E+01  0.4183E+03
      3.553  0.5743E+01  0.4186E+03
      3.615  0.8875E+01  0.4192E+03
      3.678  0.1761E+02  0.4203E+03
      3.740  0.2069E+02  0.4216E+03
      3.803  0.1500E+02  0.4225E+03
      3.865  0.7213E+01  0.4230E+03
      3.928  0.6594E+01  0.4234E+03
      3.990  0.1056E+02  0.4240E+03
      4.052  0.1127E+02  0.4247E+03
      4.115  0.6526E+01  0.4252E+03
      4.177  0.9155E+00  0.4252E+03
      4.240  0.6716E+00  0.4253E+03
      4.302  0.4928E+01  0.4256E+03
      4.365  0.1435E+02  0.4265E+03
      4.427  0.2651E+02  0.4281E+03
      4.490  0.2482E+02  0.4297E+03
      4.552  0.1169E+02  0.4304E+03
      4.615  0.6645E+01  0.4308E+03
      4.677  0.8244E+01  0.4313E+03
      4.740  0.9918E+01  0.4319E+03
      4.802  0.1033E+02  0.4326E+03
      4.864  0.8846E+01  0.4331E+03
      4.927  0.1026E+02  0.4338E+03
      4.989  0.1380E+02  0.4346E+03
      5.052  0.1315E+02  0.4355E+03
      5.114  0.1228E+02  0.4362E+03
      5.177  0.1050E+02  0.4369E+03
      5.239  0.8888E+01  0.4374E+03
      5.302  0.1119E+02  0.4381E+03
      5.364  0.8681E+01  0.4387E+03
      5.427  0.5604E+01  0.4390E+03
      5.489  0.1337E+02  0.4399E+03
      5.552  0.2210E+02  0.4412E+03
      5.614  0.2167E+02  0.4426E+03
      5.676  0.2087E+02  0.4439E+03
      5.739  0.2485E+02  0.4455E+03
      5.801  0.2181E+02  0.4468E+03
      5.864  0.1536E+02  0.4478E+03
      5.926  0.1827E+02  0.4489E+03
      5.989  0.2670E+02  0.4506E+03
      6.051  0.3075E+02  0.4525E+03
      6.114  0.2455E+02  0.4540E+03
      6.176  0.1644E+02  0.4551E+03
      6.239  0.1604E+02  0.4561E+03
      6.301  0.2001E+02  0.4573E+03
      6.364  0.2901E+02  0.4591E+03
      6.426  0.2637E+02  0.4608E+03
      6.488  0.1344E+02  0.4616E+03
      6.551  0.1565E+02  0.4626E+03
      6.613  0.2750E+02  0.4643E+03
      6.676  0.2992E+02  0.4662E+03
      6.738  0.2744E+02  0.4679E+03
      6.801  0.2155E+02  0.4692E+03
      6.863  0.2030E+02  0.4705E+03
      6.926  0.2137E+02  0.4718E+03
      6.988  0.1247E+02  0.4726E+03
      7.051  0.9984E+01  0.4732E+03
      7.113  0.1831E+02  0.4744E+03
      7.176  0.2200E+02  0.4758E+03
      7.238  0.2085E+02  0.4771E+03
      7.300  0.1570E+02  0.4780E+03
      7.363  0.6528E+01  0.4785E+03
      7.425  0.7953E+00  0.4785E+03
      7.488  0.2804E+01  0.4787E+03
      7.550  0.7658E+01  0.4792E+03
      7.613  0.8059E+01  0.4797E+03
      7.675  0.3983E+01  0.4799E+03
      7.738  0.4448E+00  0.4799E+03
      7.800 -0.1432E+00  0.4799E+03
      7.863  0.4658E+00  0.4800E+03
      7.925  0.5395E+00  0.4800E+03
      7.988  0.1302E+00  0.4800E+03
      8.050 -0.3045E-01  0.4800E+03
      8.112 -0.1334E-01  0.4800E+03
      8.175 -0.1395E-02  0.4800E+03
      8.237 -0.5605E-04  0.4800E+03
      8.300 -0.9513E-06  0.4800E+03
      8.362 -0.7065E-08  0.4800E+03
      8.425 -0.2335E-10  0.4800E+03
      8.487 -0.3470E-13  0.4800E+03
      8.550  0.0000E+00  0.4800E+03
      8.612  0.0000E+00  0.4800E+03
      8.675  0.0000E+00  0.4800E+03
      8.737  0.0000E+00  0.4800E+03
      8.800  0.0000E+00  0.4800E+03
      8.862  0.0000E+00  0.4800E+03
