   37   37    1    1
  0.4190497E+02  0.8468310E-09  0.8468310E-09  0.2496566E-08  0.5000000E-15
  1.000000000000000E-004
  CAR 
 unknown system                          
    361     13    240
 
  0.1276756E-14  0.1276756E-14  0.1276756E-14  0.4000000E-01
      1         -8.876369   1.000000
      2         -7.613616   1.000000
      3         -6.555009   1.000000
      4         -6.477855   1.000000
      5         -6.470082   1.000000
      6         -6.456599   1.000000
      7         -6.451711   1.000000
      8         -6.444065   1.000000
      9         -6.428611   1.000000
     10         -6.423210   1.000000
     11         -6.005631   1.000000
     12         -5.908426   1.000000
     13         -5.904500   1.000000
     14         -5.903242   1.000000
     15         -5.892599   1.000000
     16         -5.890933   1.000000
     17         -5.605288   1.000000
     18         -5.448479   1.000000
     19         -5.446201   1.000000
     20         -5.441031   1.000000
     21         -5.436238   1.000000
     22         -5.435574   1.000000
     23         -5.364107   1.000000
     24         -5.224795   1.000000
     25         -5.216468   1.000000
     26         -5.214609   1.000000
     27         -5.207946   1.000000
     28         -5.206018   1.000000
     29         -5.052260   1.000000
     30         -5.016664   1.000000
     31         -5.009931   1.000000
     32         -5.007284   1.000000
     33         -5.002724   1.000000
     34         -4.999363   1.000000
     35         -4.975609   1.000000
     36         -4.963155   1.000000
     37         -4.957179   1.000000
     38         -4.949091   1.000000
     39         -4.943449   1.000000
     40         -4.899385   1.000000
     41         -4.798123   1.000000
     42         -4.373649   1.000000
     43         -4.367805   1.000000
     44         -4.344309   1.000000
     45         -4.339685   1.000000
     46         -4.313074   1.000000
     47         -4.308668   1.000000
     48         -4.299076   1.000000
     49         -4.290661   1.000000
     50         -4.288172   1.000000
     51         -4.237676   1.000000
     52         -4.130438   1.000000
     53         -4.110295   1.000000
     54         -4.045745   1.000000
     55         -3.927802   1.000000
     56         -3.594990   1.000000
     57         -3.566832   1.000000
     58         -3.564913   1.000000
     59         -3.555499   1.000000
     60         -3.549728   1.000000
     61         -3.538877   1.000000
     62         -3.483214   1.000000
     63         -3.385518   1.000000
     64         -3.373817   1.000000
     65         -3.366113   1.000000
     66         -3.364185   1.000000
     67         -3.358975   1.000000
     68         -3.350169   1.000000
     69         -3.326879   1.000000
     70         -3.316839   1.000000
     71         -3.315546   1.000000
     72         -3.294241   1.000000
     73         -3.286007   1.000000
     74         -3.282154   1.000000
     75         -3.258939   1.000000
     76         -3.255218   1.000000
     77         -3.229164   1.000000
     78         -3.153700   1.000000
     79         -3.145638   1.000000
     80         -3.139813   1.000000
     81         -3.134848   1.000000
     82         -3.123626   1.000000
     83         -2.980986   1.000000
     84         -2.935156   1.000000
     85         -2.925301   1.000000
     86         -2.910737   1.000000
     87         -2.906161   1.000000
     88         -2.900150   1.000000
     89         -2.892684   1.000000
     90         -2.883364   1.000000
     91         -2.874706   1.000000
     92         -2.825102   1.000000
     93         -2.818197   1.000000
     94         -2.769500   1.000000
     95         -2.764260   1.000000
     96         -2.727698   1.000000
     97         -2.727608   1.000000
     98         -2.684541   1.000000
     99         -2.683471   1.000000
    100         -2.674833   1.000000
    101         -2.663405   1.000000
    102         -2.533975   1.000000
    103         -2.524832   1.000000
    104         -2.518403   1.000000
    105         -2.500447   1.000000
    106         -2.486596   1.000000
    107         -2.478705   1.000000
    108         -2.165104   1.000000
    109         -2.029795   1.000000
    110         -2.008865   1.000000
    111         -2.000946   1.000000
    112         -1.991075   1.000000
    113         -1.989192   1.000000
    114         -1.983255   1.000000
    115         -1.979831   1.000000
    116         -1.947712   1.000000
    117         -1.945972   1.000000
    118         -1.938588   1.000000
    119         -1.932437   1.000000
    120         -1.902296   1.000000
    121         -1.855187   1.000000
    122         -1.851619   1.000000
    123         -1.734589   1.000000
    124         -1.705476   1.000000
    125         -1.704546   1.000000
    126         -1.689369   1.000000
    127         -1.688154   1.000000
    128         -1.606366   1.000000
    129         -1.583944   1.000000
    130         -1.548555   1.000000
    131         -1.528407   1.000000
    132         -1.525758   1.000000
    133         -1.520001   1.000000
    134         -1.467040   1.000000
    135         -1.291456   1.000000
    136         -1.284302   1.000000
    137         -1.259271   1.000000
    138         -1.256128   1.000000
    139         -1.246071   1.000000
    140         -1.232410   1.000000
    141         -1.182225   1.000000
    142         -1.174062   1.000000
    143         -1.023401   1.000000
    144         -1.019418   1.000000
    145         -1.012165   1.000000
    146         -1.006582   1.000000
    147         -1.000000   1.000000
    148         -0.947323   1.000000
    149         -0.853801   1.000000
    150         -0.842943   1.000000
    151         -0.836484   1.000000
    152         -0.827167   1.000000
    153         -0.822914   1.000000
    154         -0.803825   1.000000
    155         -0.801799   1.000000
    156         -0.793939   1.000000
    157         -0.790059   1.000000
    158         -0.787267   1.000000
    159         -0.785381   1.000000
    160         -0.701379   1.000000
    161         -0.685926   1.000000
    162         -0.680402   1.000000
    163         -0.664635   1.000000
    164         -0.659791   1.000000
    165         -0.657514   1.000000
    166         -0.633233   1.000000
    167         -0.621020   1.000000
    168         -0.582259   1.000000
    169         -0.579003   1.000000
    170         -0.551356   1.000000
    171         -0.547147   1.000000
    172         -0.544235   1.000000
    173         -0.542575   1.000000
    174         -0.537766   1.000000
    175         -0.533971   1.000000
    176         -0.455555   1.000000
    177         -0.446467   1.000000
    178         -0.442545   1.000001
    179         -0.432973   1.000001
    180         -0.427438   1.000002
    181         -0.423718   1.000002
    182         -0.408020   1.000007
    183         -0.347759   1.000240
    184         -0.321871   1.000857
    185         -0.315330   1.001154
    186         -0.309458   1.001495
    187         -0.298984   1.002323
    188         -0.291084   1.003183
    189         -0.119162   0.890767
    190         -0.084992   0.663433
    191         -0.018052   0.145617
    192         -0.007359   0.089624
    193          0.014923   0.009484
    194          0.018345   0.001295
    195          0.020947  -0.004268
    196          0.025615  -0.012883
    197          0.343981  -0.000000
    198          0.817663  -0.000000
    199          0.889456  -0.000000
    200          0.900275  -0.000000
    201          0.909406  -0.000000
    202          0.914239  -0.000000
    203          0.916511  -0.000000
    204          2.439264  -0.000000
    205          3.175030   0.000000
    206          3.183687   0.000000
    207          3.214589   0.000000
    208          3.227989   0.000000
    209          3.240166   0.000000
    210          4.373840   0.000000
    211          4.770839   0.000000
    212          4.776678   0.000000
    213          4.813608   0.000000
    214          4.816864   0.000000
    215          4.842515   0.000000
    216          4.844227   0.000000
    217          4.957570   0.000000
    218          5.108623   0.000000
    219          5.507338   0.000000
    220          5.536425   0.000000
    221          5.823864   0.000000
    222          5.830307   0.000000
    223          5.839272   0.000000
    224          5.863728   0.000000
    225          5.884578   0.000000
    226          6.075416   0.000000
    227          6.556789   0.000000
    228          6.627488   0.000000
    229          6.636369   0.000000
    230          6.643239   0.000000
    231          6.703504   0.000000
    232          6.850534   0.000000
    233          7.113119   0.000000
    234          7.123621   0.000000
    235          7.143644   0.000000
    236          7.165775   0.000000
    237          7.169575   0.000000
    238          7.178190   0.000000
    239          7.318266   0.000000
    240          7.861967   0.000000
 
  0.2000000E+00  0.1278043E-14  0.1276756E-14  0.8000000E-01
      1         -8.727986   1.000000
      2         -7.468507   1.000000
      3         -6.956416   1.000000
      4         -6.578829   1.000000
      5         -6.552212   1.000000
      6         -6.398386   1.000000
      7         -6.331415   1.000000
      8         -6.266142   1.000000
      9         -6.224118   1.000000
     10         -6.210304   1.000000
     11         -6.067434   1.000000
     12         -5.996041   1.000000
     13         -5.900867   1.000000
     14         -5.831512   1.000000
     15         -5.828014   1.000000
     16         -5.818830   1.000000
     17         -5.562129   1.000000
     18         -5.521781   1.000000
     19         -5.407464   1.000000
     20         -5.405006   1.000000
     21         -5.394375   1.000000
     22         -5.366539   1.000000
     23         -5.321180   1.000000
     24         -5.306444   1.000000
     25         -5.262958   1.000000
     26         -5.229838   1.000000
     27         -5.203892   1.000000
     28         -5.199903   1.000000
     29         -5.147585   1.000000
     30         -5.112632   1.000000
     31         -5.082691   1.000000
     32         -5.016436   1.000000
     33         -5.005038   1.000000
     34         -4.998146   1.000000
     35         -4.996004   1.000000
     36         -4.860721   1.000000
     37         -4.795454   1.000000
     38         -4.789056   1.000000
     39         -4.767125   1.000000
     40         -4.755779   1.000000
     41         -4.728681   1.000000
     42         -4.496194   1.000000
     43         -4.484203   1.000000
     44         -4.470437   1.000000
     45         -4.413625   1.000000
     46         -4.400170   1.000000
     47         -4.385832   1.000000
     48         -4.328955   1.000000
     49         -4.204655   1.000000
     50         -4.190107   1.000000
     51         -4.112438   1.000000
     52         -4.099708   1.000000
     53         -4.084168   1.000000
     54         -4.049772   1.000000
     55         -3.978742   1.000000
     56         -3.826531   1.000000
     57         -3.731289   1.000000
     58         -3.723416   1.000000
     59         -3.682598   1.000000
     60         -3.677496   1.000000
     61         -3.626807   1.000000
     62         -3.572542   1.000000
     63         -3.549376   1.000000
     64         -3.544850   1.000000
     65         -3.516219   1.000000
     66         -3.508651   1.000000
     67         -3.493858   1.000000
     68         -3.440313   1.000000
     69         -3.394123   1.000000
     70         -3.371530   1.000000
     71         -3.358747   1.000000
     72         -3.332559   1.000000
     73         -3.258857   1.000000
     74         -3.240757   1.000000
     75         -3.236019   1.000000
     76         -3.180619   1.000000
     77         -3.167046   1.000000
     78         -3.146601   1.000000
     79         -3.103128   1.000000
     80         -3.094762   1.000000
     81         -3.085814   1.000000
     82         -3.033619   1.000000
     83         -3.012382   1.000000
     84         -2.985925   1.000000
     85         -2.957517   1.000000
     86         -2.951720   1.000000
     87         -2.930690   1.000000
     88         -2.924632   1.000000
     89         -2.912523   1.000000
     90         -2.897908   1.000000
     91         -2.846664   1.000000
     92         -2.806823   1.000000
     93         -2.802136   1.000000
     94         -2.771299   1.000000
     95         -2.755980   1.000000
     96         -2.750744   1.000000
     97         -2.741458   1.000000
     98         -2.707209   1.000000
     99         -2.699754   1.000000
    100         -2.676016   1.000000
    101         -2.582985   1.000000
    102         -2.533623   1.000000
    103         -2.531570   1.000000
    104         -2.509044   1.000000
    105         -2.497665   1.000000
    106         -2.492273   1.000000
    107         -2.481885   1.000000
    108         -2.479756   1.000000
    109         -2.430666   1.000000
    110         -2.419853   1.000000
    111         -2.405866   1.000000
    112         -2.397879   1.000000
    113         -2.312994   1.000000
    114         -2.090310   1.000000
    115         -2.086713   1.000000
    116         -2.031903   1.000000
    117         -1.991347   1.000000
    118         -1.988232   1.000000
    119         -1.968320   1.000000
    120         -1.959801   1.000000
    121         -1.930970   1.000000
    122         -1.903019   1.000000
    123         -1.784837   1.000000
    124         -1.779910   1.000000
    125         -1.775994   1.000000
    126         -1.664447   1.000000
    127         -1.639812   1.000000
    128         -1.612422   1.000000
    129         -1.571600   1.000000
    130         -1.552011   1.000000
    131         -1.530331   1.000000
    132         -1.520094   1.000000
    133         -1.499398   1.000000
    134         -1.466064   1.000000
    135         -1.425836   1.000000
    136         -1.399154   1.000000
    137         -1.382376   1.000000
    138         -1.370609   1.000000
    139         -1.364924   1.000000
    140         -1.199836   1.000000
    141         -1.174407   1.000000
    142         -1.159456   1.000000
    143         -1.137913   1.000000
    144         -1.128075   1.000000
    145         -1.105345   1.000000
    146         -1.078883   1.000000
    147         -1.021766   1.000000
    148         -0.999413   1.000000
    149         -0.992735   1.000000
    150         -0.972944   1.000000
    151         -0.955793   1.000000
    152         -0.904508   1.000000
    153         -0.899071   1.000000
    154         -0.884298   1.000000
    155         -0.856939   1.000000
    156         -0.773617   1.000000
    157         -0.767187   1.000000
    158         -0.745592   1.000000
    159         -0.698639   1.000000
    160         -0.638906   1.000000
    161         -0.621989   1.000000
    162         -0.619663   1.000000
    163         -0.598745   1.000000
    164         -0.575849   1.000000
    165         -0.557050   1.000000
    166         -0.532115   1.000000
    167         -0.477495   1.000000
    168         -0.455623   1.000000
    169         -0.440090   1.000001
    170         -0.389497   1.000023
    171         -0.384476   1.000031
    172         -0.374686   1.000055
    173         -0.340868   1.000342
    174         -0.336996   1.000415
    175         -0.330736   1.000564
    176         -0.328951   1.000615
    177         -0.324820   1.000748
    178         -0.262335   1.008777
    179         -0.248678   1.013153
    180         -0.123411   0.911541
    181         -0.111931   0.851264
    182         -0.087244   0.681148
    183         -0.080884   0.630442
    184         -0.073484   0.569336
    185         -0.060346   0.458463
    186         -0.030392   0.223861
    187         -0.020480   0.159899
    188         -0.002222   0.066816
    189          0.012695   0.015370
    190          0.081256  -0.029173
    191          0.122277  -0.011707
    192          0.144646  -0.005730
    193          0.158600  -0.003434
    194          0.292969  -0.000002
    195          0.310356  -0.000001
    196          0.318851  -0.000000
    197          0.373147  -0.000000
    198          0.643222  -0.000000
    199          0.762718  -0.000000
    200          1.191432  -0.000000
    201          1.492280  -0.000000
    202          1.495512  -0.000000
    203          1.621220  -0.000000
    204          2.276160  -0.000000
    205          2.719802   0.000000
    206          2.919351   0.000000
    207          3.431073   0.000000
    208          3.663099   0.000000
    209          3.665729   0.000000
    210          3.765504   0.000000
    211          3.975816   0.000000
    212          4.355004   0.000000
    213          4.629151   0.000000
    214          4.664764   0.000000
    215          4.950613   0.000000
    216          4.988805   0.000000
    217          5.009754   0.000000
    218          5.121408   0.000000
    219          5.229290   0.000000
    220          5.473239   0.000000
    221          5.647002   0.000000
    222          5.748764   0.000000
    223          5.834423   0.000000
    224          5.918661   0.000000
    225          6.048668   0.000000
    226          6.184572   0.000000
    227          6.225669   0.000000
    228          6.316361   0.000000
    229          6.348585   0.000000
    230          6.639634   0.000000
    231          6.720221   0.000000
    232          6.721381   0.000000
    233          6.782853   0.000000
    234          6.849805   0.000000
    235          6.909675   0.000000
    236          7.049582   0.000000
    237          7.224978   0.000000
    238          7.506201   0.000000
    239          7.553096   0.000000
    240          7.619752   0.000000
 
  0.2000000E+00  0.2000000E+00  0.1276756E-14  0.8000000E-01
      1         -8.728259   1.000000
      2         -7.468957   1.000000
      3         -6.964451   1.000000
      4         -6.572279   1.000000
      5         -6.549365   1.000000
      6         -6.398307   1.000000
      7         -6.332590   1.000000
      8         -6.272086   1.000000
      9         -6.224945   1.000000
     10         -6.204283   1.000000
     11         -6.067800   1.000000
     12         -5.994106   1.000000
     13         -5.897045   1.000000
     14         -5.836593   1.000000
     15         -5.833054   1.000000
     16         -5.819333   1.000000
     17         -5.587782   1.000000
     18         -5.487816   1.000000
     19         -5.410981   1.000000
     20         -5.402000   1.000000
     21         -5.397733   1.000000
     22         -5.358087   1.000000
     23         -5.318697   1.000000
     24         -5.303007   1.000000
     25         -5.261616   1.000000
     26         -5.227757   1.000000
     27         -5.217233   1.000000
     28         -5.201135   1.000000
     29         -5.160584   1.000000
     30         -5.107879   1.000000
     31         -5.078254   1.000000
     32         -5.028477   1.000000
     33         -5.008257   1.000000
     34         -4.996425   1.000000
     35         -4.989116   1.000000
     36         -4.882005   1.000000
     37         -4.796983   1.000000
     38         -4.785443   1.000000
     39         -4.771799   1.000000
     40         -4.752769   1.000000
     41         -4.706585   1.000000
     42         -4.492923   1.000000
     43         -4.479107   1.000000
     44         -4.447171   1.000000
     45         -4.415297   1.000000
     46         -4.400409   1.000000
     47         -4.382065   1.000000
     48         -4.329195   1.000000
     49         -4.202489   1.000000
     50         -4.185626   1.000000
     51         -4.125476   1.000000
     52         -4.105884   1.000000
     53         -4.080075   1.000000
     54         -4.050124   1.000000
     55         -3.984478   1.000000
     56         -3.803281   1.000000
     57         -3.734821   1.000000
     58         -3.713602   1.000000
     59         -3.664144   1.000000
     60         -3.656157   1.000000
     61         -3.633603   1.000000
     62         -3.576751   1.000000
     63         -3.566009   1.000000
     64         -3.532602   1.000000
     65         -3.523699   1.000000
     66         -3.517695   1.000000
     67         -3.485675   1.000000
     68         -3.441217   1.000000
     69         -3.405396   1.000000
     70         -3.372744   1.000000
     71         -3.355269   1.000000
     72         -3.336250   1.000000
     73         -3.288236   1.000000
     74         -3.262334   1.000000
     75         -3.256709   1.000000
     76         -3.177787   1.000000
     77         -3.165652   1.000000
     78         -3.149377   1.000000
     79         -3.106097   1.000000
     80         -3.078936   1.000000
     81         -3.058707   1.000000
     82         -3.036730   1.000000
     83         -3.027172   1.000000
     84         -2.980593   1.000000
     85         -2.958604   1.000000
     86         -2.951229   1.000000
     87         -2.933025   1.000000
     88         -2.921209   1.000000
     89         -2.907081   1.000000
     90         -2.886784   1.000000
     91         -2.851029   1.000000
     92         -2.812049   1.000000
     93         -2.797594   1.000000
     94         -2.775858   1.000000
     95         -2.761635   1.000000
     96         -2.750522   1.000000
     97         -2.725162   1.000000
     98         -2.706841   1.000000
     99         -2.698310   1.000000
    100         -2.681414   1.000000
    101         -2.581007   1.000000
    102         -2.541556   1.000000
    103         -2.527086   1.000000
    104         -2.514310   1.000000
    105         -2.506724   1.000000
    106         -2.496229   1.000000
    107         -2.487169   1.000000
    108         -2.471407   1.000000
    109         -2.427949   1.000000
    110         -2.418042   1.000000
    111         -2.411846   1.000000
    112         -2.397480   1.000000
    113         -2.241069   1.000000
    114         -2.129632   1.000000
    115         -2.064509   1.000000
    116         -2.032679   1.000000
    117         -2.002409   1.000000
    118         -1.989137   1.000000
    119         -1.970697   1.000000
    120         -1.959375   1.000000
    121         -1.935158   1.000000
    122         -1.919995   1.000000
    123         -1.807510   1.000000
    124         -1.785706   1.000000
    125         -1.770977   1.000000
    126         -1.675615   1.000000
    127         -1.645763   1.000000
    128         -1.599030   1.000000
    129         -1.584575   1.000000
    130         -1.558420   1.000000
    131         -1.532993   1.000000
    132         -1.525564   1.000000
    133         -1.509734   1.000000
    134         -1.485221   1.000000
    135         -1.424265   1.000000
    136         -1.390975   1.000000
    137         -1.384116   1.000000
    138         -1.373494   1.000000
    139         -1.358731   1.000000
    140         -1.195738   1.000000
    141         -1.176445   1.000000
    142         -1.169498   1.000000
    143         -1.138439   1.000000
    144         -1.123972   1.000000
    145         -1.104894   1.000000
    146         -1.069667   1.000000
    147         -1.023679   1.000000
    148         -0.994393   1.000000
    149         -0.981990   1.000000
    150         -0.974196   1.000000
    151         -0.938455   1.000000
    152         -0.905966   1.000000
    153         -0.893292   1.000000
    154         -0.887927   1.000000
    155         -0.853536   1.000000
    156         -0.773476   1.000000
    157         -0.766127   1.000000
    158         -0.739058   1.000000
    159         -0.697732   1.000000
    160         -0.651673   1.000000
    161         -0.621581   1.000000
    162         -0.618380   1.000000
    163         -0.612239   1.000000
    164         -0.580331   1.000000
    165         -0.572921   1.000000
    166         -0.532898   1.000000
    167         -0.480170   1.000000
    168         -0.454980   1.000000
    169         -0.446873   1.000000
    170         -0.389755   1.000022
    171         -0.382595   1.000034
    172         -0.374496   1.000055
    173         -0.341036   1.000339
    174         -0.336910   1.000417
    175         -0.332670   1.000514
    176         -0.330731   1.000564
    177         -0.318769   1.000989
    178         -0.271749   1.006446
    179         -0.261286   1.009071
    180         -0.135343   0.960161
    181         -0.116414   0.876367
    182         -0.084080   0.656180
    183         -0.071496   0.552657
    184         -0.063702   0.486813
    185         -0.048287   0.358631
    186         -0.017034   0.139801
    187          0.001614   0.051515
    188          0.008868   0.026535
    189          0.025880  -0.013322
    190          0.091843  -0.024407
    191          0.121509  -0.011968
    192          0.138507  -0.007065
    193          0.147052  -0.005264
    194          0.302611  -0.000001
    195          0.311426  -0.000001
    196          0.322845  -0.000000
    197          0.360318  -0.000000
    198          0.666145  -0.000000
    199          0.780529  -0.000000
    200          1.182787  -0.000000
    201          1.483257  -0.000000
    202          1.491857  -0.000000
    203          1.619114  -0.000000
    204          2.259711  -0.000000
    205          2.728126   0.000000
    206          2.934321   0.000000
    207          3.436912   0.000000
    208          3.659678   0.000000
    209          3.664660   0.000000
    210          3.768065   0.000000
    211          3.964099   0.000000
    212          4.347792   0.000000
    213          4.623204   0.000000
    214          4.660411   0.000000
    215          4.941286   0.000000
    216          4.997158   0.000000
    217          5.014781   0.000000
    218          5.120375   0.000000
    219          5.229280   0.000000
    220          5.493170   0.000000
    221          5.651942   0.000000
    222          5.731151   0.000000
    223          5.879684   0.000000
    224          5.929248   0.000000
    225          6.023688   0.000000
    226          6.174092   0.000000
    227          6.204839   0.000000
    228          6.322124   0.000000
    229          6.373512   0.000000
    230          6.599574   0.000000
    231          6.724042   0.000000
    232          6.727145   0.000000
    233          6.775719   0.000000
    234          6.862276   0.000000
    235          6.909771   0.000000
    236          7.046136   0.000000
    237          7.224350   0.000000
    238          7.499949   0.000000
    239          7.549352   0.000000
    240          7.607646   0.000000
 
  0.1276756E-14  0.2000000E+00  0.1276756E-14  0.8000000E-01
      1         -8.728184   1.000000
      2         -7.468960   1.000000
      3         -6.961504   1.000000
      4         -6.573610   1.000000
      5         -6.551653   1.000000
      6         -6.398244   1.000000
      7         -6.332261   1.000000
      8         -6.267354   1.000000
      9         -6.227614   1.000000
     10         -6.207034   1.000000
     11         -6.070837   1.000000
     12         -5.993848   1.000000
     13         -5.890873   1.000000
     14         -5.836693   1.000000
     15         -5.834552   1.000000
     16         -5.817536   1.000000
     17         -5.588092   1.000000
     18         -5.490285   1.000000
     19         -5.410453   1.000000
     20         -5.401446   1.000000
     21         -5.394228   1.000000
     22         -5.358444   1.000000
     23         -5.320853   1.000000
     24         -5.302459   1.000000
     25         -5.262374   1.000000
     26         -5.227150   1.000000
     27         -5.217988   1.000000
     28         -5.199383   1.000000
     29         -5.162353   1.000000
     30         -5.110700   1.000000
     31         -5.077219   1.000000
     32         -5.023603   1.000000
     33         -5.008022   1.000000
     34         -4.996548   1.000000
     35         -4.990108   1.000000
     36         -4.878787   1.000000
     37         -4.797910   1.000000
     38         -4.786861   1.000000
     39         -4.773666   1.000000
     40         -4.752422   1.000000
     41         -4.709927   1.000000
     42         -4.494993   1.000000
     43         -4.482018   1.000000
     44         -4.447831   1.000000
     45         -4.416122   1.000000
     46         -4.396602   1.000000
     47         -4.380517   1.000000
     48         -4.329502   1.000000
     49         -4.203857   1.000000
     50         -4.186993   1.000000
     51         -4.128896   1.000000
     52         -4.103395   1.000000
     53         -4.078421   1.000000
     54         -4.049196   1.000000
     55         -3.984690   1.000000
     56         -3.807754   1.000000
     57         -3.734755   1.000000
     58         -3.714045   1.000000
     59         -3.669354   1.000000
     60         -3.662782   1.000000
     61         -3.636371   1.000000
     62         -3.571550   1.000000
     63         -3.562321   1.000000
     64         -3.532180   1.000000
     65         -3.522016   1.000000
     66         -3.517613   1.000000
     67         -3.486677   1.000000
     68         -3.441114   1.000000
     69         -3.406736   1.000000
     70         -3.381833   1.000000
     71         -3.360478   1.000000
     72         -3.334024   1.000000
     73         -3.274518   1.000000
     74         -3.258673   1.000000
     75         -3.245599   1.000000
     76         -3.178397   1.000000
     77         -3.166843   1.000000
     78         -3.151803   1.000000