       N       E                     dE             d eps       ncg     rms          rms(c)
DAV:   1    -0.104691718750E+03   -0.10469E+03   -0.15915E+00  6864   0.204E+00    0.349E+00
RMM:   2    -0.115404294834E+03   -0.10713E+02   -0.17742E+00  6784   0.198E+00    0.312E+01
RMM:   3    -0.104690059993E+03    0.10714E+02   -0.11119E+00  6842   0.181E+00    0.306E+00
RMM:   4    -0.104588601220E+03    0.10146E+00   -0.10952E-01  6909   0.532E-01    0.107E+00
RMM:   5    -0.104587583791E+03    0.10174E-02   -0.19900E-02  7025   0.219E-01    0.733E-01
RMM:   6    -0.104584051240E+03    0.35326E-02   -0.59389E-03  7021   0.121E-01    0.443E-01
RMM:   7    -0.104584366206E+03   -0.31497E-03   -0.27362E-03  7022   0.831E-02    0.375E-01
RMM:   8    -0.104583657946E+03    0.70826E-03   -0.12450E-03  7007   0.592E-02    0.204E-01
RMM:   9    -0.104583458412E+03    0.19953E-03   -0.49259E-04  6968   0.377E-02    0.928E-02
RMM:  10    -0.104583438317E+03    0.20095E-04   -0.15523E-04  6985   0.207E-02    0.815E-02
RMM:  11    -0.104583425459E+03    0.12857E-04   -0.56900E-05  6246   0.129E-02    0.597E-02
RMM:  12    -0.104583415163E+03    0.10296E-04   -0.26355E-05  5092   0.842E-03    0.386E-02
RMM:  13    -0.104583411763E+03    0.34001E-05   -0.12060E-05  4426   0.605E-03
   1 F= -.10458341E+03 E0= -.10455565E+03  d E =-.832783E-01
