<?xml version="1.0" encoding="ISO-8859-1"?>
<modeling>
 <generator>
  <i name="program" type="string">vasp </i>
  <i name="version" type="string">6.4.2  </i>
  <i name="subversion" type="string">20Jul23 (build Mar 01 2024 16:46:03) complex                          parallel </i>
  <i name="platform" type="string">LinuxIFC </i>
  <i name="date" type="string">2025 01 15 </i>
  <i name="time" type="string">05:02:30 </i>
 </generator>
 <incar>
  <i type="string" name="ALGO">Fast</i>
  <i type="int" name="ISPIN">     1</i>
  <i type="int" name="IBRION">    -1</i>
  <i name="EDIFF">      0.00001000</i>
  <i type="int" name="ISYM">     0</i>
  <i name="ENCUT">    680.29000000</i>
  <i type="string" name="LREAL">Auto</i>
  <i type="int" name="ISMEAR">     1</i>
  <i name="SIGMA">      0.10000000</i>
  <i type="string" name="GGA">BF</i>
  <i type="logical" name="LUSE_VDW"> T  </i>
  <i name="Zab_VDW">     -1.88670000</i>
 </incar>
 <primitive_cell>
  <structure name="primitive_cell" >
   <crystal>
    <varray name="basis" >
     <v>       8.46831000       0.00000000       0.00000000 </v>
     <v>       4.23415500       7.33377159       0.00000000 </v>
     <v>       0.00000000       0.00000000      24.96566199 </v>
    </varray>
    <i name="volume">   1550.48373159 </i>
    <varray name="rec_basis" >
     <v>       0.11808732      -0.06817774       0.00000000 </v>
     <v>       0.00000000       0.13635549       0.00000000 </v>
     <v>       0.00000000       0.00000000       0.04005502 </v>
    </varray>
   </crystal>
   <varray name="positions" >
    <v>       0.00000000       0.00000000       0.34046764 </v>
    <v>       0.33400137       0.00000000       0.34046764 </v>
    <v>       0.66800274       0.00000000       0.34046764 </v>
    <v>       1.00000000       0.33400137       0.34046764 </v>
    <v>       0.33400137       0.33400137       0.34046764 </v>
    <v>       0.66800274       0.33400137       0.34046764 </v>
    <v>       1.00000000       0.66800274       0.34046764 </v>
    <v>       0.33400137       0.66800274       0.34046764 </v>
    <v>       0.66800274       0.66800274       0.34046764 </v>
    <v>       0.11133379       0.11133379       0.43297074 </v>
    <v>       0.44533516       0.11133379       0.43297074 </v>
    <v>       0.77933653       0.11133379       0.43297074 </v>
    <v>       0.11133379       0.44533516       0.43297074 </v>
    <v>       0.44533516       0.44533516       0.43297074 </v>
    <v>       0.77933653       0.44533516       0.43297074 </v>
    <v>       0.11133379       0.77933653       0.43297074 </v>
    <v>       0.44533516       0.77933653       0.43297074 </v>
    <v>       0.77933653       0.77933653       0.43297074 </v>
    <v>       0.89354089       0.22401664       0.52591748 </v>
    <v>       0.22567359       0.22254926       0.52496314 </v>
    <v>       0.55972032       0.22262810       0.52424776 </v>
    <v>       0.89392850       0.55330616       0.52594206 </v>
    <v>       0.22599906       0.55576738       0.52433934 </v>
    <v>       0.55959208       0.55592327       0.52446211 </v>
    <v>       0.89318920       0.88917478       0.52443294 </v>
    <v>       0.22611466       0.88936919       0.52452353 </v>
    <v>       0.56008571       0.88860491       0.52435984 </v>
    <v>       0.00627720       0.99887371       0.61780706 </v>
    <v>       0.34186818       0.99767048       0.61762241 </v>
    <v>       0.67347096       0.99938675       0.61764022 </v>
    <v>       0.01038951       0.33064560       0.62296860 </v>
    <v>       0.34172343       0.33268111       0.61752549 </v>
    <v>       0.67323583       0.33250397       0.61788049 </v>
    <v>       0.00622971       0.66692960       0.61767437 </v>
    <v>       0.34026512       0.66583044       0.61738994 </v>
    <v>       0.67318123       0.66641704       0.61790225 </v>
    <v>       0.06494405       0.30426085       0.68312697 </v>
   </varray>
  </structure>
  <varray name="primitive_index" >
   <v type="int" >        1 </v>
   <v type="int" >        2 </v>
   <v type="int" >        3 </v>
   <v type="int" >        4 </v>
   <v type="int" >        5 </v>
   <v type="int" >        6 </v>
   <v type="int" >        7 </v>
   <v type="int" >        8 </v>
   <v type="int" >        9 </v>
   <v type="int" >       10 </v>
   <v type="int" >       11 </v>
   <v type="int" >       12 </v>
   <v type="int" >       13 </v>
   <v type="int" >       14 </v>
   <v type="int" >       15 </v>
   <v type="int" >       16 </v>
   <v type="int" >       17 </v>
   <v type="int" >       18 </v>
   <v type="int" >       19 </v>
   <v type="int" >       20 </v>
   <v type="int" >       21 </v>
   <v type="int" >       22 </v>
   <v type="int" >       23 </v>
   <v type="int" >       24 </v>
   <v type="int" >       25 </v>
   <v type="int" >       26 </v>
   <v type="int" >       27 </v>
   <v type="int" >       28 </v>
   <v type="int" >       29 </v>
   <v type="int" >       30 </v>
   <v type="int" >       31 </v>
   <v type="int" >       32 </v>
   <v type="int" >       33 </v>
   <v type="int" >       34 </v>
   <v type="int" >       35 </v>
   <v type="int" >       36 </v>
   <v type="int" >       37 </v>
  </varray>
 </primitive_cell>
 <kpoints>
  <generation param="Monkhorst-Pack">
   <v type="int" name="divisions">       5        5        1 </v>
   <v name="usershift">      0.00000000       0.00000000       0.00000000 </v>
   <v name="genvec1">      0.20000000      -0.00000000       0.00000000 </v>
   <v name="genvec2">      0.00000000       0.20000000       0.00000000 </v>
   <v name="genvec3">      0.00000000       0.00000000       1.00000000 </v>
   <v name="shift">      0.00000000       0.00000000       0.00000000 </v>
  </generation>
  <varray name="kpointlist" >
   <v>       0.00000000       0.00000000       0.00000000 </v>
   <v>       0.20000000       0.00000000       0.00000000 </v>
   <v>       0.20000000       0.20000000       0.00000000 </v>
   <v>       0.00000000       0.20000000       0.00000000 </v>
   <v>       0.40000000       0.00000000       0.00000000 </v>
   <v>       0.40000000       0.40000000       0.00000000 </v>
   <v>       0.00000000       0.40000000       0.00000000 </v>
   <v>       0.40000000       0.20000000       0.00000000 </v>
   <v>       0.20000000       0.40000000       0.00000000 </v>
   <v>      -0.20000000       0.20000000       0.00000000 </v>
   <v>      -0.40000000       0.20000000       0.00000000 </v>
   <v>       0.40000000      -0.40000000       0.00000000 </v>
   <v>      -0.20000000       0.40000000       0.00000000 </v>
  </varray>
  <varray name="weights" >
   <v>       0.04000000 </v>
   <v>       0.08000000 </v>
   <v>       0.08000000 </v>
   <v>       0.08000000 </v>
   <v>       0.08000000 </v>
   <v>       0.08000000 </v>
   <v>       0.08000000 </v>
   <v>       0.08000000 </v>
   <v>       0.08000000 </v>
   <v>       0.08000000 </v>
   <v>       0.08000000 </v>
   <v>       0.08000000 </v>
   <v>       0.08000000 </v>
  </varray>
 </kpoints>
 <parameters>
  <separator name="general" >
   <i type="string" name="SYSTEM">unknown system</i>
   <i type="logical" name="LCOMPAT"> F  </i>
  </separator>
  <separator name="electronic" >
   <i type="string" name="PREC">normal</i>
   <i name="ENMAX">    680.29000000</i>
   <i name="ENAUG">    400.00000000</i>
   <i name="EDIFF">      0.00001000</i>
   <i type="int" name="IALGO">    68</i>
   <i type="int" name="IWAVPR">    10</i>
   <i type="int" name="NBANDS">   240</i>
   <i type="int" name="NBANDSLOW">    -1</i>
   <i type="int" name="NBANDSHIGH">    -1</i>
   <i name="NELECT">    361.00000000</i>
   <i type="int" name="TURBO">     0</i>
   <i type="int" name="IRESTART">     0</i>
   <i type="int" name="NREBOOT">     0</i>
   <i type="int" name="NMIN">     0</i>
   <i name="EREF">      0.00000000</i>
   <separator name="electronic smearing" >
    <i type="int" name="ISMEAR">     1</i>
    <i name="SIGMA">      0.10000000</i>
    <i name="KSPACING">      0.50000000</i>
    <i type="logical" name="KGAMMA"> T  </i>
    <i type="logical" name="KBLOWUP"> T  </i>
   </separator>
   <separator name="electronic projectors" >
    <i type="logical" name="LREAL"> T  </i>
    <v name="ROPT">     -0.00050000     -0.00050000</v>
    <i type="int" name="LMAXPAW">  -100</i>
    <i type="int" name="LMAXMIX">     2</i>
    <i type="logical" name="NLSPLINE"> F  </i>
   </separator>
   <separator name="electronic startup" >
    <i type="int" name="ISTART">     1</i>
    <i type="int" name="ICHARG">     0</i>
    <i type="int" name="INIWAV">     1</i>
   </separator>
   <separator name="electronic spin" >
    <i type="int" name="ISPIN">     1</i>
    <i type="logical" name="LNONCOLLINEAR"> F  </i>
    <v name="MAGMOM">      1.00000000      1.00000000      1.00000000      1.00000000      1.00000000      1.00000000      1.00000000      1.00000000      1.00000000      1.00000000      1.00000000      1.00000000      1.00000000      1.00000000      1.00000000      1.00000000      1.00000000      1.00000000      1.00000000      1.00000000
      1.00000000      1.00000000      1.00000000      1.00000000      1.00000000      1.00000000      1.00000000      1.00000000      1.00000000      1.00000000      1.00000000      1.00000000      1.00000000      1.00000000      1.00000000      1.00000000      1.00000000</v>
    <i name="NUPDOWN">     -1.00000000</i>
    <i type="logical" name="LSORBIT"> F  </i>
    <v name="SAXIS">      0.00000000      0.00000000      1.00000000</v>
    <i type="logical" name="LSPIRAL"> F  </i>
    <v name="QSPIRAL">      0.00000000      0.00000000      0.00000000</v>
    <i type="logical" name="LZEROZ"> F  </i>
   </separator>
   <separator name="electronic exchange-correlation" >
    <i type="logical" name="LASPH"> F  </i>
    <i type="logical" name="LMETAGGA"> F  </i>
   </separator>
   <separator name="electronic convergence" >
    <i type="int" name="NELM">    60</i>
    <i type="int" name="NELMDL">     0</i>
    <i type="int" name="NELMIN">     2</i>
    <i name="ENINI">    680.29000000</i>
    <separator name="electronic convergence detail" >
     <i type="logical" name="LDIAG"> T  </i>
     <i type="logical" name="LSUBROT"> F  </i>
     <i name="WEIMIN">      0.00000000</i>
     <i name="EBREAK">      0.00000001</i>
     <i name="DEPER">      0.30000000</i>
     <i type="int" name="NRMM">     4</i>
     <i name="TIME">      0.40000000</i>
    </separator>
   </separator>
   <separator name="electronic mixer" >
    <i name="AMIX">      0.40000000</i>
    <i name="BMIX">      1.00000000</i>
    <i name="AMIN">      0.10000000</i>
    <i name="AMIX_MAG">      1.60000000</i>
    <i name="BMIX_MAG">      1.00000000</i>
    <separator name="electronic mixer details" >
     <i type="int" name="IMIX">     4</i>
     <i type="logical" name="MIXFIRST"> F  </i>
     <i type="int" name="MAXMIX">   -45</i>
     <i name="WC">    100.00000000</i>
     <i type="int" name="INIMIX">     1</i>
     <i type="int" name="MIXPRE">     1</i>
     <i type="int" name="MREMOVE">     5</i>
    </separator>
   </separator>
   <separator name="electronic dipolcorrection" >
    <i type="logical" name="LDIPOL"> F  </i>
    <i type="logical" name="LMONO"> F  </i>
    <i type="int" name="IDIPOL">     0</i>
    <i name="EPSILON">      1.00000000</i>
    <v name="DIPOL">   -100.00000000   -100.00000000   -100.00000000</v>
    <i name="EFIELD">      0.00000000</i>
   </separator>
  </separator>
  <separator name="grids" >
   <i type="int" name="NGX">    54</i>
   <i type="int" name="NGY">    54</i>
   <i type="int" name="NGZ">   160</i>
   <i type="int" name="NGXF">   108</i>
   <i type="int" name="NGYF">   108</i>
   <i type="int" name="NGZF">   320</i>
   <i type="logical" name="ADDGRID"> F  </i>
  </separator>
  <separator name="ionic" >
   <i type="int" name="NSW">     0</i>
   <i type="int" name="IBRION">    -1</i>
   <i type="int" name="MDALGO">     0</i>
   <i type="int" name="ISIF">     2</i>
   <i name="PSTRESS">      0.00000000</i>
   <i name="EDIFFG">      0.00010000</i>
   <i type="int" name="NFREE">     0</i>
   <i name="POTIM">      0.50000000</i>
   <i name="SMASS">     -3.00000000</i>
   <i name="SCALEE">      1.00000000</i>
  </separator>
  <separator name="ionic md" >
   <i name="TEBEG">      0.00010000</i>
   <i name="TEEND">      0.00010000</i>
   <i type="int" name="NBLOCK">     1</i>
   <i type="int" name="KBLOCK">     1</i>
   <i type="int" name="NPACO">   256</i>
   <i name="APACO">     10.00000000</i>
  </separator>
  <separator name="symmetry" >
   <i type="int" name="ISYM">     0</i>
   <i name="SYMPREC">      0.00001000</i>
  </separator>
  <separator name="dos" >
   <i type="int" name="LORBIT">     0</i>
   <v name="RWIGS">     -1.00000000     -1.00000000</v>
   <i type="int" name="NEDOS">   301</i>
   <i name="EMIN">     10.00000000</i>
   <i name="EMAX">    -10.00000000</i>
   <i name="EFERMI">      0.00000000</i>
  </separator>
  <separator name="writing" >
   <i type="int" name="NWRITE">     2</i>
   <i type="logical" name="LWAVE"> T  </i>
   <i type="logical" name="LDOWNSAMPLE"> F  </i>
   <i type="logical" name="LCHARG"> T  </i>
   <i type="logical" name="LPARD"> F  </i>
   <i type="logical" name="LVTOT"> F  </i>
   <i type="logical" name="LVHAR"> F  </i>
   <i type="logical" name="LELF"> F  </i>
   <i type="logical" name="LOPTICS"> F  </i>
   <v name="STM">      0.00000000      0.00000000      0.00000000      0.00000000      0.00000000      0.00000000      0.00000000</v>
  </separator>
  <separator name="performance" >
   <i type="int" name="NPAR">    48</i>
   <i type="int" name="NSIM">     4</i>
   <i type="int" name="NBLK">    -1</i>
   <i type="logical" name="LPLANE"> T  </i>
   <i type="logical" name="LSCALAPACK"> T  </i>
   <i type="logical" name="LSCAAWARE"> F  </i>
   <i type="logical" name="LSCALU"> F  </i>
   <i type="logical" name="LASYNC"> F  </i>
   <i type="logical" name="LORBITALREAL"> F  </i>
  </separator>
  <separator name="miscellaneous" >
   <i type="int" name="IDIOT">     3</i>
   <i type="int" name="PHON_NSTRUCT">    -1</i>
   <i type="logical" name="LMUSIC"> F  </i>
   <v name="POMASS">    195.08000000      1.00000000</v>
   <v name="DARWINR">      0.00000000      0.00000000</v>
   <v name="DARWINV">      1.00000000      1.00000000</v>
   <i type="logical" name="LCORR"> T  </i>
  </separator>
  <i type="logical" name="GGA_COMPAT"> T  </i>
  <i type="logical" name="LBERRY"> F  </i>
  <i type="int" name="ICORELEVEL">     0</i>
  <i type="logical" name="LDAU"> F  </i>
  <i type="int" name="I_CONSTRAINED_M">     0</i>
  <separator name="electronic exchange-correlation" >
   <i type="string" name="GGA">BF</i>
   <i type="int" name="VOSKOWN">     0</i>
   <i type="logical" name="LHFCALC"> F  </i>
   <i type="string" name="PRECFOCK"></i>
   <i type="logical" name="LSYMGRAD"> F  </i>
   <i type="logical" name="LHFONE"> F  </i>
   <i type="logical" name="LRHFCALC"> F  </i>
   <i type="logical" name="LTHOMAS"> F  </i>
   <i type="logical" name="LMODELHF"> F  </i>
   <i type="logical" name="LFOCKACE"> F  </i>
   <i name="ENCUT4O">     -1.00000000</i>
   <i type="int" name="EXXOEP">     0</i>
   <i type="int" name="FOURORBIT">     0</i>
   <i name="AEXX">      0.00000000</i>
   <i name="HFALPHA">      0.00000000</i>
   <i name="MCALPHA">      0.00000000</i>
   <i name="ALDAX">      1.00000000</i>
   <i name="AGGAX">      1.00000000</i>
   <i name="ALDAC">      1.00000000</i>
   <i name="AGGAC">      1.00000000</i>
   <i type="int" name="NKREDX">     1</i>
   <i type="int" name="NKREDY">     1</i>
   <i type="int" name="NKREDZ">     1</i>
   <i type="logical" name="SHIFTRED"> F  </i>
   <i type="logical" name="ODDONLY"> F  </i>
   <i type="logical" name="EVENONLY"> F  </i>
   <i type="int" name="LMAXFOCK">     0</i>
   <i type="int" name="NMAXFOCKAE">     0</i>
   <i type="logical" name="LFOCKAEDFT"> F  </i>
   <i name="HFSCREEN">      0.00000000</i>
   <i name="HFSCREENC">      0.00000000</i>
   <i type="int" name="NBANDSGWLOW">     0</i>
  </separator>
  <separator name="vdW DFT" >
   <i type="logical" name="LUSE_VDW"> T  </i>
   <i type="int" name="IVDW_NL">     1</i>
   <i type="logical" name="LSPIN_VDW"> F  </i>
   <i name="Zab_VDW">     -1.88670000</i>
   <i name="PARAM1">      0.12340000</i>
   <i name="PARAM2">      1.00000000</i>
   <i name="PARAM3">      0.00000000</i>
  </separator>
  <separator name="model GW" >
   <i type="int" name="MODEL_GW">     0</i>
   <i name="MODEL_EPS0">     25.14297943</i>
   <i name="MODEL_ALPHA">      1.00000000</i>
  </separator>
  <separator name="linear response parameters" >
   <i type="logical" name="LEPSILON"> F  </i>
   <i type="logical" name="LRPA"> F  </i>
   <i type="logical" name="LNABLA"> F  </i>
   <i type="logical" name="LVEL"> F  </i>
   <i name="CSHIFT">      0.10000000</i>
   <i name="OMEGAMAX">     -1.00000000</i>
   <i name="DEG_THRESHOLD">      0.00200000</i>
   <i name="RTIME">     -0.10000000</i>
   <i name="WPLASMAI">      0.00000000</i>
   <v name="DFIELD">      0.00000000      0.00000000      0.00000000</v>
   <v name="WPLASMA">      0.00000000      0.00000000      0.00000000      0.00000000      0.00000000      0.00000000      0.00000000      0.00000000      0.00000000</v>
  </separator>
  <separator name="orbital magnetization" >
   <i type="logical" name="NUCIND"> F  </i>
   <v name="MAGPOS">      0.00000000      0.00000000      0.00000000</v>
   <i type="logical" name="LNICSALL"> T  </i>
   <i type="logical" name="ORBITALMAG"> F  </i>
   <i type="logical" name="LMAGBLOCH"> F  </i>
   <i type="logical" name="LCHIMAG"> F  </i>
   <i type="logical" name="LGAUGE"> T  </i>
   <i type="int" name="MAGATOM">     0</i>
   <v name="MAGDIPOL">      0.00000000      0.00000000      0.00000000</v>
   <v name="AVECCONST">      0.00000000      0.00000000      0.00000000</v>
  </separator>
  <separator name="response functions" >
   <i type="logical" name="LALL_IN_ONE"> F  </i>
   <i type="int" name="IALL_IN_ONE">    -1</i>
   <i type="int" name="NBANDS_WAVE">    -1</i>
   <i type="logical" name="LFINITE_TEMPERATURE"> F  </i>
   <i type="logical" name="LADDER"> F  </i>
   <i type="logical" name="LRPAFORCE"> F  </i>
   <i type="logical" name="LFXC"> F  </i>
   <i type="logical" name="LHARTREE"> T  </i>
   <i type="int" name="IBSE">     0</i>
   <v type="int" name="KPOINT">    -1     0     0     0</v>
   <i type="logical" name="LTCTC"> F  </i>
   <i type="logical" name="LTCTE"> F  </i>
   <i type="logical" name="LTETE"> F  </i>
   <i type="logical" name="LTRIPLET"> F  </i>
   <i type="logical" name="LFXCEPS"> F  </i>
   <i type="logical" name="LFXHEG"> F  </i>
   <i type="int" name="NATURALO">     2</i>
   <i type="logical" name="LHOLEGF"> F  </i>
   <i type="logical" name="L2ORDER"> F  </i>
   <i type="logical" name="LDMP1"> F  </i>
   <i type="logical" name="LMP2LT"> F  </i>
   <i type="logical" name="LSMP2LT"> F  </i>
   <i type="logical" name="LGWLF"> F  </i>
   <i name="ENCUTGW">     -1.60000002</i>
   <i name="ENCUTGWSOFT">     -1.60000002</i>
   <i name="ENCUTLF">     -1.00000000</i>
   <i type="logical" name="LESF_SPLINES"> F  </i>
   <i type="int" name="LMAXMP2">    -1</i>
   <i name="SCISSOR">      0.00000000</i>
   <i type="int" name="NOMEGA">     0</i>
   <i type="int" name="NOMEGAR">     0</i>
   <i type="int" name="NBANDSGW">    -1</i>
   <i type="int" name="NBANDSO">    -1</i>
   <i type="int" name="NBANDSV">    -1</i>
   <i type="int" name="NELMGW">     1</i>
   <i type="int" name="NELMHF">     1</i>
   <i type="int" name="DIM">     3</i>
   <i type="int" name="IESPILON">     4</i>
   <i type="int" name="ANTIRES">     0</i>
   <i name="OMEGAMAX">    -30.00000000</i>
   <i name="OMEGAMIN">    -30.00000000</i>
   <i name="OMEGATL">   -200.00000000</i>
   <i type="int" name="OMEGAGRID">     0</i>
   <i name="CSHIFT">     -0.10000000</i>
   <i type="logical" name="LSELFENERGY"> F  </i>
   <i type="logical" name="LSPECTRAL"> F  </i>
   <i type="logical" name="LSPECTRALGW"> F  </i>
   <i type="logical" name="LSINGLES"> F  </i>
   <i type="logical" name="LFERMIGW"> F  </i>
   <i type="logical" name="ODDONLYGW"> F  </i>
   <i type="logical" name="EVENONLYGW"> F  </i>
   <i type="int" name="NKREDLFX">     1</i>
   <i type="int" name="NKREDLFY">     1</i>
   <i type="int" name="NKREDLFZ">     1</i>
   <i type="int" name="MAXMEM">  2800</i>
   <i type="int" name="TELESCOPE">     0</i>
   <i type="int" name="NTAUPAR">    -1</i>
   <i type="int" name="NOMEGAPAR">    -1</i>
   <i name="DAMP_NEWTON">      0.80000001</i>
   <i name="LAMBDA">      1.00000000</i>
  </separator>
  <separator name="External order field" >
   <i name="OFIELD_KAPPA">      0.00000000</i>
   <v name="OFIELD_K">      0.00000000      0.00000000      0.00000000</v>
   <i name="OFIELD_Q6_NEAR">      0.00000000</i>
   <i name="OFIELD_Q6_FAR">      0.00000000</i>
   <i name="OFIELD_A">      0.00000000</i>
  </separator>
  <separator name="optional k-points parameters" >
   <i type="int" name="KPOINTS_OPT_MODE">     1</i>
   <i type="logical" name="LKPOINTS_OPT"> F  </i>
  </separator>
 </parameters>
 <atominfo>
  <atoms>      37 </atoms>
  <types>       2 </types>
  <array name="atoms" >
   <dimension dim="1">ion</dimension>
   <field type="string">element</field>
   <field type="int">atomtype</field>
   <set>
    <rc><c>Pt</c><c>   1</c></rc>
    <rc><c>Pt</c><c>   1</c></rc>
    <rc><c>Pt</c><c>   1</c></rc>
    <rc><c>Pt</c><c>   1</c></rc>
    <rc><c>Pt</c><c>   1</c></rc>
    <rc><c>Pt</c><c>   1</c></rc>
    <rc><c>Pt</c><c>   1</c></rc>
    <rc><c>Pt</c><c>   1</c></rc>
    <rc><c>Pt</c><c>   1</c></rc>
    <rc><c>Pt</c><c>   1</c></rc>
    <rc><c>Pt</c><c>   1</c></rc>
    <rc><c>Pt</c><c>   1</c></rc>
    <rc><c>Pt</c><c>   1</c></rc>
    <rc><c>Pt</c><c>   1</c></rc>
    <rc><c>Pt</c><c>   1</c></rc>
    <rc><c>Pt</c><c>   1</c></rc>
    <rc><c>Pt</c><c>   1</c></rc>
    <rc><c>Pt</c><c>   1</c></rc>
    <rc><c>Pt</c><c>   1</c></rc>
    <rc><c>Pt</c><c>   1</c></rc>
    <rc><c>Pt</c><c>   1</c></rc>
    <rc><c>Pt</c><c>   1</c></rc>
    <rc><c>Pt</c><c>   1</c></rc>
    <rc><c>Pt</c><c>   1</c></rc>
    <rc><c>Pt</c><c>   1</c></rc>
    <rc><c>Pt</c><c>   1</c></rc>
    <rc><c>Pt</c><c>   1</c></rc>
    <rc><c>Pt</c><c>   1</c></rc>
    <rc><c>Pt</c><c>   1</c></rc>
    <rc><c>Pt</c><c>   1</c></rc>
    <rc><c>Pt</c><c>   1</c></rc>
    <rc><c>Pt</c><c>   1</c></rc>
    <rc><c>Pt</c><c>   1</c></rc>
    <rc><c>Pt</c><c>   1</c></rc>
    <rc><c>Pt</c><c>   1</c></rc>
    <rc><c>Pt</c><c>   1</c></rc>
    <rc><c>H </c><c>   2</c></rc>
   </set>
  </array>
  <array name="atomtypes" >
   <dimension dim="1">type</dimension>
   <field type="int">atomspertype</field>
   <field type="string">element</field>
   <field>mass</field>
   <field>valence</field>
   <field type="string">pseudopotential</field>
   <set>
    <rc><c>  36</c><c>Pt</c><c>    195.08000000</c><c>     10.00000000</c><c>  PAW_PBE Pt 04Feb2005                  </c></rc>
    <rc><c>   1</c><c>H </c><c>      1.00000000</c><c>      1.00000000</c><c>  PAW_PBE H 15Jun2001                   </c></rc>
   </set>
  </array>
 </atominfo>
 <structure name="initialpos" >
  <crystal>
   <varray name="basis" >
    <v>       8.46831000       0.00000000       0.00000000 </v>
    <v>       4.23415500       7.33377159       0.00000000 </v>
    <v>       0.00000000       0.00000000      24.96566199 </v>
   </varray>
   <i name="volume">   1550.48373159 </i>
   <varray name="rec_basis" >
    <v>       0.11808732      -0.06817774       0.00000000 </v>
    <v>       0.00000000       0.13635549       0.00000000 </v>
    <v>       0.00000000       0.00000000       0.04005502 </v>
   </varray>
  </crystal>
  <varray name="positions" >
   <v>       0.00000000       0.00000000       0.34046764 </v>
   <v>       0.33400137       0.00000000       0.34046764 </v>
   <v>       0.66800274       0.00000000       0.34046764 </v>
   <v>       0.00000000       0.33400137       0.34046764 </v>
   <v>       0.33400137       0.33400137       0.34046764 </v>
   <v>       0.66800274       0.33400137       0.34046764 </v>
   <v>       0.00000000       0.66800274       0.34046764 </v>
   <v>       0.33400137       0.66800274       0.34046764 </v>
   <v>       0.66800274       0.66800274       0.34046764 </v>
   <v>       0.11133379       0.11133379       0.43297074 </v>
   <v>       0.44533516       0.11133379       0.43297074 </v>
   <v>       0.77933653       0.11133379       0.43297074 </v>
   <v>       0.11133379       0.44533516       0.43297074 </v>
   <v>       0.44533516       0.44533516       0.43297074 </v>
   <v>       0.77933653       0.44533516       0.43297074 </v>
   <v>       0.11133379       0.77933653       0.43297074 </v>
   <v>       0.44533516       0.77933653       0.43297074 </v>
   <v>       0.77933653       0.77933653       0.43297074 </v>
   <v>       0.89354089       0.22401664       0.52591748 </v>
   <v>       0.22567359       0.22254926       0.52496314 </v>
   <v>       0.55972032       0.22262810       0.52424776 </v>
   <v>       0.89392850       0.55330616       0.52594206 </v>
   <v>       0.22599906       0.55576738       0.52433934 </v>
   <v>       0.55959208       0.55592327       0.52446211 </v>
   <v>       0.89318920       0.88917478       0.52443294 </v>
   <v>       0.22611466       0.88936919       0.52452353 </v>
   <v>       0.56008571       0.88860491       0.52435984 </v>
   <v>       0.00627720       0.99887371       0.61780706 </v>
   <v>       0.34186818       0.99767048       0.61762241 </v>
   <v>       0.67347096       0.99938675       0.61764022 </v>
   <v>       0.01038951       0.33064560       0.62296860 </v>
   <v>       0.34172343       0.33268111       0.61752549 </v>
   <v>       0.67323583       0.33250397       0.61788049 </v>
   <v>       0.00622971       0.66692960       0.61767437 </v>
   <v>       0.34026512       0.66583044       0.61738994 </v>
   <v>       0.67318123       0.66641704       0.61790225 </v>
   <v>       0.06494405       0.30426085       0.68312697 </v>
  </varray>
  <varray name="selective"  type="logical" >
   <v type="logical" >  F  F  F </v>
   <v type="logical" >  F  F  F </v>
   <v type="logical" >  F  F  F </v>
   <v type="logical" >  F  F  F </v>
   <v type="logical" >  F  F  F </v>
   <v type="logical" >  F  F  F </v>
   <v type="logical" >  F  F  F </v>
   <v type="logical" >  F  F  F </v>
   <v type="logical" >  F  F  F </v>
   <v type="logical" >  F  F  F </v>
   <v type="logical" >  F  F  F </v>
   <v type="logical" >  F  F  F </v>
   <v type="logical" >  F  F  F </v>
   <v type="logical" >  F  F  F </v>
   <v type="logical" >  F  F  F </v>
   <v type="logical" >  F  F  F </v>
   <v type="logical" >  F  F  F </v>
   <v type="logical" >  F  F  F </v>
   <v type="logical" >  T  T  T </v>
   <v type="logical" >  T  T  T </v>
   <v type="logical" >  T  T  T </v>
   <v type="logical" >  T  T  T </v>
   <v type="logical" >  T  T  T </v>
   <v type="logical" >  T  T  T </v>
   <v type="logical" >  T  T  T </v>
   <v type="logical" >  T  T  T </v>
   <v type="logical" >  T  T  T </v>
   <v type="logical" >  T  T  T </v>
   <v type="logical" >  T  T  T </v>
   <v type="logical" >  T  T  T </v>
   <v type="logical" >  T  T  T </v>
   <v type="logical" >  T  T  T </v>
   <v type="logical" >  T  T  T </v>
   <v type="logical" >  T  T  T </v>
   <v type="logical" >  T  T  T </v>
   <v type="logical" >  T  T  T </v>
   <v type="logical" >  T  T  T </v>
  </varray>
  <nose>
   <v>      -3.00000000       0.00000000       0.00010000       0.00010000 </v>
  </nose>
 </structure>
 <calculation>
  <scstep>
   <time name="dav">   16.80   16.92</time>
   <time name="total">   20.29   20.44</time>
   <energy>
    <i name="alphaZ">    797.33612757 </i>
    <i name="ewald"> 132073.91454620 </i>
    <i name="hartreedc">-159478.94813917 </i>
    <i name="XCdc">     89.41945978 </i>
    <i name="pawpsdc">  32149.56888394 </i>
    <i name="pawaedc"> -31152.21856313 </i>
    <i name="eentropy">     -0.08309229 </i>
    <i name="bandstr">  -1080.48410067 </i>
    <i name="atom">  26496.80315902 </i>
    <i name="e_fr_energy">   -104.69171875 </i>
    <i name="e_wo_entrp">   -104.60862646 </i>
    <i name="e_0_energy">   -104.66402132 </i>
   </energy>
  </scstep>
  <scstep>
   <time name="diag">    2.92    2.94</time>
   <time name="diis">    8.69    8.75</time>
   <time name="orth">    1.10    1.11</time>
   <time name="total">   15.88   16.06</time>
   <energy>
    <i name="e_fr_energy">   -115.40429483 </i>
    <i name="e_wo_entrp">   -115.42637785 </i>
    <i name="e_0_energy">   -115.41165584 </i>
   </energy>
  </scstep>
  <scstep>
   <time name="diag">    2.82    2.84</time>
   <time name="diis">    8.72    8.80</time>
   <time name="orth">    0.63    0.65</time>
   <time name="total">   15.37   15.52</time>
   <energy>
    <i name="e_fr_energy">   -104.69005999 </i>
    <i name="e_wo_entrp">   -104.61077280 </i>
    <i name="e_0_energy">   -104.66363093 </i>
   </energy>
  </scstep>
  <scstep>
   <time name="diag">    2.91    2.93</time>
   <time name="diis">    8.67    8.73</time>
   <time name="orth">    0.67    0.67</time>
   <time name="total">   15.53   15.69</time>
   <energy>
    <i name="e_fr_energy">   -104.58860122 </i>
    <i name="e_wo_entrp">   -104.50657720 </i>
    <i name="e_0_energy">   -104.56125988 </i>
   </energy>
  </scstep>
  <scstep>
   <time name="diag">    2.85    2.87</time>
   <time name="diis">    8.75    8.81</time>
   <time name="orth">    0.62    0.63</time>
   <time name="total">   15.59   15.70</time>
   <energy>
    <i name="e_fr_energy">   -104.58758379 </i>
    <i name="e_wo_entrp">   -104.50562024 </i>
    <i name="e_0_energy">   -104.56026261 </i>
   </energy>
  </scstep>
  <scstep>
   <time name="diag">    2.74    2.76</time>
   <time name="diis">    9.01    9.07</time>
   <time name="orth">    0.57    0.57</time>
   <time name="total">   15.56   15.70</time>
   <energy>
    <i name="e_fr_energy">   -104.58405124 </i>
    <i name="e_wo_entrp">   -104.50123166 </i>
    <i name="e_0_energy">   -104.55644471 </i>
   </energy>
  </scstep>
  <scstep>
   <time name="diag">    2.60    2.61</time>
   <time name="diis">    9.00    9.06</time>
   <time name="orth">    0.54    0.55</time>
   <time name="total">   15.40   15.51</time>
   <energy>
    <i name="e_fr_energy">   -104.58436621 </i>
    <i name="e_wo_entrp">   -104.50108010 </i>
    <i name="e_0_energy">   -104.55660417 </i>
   </energy>
  </scstep>
  <scstep>
   <time name="diag">    2.66    2.68</time>
   <time name="diis">    9.08    9.15</time>
   <time name="orth">    0.80    0.80</time>
   <time name="total">   15.86   16.00</time>
   <energy>
    <i name="e_fr_energy">   -104.58365795 </i>
    <i name="e_wo_entrp">   -104.50023843 </i>
    <i name="e_0_energy">   -104.55585144 </i>
   </energy>
  </scstep>
  <scstep>
   <time name="diag">    2.86    2.88</time>
   <time name="diis">    8.96    9.03</time>
   <time name="orth">    0.64    0.65</time>
   <time name="total">   15.67   15.79</time>
   <energy>
    <i name="e_fr_energy">   -104.58345841 </i>
    <i name="e_wo_entrp">   -104.50013208 </i>
    <i name="e_0_energy">   -104.55568297 </i>
   </energy>
  </scstep>
  <scstep>
   <time name="diag">    2.70    2.73</time>
   <time name="diis">    9.07    9.14</time>
   <time name="orth">    0.75    0.75</time>
   <time name="total">   15.74   15.89</time>
   <energy>
    <i name="e_fr_energy">   -104.58343832 </i>
    <i name="e_wo_entrp">   -104.50018328 </i>
    <i name="e_0_energy">   -104.55568664 </i>
   </energy>
  </scstep>
  <scstep>
   <time name="diag">    2.79    2.82</time>
   <time name="diis">    8.93    9.00</time>
   <time name="orth">    0.58    0.58</time>
   <time name="total">   15.53   15.65</time>
   <energy>
    <i name="e_fr_energy">   -104.58342546 </i>
    <i name="e_wo_entrp">   -104.50021613 </i>
    <i name="e_0_energy">   -104.55568902 </i>
   </energy>
  </scstep>
  <scstep>
   <time name="diag">    2.76    2.78</time>
   <time name="diis">    7.28    7.33</time>
   <time name="orth">    0.56    0.56</time>
   <time name="total">   13.81   13.94</time>
   <energy>
    <i name="e_fr_energy">   -104.58341516 </i>
    <i name="e_wo_entrp">   -104.50012084 </i>
    <i name="e_0_energy">   -104.55565039 </i>
   </energy>
  </scstep>
  <scstep>
   <time name="diag">    2.73    2.76</time>
   <time name="diis">    6.63    6.67</time>
   <time name="orth">    0.44    0.45</time>
   <time name="total">   12.34   12.42</time>
   <energy>
    <i name="alphaZ">    797.33612757 </i>
    <i name="ewald"> 132073.91454620 </i>
    <i name="hartreedc">-159475.04910968 </i>
    <i name="XCdc">     89.41613601 </i>
    <i name="pawpsdc">  32148.92964604 </i>
    <i name="pawaedc"> -31151.57254896 </i>
    <i name="eentropy">     -0.08327834 </i>
    <i name="bandstr">  -1084.27808962 </i>
    <i name="atom">  26496.80315902 </i>
    <i name="e_fr_energy">   -104.58341176 </i>
    <i name="e_wo_entrp">   -104.50013342 </i>
    <i name="e_0_energy">   -104.55565232 </i>
   </energy>
  </scstep>
  <structure>
   <crystal>
    <varray name="basis" >
     <v>       8.46831000       0.00000000       0.00000000 </v>
     <v>       4.23415500       7.33377159       0.00000000 </v>
     <v>       0.00000000       0.00000000      24.96566199 </v>
    </varray>
    <i name="volume">   1550.48373159 </i>
    <varray name="rec_basis" >
     <v>       0.11808732      -0.06817774       0.00000000 </v>
     <v>       0.00000000       0.13635549       0.00000000 </v>
     <v>       0.00000000       0.00000000       0.04005502 </v>
    </varray>
   </crystal>
   <varray name="positions" >
    <v>       0.00000000       0.00000000       0.34046764 </v>
    <v>       0.33400137       0.00000000       0.34046764 </v>
    <v>       0.66800274       0.00000000       0.34046764 </v>
    <v>       0.00000000       0.33400137       0.34046764 </v>
    <v>       0.33400137       0.33400137       0.34046764 </v>
    <v>       0.66800274       0.33400137       0.34046764 </v>
    <v>       0.00000000       0.66800274       0.34046764 </v>
    <v>       0.33400137       0.66800274       0.34046764 </v>
    <v>       0.66800274       0.66800274       0.34046764 </v>
    <v>       0.11133379       0.11133379       0.43297074 </v>
    <v>       0.44533516       0.11133379       0.43297074 </v>
    <v>       0.77933653       0.11133379       0.43297074 </v>
    <v>       0.11133379       0.44533516       0.43297074 </v>
    <v>       0.44533516       0.44533516       0.43297074 </v>
    <v>       0.77933653       0.44533516       0.43297074 </v>
    <v>       0.11133379       0.77933653       0.43297074 </v>
    <v>       0.44533516       0.77933653       0.43297074 </v>
    <v>       0.77933653       0.77933653       0.43297074 </v>
    <v>       0.89354089       0.22401664       0.52591748 </v>
    <v>       0.22567359       0.22254926       0.52496314 </v>
    <v>       0.55972032       0.22262810       0.52424776 </v>
    <v>       0.89392850       0.55330616       0.52594206 </v>
    <v>       0.22599906       0.55576738       0.52433934 </v>
    <v>       0.55959208       0.55592327       0.52446211 </v>
    <v>       0.89318920       0.88917478       0.52443294 </v>
    <v>       0.22611466       0.88936919       0.52452353 </v>
    <v>       0.56008571       0.88860491       0.52435984 </v>
    <v>       0.00627720       0.99887371       0.61780706 </v>
    <v>       0.34186818       0.99767048       0.61762241 </v>
    <v>       0.67347096       0.99938675       0.61764022 </v>
    <v>       0.01038951       0.33064560       0.62296860 </v>
    <v>       0.34172343       0.33268111       0.61752549 </v>
    <v>       0.67323583       0.33250397       0.61788049 </v>
    <v>       0.00622971       0.66692960       0.61767437 </v>
    <v>       0.34026512       0.66583044       0.61738994 </v>
    <v>       0.67318123       0.66641704       0.61790225 </v>
    <v>       0.06494405       0.30426085       0.68312697 </v>
   </varray>
  </structure>
  <varray name="forces" >
   <v>       0.03988726       0.04682257      -0.11714871 </v>
   <v>       0.01432609       0.06151052      -0.09971090 </v>
   <v>      -0.06470940       0.08712861      -0.22216654 </v>
   <v>       0.04310314      -0.01203312      -0.08947825 </v>
   <v>      -0.00652116      -0.00812355      -0.07510667 </v>
   <v>      -0.05863125       0.00712868      -0.07880566 </v>
   <v>       0.02039189      -0.05435489      -0.10709242 </v>
   <v>      -0.02304010      -0.04309388      -0.09200220 </v>
   <v>      -0.06775241      -0.02788307      -0.09316619 </v>
   <v>       0.06171747       0.08246255       0.21971812 </v>
   <v>       0.06968932       0.03441335      -0.03741206 </v>
   <v>      -0.07028660       0.06287342       0.04070702 </v>
   <v>       0.02808659      -0.03028387       0.21112029 </v>
   <v>       0.02197599      -0.00660206       0.04631040 </v>
   <v>      -0.00073407      -0.01204911       0.27328748 </v>
   <v>       0.07055543      -0.10155476       0.08899924 </v>
   <v>       0.00328279      -0.08156184       0.08371542 </v>
   <v>      -0.05409177      -0.01866532       0.07142186 </v>
   <v>       0.01136267      -0.01091511      -0.01022499 </v>
   <v>       0.01540439      -0.00119095      -0.00688039 </v>
   <v>       0.01204376      -0.00377847       0.00449200 </v>
   <v>       0.00456315       0.00707175      -0.01629635 </v>
   <v>       0.00370249       0.00497576       0.00405612 </v>
   <v>      -0.00630752      -0.00140021      -0.00956256 </v>
   <v>      -0.00715662      -0.00295267      -0.00760625 </v>
   <v>       0.00161913      -0.00362255       0.00244589 </v>
   <v>       0.00299650      -0.01007216       0.00021880 </v>
   <v>      -0.00413380      -0.00757369      -0.00886227 </v>
   <v>       0.01503961      -0.01016251      -0.01831338 </v>
   <v>       0.00514011      -0.00435029       0.00690551 </v>
   <v>      -0.00950781       0.00992791      -0.05530746 </v>
   <v>       0.01833636      -0.01128573      -0.01826572 </v>
   <v>       0.02229339       0.00521419       0.00005754 </v>
   <v>       0.01101405       0.00448556      -0.00023312 </v>
   <v>      -0.00293330       0.00035762       0.01293437 </v>
   <v>       0.01013218      -0.02511477       0.00255731 </v>
   <v>      -0.13085791       0.07425208       0.09469471 </v>
  </varray>
  <varray name="stress" >
   <v>     -34.69993593      -0.05719551      -0.11514143 </v>
   <v>      -0.05719557     -34.70940181       0.06905492 </v>
   <v>      -0.11514163       0.06905477       2.64356089 </v>
  </varray>
  <energy>
   <i name="e_fr_energy">   -104.58341176 </i>
   <i name="e_wo_entrp">   -104.50013342 </i>
   <i name="e_0_energy">   -104.55565232 </i>
  </energy>
  <time name="totalsc">  229.97  232.53</time>
  <eigenvalues>
   <array>
    <dimension dim="1">band</dimension>
    <dimension dim="2">kpoint</dimension>
    <dimension dim="3">spin</dimension>
    <field>eigene</field>
    <field>occ</field>
    <set>
     <set comment="spin 1">
      <set comment="kpoint 1">
       <r>   -8.8764    1.0000 </r>
       <r>   -7.6136    1.0000 </r>
       <r>   -6.5550    1.0000 </r>
       <r>   -6.4779    1.0000 </r>
       <r>   -6.4701    1.0000 </r>
       <r>   -6.4566    1.0000 </r>
       <r>   -6.4517    1.0000 </r>
       <r>   -6.4441    1.0000 </r>
       <r>   -6.4286    1.0000 </r>
       <r>   -6.4232    1.0000 </r>
       <r>   -6.0056    1.0000 </r>
       <r>   -5.9084    1.0000 </r>
       <r>   -5.9045    1.0000 </r>
       <r>   -5.9032    1.0000 </r>
       <r>   -5.8926    1.0000 </r>
       <r>   -5.8909    1.0000 </r>
       <r>   -5.6053    1.0000 </r>
       <r>   -5.4485    1.0000 </r>
       <r>   -5.4462    1.0000 </r>
       <r>   -5.4410    1.0000 </r>
       <r>   -5.4362    1.0000 </r>
       <r>   -5.4356    1.0000 </r>
       <r>   -5.3641    1.0000 </r>
       <r>   -5.2248    1.0000 </r>
       <r>   -5.2165    1.0000 </r>
       <r>   -5.2146    1.0000 </r>
       <r>   -5.2079    1.0000 </r>
       <r>   -5.2060    1.0000 </r>
       <r>   -5.0523    1.0000 </r>
       <r>   -5.0167    1.0000 </r>
       <r>   -5.0099    1.0000 </r>
       <r>   -5.0073    1.0000 </r>
       <r>   -5.0027    1.0000 </r>
       <r>   -4.9994    1.0000 </r>
       <r>   -4.9756    1.0000 </r>
       <r>   -4.9632    1.0000 </r>
       <r>   -4.9572    1.0000 </r>
       <r>   -4.9491    1.0000 </r>
       <r>   -4.9434    1.0000 </r>
       <r>   -4.8994    1.0000 </r>
       <r>   -4.7981    1.0000 </r>
       <r>   -4.3736    1.0000 </r>
       <r>   -4.3678    1.0000 </r>
       <r>   -4.3443    1.0000 </r>
       <r>   -4.3397    1.0000 </r>
       <r>   -4.3131    1.0000 </r>
       <r>   -4.3087    1.0000 </r>
       <r>   -4.2991    1.0000 </r>
       <r>   -4.2907    1.0000 </r>
       <r>   -4.2882    1.0000 </r>
       <r>   -4.2377    1.0000 </r>
       <r>   -4.1304    1.0000 </r>
       <r>   -4.1103    1.0000 </r>
       <r>   -4.0457    1.0000 </r>
       <r>   -3.9278    1.0000 </r>
       <r>   -3.5950    1.0000 </r>
       <r>   -3.5668    1.0000 </r>
       <r>   -3.5649    1.0000 </r>
       <r>   -3.5555    1.0000 </r>
       <r>   -3.5497    1.0000 </r>
       <r>   -3.5389    1.0000 </r>
       <r>   -3.4832    1.0000 </r>
       <r>   -3.3855    1.0000 </r>
       <r>   -3.3738    1.0000 </r>
       <r>   -3.3661    1.0000 </r>
       <r>   -3.3642    1.0000 </r>
       <r>   -3.3590    1.0000 </r>
       <r>   -3.3502    1.0000 </r>
       <r>   -3.3269    1.0000 </r>
       <r>   -3.3168    1.0000 </r>
       <r>   -3.3155    1.0000 </r>
       <r>   -3.2942    1.0000 </r>
       <r>   -3.2860    1.0000 </r>
       <r>   -3.2822    1.0000 </r>
       <r>   -3.2589    1.0000 </r>
       <r>   -3.2552    1.0000 </r>
       <r>   -3.2292    1.0000 </r>
       <r>   -3.1537    1.0000 </r>
       <r>   -3.1456    1.0000 </r>
       <r>   -3.1398    1.0000 </r>
       <r>   -3.1348    1.0000 </r>
       <r>   -3.1236    1.0000 </r>
       <r>   -2.9810    1.0000 </r>
       <r>   -2.9352    1.0000 </r>
       <r>   -2.9253    1.0000 </r>
       <r>   -2.9107    1.0000 </r>
       <r>   -2.9062    1.0000 </r>
       <r>   -2.9002    1.0000 </r>
       <r>   -2.8927    1.0000 </r>
       <r>   -2.8834    1.0000 </r>
       <r>   -2.8747    1.0000 </r>
       <r>   -2.8251    1.0000 </r>
       <r>   -2.8182    1.0000 </r>
       <r>   -2.7695    1.0000 </r>
       <r>   -2.7643    1.0000 </r>
       <r>   -2.7277    1.0000 </r>
       <r>   -2.7276    1.0000 </r>
       <r>   -2.6845    1.0000 </r>
       <r>   -2.6835    1.0000 </r>
       <r>   -2.6748    1.0000 </r>
       <r>   -2.6634    1.0000 </r>
       <r>   -2.5340    1.0000 </r>
       <r>   -2.5248    1.0000 </r>
       <r>   -2.5184    1.0000 </r>
       <r>   -2.5004    1.0000 </r>
       <r>   -2.4866    1.0000 </r>
       <r>   -2.4787    1.0000 </r>
       <r>   -2.1651    1.0000 </r>
       <r>   -2.0298    1.0000 </r>
       <r>   -2.0089    1.0000 </r>
       <r>   -2.0009    1.0000 </r>
       <r>   -1.9911    1.0000 </r>
       <r>   -1.9892    1.0000 </r>
       <r>   -1.9833    1.0000 </r>
       <r>   -1.9798    1.0000 </r>
       <r>   -1.9477    1.0000 </r>
       <r>   -1.9460    1.0000 </r>
       <r>   -1.9386    1.0000 </r>
       <r>   -1.9324    1.0000 </r>
       <r>   -1.9023    1.0000 </r>
       <r>   -1.8552    1.0000 </r>
       <r>   -1.8516    1.0000 </r>
       <r>   -1.7346    1.0000 </r>
       <r>   -1.7055    1.0000 </r>
       <r>   -1.7045    1.0000 </r>
       <r>   -1.6894    1.0000 </r>
       <r>   -1.6882    1.0000 </r>
       <r>   -1.6064    1.0000 </r>
       <r>   -1.5839    1.0000 </r>
       <r>   -1.5486    1.0000 </r>
       <r>   -1.5284    1.0000 </r>
       <r>   -1.5258    1.0000 </r>
       <r>   -1.5200    1.0000 </r>
       <r>   -1.4670    1.0000 </r>
       <r>   -1.2915    1.0000 </r>
       <r>   -1.2843    1.0000 </r>
       <r>   -1.2593    1.0000 </r>
       <r>   -1.2561    1.0000 </r>
       <r>   -1.2461    1.0000 </r>
       <r>   -1.2324    1.0000 </r>
       <r>   -1.1822    1.0000 </r>
       <r>   -1.1741    1.0000 </r>
       <r>   -1.0234    1.0000 </r>
       <r>   -1.0194    1.0000 </r>
       <r>   -1.0122    1.0000 </r>
       <r>   -1.0066    1.0000 </r>
       <r>   -1.0000    1.0000 </r>
       <r>   -0.9473    1.0000 </r>
       <r>   -0.8538    1.0000 </r>
       <r>   -0.8429    1.0000 </r>
       <r>   -0.8365    1.0000 </r>
       <r>   -0.8272    1.0000 </r>
       <r>   -0.8229    1.0000 </r>
       <r>   -0.8038    1.0000 </r>
       <r>   -0.8018    1.0000 </r>
       <r>   -0.7939    1.0000 </r>
       <r>   -0.7901    1.0000 </r>
       <r>   -0.7873    1.0000 </r>
       <r>   -0.7854    1.0000 </r>
       <r>   -0.7014    1.0000 </r>
       <r>   -0.6859    1.0000 </r>
       <r>   -0.6804    1.0000 </r>
       <r>   -0.6646    1.0000 </r>
       <r>   -0.6598    1.0000 </r>
       <r>   -0.6575    1.0000 </r>
       <r>   -0.6332    1.0000 </r>
       <r>   -0.6210    1.0000 </r>
       <r>   -0.5823    1.0000 </r>
       <r>   -0.5790    1.0000 </r>
       <r>   -0.5514    1.0000 </r>
       <r>   -0.5471    1.0000 </r>
       <r>   -0.5442    1.0000 </r>
       <r>   -0.5426    1.0000 </r>
       <r>   -0.5378    1.0000 </r>
       <r>   -0.5340    1.0000 </r>
       <r>   -0.4556    1.0000 </r>
       <r>   -0.4465    1.0000 </r>
       <r>   -0.4425    1.0000 </r>
       <r>   -0.4330    1.0000 </r>
       <r>   -0.4274    1.0000 </r>
       <r>   -0.4237    1.0000 </r>
       <r>   -0.4080    1.0000 </r>
       <r>   -0.3478    1.0002 </r>
       <r>   -0.3219    1.0009 </r>
       <r>   -0.3153    1.0012 </r>
       <r>   -0.3095    1.0015 </r>
       <r>   -0.2990    1.0023 </r>
       <r>   -0.2911    1.0032 </r>
       <r>   -0.1192    0.8908 </r>
       <r>   -0.0850    0.6634 </r>
       <r>   -0.0181    0.1456 </r>
       <r>   -0.0074    0.0896 </r>
       <r>    0.0149    0.0095 </r>
       <r>    0.0183    0.0013 </r>
       <r>    0.0209   -0.0043 </r>
       <r>    0.0256   -0.0129 </r>
       <r>    0.3440   -0.0000 </r>
       <r>    0.8177   -0.0000 </r>
       <r>    0.8895   -0.0000 </r>
       <r>    0.9003   -0.0000 </r>
       <r>    0.9094   -0.0000 </r>
       <r>    0.9142   -0.0000 </r>
       <r>    0.9165   -0.0000 </r>
       <r>    2.4393   -0.0000 </r>
       <r>    3.1750    0.0000 </r>
       <r>    3.1837    0.0000 </r>
       <r>    3.2146    0.0000 </r>
       <r>    3.2280    0.0000 </r>
       <r>    3.2402    0.0000 </r>
       <r>    4.3738    0.0000 </r>
       <r>    4.7708    0.0000 </r>
       <r>    4.7767    0.0000 </r>
       <r>    4.8136    0.0000 </r>
       <r>    4.8169    0.0000 </r>
       <r>    4.8425    0.0000 </r>
       <r>    4.8442    0.0000 </r>
       <r>    4.9576    0.0000 </r>
       <r>    5.1086    0.0000 </r>
       <r>    5.5073    0.0000 </r>
       <r>    5.5364    0.0000 </r>
       <r>    5.8239    0.0000 </r>
       <r>    5.8303    0.0000 </r>
       <r>    5.8393    0.0000 </r>
       <r>    5.8637    0.0000 </r>
       <r>    5.8846    0.0000 </r>
       <r>    6.0754    0.0000 </r>
       <r>    6.5568    0.0000 </r>
       <r>    6.6275    0.0000 </r>
       <r>    6.6364    0.0000 </r>
       <r>    6.6432    0.0000 </r>
       <r>    6.7035    0.0000 </r>
       <r>    6.8505    0.0000 </r>
       <r>    7.1131    0.0000 </r>
       <r>    7.1236    0.0000 </r>
       <r>    7.1436    0.0000 </r>
       <r>    7.1658    0.0000 </r>
       <r>    7.1696    0.0000 </r>
       <r>    7.1782    0.0000 </r>
       <r>    7.3183    0.0000 </r>
       <r>    7.8620    0.0000 </r>
      </set>
      <set comment="kpoint 2">
       <r>   -8.7280    1.0000 </r>
       <r>   -7.4685    1.0000 </r>
       <r>   -6.9564    1.0000 </r>
       <r>   -6.5788    1.0000 </r>
       <r>   -6.5522    1.0000 </r>
       <r>   -6.3984    1.0000 </r>
       <r>   -6.3314    1.0000 </r>
       <r>   -6.2661    1.0000 </r>
       <r>   -6.2241    1.0000 </r>
       <r>   -6.2103    1.0000 </r>
       <r>   -6.0674    1.0000 </r>
       <r>   -5.9960    1.0000 </r>
       <r>   -5.9009    1.0000 </r>
       <r>   -5.8315    1.0000 </r>
       <r>   -5.8280    1.0000 </r>
       <r>   -5.8188    1.0000 </r>
       <r>   -5.5621    1.0000 </r>
       <r>   -5.5218    1.0000 </r>
       <r>   -5.4075    1.0000 </r>
       <r>   -5.4050    1.0000 </r>
       <r>   -5.3944    1.0000 </r>
       <r>   -5.3665    1.0000 </r>
       <r>   -5.3212    1.0000 </r>
       <r>   -5.3064    1.0000 </r>
       <r>   -5.2630    1.0000 </r>
       <r>   -5.2298    1.0000 </r>
       <r>   -5.2039    1.0000 </r>
       <r>   -5.1999    1.0000 </r>
       <r>   -5.1476    1.0000 </r>
       <r>   -5.1126    1.0000 </r>
       <r>   -5.0827    1.0000 </r>
       <r>   -5.0164    1.0000 </r>
       <r>   -5.0050    1.0000 </r>
       <r>   -4.9981    1.0000 </r>
       <r>   -4.9960    1.0000 </r>
       <r>   -4.8607    1.0000 </r>
       <r>   -4.7955    1.0000 </r>
       <r>   -4.7891    1.0000 </r>
       <r>   -4.7671    1.0000 </r>
       <r>   -4.7558    1.0000 </r>
       <r>   -4.7287    1.0000 </r>
       <r>   -4.4962    1.0000 </r>
       <r>   -4.4842    1.0000 </r>
       <r>   -4.4704    1.0000 </r>
       <r>   -4.4136    1.0000 </r>
       <r>   -4.4002    1.0000 </r>
       <r>   -4.3858    1.0000 </r>
       <r>   -4.3290    1.0000 </r>
       <r>   -4.2047    1.0000 </r>
       <r>   -4.1901    1.0000 </r>
       <r>   -4.1124    1.0000 </r>
       <r>   -4.0997    1.0000 </r>
       <r>   -4.0842    1.0000 </r>
       <r>   -4.0498    1.0000 </r>
       <r>   -3.9787    1.0000 </r>
       <r>   -3.8265    1.0000 </r>
       <r>   -3.7313    1.0000 </r>
       <r>   -3.7234    1.0000 </r>
       <r>   -3.6826    1.0000 </r>
       <r>   -3.6775    1.0000 </r>
       <r>   -3.6268    1.0000 </r>
       <r>   -3.5725    1.0000 </r>
       <r>   -3.5494    1.0000 </r>
       <r>   -3.5448    1.0000 </r>
       <r>   -3.5162    1.0000 </r>
       <r>   -3.5087    1.0000 </r>
       <r>   -3.4939    1.0000 </r>
       <r>   -3.4403    1.0000 </r>
       <r>   -3.3941    1.0000 </r>
       <r>   -3.3715    1.0000 </r>
       <r>   -3.3587    1.0000 </r>
       <r>   -3.3326    1.0000 </r>
       <r>   -3.2589    1.0000 </r>
       <r>   -3.2408    1.0000 </r>
       <r>   -3.2360    1.0000 </r>
       <r>   -3.1806    1.0000 </r>
       <r>   -3.1670    1.0000 </r>
       <r>   -3.1466    1.0000 </r>
       <r>   -3.1031    1.0000 </r>
       <r>   -3.0948    1.0000 </r>
       <r>   -3.0858    1.0000 </r>
       <r>   -3.0336    1.0000 </r>
       <r>   -3.0124    1.0000 </r>
       <r>   -2.9859    1.0000 </r>
       <r>   -2.9575    1.0000 </r>
       <r>   -2.9517    1.0000 </r>
       <r>   -2.9307    1.0000 </r>
       <r>   -2.9246    1.0000 </r>
       <r>   -2.9125    1.0000 </r>
       <r>   -2.8979    1.0000 </r>
       <r>   -2.8467    1.0000 </r>
       <r>   -2.8068    1.0000 </r>
       <r>   -2.8021    1.0000 </r>
       <r>   -2.7713    1.0000 </r>
       <r>   -2.7560    1.0000 </r>
       <r>   -2.7507    1.0000 </r>
       <r>   -2.7415    1.0000 </r>
       <r>   -2.7072    1.0000 </r>
       <r>   -2.6998    1.0000 </r>
       <r>   -2.6760    1.0000 </r>
       <r>   -2.5830    1.0000 </r>
       <r>   -2.5336    1.0000 </r>
       <r>   -2.5316    1.0000 </r>
       <r>   -2.5090    1.0000 </r>
       <r>   -2.4977    1.0000 </r>
       <r>   -2.4923    1.0000 </r>
       <r>   -2.4819    1.0000 </r>
       <r>   -2.4798    1.0000 </r>
       <r>   -2.4307    1.0000 </r>
       <r>   -2.4199    1.0000 </r>
       <r>   -2.4059    1.0000 </r>
       <r>   -2.3979    1.0000 </r>
       <r>   -2.3130    1.0000 </r>
       <r>   -2.0903    1.0000 </r>
       <r>   -2.0867    1.0000 </r>
       <r>   -2.0319    1.0000 </r>
       <r>   -1.9913    1.0000 </r>
       <r>   -1.9882    1.0000 </r>
       <r>   -1.9683    1.0000 </r>
       <r>   -1.9598    1.0000 </r>
       <r>   -1.9310    1.0000 </r>
       <r>   -1.9030    1.0000 </r>
       <r>   -1.7848    1.0000 </r>
       <r>   -1.7799    1.0000 </r>
       <r>   -1.7760    1.0000 </r>
       <r>   -1.6644    1.0000 </r>
       <r>   -1.6398    1.0000 </r>
       <r>   -1.6124    1.0000 </r>
       <r>   -1.5716    1.0000 </r>
       <r>   -1.5520    1.0000 </r>
       <r>   -1.5303    1.0000 </r>
       <r>   -1.5201    1.0000 </r>
       <r>   -1.4994    1.0000 </r>
       <r>   -1.4661    1.0000 </r>
       <r>   -1.4258    1.0000 </r>
       <r>   -1.3992    1.0000 </r>
       <r>   -1.3824    1.0000 </r>
       <r>   -1.3706    1.0000 </r>
       <r>   -1.3649    1.0000 </r>
       <r>   -1.1998    1.0000 </r>
       <r>   -1.1744    1.0000 </r>
       <r>   -1.1595    1.0000 </r>
       <r>   -1.1379    1.0000 </r>
       <r>   -1.1281    1.0000 </r>
       <r>   -1.1053    1.0000 </r>
       <r>   -1.0789    1.0000 </r>
       <r>   -1.0218    1.0000 </r>
       <r>   -0.9994    1.0000 </r>
       <r>   -0.9927    1.0000 </r>
       <r>   -0.9729    1.0000 </r>
       <r>   -0.9558    1.0000 </r>
       <r>   -0.9045    1.0000 </r>
       <r>   -0.8991    1.0000 </r>
       <r>   -0.8843    1.0000 </r>
       <r>   -0.8569    1.0000 </r>
       <r>   -0.7736    1.0000 </r>
       <r>   -0.7672    1.0000 </r>
       <r>   -0.7456    1.0000 </r>
       <r>   -0.6986    1.0000 </r>
       <r>   -0.6389    1.0000 </r>
       <r>   -0.6220    1.0000 </r>
       <r>   -0.6197    1.0000 </r>
       <r>   -0.5987    1.0000 </r>
       <r>   -0.5758    1.0000 </r>
       <r>   -0.5570    1.0000 </r>
       <r>   -0.5321    1.0000 </r>
       <r>   -0.4775    1.0000 </r>
       <r>   -0.4556    1.0000 </r>
       <r>   -0.4401    1.0000 </r>
       <r>   -0.3895    1.0000 </r>
       <r>   -0.3845    1.0000 </r>
       <r>   -0.3747    1.0001 </r>
       <r>   -0.3409    1.0003 </r>
       <r>   -0.3370    1.0004 </r>
       <r>   -0.3307    1.0006 </r>
       <r>   -0.3290    1.0006 </r>
       <r>   -0.3248    1.0007 </r>
       <r>   -0.2623    1.0088 </r>
       <r>   -0.2487    1.0132 </r>
       <r>   -0.1234    0.9115 </r>
       <r>   -0.1119    0.8513 </r>
       <r>   -0.0872    0.6811 </r>
       <r>   -0.0809    0.6304 </r>
       <r>   -0.0735    0.5693 </r>
       <r>   -0.0603    0.4585 </r>
       <r>   -0.0304    0.2239 </r>
       <r>   -0.0205    0.1599 </r>
       <r>   -0.0022    0.0668 </r>
       <r>    0.0127    0.0154 </r>
       <r>    0.0813   -0.0292 </r>
       <r>    0.1223   -0.0117 </r>
       <r>    0.1446   -0.0057 </r>
       <r>    0.1586   -0.0034 </r>
       <r>    0.2930   -0.0000 </r>
       <r>    0.3104   -0.0000 </r>
       <r>    0.3189   -0.0000 </r>
       <r>    0.3731   -0.0000 </r>
       <r>    0.6432   -0.0000 </r>
       <r>    0.7627   -0.0000 </r>
       <r>    1.1914   -0.0000 </r>
       <r>    1.4923   -0.0000 </r>
       <r>    1.4955   -0.0000 </r>
       <r>    1.6212   -0.0000 </r>
       <r>    2.2762   -0.0000 </r>
       <r>    2.7198    0.0000 </r>
       <r>    2.9194    0.0000 </r>
       <r>    3.4311    0.0000 </r>
       <r>    3.6631    0.0000 </r>
       <r>    3.6657    0.0000 </r>
       <r>    3.7655    0.0000 </r>
       <r>    3.9758    0.0000 </r>
       <r>    4.3550    0.0000 </r>
       <r>    4.6292    0.0000 </r>
       <r>    4.6648    0.0000 </r>
       <r>    4.9506    0.0000 </r>
       <r>    4.9888    0.0000 </r>
       <r>    5.0098    0.0000 </r>
       <r>    5.1214    0.0000 </r>
       <r>    5.2293    0.0000 </r>
       <r>    5.4732    0.0000 </r>
       <r>    5.6470    0.0000 </r>
       <r>    5.7488    0.0000 </r>
       <r>    5.8344    0.0000 </r>
       <r>    5.9187    0.0000 </r>
       <r>    6.0487    0.0000 </r>
       <r>    6.1846    0.0000 </r>
       <r>    6.2257    0.0000 </r>
       <r>    6.3164    0.0000 </r>
       <r>    6.3486    0.0000 </r>
       <r>    6.6396    0.0000 </r>
       <r>    6.7202    0.0000 </r>
       <r>    6.7214    0.0000 </r>
       <r>    6.7829    0.0000 </r>
       <r>    6.8498    0.0000 </r>
       <r>    6.9097    0.0000 </r>
       <r>    7.0496    0.0000 </r>
       <r>    7.2250    0.0000 </r>
       <r>    7.5062    0.0000 </r>
       <r>    7.5531    0.0000 </r>
       <r>    7.6198    0.0000 </r>
      </set>
      <set comment="kpoint 3">
       <r>   -8.7283    1.0000 </r>
       <r>   -7.4690    1.0000 </r>
       <r>   -6.9645    1.0000 </r>
       <r>   -6.5723    1.0000 </r>
       <r>   -6.5494    1.0000 </r>
       <r>   -6.3983    1.0000 </r>
       <r>   -6.3326    1.0000 </r>
       <r>   -6.2721    1.0000 </r>
       <r>   -6.2249    1.0000 </r>
       <r>   -6.2043    1.0000 </r>
       <r>   -6.0678    1.0000 </r>
       <r>   -5.9941    1.0000 </r>
       <r>   -5.8970    1.0000 </r>
       <r>   -5.8366    1.0000 </r>
       <r>   -5.8331    1.0000 </r>
       <r>   -5.8193    1.0000 </r>
       <r>   -5.5878    1.0000 </r>
       <r>   -5.4878    1.0000 </r>
       <r>   -5.4110    1.0000 </r>
       <r>   -5.4020    1.0000 </r>
       <r>   -5.3977    1.0000 </r>
       <r>   -5.3581    1.0000 </r>
       <r>   -5.3187    1.0000 </r>
       <r>   -5.3030    1.0000 </r>
       <r>   -5.2616    1.0000 </r>
       <r>   -5.2278    1.0000 </r>
       <r>   -5.2172    1.0000 </r>
       <r>   -5.2011    1.0000 </r>
       <r>   -5.1606    1.0000 </r>
       <r>   -5.1079    1.0000 </r>
       <r>   -5.0783    1.0000 </r>
       <r>   -5.0285    1.0000 </r>
       <r>   -5.0083    1.0000 </r>
       <r>   -4.9964    1.0000 </r>
       <r>   -4.9891    1.0000 </r>
       <r>   -4.8820    1.0000 </r>
       <r>   -4.7970    1.0000 </r>
       <r>   -4.7854    1.0000 </r>
       <r>   -4.7718    1.0000 </r>
       <r>   -4.7528    1.0000 </r>
       <r>   -4.7066    1.0000 </r>
       <r>   -4.4929    1.0000 </r>
       <r>   -4.4791    1.0000 </r>
       <r>   -4.4472    1.0000 </r>
       <r>   -4.4153    1.0000 </r>
       <r>   -4.4004    1.0000 </r>
       <r>   -4.3821    1.0000 </r>
       <r>   -4.3292    1.0000 </r>
       <r>   -4.2025    1.0000 </r>
       <r>   -4.1856    1.0000 </r>
       <r>   -4.1255    1.0000 </r>
       <r>   -4.1059    1.0000 </r>
       <r>   -4.0801    1.0000 </r>
       <r>   -4.0501    1.0000 </r>
       <r>   -3.9845    1.0000 </r>
       <r>   -3.8033    1.0000 </r>
       <r>   -3.7348    1.0000 </r>
       <r>   -3.7136    1.0000 </r>
       <r>   -3.6641    1.0000 </r>
       <r>   -3.6562    1.0000 </r>
       <r>   -3.6336    1.0000 </r>
       <r>   -3.5768    1.0000 </r>
       <r>   -3.5660    1.0000 </r>
       <r>   -3.5326    1.0000 </r>
       <r>   -3.5237    1.0000 </r>
       <r>   -3.5177    1.0000 </r>
       <r>   -3.4857    1.0000 </r>
       <r>   -3.4412    1.0000 </r>
       <r>   -3.4054    1.0000 </r>
       <r>   -3.3727    1.0000 </r>
       <r>   -3.3553    1.0000 </r>
       <r>   -3.3363    1.0000 </r>
       <r>   -3.2882    1.0000 </r>
       <r>   -3.2623    1.0000 </r>
       <r>   -3.2567    1.0000 </r>
       <r>   -3.1778    1.0000 </r>
       <r>   -3.1657    1.0000 </r>
       <r>   -3.1494    1.0000 </r>
       <r>   -3.1061    1.0000 </r>
       <r>   -3.0789    1.0000 </r>
       <r>   -3.0587    1.0000 </r>
       <r>   -3.0367    1.0000 </r>
       <r>   -3.0272    1.0000 </r>
       <r>   -2.9806    1.0000 </r>
       <r>   -2.9586    1.0000 </r>
       <r>   -2.9512    1.0000 </r>
       <r>   -2.9330    1.0000 </r>
       <r>   -2.9212    1.0000 </r>
       <r>   -2.9071    1.0000 </r>
       <r>   -2.8868    1.0000 </r>
       <r>   -2.8510    1.0000 </r>
       <r>   -2.8120    1.0000 </r>
       <r>   -2.7976    1.0000 </r>
       <r>   -2.7759    1.0000 </r>
       <r>   -2.7616    1.0000 </r>
       <r>   -2.7505    1.0000 </r>
       <r>   -2.7252    1.0000 </r>
       <r>   -2.7068    1.0000 </r>
       <r>   -2.6983    1.0000 </r>
       <r>   -2.6814    1.0000 </r>
       <r>   -2.5810    1.0000 </r>
       <r>   -2.5416    1.0000 </r>
       <r>   -2.5271    1.0000 </r>
       <r>   -2.5143    1.0000 </r>
       <r>   -2.5067    1.0000 </r>
       <r>   -2.4962    1.0000 </r>
       <r>   -2.4872    1.0000 </r>
       <r>   -2.4714    1.0000 </r>
       <r>   -2.4279    1.0000 </r>
       <r>   -2.4180    1.0000 </r>
       <r>   -2.4118    1.0000 </r>
       <r>   -2.3975    1.0000 </r>
       <r>   -2.2411    1.0000 </r>
       <r>   -2.1296    1.0000 </r>
       <r>   -2.0645    1.0000 </r>
       <r>   -2.0327    1.0000 </r>
       <r>   -2.0024    1.0000 </r>
       <r>   -1.9891    1.0000 </r>
       <r>   -1.9707    1.0000 </r>
       <r>   -1.9594    1.0000 </r>
       <r>   -1.9352    1.0000 </r>
       <r>   -1.9200    1.0000 </r>
       <r>   -1.8075    1.0000 </r>
       <r>   -1.7857    1.0000 </r>
       <r>   -1.7710    1.0000 </r>
       <r>   -1.6756    1.0000 </r>
       <r>   -1.6458    1.0000 </r>
       <r>   -1.5990    1.0000 </r>
       <r>   -1.5846    1.0000 </r>
       <r>   -1.5584    1.0000 </r>
       <r>   -1.5330    1.0000 </r>
       <r>   -1.5256    1.0000 </r>
       <r>   -1.5097    1.0000 </r>
       <r>   -1.4852    1.0000 </r>
       <r>   -1.4243    1.0000 </r>
       <r>   -1.3910    1.0000 </r>
       <r>   -1.3841    1.0000 </r>
       <r>   -1.3735    1.0000 </r>
       <r>   -1.3587    1.0000 </r>
       <r>   -1.1957    1.0000 </r>
       <r>   -1.1764    1.0000 </r>
       <r>   -1.1695    1.0000 </r>
       <r>   -1.1384    1.0000 </r>
       <r>   -1.1240    1.0000 </r>
       <r>   -1.1049    1.0000 </r>
       <r>   -1.0697    1.0000 </r>
       <r>   -1.0237    1.0000 </r>
       <r>   -0.9944    1.0000 </r>
       <r>   -0.9820    1.0000 </r>
       <r>   -0.9742    1.0000 </r>
       <r>   -0.9385    1.0000 </r>
       <r>   -0.9060    1.0000 </r>
       <r>   -0.8933    1.0000 </r>
       <r>   -0.8879    1.0000 </r>
       <r>   -0.8535    1.0000 </r>
       <r>   -0.7735    1.0000 </r>
       <r>   -0.7661    1.0000 </r>
       <r>   -0.7391    1.0000 </r>
       <r>   -0.6977    1.0000 </r>
       <r>   -0.6517    1.0000 </r>
       <r>   -0.6216    1.0000 </r>
       <r>   -0.6184    1.0000 </r>
       <r>   -0.6122    1.0000 </r>
       <r>   -0.5803    1.0000 </r>
       <r>   -0.5729    1.0000 </r>
       <r>   -0.5329    1.0000 </r>
       <r>   -0.4802    1.0000 </r>
       <r>   -0.4550    1.0000 </r>
       <r>   -0.4469    1.0000 </r>
       <r>   -0.3898    1.0000 </r>
       <r>   -0.3826    1.0000 </r>
       <r>   -0.3745    1.0001 </r>
       <r>   -0.3410    1.0003 </r>
       <r>   -0.3369    1.0004 </r>
       <r>   -0.3327    1.0005 </r>
       <r>   -0.3307    1.0006 </r>
       <r>   -0.3188    1.0010 </r>
       <r>   -0.2717    1.0064 </r>
       <r>   -0.2613    1.0091 </r>
       <r>   -0.1353    0.9602 </r>
       <r>   -0.1164    0.8764 </r>
       <r>   -0.0841    0.6562 </r>
       <r>   -0.0715    0.5527 </r>
       <r>   -0.0637    0.4868 </r>
       <r>   -0.0483    0.3586 </r>
       <r>   -0.0170    0.1398 </r>
       <r>    0.0016    0.0515 </r>
       <r>    0.0089    0.0265 </r>
       <r>    0.0259   -0.0133 </r>
       <r>    0.0918   -0.0244 </r>
       <r>    0.1215   -0.0120 </r>
       <r>    0.1385   -0.0071 </r>
       <r>    0.1471   -0.0053 </r>
       <r>    0.3026   -0.0000 </r>
       <r>    0.3114   -0.0000 </r>
       <r>    0.3228   -0.0000 </r>
       <r>    0.3603   -0.0000 </r>
       <r>    0.6661   -0.0000 </r>
       <r>    0.7805   -0.0000 </r>
       <r>    1.1828   -0.0000 </r>
       <r>    1.4833   -0.0000 </r>
       <r>    1.4919   -0.0000 </r>
       <r>    1.6191   -0.0000 </r>
       <r>    2.2597   -0.0000 </r>
       <r>    2.7281    0.0000 </r>
       <r>    2.9343    0.0000 </r>
       <r>    3.4369    0.0000 </r>
       <r>    3.6597    0.0000 </r>
       <r>    3.6647    0.0000 </r>
       <r>    3.7681    0.0000 </r>
       <r>    3.9641    0.0000 </r>
       <r>    4.3478    0.0000 </r>
       <r>    4.6232    0.0000 </r>
       <r>    4.6604    0.0000 </r>
       <r>    4.9413    0.0000 </r>
       <r>    4.9972    0.0000 </r>
       <r>    5.0148    0.0000 </r>
       <r>    5.1204    0.0000 </r>
       <r>    5.2293    0.0000 </r>
       <r>    5.4932    0.0000 </r>
       <r>    5.6519    0.0000 </r>
       <r>    5.7312    0.0000 </r>
       <r>    5.8797    0.0000 </r>
       <r>    5.9292    0.0000 </r>
       <r>    6.0237    0.0000 </r>
       <r>    6.1741    0.0000 </r>
       <r>    6.2048    0.0000 </r>
       <r>    6.3221    0.0000 </r>
       <r>    6.3735    0.0000 </r>
       <r>    6.5996    0.0000 </r>
       <r>    6.7240    0.0000 </r>
       <r>    6.7271    0.0000 </r>
       <r>    6.7757    0.0000 </r>
       <r>    6.8623    0.0000 </r>
       <r>    6.9098    0.0000 </r>
       <r>    7.0461    0.0000 </r>
       <r>    7.2243    0.0000 </r>
       <r>    7.4999    0.0000 </r>
       <r>    7.5494    0.0000 </r>
       <r>    7.6076    0.0000 </r>
      </set>
      <set comment="kpoint 4">
       <r>   -8.7282    1.0000 </r>
       <r>   -7.4690    1.0000 </r>
       <r>   -6.9615    1.0000 </r>
       <r>   -6.5736    1.0000 </r>
       <r>   -6.5517    1.0000 </r>
       <r>   -6.3982    1.0000 </r>
       <r>   -6.3323    1.0000 </r>
       <r>   -6.2674    1.0000 </r>
       <r>   -6.2276    1.0000 </r>
       <r>   -6.2070    1.0000 </r>
       <r>   -6.0708    1.0000 </r>
       <r>   -5.9938    1.0000 </r>
       <r>   -5.8909    1.0000 </r>
       <r>   -5.8367    1.0000 </r>
       <r>   -5.8346    1.0000 </r>
       <r>   -5.8175    1.0000 </r>
       <r>   -5.5881    1.0000 </r>
       <r>   -5.4903    1.0000 </r>
       <r>   -5.4105    1.0000 </r>
       <r>   -5.4014    1.0000 </r>
       <r>   -5.3942    1.0000 </r>
       <r>   -5.3584    1.0000 </r>
       <r>   -5.3209    1.0000 </r>
       <r>   -5.3025    1.0000 </r>
       <r>   -5.2624    1.0000 </r>
       <r>   -5.2272    1.0000 </r>
       <r>   -5.2180    1.0000 </r>
       <r>   -5.1994    1.0000 </r>
       <r>   -5.1624    1.0000 </r>
       <r>   -5.1107    1.0000 </r>
       <r>   -5.0772    1.0000 </r>
       <r>   -5.0236    1.0000 </r>
       <r>   -5.0080    1.0000 </r>
       <r>   -4.9965    1.0000 </r>
       <r>   -4.9901    1.0000 </r>
       <r>   -4.8788    1.0000 </r>
       <r>   -4.7979    1.0000 </r>
       <r>   -4.7869    1.0000 </r>
       <r>   -4.7737    1.0000 </r>
       <r>   -4.7524    1.0000 </r>
       <r>   -4.7099    1.0000 </r>
       <r>   -4.4950    1.0000 </r>
       <r>   -4.4820    1.0000 </r>
       <r>   -4.4478    1.0000 </r>
       <r>   -4.4161    1.0000 </r>
       <r>   -4.3966    1.0000 </r>
       <r>   -4.3805    1.0000 </r>
       <r>   -4.3295    1.0000 </r>
       <r>   -4.2039    1.0000 </r>
       <r>   -4.1870    1.0000 </r>
       <r>   -4.1289    1.0000 </r>
       <r>   -4.1034    1.0000 </r>
       <r>   -4.0784    1.0000 </r>
       <r>   -4.0492    1.0000 </r>
       <r>   -3.9847    1.0000 </r>
       <r>   -3.8078    1.0000 </r>
       <r>   -3.7348    1.0000 </r>
       <r>   -3.7140    1.0000 </r>
       <r>   -3.6694    1.0000 </r>
       <r>   -3.6628    1.0000 </r>
       <r>   -3.6364    1.0000 </r>
       <r>   -3.5716    1.0000 </r>
       <r>   -3.5623    1.0000 </r>
       <r>   -3.5322    1.0000 </r>
       <r>   -3.5220    1.0000 </r>
       <r>   -3.5176    1.0000 </r>
       <r>   -3.4867    1.0000 </r>
       <r>   -3.4411    1.0000 </r>
       <r>   -3.4067    1.0000 </r>
       <r>   -3.3818    1.0000 </r>
       <r>   -3.3605    1.0000 </r>
       <r>   -3.3340    1.0000 </r>
       <r>   -3.2745    1.0000 </r>
       <r>   -3.2587    1.0000 </r>
       <r>   -3.2456    1.0000 </r>
       <r>   -3.1784    1.0000 </r>
       <r>   -3.1668    1.0000 </r>
       <r>   -3.1518    1.0000 </r>
       <r>   -3.1054    1.0000 </r>
       <r>   -3.0844    1.0000 </r>
       <r>   -3.0631    1.0000 </r>
       <r>   -3.0340    1.0000 </r>
       <r>   -3.0240    1.0000 </r>
       <r>   -2.9807    1.0000 </r>
       <r>   -2.9617    1.0000 </r>
       <r>   -2.9493    1.0000 </r>
       <r>   -2.9348    1.0000 </r>
       <r>   -2.9216    1.0000 </r>
       <r>   -2.9088    1.0000 </r>
       <r>   -2.8861    1.0000 </r>
       <r>   -2.8522    1.0000 </r>
       <r>   -2.8128    1.0000 </r>
       <r>   -2.7956    1.0000 </r>
       <r>   -2.7722    1.0000 </r>
       <r>   -2.7649    1.0000 </r>
       <r>   -2.7493    1.0000 </r>
       <r>   -2.7264    1.0000 </r>
       <r>   -2.7051    1.0000 </r>
       <r>   -2.6956    1.0000 </r>
       <r>   -2.6792    1.0000 </r>
       <r>   -2.5805    1.0000 </r>
       <r>   -2.5415    1.0000 </r>
       <r>   -2.5277    1.0000 </r>
       <r>   -2.5155    1.0000 </r>
       <r>   -2.5041    1.0000 </r>
       <r>   -2.4939    1.0000 </r>
       <r>   -2.4882    1.0000 </r>
       <r>   -2.4697    1.0000 </r>
       <r>   -2.4294    1.0000 </r>
       <r>   -2.4229    1.0000 </r>
       <r>   -2.4117    1.0000 </r>
       <r>   -2.3942    1.0000 </r>
       <r>   -2.2446    1.0000 </r>
       <r>   -2.1318    1.0000 </r>
       <r>   -2.0675    1.0000 </r>
       <r>   -2.0314    1.0000 </r>
       <r>   -2.0020    1.0000 </r>
       <r>   -1.9870    1.0000 </r>
       <r>   -1.9713    1.0000 </r>
       <r>   -1.9587    1.0000 </r>
       <r>   -1.9345    1.0000 </r>
       <r>   -1.9159    1.0000 </r>
       <r>   -1.8060    1.0000 </r>
       <r>   -1.7826    1.0000 </r>
       <r>   -1.7701    1.0000 </r>
       <r>   -1.6741    1.0000 </r>
       <r>   -1.6446    1.0000 </r>
       <r>   -1.6033    1.0000 </r>
       <r>   -1.5805    1.0000 </r>
       <r>   -1.5556    1.0000 </r>
       <r>   -1.5313    1.0000 </r>
       <r>   -1.5241    1.0000 </r>
       <r>   -1.5091    1.0000 </r>
       <r>   -1.4838    1.0000 </r>
       <r>   -1.4237    1.0000 </r>
       <r>   -1.3919    1.0000 </r>
       <r>   -1.3830    1.0000 </r>
       <r>   -1.3769    1.0000 </r>
       <r>   -1.3590    1.0000 </r>
       <r>   -1.1940    1.0000 </r>
       <r>   -1.1749    1.0000 </r>
       <r>   -1.1693    1.0000 </r>
       <r>   -1.1387    1.0000 </r>
       <r>   -1.1263    1.0000 </r>
       <r>   -1.1047    1.0000 </r>
       <r>   -1.0739    1.0000 </r>
       <r>   -1.0245    1.0000 </r>
       <r>   -0.9957    1.0000 </r>
       <r>   -0.9838    1.0000 </r>
       <r>   -0.9728    1.0000 </r>
       <r>   -0.9418    1.0000 </r>
       <r>   -0.9067    1.0000 </r>
       <r>   -0.8943    1.0000 </r>
       <r>   -0.8881    1.0000 </r>
       <r>   -0.8519    1.0000 </r>
       <r>   -0.7735    1.0000 </r>
       <r>   -0.7677    1.0000 </r>
       <r>   -0.7405    1.0000 </r>
       <r>   -0.6959    1.0000 </r>
       <r>   -0.6492    1.0000 </r>
       <r>   -0.6209    1.0000 </r>
       <r>   -0.6187    1.0000 </r>
       <r>   -0.6100    1.0000 </r>
       <r>   -0.5796    1.0000 </r>
       <r>   -0.5684    1.0000 </r>
       <r>   -0.5319    1.0000 </r>
       <r>   -0.4795    1.0000 </r>
       <r>   -0.4555    1.0000 </r>
       <r>   -0.4445    1.0000 </r>
       <r>   -0.3912    1.0000 </r>
       <r>   -0.3832    1.0000 </r>
       <r>   -0.3724    1.0001 </r>
       <r>   -0.3444    1.0003 </r>
       <r>   -0.3369    1.0004 </r>
       <r>   -0.3317    1.0005 </r>
       <r>   -0.3284    1.0006 </r>
       <r>   -0.3219    1.0009 </r>
       <r>   -0.2684    1.0072 </r>
       <r>   -0.2572    1.0103 </r>
       <r>   -0.1313    0.9451 </r>
       <r>   -0.1154    0.8708 </r>
       <r>   -0.0871    0.6804 </r>
       <r>   -0.0732    0.5671 </r>
       <r>   -0.0673    0.5175 </r>
       <r>   -0.0501    0.3731 </r>
       <r>   -0.0224    0.1719 </r>
       <r>    0.0005    0.0557 </r>
       <r>    0.0039    0.0429 </r>
       <r>    0.0216   -0.0056 </r>
       <r>    0.0927   -0.0240 </r>
       <r>    0.1225   -0.0116 </r>
       <r>    0.1385   -0.0071 </r>
       <r>    0.1467   -0.0053 </r>
       <r>    0.3017   -0.0000 </r>
       <r>    0.3113   -0.0000 </r>
       <r>    0.3196   -0.0000 </r>
       <r>    0.3663   -0.0000 </r>
       <r>    0.6620   -0.0000 </r>
       <r>    0.7741   -0.0000 </r>
       <r>    1.1842   -0.0000 </r>
       <r>    1.4838   -0.0000 </r>
       <r>    1.4943   -0.0000 </r>
       <r>    1.6212   -0.0000 </r>
       <r>    2.2630   -0.0000 </r>
       <r>    2.7285    0.0000 </r>
       <r>    2.9291    0.0000 </r>
       <r>    3.4350    0.0000 </r>
       <r>    3.6596    0.0000 </r>
       <r>    3.6646    0.0000 </r>
       <r>    3.7669    0.0000 </r>
       <r>    3.9664    0.0000 </r>
       <r>    4.3494    0.0000 </r>
       <r>    4.6241    0.0000 </r>
       <r>    4.6629    0.0000 </r>
       <r>    4.9449    0.0000 </r>
       <r>    4.9964    0.0000 </r>
       <r>    5.0124    0.0000 </r>
       <r>    5.1225    0.0000 </r>
       <r>    5.2292    0.0000 </r>
       <r>    5.4862    0.0000 </r>
       <r>    5.6524    0.0000 </r>
       <r>    5.7360    0.0000 </r>
       <r>    5.8772    0.0000 </r>
       <r>    5.9239    0.0000 </r>
       <r>    6.0227    0.0000 </r>
       <r>    6.1777    0.0000 </r>
       <r>    6.2052    0.0000 </r>
       <r>    6.3187    0.0000 </r>
       <r>    6.3673    0.0000 </r>
       <r>    6.5976    0.0000 </r>
       <r>    6.7237    0.0000 </r>
       <r>    6.7279    0.0000 </r>
       <r>    6.7775    0.0000 </r>
       <r>    6.8643    0.0000 </r>
       <r>    6.9114    0.0000 </r>
       <r>    7.0477    0.0000 </r>
       <r>    7.2255    0.0000 </r>
       <r>    7.5042    0.0000 </r>
       <r>    7.5527    0.0000 </r>
       <r>    7.6070    0.0000 </r>
      </set>
      <set comment="kpoint 5">
       <r>   -8.3011    1.0000 </r>
       <r>   -7.6610    1.0000 </r>
       <r>   -7.0632    1.0000 </r>
       <r>   -6.6138    1.0000 </r>
       <r>   -6.5808    1.0000 </r>
       <r>   -6.5012    1.0000 </r>
       <r>   -6.2402    1.0000 </r>
       <r>   -6.0896    1.0000 </r>
       <r>   -5.9963    1.0000 </r>
       <r>   -5.9490    1.0000 </r>
       <r>   -5.8966    1.0000 </r>
       <r>   -5.8699    1.0000 </r>
       <r>   -5.8127    1.0000 </r>
       <r>   -5.7016    1.0000 </r>
       <r>   -5.6636    1.0000 </r>
       <r>   -5.6492    1.0000 </r>
       <r>   -5.6374    1.0000 </r>
       <r>   -5.5532    1.0000 </r>
       <r>   -5.5079    1.0000 </r>
       <r>   -5.4805    1.0000 </r>
       <r>   -5.4651    1.0000 </r>
       <r>   -5.4274    1.0000 </r>
       <r>   -5.4218    1.0000 </r>
       <r>   -5.3840    1.0000 </r>
       <r>   -5.3478    1.0000 </r>
       <r>   -5.3182    1.0000 </r>
       <r>   -5.3039    1.0000 </r>
       <r>   -5.1971    1.0000 </r>
       <r>   -5.0463    1.0000 </r>
       <r>   -5.0410    1.0000 </r>
       <r>   -5.0356    1.0000 </r>
       <r>   -5.0268    1.0000 </r>
       <r>   -5.0158    1.0000 </r>
       <r>   -4.9512    1.0000 </r>
       <r>   -4.7885    1.0000 </r>
       <r>   -4.7819    1.0000 </r>
       <r>   -4.7726    1.0000 </r>
       <r>   -4.7568    1.0000 </r>
       <r>   -4.7309    1.0000 </r>
       <r>   -4.6710    1.0000 </r>
       <r>   -4.5628    1.0000 </r>
       <r>   -4.4661    1.0000 </r>
       <r>   -4.4610    1.0000 </r>
       <r>   -4.4471    1.0000 </r>
       <r>   -4.4288    1.0000 </r>
       <r>   -4.3932    1.0000 </r>
       <r>   -4.3516    1.0000 </r>
       <r>   -4.3250    1.0000 </r>
       <r>   -4.2976    1.0000 </r>
       <r>   -4.2821    1.0000 </r>
       <r>   -4.2514    1.0000 </r>
       <r>   -4.1853    1.0000 </r>
       <r>   -4.0878    1.0000 </r>
       <r>   -4.0854    1.0000 </r>
       <r>   -4.0600    1.0000 </r>
       <r>   -4.0481    1.0000 </r>
       <r>   -3.9417    1.0000 </r>
       <r>   -3.9074    1.0000 </r>
       <r>   -3.8771    1.0000 </r>
       <r>   -3.8737    1.0000 </r>
       <r>   -3.8455    1.0000 </r>
       <r>   -3.7130    1.0000 </r>
       <r>   -3.6572    1.0000 </r>
       <r>   -3.6390    1.0000 </r>
       <r>   -3.6356    1.0000 </r>
       <r>   -3.6089    1.0000 </r>
       <r>   -3.5407    1.0000 </r>
       <r>   -3.5384    1.0000 </r>
       <r>   -3.4826    1.0000 </r>
       <r>   -3.4168    1.0000 </r>
       <r>   -3.4081    1.0000 </r>
       <r>   -3.3655    1.0000 </r>
       <r>   -3.3399    1.0000 </r>
       <r>   -3.2933    1.0000 </r>
       <r>   -3.2729    1.0000 </r>
       <r>   -3.2712    1.0000 </r>
       <r>   -3.2471    1.0000 </r>
       <r>   -3.2260    1.0000 </r>
       <r>   -3.1901    1.0000 </r>
       <r>   -3.1667    1.0000 </r>
       <r>   -3.1631    1.0000 </r>
       <r>   -3.1498    1.0000 </r>
       <r>   -3.1299    1.0000 </r>
       <r>   -3.1186    1.0000 </r>
       <r>   -3.1016    1.0000 </r>
       <r>   -3.0818    1.0000 </r>
       <r>   -3.0528    1.0000 </r>
       <r>   -2.9920    1.0000 </r>
       <r>   -2.9864    1.0000 </r>
       <r>   -2.9656    1.0000 </r>
       <r>   -2.9598    1.0000 </r>
       <r>   -2.9542    1.0000 </r>
       <r>   -2.9495    1.0000 </r>
       <r>   -2.8374    1.0000 </r>
       <r>   -2.7922    1.0000 </r>
       <r>   -2.7673    1.0000 </r>
       <r>   -2.7374    1.0000 </r>
       <r>   -2.7265    1.0000 </r>
       <r>   -2.7059    1.0000 </r>
       <r>   -2.6985    1.0000 </r>
       <r>   -2.6564    1.0000 </r>
       <r>   -2.6337    1.0000 </r>
       <r>   -2.5788    1.0000 </r>
       <r>   -2.5319    1.0000 </r>
       <r>   -2.4930    1.0000 </r>
       <r>   -2.4816    1.0000 </r>
       <r>   -2.4413    1.0000 </r>
       <r>   -2.4165    1.0000 </r>
       <r>   -2.3904    1.0000 </r>
       <r>   -2.2648    1.0000 </r>
       <r>   -2.2629    1.0000 </r>
       <r>   -2.2258    1.0000 </r>
       <r>   -2.1687    1.0000 </r>
       <r>   -2.1164    1.0000 </r>
       <r>   -2.0952    1.0000 </r>
       <r>   -2.0800    1.0000 </r>
       <r>   -2.0610    1.0000 </r>
       <r>   -2.0460    1.0000 </r>
       <r>   -2.0383    1.0000 </r>
       <r>   -2.0282    1.0000 </r>
       <r>   -1.9739    1.0000 </r>
       <r>   -1.9369    1.0000 </r>
       <r>   -1.9224    1.0000 </r>
       <r>   -1.9180    1.0000 </r>
       <r>   -1.9102    1.0000 </r>
       <r>   -1.8966    1.0000 </r>
       <r>   -1.8590    1.0000 </r>
       <r>   -1.8409    1.0000 </r>
       <r>   -1.8291    1.0000 </r>
       <r>   -1.7160    1.0000 </r>
       <r>   -1.6899    1.0000 </r>
       <r>   -1.6741    1.0000 </r>
       <r>   -1.6702    1.0000 </r>
       <r>   -1.6164    1.0000 </r>
       <r>   -1.4992    1.0000 </r>
       <r>   -1.4822    1.0000 </r>
       <r>   -1.4760    1.0000 </r>
       <r>   -1.3833    1.0000 </r>
       <r>   -1.3825    1.0000 </r>
       <r>   -1.3124    1.0000 </r>
       <r>   -1.2443    1.0000 </r>
       <r>   -1.2066    1.0000 </r>
       <r>   -1.1702    1.0000 </r>
       <r>   -1.1622    1.0000 </r>
       <r>   -1.1365    1.0000 </r>
       <r>   -1.1284    1.0000 </r>
       <r>   -1.1109    1.0000 </r>
       <r>   -1.0507    1.0000 </r>
       <r>   -1.0457    1.0000 </r>
       <r>   -1.0156    1.0000 </r>
       <r>   -0.9880    1.0000 </r>
       <r>   -0.9499    1.0000 </r>
       <r>   -0.8939    1.0000 </r>
       <r>   -0.8648    1.0000 </r>
       <r>   -0.8467    1.0000 </r>
       <r>   -0.8372    1.0000 </r>
       <r>   -0.8222    1.0000 </r>
       <r>   -0.7655    1.0000 </r>
       <r>   -0.7212    1.0000 </r>
       <r>   -0.6372    1.0000 </r>
       <r>   -0.5901    1.0000 </r>
       <r>   -0.5809    1.0000 </r>
       <r>   -0.5447    1.0000 </r>
       <r>   -0.5367    1.0000 </r>
       <r>   -0.5302    1.0000 </r>
       <r>   -0.4508    1.0000 </r>
[...]
       <r>    6.8583    0.0000 </r>
       <r>    6.8901    0.0000 </r>
       <r>    7.0555    0.0000 </r>
       <r>    7.2363    0.0000 </r>
       <r>    7.3079    0.0000 </r>
      </set>
     </set>
    </set>
   </array>
  </eigenvalues>
  <separator name="orbital magnetization" >
   <v name="MAGDIPOLOUT">      0.00000000      0.00000000      0.00000000</v>
  </separator>
  <dos>
   <i name="efermi">     -0.06526048 </i>
   <total>
    <array>
     <dimension dim="1">gridpoints</dimension>
     <dimension dim="2">spin</dimension>
     <field>energy</field>
     <field>total</field>
     <field>integrated</field>
     <set>
      <set comment="spin 1">
       <r>    -9.8764     0.0000     0.0000 </r>
       <r>    -9.8139     0.0000     0.0000 </r>
       <r>    -9.7514     0.0000     0.0000 </r>
       <r>    -9.6890    -0.0000    -0.0000 </r>
       <r>    -9.6265    -0.0000    -0.0000 </r>
       <r>    -9.5641    -0.0000    -0.0000 </r>
       <r>    -9.5016    -0.0000    -0.0000 </r>
       <r>    -9.4391    -0.0000    -0.0000 </r>
       <r>    -9.3767    -0.0000    -0.0000 </r>
       <r>    -9.3142    -0.0000    -0.0000 </r>
       <r>    -9.2518    -0.0000    -0.0000 </r>
       <r>    -9.1893    -0.0001    -0.0000 </r>
       <r>    -9.1268    -0.0014    -0.0001 </r>
       <r>    -9.0644    -0.0134    -0.0009 </r>
       <r>    -9.0019    -0.0332    -0.0030 </r>
       <r>    -8.9395     0.0915     0.0027 </r>
       <r>    -8.8770     0.3738     0.0261 </r>
       <r>    -8.8145     0.7359     0.0720 </r>
       <r>    -8.7521     2.5074     0.2286 </r>
       <r>    -8.6896     3.7806     0.4648 </r>
       <r>    -8.6271     1.6352     0.5669 </r>
       <r>    -8.5647    -0.2226     0.5530 </r>
       <r>    -8.5022     0.6211     0.5918 </r>
       <r>    -8.4398     3.1114     0.7861 </r>
       <r>    -8.3773     3.7188     1.0184 </r>
       <r>    -8.3148     3.6232     1.2447 </r>
       <r>    -8.2524     3.4759     1.4618 </r>
       <r>    -8.1899     1.1944     1.5365 </r>
       <r>    -8.1275    -0.1840     1.5250 </r>
       <r>    -8.0650    -0.3931     1.5004 </r>
       <r>    -8.0025    -0.0800     1.4954 </r>
       <r>    -7.9401     3.4523     1.7110 </r>
       <r>    -7.8776     7.5775     2.1843 </r>
       <r>    -7.8152     4.5722     2.4699 </r>
       <r>    -7.7527     0.4720     2.4994 </r>
       <r>    -7.6902     1.9265     2.6197 </r>
       <r>    -7.6278     4.0716     2.8740 </r>
       <r>    -7.5653     2.4884     3.0295 </r>
       <r>    -7.5028     2.1069     3.1611 </r>
       <r>    -7.4404     3.4514     3.3767 </r>
       <r>    -7.3779     1.9636     3.4993 </r>
       <r>    -7.3155     2.2055     3.6371 </r>
       <r>    -7.2530     7.4744     4.1039 </r>
       <r>    -7.1905    11.9446     4.8500 </r>
       <r>    -7.1281     8.9803     5.4109 </r>
       <r>    -7.0656     4.6708     5.7027 </r>
       <r>    -7.0032     4.4344     5.9796 </r>
       <r>    -6.9407     4.4127     6.2553 </r>
       <r>    -6.8782     2.1181     6.3876 </r>
       <r>    -6.8158     0.0852     6.3929 </r>
       <r>    -6.7533     1.8920     6.5110 </r>
       <r>    -6.6909     5.9109     6.8802 </r>
       <r>    -6.6284    10.7465     7.5515 </r>
       <r>    -6.5659    16.4810     8.5809 </r>
       <r>    -6.5035    15.8826     9.5729 </r>
       <r>    -6.4410    10.6249    10.2366 </r>
       <r>    -6.3785     7.7279    10.7193 </r>
       <r>    -6.3161     8.2568    11.2350 </r>
       <r>    -6.2536    15.6122    12.2102 </r>
       <r>    -6.1912    24.0012    13.7093 </r>
       <r>    -6.1287    29.2472    15.5361 </r>
       <r>    -6.0662    34.0330    17.6619 </r>
       <r>    -6.0038    33.7302    19.7687 </r>
       <r>    -5.9413    33.8707    21.8843 </r>
       <r>    -5.8789    35.9617    24.1305 </r>
       <r>    -5.8164    32.5784    26.1654 </r>
       <r>    -5.7539    23.1664    27.6124 </r>
       <r>    -5.6915    23.8889    29.1045 </r>
       <r>    -5.6290    36.7551    31.4003 </r>
       <r>    -5.5666    46.3565    34.2957 </r>
       <r>    -5.5041    47.6378    37.2713 </r>
       <r>    -5.4416    50.4607    40.4231 </r>
       <r>    -5.3792    60.5792    44.2069 </r>
       <r>    -5.3167    64.2372    48.2193 </r>
       <r>    -5.2542    54.8958    51.6481 </r>
       <r>    -5.1918    48.4208    54.6725 </r>
       <r>    -5.1293    47.1067    57.6149 </r>
       <r>    -5.0669    52.5200    60.8953 </r>
       <r>    -5.0044    70.9410    65.3264 </r>
       <r>    -4.9419    60.8645    69.1280 </r>
       <r>    -4.8795    31.7939    71.1139 </r>
       <r>    -4.8170    28.9014    72.9191 </r>
       <r>    -4.7546    42.5598    75.5775 </r>
       <r>    -4.6921    36.0872    77.8315 </r>
       <r>    -4.6296    19.4813    79.0483 </r>
       <r>    -4.5672    24.2452    80.5627 </r>
       <r>    -4.5047    45.5036    83.4049 </r>
       <r>    -4.4423    61.7516    87.2620 </r>
       <r>    -4.3798    61.0012    91.0722 </r>
       <r>    -4.3173    49.2604    94.1491 </r>
       <r>    -4.2549    43.4379    96.8623 </r>
       <r>    -4.1924    44.1992    99.6230 </r>
       <r>    -4.1299    50.3928   102.7706 </r>
       <r>    -4.0675    59.5679   106.4913 </r>
       <r>    -4.0050    52.6707   109.7811 </r>
       <r>    -3.9426    43.6488   112.5075 </r>
       <r>    -3.8801    43.3337   115.2141 </r>
       <r>    -3.8176    39.3475   117.6718 </r>
       <r>    -3.7552    36.6689   119.9622 </r>
       <r>    -3.6927    49.2378   123.0377 </r>
       <r>    -3.6303    63.0896   126.9783 </r>
       <r>    -3.5678    60.7927   130.7755 </r>
       <r>    -3.5053    56.7310   134.3190 </r>
       <r>    -3.4429    61.5142   138.1612 </r>
       <r>    -3.3804    72.2148   142.6718 </r>
       <r>    -3.3180    77.2914   147.4995 </r>
       <r>    -3.2555    72.4098   152.0223 </r>
       <r>    -3.1930    66.1705   156.1554 </r>
       <r>    -3.1306    77.2108   160.9781 </r>
       <r>    -3.0681    86.8432   166.4024 </r>
       <r>    -3.0056    79.0510   171.3400 </r>
       <r>    -2.9432    76.7792   176.1357 </r>
       <r>    -2.8807    76.0746   180.8874 </r>
       <r>    -2.8183    78.2909   185.7776 </r>
       <r>    -2.7558    95.6286   191.7507 </r>
       <r>    -2.6933   107.0228   198.4354 </r>
       <r>    -2.6309    91.8359   204.1716 </r>
       <r>    -2.5684    67.3582   208.3789 </r>
       <r>    -2.5060    64.2147   212.3898 </r>
       <r>    -2.4435    66.2610   216.5285 </r>
       <r>    -2.3810    52.8367   219.8288 </r>
       <r>    -2.3186    35.7074   222.0591 </r>
       <r>    -2.2561    30.4037   223.9581 </r>
       <r>    -2.1937    29.4104   225.7951 </r>
       <r>    -2.1312    35.4227   228.0077 </r>
       <r>    -2.0687    57.4167   231.5940 </r>
       <r>    -2.0063    81.3864   236.6775 </r>
       <r>    -1.9438    92.0028   242.4241 </r>
       <r>    -1.8813    83.6230   247.6473 </r>
       <r>    -1.8189    64.4878   251.6752 </r>
       <r>    -1.7564    49.1522   254.7453 </r>
       <r>    -1.6940    43.4305   257.4581 </r>
       <r>    -1.6315    42.2023   260.0941 </r>
       <r>    -1.5690    49.4750   263.1843 </r>
       <r>    -1.5066    63.1363   267.1279 </r>
       <r>    -1.4441    64.0844   271.1307 </r>
       <r>    -1.3817    57.6498   274.7316 </r>
       <r>    -1.3192    55.8376   278.2192 </r>
       <r>    -1.2567    51.3613   281.4273 </r>
       <r>    -1.1943    53.2804   284.7553 </r>
       <r>    -1.1318    68.2997   289.0213 </r>
       <r>    -1.0694    80.9182   294.0756 </r>
       <r>    -1.0069    85.2292   299.3991 </r>
       <r>    -0.9444    74.7648   304.0690 </r>
       <r>    -0.8820    58.4086   307.7173 </r>
       <r>    -0.8195    54.4938   311.1210 </r>
       <r>    -0.7570    50.0479   314.2471 </r>
       <r>    -0.6946    43.3013   316.9517 </r>
       <r>    -0.6321    52.1455   320.2088 </r>
       <r>    -0.5697    65.6109   324.3069 </r>
       <r>    -0.5072    61.7669   328.1649 </r>
       <r>    -0.4447    58.7367   331.8337 </r>
       <r>    -0.3823    66.2111   335.9693 </r>
       <r>    -0.3198    82.8994   341.1473 </r>
       <r>    -0.2574    92.7768   346.9422 </r>
       <r>    -0.1949    72.7880   351.4887 </r>
       <r>    -0.1324    59.6684   355.2156 </r>
       <r>    -0.0700    85.1994   360.5373 </r>
       <r>    -0.0075    91.5660   366.2566 </r>
       <r>     0.0549    53.4594   369.5957 </r>
       <r>     0.1174    37.6191   371.9454 </r>
       <r>     0.1799    54.3335   375.3392 </r>
       <r>     0.2423    51.0495   378.5278 </r>
       <r>     0.3048    40.4606   381.0550 </r>
       <r>     0.3673    36.5078   383.3353 </r>
       <r>     0.4297    24.5510   384.8688 </r>
       <r>     0.4922    12.6554   385.6593 </r>
       <r>     0.5546     6.2882   386.0520 </r>
       <r>     0.6171     4.7305   386.3475 </r>
       <r>     0.6796     6.3504   386.7442 </r>
       <r>     0.7420     9.8807   387.3613 </r>
       <r>     0.8045    12.1270   388.1188 </r>
       <r>     0.8669     9.8795   388.7359 </r>
       <r>     0.9294     9.5393   389.3317 </r>
       <r>     0.9919    12.7091   390.1255 </r>
       <r>     1.0543     9.7922   390.7372 </r>
       <r>     1.1168     4.9914   391.0489 </r>
       <r>     1.1792     6.2382   391.4386 </r>
       <r>     1.2417    10.3392   392.0844 </r>
       <r>     1.3042    11.4427   392.7991 </r>
       <r>     1.3666    11.0991   393.4923 </r>
       <r>     1.4291     8.1793   394.0032 </r>
       <r>     1.4916    14.8929   394.9335 </r>
       <r>     1.5540    27.5130   396.6520 </r>
       <r>     1.6165    26.1891   398.2878 </r>
       <r>     1.6789    18.5700   399.4477 </r>
       <r>     1.7414    13.6717   400.3016 </r>
       <r>     1.8039     7.6760   400.7811 </r>
       <r>     1.8663     4.1392   401.0396 </r>
       <r>     1.9288     5.0202   401.3532 </r>
       <r>     1.9912     6.4557   401.7564 </r>
       <r>     2.0537     5.1893   402.0805 </r>
       <r>     2.1162     3.3045   402.2869 </r>
       <r>     2.1786     5.5281   402.6322 </r>
       <r>     2.2411    10.4753   403.2865 </r>
       <r>     2.3035    11.9142   404.0307 </r>
       <r>     2.3660    10.9146   404.7124 </r>
       <r>     2.4285    17.0947   405.7802 </r>
       <r>     2.4909    23.3631   407.2395 </r>
       <r>     2.5534    15.2039   408.1891 </r>
       <r>     2.6159     6.7881   408.6131 </r>
       <r>     2.6783     7.5371   409.0839 </r>
       <r>     2.7408    12.3443   409.8549 </r>
       <r>     2.8032    15.8459   410.8447 </r>
       <r>     2.8657    14.4380   411.7465 </r>
       <r>     2.9282    12.8492   412.5491 </r>
       <r>     2.9906    11.7440   413.2826 </r>
       <r>     3.0531    10.4901   413.9378 </r>
       <r>     3.1155    14.0181   414.8134 </r>
       <r>     3.1780    13.1953   415.6376 </r>
       <r>     3.2405    10.0618   416.2661 </r>
       <r>     3.3029    10.8868   416.9461 </r>
       <r>     3.3654     8.3481   417.4675 </r>
       <r>     3.4278     6.0832   417.8475 </r>
       <r>     3.4903     6.8789   418.2771 </r>
       <r>     3.5528     5.7428   418.6358 </r>
       <r>     3.6152     8.8751   419.1902 </r>
       <r>     3.6777    17.6133   420.2903 </r>
       <r>     3.7402    20.6903   421.5827 </r>
       <r>     3.8026    14.9977   422.5195 </r>
       <r>     3.8651     7.2132   422.9700 </r>
       <r>     3.9275     6.5942   423.3819 </r>
       <r>     3.9900    10.5574   424.0413 </r>
       <r>     4.0525    11.2721   424.7454 </r>
       <r>     4.1149     6.5258   425.1530 </r>
       <r>     4.1774     0.9155   425.2102 </r>
       <r>     4.2398     0.6716   425.2521 </r>
       <r>     4.3023     4.9276   425.5599 </r>
       <r>     4.3648    14.3464   426.4560 </r>
       <r>     4.4272    26.5129   428.1120 </r>
       <r>     4.4897    24.8230   429.6625 </r>
       <r>     4.5521    11.6929   430.3928 </r>
       <r>     4.6146     6.6447   430.8079 </r>
       <r>     4.6771     8.2443   431.3228 </r>
       <r>     4.7395     9.9175   431.9423 </r>
       <r>     4.8020    10.3334   432.5877 </r>
       <r>     4.8645     8.8461   433.1403 </r>
       <r>     4.9269    10.2620   433.7812 </r>
       <r>     4.9894    13.7968   434.6430 </r>
       <r>     5.0518    13.1489   435.4643 </r>
       <r>     5.1143    12.2751   436.2310 </r>
       <r>     5.1768    10.4973   436.8867 </r>
       <r>     5.2392     8.8881   437.4418 </r>
       <r>     5.3017    11.1895   438.1408 </r>
       <r>     5.3641     8.6807   438.6830 </r>
       <r>     5.4266     5.6037   439.0330 </r>
       <r>     5.4891    13.3687   439.8680 </r>
       <r>     5.5515    22.1035   441.2486 </r>
       <r>     5.6140    21.6699   442.6021 </r>
       <r>     5.6765    20.8675   443.9055 </r>
       <r>     5.7389    24.8505   445.4577 </r>
       <r>     5.8014    21.8090   446.8199 </r>
       <r>     5.8638    15.3598   447.7793 </r>
       <r>     5.9263    18.2706   448.9205 </r>
       <r>     5.9888    26.7048   450.5885 </r>
       <r>     6.0512    30.7463   452.5090 </r>
       <r>     6.1137    24.5492   454.0424 </r>
       <r>     6.1761    16.4404   455.0693 </r>
       <r>     6.2386    16.0436   456.0713 </r>
       <r>     6.3011    20.0130   457.3214 </r>
       <r>     6.3635    29.0067   459.1332 </r>
       <r>     6.4260    26.3695   460.7802 </r>
       <r>     6.4884    13.4434   461.6199 </r>
       <r>     6.5509    15.6524   462.5976 </r>
       <r>     6.6134    27.5004   464.3153 </r>
       <r>     6.6758    29.9214   466.1842 </r>
       <r>     6.7383    27.4412   467.8982 </r>
       <r>     6.8008    21.5484   469.2442 </r>
       <r>     6.8632    20.2972   470.5120 </r>
       <r>     6.9257    21.3732   471.8470 </r>
       <r>     6.9881    12.4741   472.6261 </r>
       <r>     7.0506     9.9836   473.2497 </r>
       <r>     7.1131    18.3093   474.3933 </r>
       <r>     7.1755    21.9975   475.7673 </r>
       <r>     7.2380    20.8458   477.0694 </r>
       <r>     7.3004    15.6994   478.0500 </r>
       <r>     7.3629     6.5283   478.4577 </r>
       <r>     7.4254     0.7953   478.5074 </r>
       <r>     7.4878     2.8042   478.6825 </r>
       <r>     7.5503     7.6583   479.1609 </r>
       <r>     7.6127     8.0587   479.6643 </r>
       <r>     7.6752     3.9834   479.9131 </r>
       <r>     7.7377     0.4448   479.9408 </r>
       <r>     7.8001    -0.1432   479.9319 </r>
       <r>     7.8626     0.4658   479.9610 </r>
       <r>     7.9251     0.5395   479.9947 </r>
       <r>     7.9875     0.1302   480.0028 </r>
       <r>     8.0500    -0.0304   480.0009 </r>
       <r>     8.1124    -0.0133   480.0001 </r>
       <r>     8.1749    -0.0014   480.0000 </r>
       <r>     8.2374    -0.0001   480.0000 </r>
       <r>     8.2998    -0.0000   480.0000 </r>
       <r>     8.3623    -0.0000   480.0000 </r>
       <r>     8.4247    -0.0000   480.0000 </r>
       <r>     8.4872    -0.0000   480.0000 </r>
       <r>     8.5497     0.0000   480.0000 </r>
       <r>     8.6121     0.0000   480.0000 </r>
       <r>     8.6746     0.0000   480.0000 </r>
       <r>     8.7370     0.0000   480.0000 </r>
       <r>     8.7995     0.0000   480.0000 </r>
       <r>     8.8620     0.0000   480.0000 </r>
      </set>
     </set>
    </array>
   </total>
  </dos>
 </calculation>
 <structure name="finalpos" >
  <crystal>
   <varray name="basis" >
    <v>       8.46831000       0.00000000       0.00000000 </v>
    <v>       4.23415500       7.33377159       0.00000000 </v>
    <v>       0.00000000       0.00000000      24.96566199 </v>
   </varray>
   <i name="volume">   1550.48373159 </i>
   <varray name="rec_basis" >
    <v>       0.11808732      -0.06817774       0.00000000 </v>
    <v>       0.00000000       0.13635549       0.00000000 </v>
    <v>       0.00000000       0.00000000       0.04005502 </v>
   </varray>
  </crystal>
  <varray name="positions" >
   <v>       0.00000000       0.00000000       0.34046764 </v>
   <v>       0.33400137       0.00000000       0.34046764 </v>
   <v>       0.66800274       0.00000000       0.34046764 </v>
   <v>       0.00000000       0.33400137       0.34046764 </v>
   <v>       0.33400137       0.33400137       0.34046764 </v>
   <v>       0.66800274       0.33400137       0.34046764 </v>
   <v>       0.00000000       0.66800274       0.34046764 </v>
   <v>       0.33400137       0.66800274       0.34046764 </v>
   <v>       0.66800274       0.66800274       0.34046764 </v>
   <v>       0.11133379       0.11133379       0.43297074 </v>
   <v>       0.44533516       0.11133379       0.43297074 </v>
   <v>       0.77933653       0.11133379       0.43297074 </v>
   <v>       0.11133379       0.44533516       0.43297074 </v>
   <v>       0.44533516       0.44533516       0.43297074 </v>
   <v>       0.77933653       0.44533516       0.43297074 </v>
   <v>       0.11133379       0.77933653       0.43297074 </v>
   <v>       0.44533516       0.77933653       0.43297074 </v>
   <v>       0.77933653       0.77933653       0.43297074 </v>
   <v>       0.89354089       0.22401664       0.52591748 </v>
   <v>       0.22567359       0.22254926       0.52496314 </v>
   <v>       0.55972032       0.22262810       0.52424776 </v>
   <v>       0.89392850       0.55330616       0.52594206 </v>
   <v>       0.22599906       0.55576738       0.52433934 </v>
   <v>       0.55959208       0.55592327       0.52446211 </v>
   <v>       0.89318920       0.88917478       0.52443294 </v>
   <v>       0.22611466       0.88936919       0.52452353 </v>
   <v>       0.56008571       0.88860491       0.52435984 </v>
   <v>       0.00627720       0.99887371       0.61780706 </v>
   <v>       0.34186818       0.99767048       0.61762241 </v>
   <v>       0.67347096       0.99938675       0.61764022 </v>
   <v>       0.01038951       0.33064560       0.62296860 </v>
   <v>       0.34172343       0.33268111       0.61752549 </v>
   <v>       0.67323583       0.33250397       0.61788049 </v>
   <v>       0.00622971       0.66692960       0.61767437 </v>
   <v>       0.34026512       0.66583044       0.61738994 </v>
   <v>       0.67318123       0.66641704       0.61790225 </v>
   <v>       0.06494405       0.30426085       0.68312697 </v>
  </varray>
  <varray name="selective"  type="logical" >
   <v type="logical" >  F  F  F </v>
   <v type="logical" >  F  F  F </v>
   <v type="logical" >  F  F  F </v>
   <v type="logical" >  F  F  F </v>
   <v type="logical" >  F  F  F </v>
   <v type="logical" >  F  F  F </v>
   <v type="logical" >  F  F  F </v>
   <v type="logical" >  F  F  F </v>
   <v type="logical" >  F  F  F </v>
   <v type="logical" >  F  F  F </v>
   <v type="logical" >  F  F  F </v>
   <v type="logical" >  F  F  F </v>
   <v type="logical" >  F  F  F </v>
   <v type="logical" >  F  F  F </v>
   <v type="logical" >  F  F  F </v>
   <v type="logical" >  F  F  F </v>
   <v type="logical" >  F  F  F </v>
   <v type="logical" >  F  F  F </v>
   <v type="logical" >  T  T  T </v>
   <v type="logical" >  T  T  T </v>
   <v type="logical" >  T  T  T </v>
   <v type="logical" >  T  T  T </v>
   <v type="logical" >  T  T  T </v>
   <v type="logical" >  T  T  T </v>
   <v type="logical" >  T  T  T </v>
   <v type="logical" >  T  T  T </v>
   <v type="logical" >  T  T  T </v>
   <v type="logical" >  T  T  T </v>
   <v type="logical" >  T  T  T </v>
   <v type="logical" >  T  T  T </v>
   <v type="logical" >  T  T  T </v>
   <v type="logical" >  T  T  T </v>
   <v type="logical" >  T  T  T </v>
   <v type="logical" >  T  T  T </v>
   <v type="logical" >  T  T  T </v>
   <v type="logical" >  T  T  T </v>
   <v type="logical" >  T  T  T </v>
  </varray>
  <nose>
   <v>      -3.00000000       0.00000000       0.00010000       0.00010000 </v>
  </nose>
 </structure>
</modeling>
