unknown system                          
           1
     8.468310    0.000000    0.000000
     4.234155    7.333772    0.000000
     0.000000    0.000000   24.965662
   Pt   H 
    36     1
Direct configuration=     1
   0.00000000  0.00000000  0.34046764
   0.33400137  0.00000000  0.34046764
   0.66800274  0.00000000  0.34046764
   0.00000000  0.33400137  0.34046764
   0.33400137  0.33400137  0.34046764
   0.66800274  0.33400137  0.34046764
   0.00000000  0.66800274  0.34046764
   0.33400137  0.66800274  0.34046764
   0.66800274  0.66800274  0.34046764
   0.11133379  0.11133379  0.43297074
   0.44533516  0.11133379  0.43297074
   0.77933653  0.11133379  0.43297074
   0.11133379  0.44533516  0.43297074
   0.44533516  0.44533516  0.43297074
   0.77933653  0.44533516  0.43297074
   0.11133379  0.77933653  0.43297074
   0.44533516  0.77933653  0.43297074
   0.77933653  0.77933653  0.43297074
   0.89354089  0.22401664  0.52591748
   0.22567359  0.22254926  0.52496314
   0.55972032  0.22262810  0.52424776
   0.89392850  0.55330616  0.52594206
   0.22599906  0.55576738  0.52433934
   0.55959208  0.55592327  0.52446211
   0.89318920  0.88917478  0.52443294
   0.22611466  0.88936919  0.52452353
   0.56008571  0.88860491  0.52435984
   0.00627720  0.99887371  0.61780706
   0.34186818  0.99767048  0.61762241
   0.67347096  0.99938675  0.61764022
   0.01038951  0.33064560  0.62296860
   0.34172343  0.33268111  0.61752549
   0.67323583  0.33250397  0.61788049
   0.00622971  0.66692960  0.61767437
   0.34026512  0.66583044  0.61738994
   0.67318123  0.66641704  0.61790225
   0.06494405  0.30426085  0.68312697
