  37  37   0   0
  0.4190497E+02  0.8468310E-09  0.8468310E-09  0.2496566E-08  0.5000000E-15
  1.000000000000000E-004
  CAR 
 unknown system                          
      8.89737908     -9.88718454  301     -0.06339152      1.00000000
     -9.887  0.0000E+00  0.0000E+00
     -9.825  0.0000E+00  0.0000E+00
     -9.762  0.0000E+00  0.0000E+00
     -9.699 -0.6616E-28 -0.4143E-29
     -9.637 -0.1078E-23 -0.6749E-25
     -9.574 -0.7959E-20 -0.4984E-21
     -9.511 -0.2660E-16 -0.1666E-17
     -9.449 -0.3891E-13 -0.2438E-14
     -9.386 -0.2627E-10 -0.1648E-11
     -9.324 -0.7928E-08 -0.4981E-09
     -9.261 -0.1060E-05 -0.6687E-07
     -9.198 -0.6174E-04 -0.3933E-05
     -9.136 -0.1512E-02 -0.9859E-04
     -9.073 -0.1415E-01 -0.9845E-03
     -9.011 -0.3277E-01 -0.3036E-02
     -8.948  0.1009E+00  0.3283E-02
     -8.885  0.3822E+00  0.2721E-01
     -8.823  0.7728E+00  0.7560E-01
     -8.760  0.2611E+01  0.2391E+00
     -8.697  0.3748E+01  0.4738E+00
     -8.635  0.1500E+01  0.5677E+00
     -8.572 -0.2468E+00  0.5522E+00
     -8.510  0.7408E+00  0.5986E+00
     -8.447  0.3222E+01  0.8003E+00
     -8.384  0.3692E+01  0.1032E+01
     -8.322  0.3654E+01  0.1260E+01
     -8.259  0.3377E+01  0.1472E+01
     -8.197  0.1040E+01  0.1537E+01
     -8.134 -0.2149E+00  0.1523E+01
     -8.071 -0.4042E+00  0.1498E+01
     -8.009  0.4718E-01  0.1501E+01
     -7.946  0.3879E+01  0.1744E+01
     -7.883  0.7611E+01  0.2221E+01
     -7.821  0.4107E+01  0.2478E+01
     -7.758  0.3936E+00  0.2502E+01
     -7.696  0.2188E+01  0.2639E+01
     -7.633  0.4032E+01  0.2892E+01
     -7.570  0.2227E+01  0.3031E+01
     -7.508  0.2001E+01  0.3157E+01
     -7.445  0.3443E+01  0.3372E+01
     -7.383  0.2095E+01  0.3503E+01
     -7.320  0.2653E+01  0.3669E+01
     -7.257  0.7954E+01  0.4167E+01
     -7.195  0.1176E+02  0.4904E+01
     -7.132  0.8325E+01  0.5425E+01
     -7.069  0.4501E+01  0.5707E+01
     -7.007  0.4741E+01  0.6004E+01
     -6.944  0.4456E+01  0.6283E+01
     -6.882  0.1772E+01  0.6394E+01
     -6.819  0.5733E-02  0.6394E+01
     -6.756  0.2034E+01  0.6522E+01
     -6.694  0.6206E+01  0.6910E+01
     -6.631  0.1189E+02  0.7655E+01
     -6.569  0.1708E+02  0.8724E+01
     -6.506  0.1492E+02  0.9658E+01
     -6.443  0.9867E+01  0.1028E+02
     -6.381  0.7551E+01  0.1075E+02
     -6.318  0.9548E+01  0.1135E+02
     -6.256  0.1757E+02  0.1245E+02
     -6.193  0.2357E+02  0.1392E+02
     -6.130  0.2855E+02  0.1571E+02
     -6.068  0.3465E+02  0.1788E+02
     -6.005  0.3446E+02  0.2004E+02
     -5.942  0.3444E+02  0.2219E+02
     -5.880  0.3564E+02  0.2443E+02
     -5.817  0.3102E+02  0.2637E+02
     -5.755  0.2237E+02  0.2777E+02
     -5.692  0.2516E+02  0.2934E+02
     -5.629  0.3819E+02  0.3173E+02
     -5.567  0.4722E+02  0.3469E+02
     -5.504  0.4795E+02  0.3769E+02
     -5.442  0.5094E+02  0.4088E+02
     -5.379  0.6106E+02  0.4471E+02
     -5.316  0.6335E+02  0.4867E+02
     -5.254  0.5364E+02  0.5203E+02
     -5.191  0.4779E+02  0.5502E+02
     -5.128  0.4662E+02  0.5794E+02
     -5.066  0.5430E+02  0.6134E+02
     -5.003  0.7200E+02  0.6585E+02
     -4.941  0.5760E+02  0.6946E+02
     -4.878  0.2935E+02  0.7130E+02
     -4.815  0.3006E+02  0.7318E+02
     -4.753  0.4352E+02  0.7590E+02
     -4.690  0.3415E+02  0.7804E+02
     -4.628  0.1839E+02  0.7919E+02
     -4.565  0.2568E+02  0.8080E+02
     -4.502  0.4673E+02  0.8373E+02
     -4.440  0.6189E+02  0.8760E+02
     -4.377  0.6011E+02  0.9137E+02
     -4.314  0.4858E+02  0.9441E+02
     -4.252  0.4323E+02  0.9711E+02
     -4.189  0.4430E+02  0.9989E+02
     -4.127  0.5253E+02  0.1032E+03
     -4.064  0.5984E+02  0.1069E+03
     -4.001  0.5053E+02  0.1101E+03
     -3.939  0.4355E+02  0.1128E+03
     -3.876  0.4355E+02  0.1155E+03
     -3.814  0.3864E+02  0.1180E+03
     -3.751  0.3663E+02  0.1203E+03
     -3.688  0.5099E+02  0.1234E+03
     -3.626  0.6266E+02  0.1274E+03
     -3.563  0.5879E+02  0.1311E+03
     -3.500  0.5610E+02  0.1346E+03
     -3.438  0.6227E+02  0.1385E+03
     -3.375  0.7440E+02  0.1431E+03
     -3.313  0.7808E+02  0.1480E+03
     -3.250  0.7197E+02  0.1525E+03
     -3.187  0.6747E+02  0.1567E+03
     -3.125  0.8002E+02  0.1618E+03
     -3.062  0.8704E+02  0.1672E+03
     -3.000  0.7893E+02  0.1721E+03
     -2.937  0.7793E+02  0.1770E+03
     -2.874  0.7432E+02  0.1817E+03
     -2.812  0.7802E+02  0.1866E+03
     -2.749  0.9809E+02  0.1927E+03
     -2.686  0.1067E+03  0.1994E+03
     -2.624  0.8821E+02  0.2049E+03
     -2.561  0.6479E+02  0.2090E+03
     -2.499  0.6502E+02  0.2130E+03
     -2.436  0.6586E+02  0.2172E+03
     -2.373  0.4924E+02  0.2202E+03
     -2.311  0.3283E+02  0.2223E+03
     -2.248  0.2998E+02  0.2242E+03
     -2.186  0.2976E+02  0.2260E+03
     -2.123  0.3731E+02  0.2284E+03
     -2.060  0.5975E+02  0.2321E+03
     -1.998  0.8363E+02  0.2374E+03
     -1.935  0.9324E+02  0.2432E+03
     -1.872  0.8163E+02  0.2483E+03
     -1.810  0.6116E+02  0.2521E+03
     -1.747  0.4805E+02  0.2551E+03
     -1.685  0.4306E+02  0.2578E+03
     -1.622  0.4226E+02  0.2605E+03
     -1.559  0.5212E+02  0.2638E+03
     -1.497  0.6446E+02  0.2678E+03
     -1.434  0.6269E+02  0.2717E+03
     -1.372  0.5748E+02  0.2753E+03
     -1.309  0.5550E+02  0.2788E+03
     -1.246  0.5004E+02  0.2819E+03
     -1.184  0.5436E+02  0.2853E+03
     -1.121  0.7158E+02  0.2898E+03
     -1.058  0.8257E+02  0.2950E+03
     -0.996  0.8420E+02  0.3002E+03
     -0.933  0.7128E+02  0.3047E+03
     -0.871  0.5708E+02  0.3083E+03
     -0.808  0.5446E+02  0.3117E+03
     -0.745  0.4840E+02  0.3147E+03
     -0.683  0.4287E+02  0.3174E+03
     -0.620  0.5499E+02  0.3209E+03
     -0.558  0.6664E+02  0.3250E+03
     -0.495  0.6045E+02  0.3288E+03
     -0.432  0.5887E+02  0.3325E+03
     -0.370  0.6785E+02  0.3367E+03
     -0.307  0.8558E+02  0.3421E+03
     -0.244  0.9133E+02  0.3478E+03
     -0.182  0.6799E+02  0.3521E+03
     -0.119  0.6195E+02  0.3560E+03
     -0.057  0.9134E+02  0.3617E+03
      0.006  0.8720E+02  0.3671E+03
      0.069  0.4560E+02  0.3700E+03
      0.131  0.3916E+02  0.3724E+03
      0.194  0.5699E+02  0.3760E+03
      0.256  0.4900E+02  0.3791E+03
      0.319  0.3975E+02  0.3816E+03
      0.382  0.3472E+02  0.3837E+03
      0.444  0.2154E+02  0.3851E+03
      0.507  0.1050E+02  0.3858E+03
      0.570  0.5325E+01  0.3861E+03
      0.632  0.4972E+01  0.3864E+03
      0.695  0.6739E+01  0.3868E+03
      0.757  0.1062E+02  0.3875E+03
      0.820  0.1264E+02  0.3883E+03
      0.883  0.9440E+01  0.3889E+03
      0.945  0.1005E+02  0.3895E+03
      1.008  0.1249E+02  0.3903E+03
      1.070  0.7858E+01  0.3908E+03
      1.133  0.4595E+01  0.3911E+03
      1.196  0.7790E+01  0.3915E+03
      1.258  0.1139E+02  0.3923E+03
      1.321  0.1184E+02  0.3930E+03
      1.384  0.1039E+02  0.3937E+03
      1.446  0.7989E+01  0.3942E+03
      1.509  0.1819E+02  0.3953E+03
      1.571  0.2887E+02  0.3971E+03
      1.634  0.2425E+02  0.3986E+03
      1.697  0.1726E+02  0.3997E+03
      1.759  0.1241E+02  0.4005E+03
      1.822  0.5604E+01  0.4008E+03
      1.884  0.3790E+01  0.4011E+03
      1.947  0.5770E+01  0.4014E+03
      2.010  0.6457E+01  0.4018E+03
      2.072  0.4447E+01  0.4021E+03
      2.135  0.3154E+01  0.4023E+03
      2.198  0.6164E+01  0.4027E+03
      2.260  0.1114E+02  0.4034E+03
      2.323  0.1266E+02  0.4042E+03
      2.385  0.1291E+02  0.4050E+03
      2.448  0.2008E+02  0.4062E+03
      2.511  0.2193E+02  0.4076E+03
      2.573  0.1149E+02  0.4083E+03
      2.636  0.6277E+01  0.4087E+03
      2.698  0.8332E+01  0.4093E+03
      2.761  0.1324E+02  0.4101E+03
      2.824  0.1597E+02  0.4111E+03
      2.886  0.1375E+02  0.4119E+03
      2.949  0.1244E+02  0.4127E+03
      3.012  0.1085E+02  0.4134E+03
      3.074  0.1178E+02  0.4141E+03
      3.137  0.1505E+02  0.4151E+03
      3.199  0.1178E+02  0.4158E+03
      3.262  0.9983E+01  0.4164E+03
      3.325  0.1059E+02  0.4171E+03
      3.387  0.6776E+01  0.4175E+03
      3.450  0.5410E+01  0.4179E+03
      3.512  0.7070E+01  0.4183E+03
      3.575  0.6990E+01  0.4188E+03
      3.638  0.1184E+02  0.4195E+03
      3.700  0.1947E+02  0.4207E+03
      3.763  0.1973E+02  0.4219E+03
      3.826  0.1239E+02  0.4227E+03
      3.888  0.5760E+01  0.4231E+03
      3.951  0.6856E+01  0.4235E+03
      4.013  0.1103E+02  0.4242E+03
      4.076  0.1087E+02  0.4249E+03
      4.139  0.4935E+01  0.4252E+03
      4.201  0.4488E+00  0.4252E+03
      4.264  0.1496E+01  0.4253E+03
      4.326  0.5770E+01  0.4257E+03
      4.389  0.1779E+02  0.4268E+03
      4.452  0.2957E+02  0.4286E+03
      4.514  0.2200E+02  0.4300E+03
      4.577  0.8735E+01  0.4306E+03
      4.640  0.6259E+01  0.4310E+03
      4.702  0.8423E+01  0.4315E+03
      4.765  0.1049E+02  0.4321E+03
      4.827  0.1039E+02  0.4328E+03
      4.890  0.8159E+01  0.4333E+03
      4.953  0.1079E+02  0.4340E+03
      5.015  0.1472E+02  0.4349E+03
      5.078  0.1231E+02  0.4357E+03
      5.140  0.1180E+02  0.4364E+03
      5.203  0.1056E+02  0.4371E+03
      5.266  0.1008E+02  0.4377E+03
      5.328  0.1108E+02  0.4384E+03
      5.391  0.6462E+01  0.4388E+03
      5.454  0.6988E+01  0.4392E+03
      5.516  0.1819E+02  0.4404E+03
      5.579  0.2395E+02  0.4419E+03
      5.641  0.2018E+02  0.4431E+03
      5.704  0.2142E+02  0.4445E+03
      5.767  0.2503E+02  0.4461E+03
      5.829  0.1899E+02  0.4472E+03
      5.892  0.1480E+02  0.4482E+03
      5.954  0.2092E+02  0.4495E+03
      6.017  0.2933E+02  0.4513E+03
      6.080  0.2982E+02  0.4532E+03
      6.142  0.1931E+02  0.4544E+03
      6.205  0.1331E+02  0.4552E+03
      6.268  0.1754E+02  0.4563E+03
      6.330  0.2615E+02  0.4580E+03
      6.393  0.2956E+02  0.4598E+03
      6.455  0.1841E+02  0.4610E+03
      6.518  0.1175E+02  0.4617E+03
      6.581  0.2170E+02  0.4631E+03
      6.643  0.3085E+02  0.4650E+03
      6.706  0.3068E+02  0.4669E+03
      6.768  0.2599E+02  0.4685E+03
      6.831  0.1627E+02  0.4696E+03
      6.894  0.1605E+02  0.4706E+03
      6.956  0.2045E+02  0.4718E+03
      7.019  0.1387E+02  0.4727E+03
      7.082  0.1173E+02  0.4734E+03
      7.144  0.1965E+02  0.4747E+03
      7.207  0.2460E+02  0.4762E+03
      7.269  0.2172E+02  0.4776E+03
      7.332  0.1206E+02  0.4783E+03
      7.395  0.2790E+01  0.4785E+03
      7.457  0.8404E+00  0.4786E+03
      7.520  0.4889E+01  0.4789E+03
      7.582  0.7793E+01  0.4794E+03
      7.645  0.6473E+01  0.4798E+03
      7.708  0.2747E+01  0.4799E+03
      7.770  0.1070E+00  0.4799E+03
      7.833 -0.1081E+00  0.4799E+03
      7.896  0.4867E+00  0.4800E+03
      7.958  0.5567E+00  0.4800E+03
      8.021  0.1430E+00  0.4800E+03
      8.083 -0.2966E-01  0.4800E+03
      8.146 -0.1406E-01  0.4800E+03
      8.209 -0.1511E-02  0.4800E+03
      8.271 -0.6174E-04  0.4800E+03
      8.334 -0.1060E-05  0.4800E+03
      8.396 -0.7928E-08  0.4800E+03
      8.459 -0.2627E-10  0.4800E+03
      8.522 -0.3887E-13  0.4800E+03
      8.584  0.0000E+00  0.4800E+03
      8.647  0.0000E+00  0.4800E+03
      8.710  0.0000E+00  0.4800E+03
      8.772  0.0000E+00  0.4800E+03
      8.835  0.0000E+00  0.4800E+03
      8.897  0.0000E+00  0.4800E+03
