   37   37    1    1
  0.4190497E+02  0.8468310E-09  0.8468310E-09  0.2496566E-08  0.5000000E-15
  1.000000000000000E-004
  CAR 
 unknown system                          
    361     13    240
 
  0.1276756E-14  0.1276756E-14  0.1276756E-14  0.4000000E-01
      1         -8.887185   1.000000
      2         -7.617673   1.000000
      3         -6.562931   1.000000
      4         -6.492214   1.000000
      5         -6.474559   1.000000
      6         -6.464339   1.000000
      7         -6.455741   1.000000
      8         -6.454066   1.000000
      9         -6.444717   1.000000
     10         -6.438607   1.000000
     11         -6.015686   1.000000
     12         -5.914684   1.000000
     13         -5.912460   1.000000
     14         -5.907526   1.000000
     15         -5.901360   1.000000
     16         -5.899705   1.000000
     17         -5.608707   1.000000
     18         -5.457552   1.000000
     19         -5.450987   1.000000
     20         -5.446692   1.000000
     21         -5.445614   1.000000
     22         -5.441823   1.000000
     23         -5.375080   1.000000
     24         -5.229432   1.000000
     25         -5.222913   1.000000
     26         -5.222086   1.000000
     27         -5.215427   1.000000
     28         -5.210745   1.000000
     29         -5.060507   1.000000
     30         -5.021386   1.000000
     31         -5.013474   1.000000
     32         -5.010730   1.000000
     33         -5.007920   1.000000
     34         -5.001998   1.000000
     35         -4.986007   1.000000
     36         -4.975863   1.000000
     37         -4.963454   1.000000
     38         -4.961126   1.000000
     39         -4.948028   1.000000
     40         -4.918866   1.000000
     41         -4.801823   1.000000
     42         -4.374610   1.000000
     43         -4.371605   1.000000
     44         -4.355774   1.000000
     45         -4.341882   1.000000
     46         -4.315906   1.000000
     47         -4.309301   1.000000
     48         -4.303311   1.000000
     49         -4.296342   1.000000
     50         -4.294419   1.000000
     51         -4.228451   1.000000
     52         -4.136412   1.000000
     53         -4.114202   1.000000
     54         -4.047243   1.000000
     55         -3.924202   1.000000
     56         -3.577300   1.000000
     57         -3.572874   1.000000
     58         -3.558162   1.000000
     59         -3.557262   1.000000
     60         -3.553744   1.000000
     61         -3.536822   1.000000
     62         -3.475601   1.000000
     63         -3.377066   1.000000
     64         -3.375209   1.000000
     65         -3.370869   1.000000
     66         -3.368044   1.000000
     67         -3.358553   1.000000
     68         -3.356713   1.000000
     69         -3.328427   1.000000
     70         -3.324149   1.000000
     71         -3.314235   1.000000
     72         -3.304870   1.000000
     73         -3.295880   1.000000
     74         -3.292404   1.000000
     75         -3.265506   1.000000
     76         -3.264026   1.000000
     77         -3.229594   1.000000
     78         -3.151571   1.000000
     79         -3.142585   1.000000
     80         -3.132503   1.000000
     81         -3.129200   1.000000
     82         -3.124528   1.000000
     83         -2.994623   1.000000
     84         -2.937483   1.000000
     85         -2.931542   1.000000
     86         -2.927569   1.000000
     87         -2.925271   1.000000
     88         -2.912261   1.000000
     89         -2.904223   1.000000
     90         -2.896796   1.000000
     91         -2.892918   1.000000
     92         -2.818447   1.000000
     93         -2.816619   1.000000
     94         -2.760673   1.000000
     95         -2.758554   1.000000
     96         -2.729859   1.000000
     97         -2.726474   1.000000
     98         -2.708432   1.000000
     99         -2.680831   1.000000
    100         -2.675645   1.000000
    101         -2.664582   1.000000
    102         -2.533623   1.000000
    103         -2.530085   1.000000
    104         -2.506928   1.000000
    105         -2.498420   1.000000
    106         -2.495705   1.000000
    107         -2.490247   1.000000
    108         -2.164326   1.000000
    109         -2.014471   1.000000
    110         -2.002608   1.000000
    111         -1.995749   1.000000
    112         -1.993178   1.000000
    113         -1.988891   1.000000
    114         -1.981925   1.000000
    115         -1.981272   1.000000
    116         -1.948388   1.000000
    117         -1.943014   1.000000
    118         -1.939428   1.000000
    119         -1.938198   1.000000
    120         -1.904656   1.000000
    121         -1.848261   1.000000
    122         -1.844345   1.000000
    123         -1.731163   1.000000
    124         -1.710756   1.000000
    125         -1.700737   1.000000
    126         -1.695392   1.000000
    127         -1.694090   1.000000
    128         -1.599920   1.000000
    129         -1.590254   1.000000
    130         -1.539384   1.000000
    131         -1.525648   1.000000
    132         -1.525009   1.000000
    133         -1.506093   1.000000
    134         -1.495550   1.000000
    135         -1.291100   1.000000
    136         -1.283421   1.000000
    137         -1.259644   1.000000
    138         -1.258678   1.000000
    139         -1.245443   1.000000
    140         -1.242656   1.000000
    141         -1.177926   1.000000
    142         -1.175728   1.000000
    143         -1.020311   1.000000
    144         -1.014691   1.000000
    145         -1.011221   1.000000
    146         -1.008058   1.000000
    147         -1.003296   1.000000
    148         -0.943972   1.000000
    149         -0.851837   1.000000
    150         -0.846357   1.000000
    151         -0.831655   1.000000
    152         -0.826018   1.000000
    153         -0.820714   1.000000
    154         -0.812970   1.000000
    155         -0.795046   1.000000
    156         -0.793015   1.000000
    157         -0.789712   1.000000
    158         -0.788956   1.000000
    159         -0.784839   1.000000
    160         -0.698402   1.000000
    161         -0.681125   1.000000
    162         -0.677209   1.000000
    163         -0.668831   1.000000
    164         -0.657661   1.000000
    165         -0.655807   1.000000
    166         -0.634623   1.000000
    167         -0.629635   1.000000
    168         -0.585016   1.000000
    169         -0.581286   1.000000
    170         -0.551776   1.000000
    171         -0.547101   1.000000
    172         -0.543498   1.000000
    173         -0.539280   1.000000
    174         -0.531530   1.000000
    175         -0.530166   1.000000
    176         -0.452267   1.000000
    177         -0.444074   1.000001
    178         -0.435687   1.000001
    179         -0.429886   1.000001
    180         -0.426673   1.000002
    181         -0.425718   1.000002
    182         -0.411734   1.000005
    183         -0.338445   1.000352
    184         -0.316569   1.001004
    185         -0.309540   1.001373
    186         -0.308446   1.001440
    187         -0.298115   1.002229
    188         -0.296210   1.002410
    189         -0.100632   0.792232
    190         -0.094378   0.748793
    191         -0.007891   0.101199
    192         -0.002682   0.076827
    193          0.018219   0.005947
    194          0.021239  -0.000964
    195          0.021399  -0.001308
    196          0.027523  -0.012948
    197          0.346153  -0.000000
    198          0.823117  -0.000000
    199          0.898399  -0.000000
    200          0.901865  -0.000000
    201          0.910412  -0.000000
    202          0.913461  -0.000000
    203          0.916586  -0.000000
    204          2.460040  -0.000000
    205          3.197438   0.000000
    206          3.200213   0.000000
    207          3.221625   0.000000
    208          3.227050   0.000000
    209          3.243046   0.000000
    210          4.411706   0.000000
    211          4.766334   0.000000
    212          4.789828   0.000000
    213          4.823289   0.000000
    214          4.827813   0.000000
    215          4.831848   0.000000
    216          4.838493   0.000000
    217          4.963026   0.000000
    218          5.102200   0.000000
    219          5.508005   0.000000
    220          5.538180   0.000000
    221          5.834987   0.000000
    222          5.838342   0.000000
    223          5.852719   0.000000
    224          5.858128   0.000000
    225          5.868073   0.000000
    226          6.140150   0.000000
    227          6.561498   0.000000
    228          6.622431   0.000000
    229          6.640742   0.000000
    230          6.644482   0.000000
    231          6.715006   0.000000
    232          6.873055   0.000000
    233          7.128491   0.000000
    234          7.132441   0.000000
    235          7.144013   0.000000
    236          7.167053   0.000000
    237          7.167898   0.000000
    238          7.168801   0.000000
    239          7.316011   0.000000
    240          7.897379   0.000000
 
  0.2000000E+00  0.1278043E-14  0.1276756E-14  0.8000000E-01
      1         -8.739001   1.000000
      2         -7.473048   1.000000
      3         -6.973005   1.000000
      4         -6.586511   1.000000
      5         -6.561005   1.000000
      6         -6.404317   1.000000
      7         -6.337659   1.000000
      8         -6.285792   1.000000
      9         -6.234117   1.000000
     10         -6.216890   1.000000
     11         -6.075687   1.000000
     12         -6.003283   1.000000
     13         -5.904866   1.000000
     14         -5.842026   1.000000
     15         -5.837541   1.000000
     16         -5.825327   1.000000
     17         -5.578336   1.000000
     18         -5.523330   1.000000
     19         -5.416720   1.000000
     20         -5.410691   1.000000
     21         -5.401119   1.000000
     22         -5.365443   1.000000
     23         -5.326438   1.000000
     24         -5.313968   1.000000
     25         -5.265632   1.000000
     26         -5.240372   1.000000
     27         -5.222227   1.000000
     28         -5.205079   1.000000
     29         -5.155400   1.000000
     30         -5.120280   1.000000
     31         -5.096303   1.000000
     32         -5.027327   1.000000
     33         -5.011875   1.000000
     34         -4.999320   1.000000
     35         -4.995567   1.000000
     36         -4.875048   1.000000
     37         -4.798474   1.000000
     38         -4.792341   1.000000
     39         -4.777555   1.000000
     40         -4.763323   1.000000
     41         -4.729310   1.000000
     42         -4.496797   1.000000
     43         -4.482550   1.000000
     44         -4.474982   1.000000
     45         -4.420050   1.000000
     46         -4.407052   1.000000
     47         -4.387850   1.000000
     48         -4.324358   1.000000
     49         -4.208373   1.000000
     50         -4.180087   1.000000
     51         -4.118681   1.000000
     52         -4.111210   1.000000
     53         -4.087711   1.000000
     54         -4.053111   1.000000
     55         -3.976168   1.000000
     56         -3.822405   1.000000
     57         -3.737864   1.000000
     58         -3.714872   1.000000
     59         -3.676929   1.000000
     60         -3.665889   1.000000
     61         -3.630480   1.000000
     62         -3.572027   1.000000
     63         -3.557780   1.000000
     64         -3.540686   1.000000
     65         -3.522118   1.000000
     66         -3.515889   1.000000
     67         -3.491497   1.000000
     68         -3.446337   1.000000
     69         -3.398742   1.000000
     70         -3.372045   1.000000
     71         -3.359780   1.000000
     72         -3.335994   1.000000
     73         -3.265217   1.000000
     74         -3.256451   1.000000
     75         -3.245439   1.000000
     76         -3.184864   1.000000
     77         -3.176878   1.000000
     78         -3.150884   1.000000
     79         -3.105587   1.000000
     80         -3.079237   1.000000
     81         -3.068514   1.000000
     82         -3.042736   1.000000
     83         -3.029756   1.000000
     84         -2.982289   1.000000
     85         -2.965597   1.000000
     86         -2.951264   1.000000
     87         -2.938367   1.000000
     88         -2.937147   1.000000
     89         -2.915009   1.000000
     90         -2.899303   1.000000
     91         -2.849979   1.000000
     92         -2.806062   1.000000
     93         -2.798488   1.000000
     94         -2.791165   1.000000
     95         -2.765955   1.000000
     96         -2.753811   1.000000
     97         -2.742700   1.000000
     98         -2.707360   1.000000
     99         -2.701550   1.000000
    100         -2.680839   1.000000
    101         -2.584643   1.000000
    102         -2.543087   1.000000
    103         -2.523186   1.000000
    104         -2.511765   1.000000
    105         -2.507512   1.000000
    106         -2.496607   1.000000
    107         -2.488173   1.000000
    108         -2.477626   1.000000
    109         -2.432421   1.000000
    110         -2.419749   1.000000
    111         -2.409874   1.000000
    112         -2.403455   1.000000
    113         -2.282898   1.000000
    114         -2.101443   1.000000
    115         -2.066152   1.000000
    116         -2.024619   1.000000
    117         -2.002708   1.000000
    118         -1.984063   1.000000
    119         -1.968868   1.000000
    120         -1.963589   1.000000
    121         -1.935255   1.000000
    122         -1.909747   1.000000
    123         -1.800020   1.000000
    124         -1.780525   1.000000
    125         -1.769975   1.000000
    126         -1.666270   1.000000
    127         -1.639875   1.000000
    128         -1.593123   1.000000
    129         -1.579453   1.000000
    130         -1.569336   1.000000
    131         -1.531519   1.000000
    132         -1.520385   1.000000
    133         -1.506164   1.000000
    134         -1.466058   1.000000
    135         -1.423341   1.000000
    136         -1.402311   1.000000
    137         -1.387434   1.000000
    138         -1.370226   1.000000
    139         -1.359796   1.000000
    140         -1.194584   1.000000
    141         -1.171674   1.000000
    142         -1.166681   1.000000
    143         -1.138650   1.000000
    144         -1.128552   1.000000
    145         -1.106446   1.000000
    146         -1.075574   1.000000
    147         -1.022483   1.000000
    148         -0.997835   1.000000
    149         -0.987172   1.000000
    150         -0.971246   1.000000
    151         -0.943208   1.000000
    152         -0.904325   1.000000
    153         -0.897248   1.000000
    154         -0.887550   1.000000
    155         -0.855886   1.000000
    156         -0.776169   1.000000
    157         -0.762936   1.000000
    158         -0.743238   1.000000
    159         -0.697268   1.000000
    160         -0.643342   1.000000
    161         -0.623061   1.000000
    162         -0.616843   1.000000
    163         -0.602284   1.000000
    164         -0.577363   1.000000
    165         -0.561365   1.000000
    166         -0.532270   1.000000
    167         -0.476520   1.000000
    168         -0.455514   1.000000
    169         -0.438099   1.000001
    170         -0.389911   1.000020
    171         -0.381092   1.000034
    172         -0.376015   1.000045
    173         -0.337807   1.000363
    174         -0.336392   1.000390
    175         -0.331000   1.000509
    176         -0.328991   1.000561
    177         -0.322206   1.000774
    178         -0.265187   1.007541
    179         -0.253458   1.010873
    180         -0.117233   0.890461
    181         -0.108268   0.840672
    182         -0.086931   0.693221
    183         -0.073022   0.581085
    184         -0.070453   0.559599
    185         -0.053299   0.415073
    186         -0.022682   0.185100
    187         -0.006461   0.094234
    188          0.003651   0.050879
    189          0.019197   0.003624
    190          0.089131  -0.026514
    191          0.122869  -0.012144
    192          0.144162  -0.006216
    193          0.164356  -0.002952
    194          0.301745  -0.000002
    195          0.312503  -0.000001
    196          0.319168  -0.000000
    197          0.368667  -0.000000
    198          0.652028  -0.000000
    199          0.774818  -0.000000
    200          1.200473  -0.000000
    201          1.487961  -0.000000
    202          1.494591  -0.000000
    203          1.619250  -0.000000
    204          2.283371  -0.000000
    205          2.736532   0.000000
    206          2.938550   0.000000
    207          3.448412   0.000000
    208          3.659510   0.000000
    209          3.664475   0.000000
    210          3.775476   0.000000
    211          3.969600   0.000000
    212          4.384101   0.000000
    213          4.627495   0.000000
    214          4.671510   0.000000
    215          4.962584   0.000000
    216          4.990209   0.000000
    217          5.010734   0.000000
    218          5.132371   0.000000
    219          5.225976   0.000000
    220          5.485683   0.000000
    221          5.636420   0.000000
    222          5.739376   0.000000
    223          5.853396   0.000000
    224          5.927913   0.000000
    225          6.054444   0.000000
    226          6.203465   0.000000
    227          6.260441   0.000000
    228          6.328726   0.000000
    229          6.362022   0.000000
    230          6.618682   0.000000
    231          6.715426   0.000000
    232          6.729699   0.000000
    233          6.785947   0.000000
    234          6.860730   0.000000
    235          6.924700   0.000000
    236          7.059359   0.000000
    237          7.226842   0.000000
    238          7.501497   0.000000
    239          7.561262   0.000000
    240          7.628523   0.000000
 
  0.2000000E+00  0.2000000E+00  0.1276756E-14  0.8000000E-01
      1         -8.739042   1.000000
      2         -7.473140   1.000000
      3         -6.974273   1.000000
      4         -6.585419   1.000000
      5         -6.560466   1.000000
      6         -6.404165   1.000000
      7         -6.337926   1.000000
      8         -6.287536   1.000000
      9         -6.232676   1.000000
     10         -6.216173   1.000000
     11         -6.076583   1.000000
     12         -6.002912   1.000000
     13         -5.902240   1.000000
     14         -5.842968   1.000000
     15         -5.840295   1.000000
     16         -5.825487   1.000000
     17         -5.577879   1.000000
     18         -5.522552   1.000000
     19         -5.417844   1.000000
     20         -5.410360   1.000000
     21         -5.400795   1.000000
     22         -5.366382   1.000000
     23         -5.326238   1.000000
     24         -5.313299   1.000000
     25         -5.265575   1.000000
     26         -5.239658   1.000000
     27         -5.224153   1.000000
     28         -5.206534   1.000000
     29         -5.157561   1.000000
     30         -5.118385   1.000000
     31         -5.093766   1.000000
     32         -5.029926   1.000000
     33         -5.012099   1.000000
     34         -4.997494   1.000000
     35         -4.995292   1.000000
     36         -4.875527   1.000000
     37         -4.798275   1.000000
     38         -4.793068   1.000000
     39         -4.778158   1.000000
     40         -4.762052   1.000000
     41         -4.726913   1.000000
     42         -4.496878   1.000000
     43         -4.480126   1.000000
     44         -4.475767   1.000000
     45         -4.420626   1.000000
     46         -4.406386   1.000000
     47         -4.387128   1.000000
     48         -4.326737   1.000000
     49         -4.207538   1.000000
     50         -4.179618   1.000000
     51         -4.119456   1.000000
     52         -4.111805   1.000000
     53         -4.087464   1.000000
     54         -4.053072   1.000000
     55         -3.974968   1.000000
     56         -3.819854   1.000000
     57         -3.737149   1.000000
     58         -3.714358   1.000000
     59         -3.675248   1.000000
     60         -3.662186   1.000000
     61         -3.628811   1.000000
     62         -3.572423   1.000000
     63         -3.561712   1.000000
     64         -3.539365   1.000000
     65         -3.522350   1.000000
     66         -3.517505   1.000000
     67         -3.493369   1.000000
     68         -3.446036   1.000000
     69         -3.397572   1.000000
     70         -3.368554   1.000000
     71         -3.357347   1.000000
     72         -3.337053   1.000000
     73         -3.267709   1.000000
     74         -3.262354   1.000000
     75         -3.252719   1.000000
     76         -3.184245   1.000000
     77         -3.175296   1.000000
     78         -3.149599   1.000000
     79         -3.104830   1.000000
     80         -3.076424   1.000000
     81         -3.062635   1.000000
     82         -3.044684   1.000000
     83         -3.029957   1.000000
     84         -2.981933   1.000000
     85         -2.967419   1.000000
     86         -2.952781   1.000000
     87         -2.939685   1.000000
     88         -2.935617   1.000000
     89         -2.913930   1.000000
     90         -2.898390   1.000000
     91         -2.849359   1.000000
     92         -2.808394   1.000000
     93         -2.801022   1.000000
     94         -2.787910   1.000000
     95         -2.764043   1.000000
     96         -2.755082   1.000000
     97         -2.743229   1.000000
     98         -2.709087   1.000000
     99         -2.701878   1.000000
    100         -2.683161   1.000000
    101         -2.584899   1.000000
    102         -2.544185   1.000000
    103         -2.523719   1.000000
    104         -2.511220   1.000000
    105         -2.510400   1.000000
    106         -2.494652   1.000000
    107         -2.489560   1.000000
    108         -2.475680   1.000000
    109         -2.430238   1.000000
    110         -2.421092   1.000000
    111         -2.411176   1.000000
    112         -2.403541   1.000000
    113         -2.280485   1.000000
    114         -2.100087   1.000000
    115         -2.064740   1.000000
    116         -2.026296   1.000000
    117         -2.002371   1.000000
    118         -1.983878   1.000000
    119         -1.970298   1.000000
    120         -1.964990   1.000000
    121         -1.935071   1.000000
    122         -1.908830   1.000000
    123         -1.800983   1.000000
    124         -1.782240   1.000000
    125         -1.770385   1.000000
    126         -1.670696   1.000000
    127         -1.640459   1.000000
    128         -1.587084   1.000000
    129         -1.581512   1.000000
    130         -1.572512   1.000000
    131         -1.532941   1.000000
    132         -1.521398   1.000000
    133         -1.506836   1.000000
    134         -1.466493   1.000000
    135         -1.424729   1.000000
    136         -1.399454   1.000000
    137         -1.386542   1.000000
    138         -1.369716   1.000000
    139         -1.359684   1.000000
    140         -1.191672   1.000000
    141         -1.171764   1.000000
    142         -1.169866   1.000000
    143         -1.140176   1.000000
    144         -1.127662   1.000000
    145         -1.106553   1.000000
    146         -1.074144   1.000000
    147         -1.022274   1.000000
    148         -0.996444   1.000000
    149         -0.985969   1.000000
    150         -0.972754   1.000000
    151         -0.944626   1.000000
    152         -0.904919   1.000000
    153         -0.894341   1.000000
    154         -0.889318   1.000000
    155         -0.853478   1.000000
    156         -0.775843   1.000000
    157         -0.762975   1.000000
    158         -0.742301   1.000000
    159         -0.696856   1.000000
    160         -0.644406   1.000000
    161         -0.624902   1.000000
    162         -0.617464   1.000000
    163         -0.603086   1.000000
    164         -0.578581   1.000000
    165         -0.563937   1.000000
    166         -0.533158   1.000000
    167         -0.476129   1.000000
    168         -0.454770   1.000000
    169         -0.436929   1.000001
    170         -0.389928   1.000020
    171         -0.381976   1.000032
    172         -0.375384   1.000047
    173         -0.337952   1.000361
    174         -0.335816   1.000401
    175         -0.331442   1.000498
    176         -0.329824   1.000539
    177         -0.321026   1.000818
    178         -0.267168   1.007063
    179         -0.255873   1.010115
    180         -0.119498   0.901777
    181         -0.109916   0.850419
    182         -0.085637   0.683186
    183         -0.071729   0.570285
    184         -0.068182   0.540492
    185         -0.050838   0.394686
    186         -0.020948   0.174182
    187         -0.003376   0.079917
    188          0.004485   0.047759
    189          0.022094  -0.002781
    190          0.088591  -0.026759
    191          0.123811  -0.011820
    192          0.143294  -0.006403
    193          0.163486  -0.003055
    194          0.303201  -0.000001
    195          0.312576  -0.000001
    196          0.320418  -0.000000
    197          0.366199  -0.000000
    198          0.654969  -0.000000
    199          0.778481  -0.000000
    200          1.199278  -0.000000
    201          1.486841  -0.000000
    202          1.493625  -0.000000
    203          1.618253  -0.000000
    204          2.280752  -0.000000
    205          2.738835   0.000000
    206          2.941580   0.000000
    207          3.447533   0.000000
    208          3.658834   0.000000
    209          3.663988   0.000000
    210          3.776000   0.000000
    211          3.970226   0.000000
    212          4.382171   0.000000
    213          4.626889   0.000000
    214          4.669108   0.000000
    215          4.960777   0.000000
    216          4.991561   0.000000
    217          5.011758   0.000000
    218          5.132740   0.000000
    219          5.225808   0.000000
    220          5.489125   0.000000
    221          5.636497   0.000000
    222          5.737256   0.000000
    223          5.854612   0.000000
    224          5.931196   0.000000
    225          6.055660   0.000000
    226          6.201386   0.000000
    227          6.260503   0.000000
    228          6.330394   0.000000
    229          6.365384   0.000000
    230          6.618728   0.000000
    231          6.715549   0.000000
    232          6.728133   0.000000
    233          6.784738   0.000000
    234          6.860267   0.000000
    235          6.924815   0.000000
    236          7.058536   0.000000
    237          7.222783   0.000000
    238          7.500000   0.000000
    239          7.561544   0.000000
    240          7.627444   0.000000
 
  0.1276756E-14  0.2000000E+00  0.1276756E-14  0.8000000E-01
      1         -8.738919   1.000000
      2         -7.472872   1.000000
      3         -6.968942   1.000000
      4         -6.588540   1.000000
      5         -6.566549   1.000000
      6         -6.402510   1.000000
      7         -6.337504   1.000000
      8         -6.270517   1.000000
      9         -6.248282   1.000000
     10         -6.220481   1.000000
     11         -6.071501   1.000000
     12         -6.003695   1.000000
     13         -5.904241   1.000000
     14         -5.845166   1.000000
     15         -5.839091   1.000000
     16         -5.824630   1.000000
     17         -5.602831   1.000000
     18         -5.474640   1.000000
     19         -5.417176   1.000000
     20         -5.410080   1.000000
     21         -5.399504   1.000000
     22         -5.379094   1.000000
     23         -5.331561   1.000000
     24         -5.308485   1.000000
     25         -5.268955   1.000000
     26         -5.230223   1.000000
     27         -5.222585   1.000000
     28         -5.204158   1.000000
     29         -5.184326   1.000000
     30         -5.125177   1.000000
     31         -5.083842   1.000000
     32         -5.024353   1.000000
     33         -5.016993   1.000000
     34         -4.998598   1.000000
     35         -4.995531   1.000000
     36         -4.889432   1.000000
     37         -4.798608   1.000000
     38         -4.797963   1.000000
     39         -4.775890   1.000000
     40         -4.771104   1.000000
     41         -4.706296   1.000000
     42         -4.501080   1.000000
     43         -4.488445   1.000000
     44         -4.425737   1.000000
     45         -4.423776   1.000000
     46         -4.391987   1.000000
     47         -4.385934   1.000000
     48         -4.340088   1.000000
     49         -4.205233   1.000000
     50         -4.204602   1.000000
     51         -4.125228   1.000000
     52         -4.118410   1.000000
     53         -4.073698   1.000000
     54         -4.051159   1.000000
     55         -3.987069   1.000000
     56         -3.809036   1.000000
     57         -3.740590   1.000000
     58         -3.726156   1.000000
     59         -3.682590   1.000000
     60         -3.653008   1.000000
     61         -3.639237   1.000000
     62         -3.565674   1.000000
     63         -3.561188   1.000000
     64         -3.538870   1.000000
     65         -3.520913   1.000000
     66         -3.519432   1.000000
     67         -3.474137   1.000000
     68         -3.444357   1.000000
     69         -3.398629   1.000000
     70         -3.380597   1.000000
     71         -3.360531   1.000000
     72         -3.346518   1.000000
     73         -3.269794   1.000000
     74         -3.258149   1.000000
     75         -3.241193   1.000000
     76         -3.186398   1.000000
     77         -3.179215   1.000000
     78         -3.164808   1.000000