 running   48 mpi-ranks, on    1 nodes
 distrk:  each k-point on   48 cores,    1 groups
 distr:  one band on    1 cores,   48 groups
 vasp.6.4.2 20Jul23 (build Mar 01 2024 16:46:03) complex                        
  
 POSCAR found type information on POSCAR PtH 
 POSCAR found :  2 types and      37 ions
 Reading from existing POTCAR
 scaLAPACK will be used
 -----------------------------------------------------------------------------
|                                                                             |
|           W    W    AA    RRRRR   N    N  II  N    N   GGGG   !!!           |
|           W    W   A  A   R    R  NN   N  II  NN   N  G    G  !!!           |
|           W    W  A    A  R    R  N N  N  II  N N  N  G       !!!           |
|           W WW W  AAAAAA  RRRRR   N  N N  II  N  N N  G  GGG   !            |
|           WW  WW  A    A  R   R   N   NN  II  N   NN  G    G                |
|           W    W  A    A  R    R  N    N  II  N    N   GGGG   !!!           |
|                                                                             |
|     For optimal performance we recommend to set                             |
|       NCORE = 2 up to number-of-cores-per-socket                            |
|     NCORE specifies how many cores store one orbital (NPAR=cpu/NCORE).      |
|     This setting can greatly improve the performance of VASP for DFT.       |
|     The default, NCORE=1 might be grossly inefficient on modern             |
|     multi-core architectures or massively parallel machines. Do your        |
|     own testing! More info at https://www.vasp.at/wiki/index.php/NCORE      |
|     Unfortunately you need to use the default for GW and RPA                |
|     calculations (for HF NCORE is supported but not extensively tested      |
|     yet).                                                                   |
|                                                                             |
 -----------------------------------------------------------------------------


     **************************************************************************
     Initializing libbeef V0.1.3 with the BEEF-vdW functional.
     Citation: Wellendorff et al., PRB 85, 235149 (2012).
     **************************************************************************

 -----------------------------------------------------------------------------
|                                                                             |
|               ----> ADVICE to this user running VASP <----                  |
|                                                                             |
|     You have switched on vdW-DFT.                                           |
|     This routine was written and supplied by Jiri Klimes. We recommend      |
|     that you carefully read and cite the following publications:            |
|       J. Klimes, D.R. Bowler, A. Michelides                                 |
|          J. Phys.: Cond Matt. 22 022201 (2010)                              |
|       J. Klimes, D.R. Bowler, A. Michelides                                 |
|          Phys. Rev. B. 83, 195131 (2011)                                    |
|     and references therein.                                                 |
|                                                                             |
 -----------------------------------------------------------------------------

 Reading from existing POTCAR
 -----------------------------------------------------------------------------
|                                                                             |
|               ----> ADVICE to this user running VASP <----                  |
|                                                                             |
|     You enforced a specific xc type in the INCAR file but a different       |
|     type was found in the POTCAR file.                                      |
|     I HOPE YOU KNOW WHAT YOU ARE DOING!                                     |
|                                                                             |
 -----------------------------------------------------------------------------

 LDA part: xc-table for Pade appr. of Perdew
 found WAVECAR, reading the header
 POSCAR, INCAR and KPOINTS ok, starting setup
 FFT: planning ... GRIDC
 FFT: planning ... GRID_SOFT
 FFT: planning ... GRID
 reading WAVECAR
 the WAVECAR file was read successfully
 initial charge from wavefunction
 entering main loop
       N       E                     dE             d eps       ncg     rms          rms(c)
Total vdW correction in eV:     51.9980045
DAV:   1    -0.104686239150E+03   -0.10469E+03   -0.26509E+00  6720   0.271E+00    0.292E+00
Total vdW correction in eV:     51.9983015
RMM:   2    -0.108893802430E+03   -0.42076E+01   -0.12929E+00  6768   0.174E+00    0.221E+01
Total vdW correction in eV:     51.9962302
RMM:   3    -0.104863640286E+03    0.40302E+01   -0.54143E-01  6842   0.127E+00    0.556E+00
Total vdW correction in eV:     51.9967591
RMM:   4    -0.104593327202E+03    0.27031E+00   -0.12223E-01  6605   0.608E-01    0.144E+00
Total vdW correction in eV:     51.9983547
RMM:   5    -0.104582288302E+03    0.11039E-01   -0.31729E-02  6920   0.282E-01    0.103E+00
Total vdW correction in eV:     51.9998225
RMM:   6    -0.104575810208E+03    0.64781E-02   -0.92092E-03  7004   0.161E-01    0.348E-01
Total vdW correction in eV:     52.0002979
RMM:   7    -0.104576925131E+03   -0.11149E-02   -0.39559E-03  6957   0.103E-01    0.502E-01
Total vdW correction in eV:     52.0004535
RMM:   8    -0.104575837816E+03    0.10873E-02   -0.19275E-03  6899   0.778E-02    0.260E-01
Total vdW correction in eV:     52.0005223
RMM:   9    -0.104575530654E+03    0.30716E-03   -0.76893E-04  6870   0.484E-02    0.139E-01
Total vdW correction in eV:     52.0006023
RMM:  10    -0.104575445469E+03    0.85185E-04   -0.21983E-04  6956   0.271E-02    0.623E-02
Total vdW correction in eV:     52.0006207
RMM:  11    -0.104575424004E+03    0.21465E-04   -0.62030E-05  6412   0.135E-02    0.378E-02
Total vdW correction in eV:     52.0006493
RMM:  12    -0.104575423767E+03    0.23694E-06   -0.21811E-05  4872   0.808E-03
Total vdW correction in eV:     52.0008657
Total vdW correction in eV:     52.0006686
   1 F= -.10457542E+03 E0= -.10454621E+03  d E =-.876405E-01
 writing wavefunctions
