unknown system                          
           1
     8.468310    0.000000    0.000000
     4.234155    7.333772    0.000000
     0.000000    0.000000   24.965662
   Pt   H 
    36     1
Direct configuration=     1
   0.00000000  0.00000000  0.34046764
   0.33400137  0.00000000  0.34046764
   0.66800274  0.00000000  0.34046764
   0.00000000  0.33400137  0.34046764
   0.33400137  0.33400137  0.34046764
   0.66800274  0.33400137  0.34046764
   0.00000000  0.66800274  0.34046764
   0.33400137  0.66800274  0.34046764
   0.66800274  0.66800274  0.34046764
   0.11133379  0.11133379  0.43297074
   0.44533516  0.11133379  0.43297074
   0.77933653  0.11133379  0.43297074
   0.11133379  0.44533516  0.43297074
   0.44533516  0.44533516  0.43297074
   0.77933653  0.44533516  0.43297074
   0.11133379  0.77933653  0.43297074
   0.44533516  0.77933653  0.43297074
   0.77933653  0.77933653  0.43297074
   0.88977725  0.22377855  0.52473152
   0.22330904  0.22370680  0.52467165
   0.55669399  0.22333246  0.52417460
   0.89108893  0.55476032  0.52559822
   0.22330449  0.55699178  0.52435759
   0.55644750  0.55707077  0.52429805
   0.89021446  0.89015558  0.52447200
   0.22322982  0.89049732  0.52466779
   0.55683573  0.88998378  0.52434514
   0.00077706  0.00000850  0.61760303
   0.33663110  0.00007517  0.61756809
   0.66772392  0.00188556  0.61775495
   0.00180723  0.33364615  0.62076988
   0.33575287  0.33500989  0.61745435
   0.66654120  0.33497789  0.61741343
   0.00103345  0.66948360  0.61765070
   0.33456099  0.66822257  0.61754297
   0.66683545  0.66957486  0.61758490
   0.03086785  0.27551777  0.68085479
