  37  37   0   0
  0.4190497E+02  0.8468310E-09  0.8468310E-09  0.2496566E-08  0.5000000E-15
  1.000000000000000E-004
  CAR 
 unknown system                          
      8.88628659     -9.87842555  301     -0.06419289      1.00000000
     -9.878  0.0000E+00  0.0000E+00
     -9.816  0.0000E+00  0.0000E+00
     -9.753  0.0000E+00  0.0000E+00
     -9.691 -0.6415E-28 -0.4012E-29
     -9.628 -0.1037E-23 -0.6489E-25
     -9.566 -0.7617E-20 -0.4765E-21
     -9.503 -0.2536E-16 -0.1587E-17
     -9.441 -0.3701E-13 -0.2317E-14
     -9.378 -0.2498E-10 -0.1564E-11
     -9.315 -0.7546E-08 -0.4735E-09
     -9.253 -0.1012E-05 -0.6377E-07
     -9.190 -0.5924E-04 -0.3769E-05
     -9.128 -0.1461E-02 -0.9517E-04
     -9.065 -0.1383E-01 -0.9604E-03
     -9.003 -0.3299E-01 -0.3024E-02
     -8.940  0.9687E-01  0.3035E-02
     -8.878  0.3786E+00  0.2672E-01
     -8.815  0.7564E+00  0.7403E-01
     -8.753  0.2566E+01  0.2345E+00
     -8.690  0.3763E+01  0.4699E+00
     -8.627  0.1558E+01  0.5674E+00
     -8.565 -0.2373E+00  0.5526E+00
     -8.502  0.6879E+00  0.5956E+00
     -8.440  0.3175E+01  0.7942E+00
     -8.377  0.3703E+01  0.1026E+01
     -8.315  0.3640E+01  0.1254E+01
     -8.252  0.3422E+01  0.1468E+01
     -8.190  0.1107E+01  0.1537E+01
     -8.127 -0.2019E+00  0.1524E+01
     -8.065 -0.3995E+00  0.1499E+01
     -8.002 -0.1478E-01  0.1498E+01
     -7.939  0.3689E+01  0.1729E+01
     -7.877  0.7611E+01  0.2205E+01
     -7.814  0.4313E+01  0.2475E+01
     -7.752  0.4185E+00  0.2501E+01
     -7.689  0.2064E+01  0.2630E+01
     -7.627  0.4045E+01  0.2883E+01
     -7.564  0.2314E+01  0.3028E+01
     -7.502  0.1938E+01  0.3149E+01
     -7.439  0.3438E+01  0.3364E+01
     -7.376  0.2163E+01  0.3499E+01
     -7.314  0.2441E+01  0.3652E+01
     -7.251  0.7611E+01  0.4128E+01
     -7.189  0.1187E+02  0.4870E+01
     -7.126  0.8626E+01  0.5410E+01
     -7.064  0.4468E+01  0.5689E+01
     -7.001  0.4718E+01  0.5984E+01
     -6.939  0.4600E+01  0.6272E+01
     -6.876  0.1957E+01  0.6395E+01
     -6.814 -0.1663E+00  0.6384E+01
     -6.751  0.1524E+01  0.6480E+01
     -6.688  0.6142E+01  0.6864E+01
     -6.626  0.1163E+02  0.7591E+01
     -6.563  0.1675E+02  0.8639E+01
     -6.501  0.1538E+02  0.9601E+01
     -6.438  0.1015E+02  0.1024E+02
     -6.376  0.7562E+01  0.1071E+02
     -6.313  0.8426E+01  0.1124E+02
     -6.251  0.1544E+02  0.1220E+02
     -6.188  0.2450E+02  0.1373E+02
     -6.125  0.3045E+02  0.1564E+02
     -6.063  0.3390E+02  0.1776E+02
     -6.000  0.3311E+02  0.1983E+02
     -5.938  0.3441E+02  0.2198E+02
     -5.875  0.3661E+02  0.2427E+02
     -5.813  0.3181E+02  0.2626E+02
     -5.750  0.2190E+02  0.2763E+02
     -5.688  0.2402E+02  0.2913E+02
     -5.625  0.3776E+02  0.3150E+02
     -5.563  0.4691E+02  0.3443E+02
     -5.500  0.4799E+02  0.3743E+02
     -5.437  0.5132E+02  0.4064E+02
     -5.375  0.6122E+02  0.4447E+02
     -5.312  0.6424E+02  0.4849E+02
     -5.250  0.5326E+02  0.5182E+02
     -5.187  0.4720E+02  0.5477E+02
     -5.125  0.4837E+02  0.5780E+02
     -5.062  0.5534E+02  0.6126E+02
     -5.000  0.7171E+02  0.6574E+02
     -4.937  0.5787E+02  0.6936E+02
     -4.875  0.2986E+02  0.7123E+02
     -4.812  0.2957E+02  0.7308E+02
     -4.749  0.4269E+02  0.7575E+02
     -4.687  0.3449E+02  0.7791E+02
     -4.624  0.1947E+02  0.7913E+02
     -4.562  0.2637E+02  0.8078E+02
     -4.499  0.4761E+02  0.8375E+02
     -4.437  0.6278E+02  0.8768E+02
     -4.374  0.6046E+02  0.9146E+02
     -4.312  0.4769E+02  0.9445E+02
     -4.249  0.4233E+02  0.9709E+02
     -4.186  0.4447E+02  0.9988E+02
     -4.124  0.5230E+02  0.1031E+03
     -4.061  0.5942E+02  0.1069E+03
     -3.999  0.5019E+02  0.1100E+03
     -3.936  0.4336E+02  0.1127E+03
     -3.874  0.4448E+02  0.1155E+03
     -3.811  0.3914E+02  0.1179E+03
     -3.749  0.3687E+02  0.1203E+03
     -3.686  0.5217E+02  0.1235E+03
     -3.624  0.6353E+02  0.1275E+03
     -3.561  0.5883E+02  0.1312E+03
     -3.498  0.5615E+02  0.1347E+03
     -3.436  0.6170E+02  0.1385E+03
     -3.373  0.7320E+02  0.1431E+03
     -3.311  0.7762E+02  0.1480E+03
     -3.248  0.7189E+02  0.1525E+03
     -3.186  0.6677E+02  0.1566E+03
     -3.123  0.7967E+02  0.1616E+03
     -3.061  0.8667E+02  0.1670E+03
     -2.998  0.7776E+02  0.1719E+03
     -2.935  0.7721E+02  0.1767E+03
     -2.873  0.7591E+02  0.1815E+03
     -2.810  0.7952E+02  0.1865E+03
     -2.748  0.9858E+02  0.1926E+03
     -2.685  0.1072E+03  0.1993E+03
     -2.623  0.8802E+02  0.2048E+03
     -2.560  0.6520E+02  0.2089E+03
     -2.498  0.6565E+02  0.2130E+03
     -2.435  0.6600E+02  0.2172E+03
     -2.373  0.5003E+02  0.2203E+03
     -2.310  0.3553E+02  0.2225E+03
     -2.247  0.3085E+02  0.2244E+03
     -2.185  0.2653E+02  0.2261E+03
     -2.122  0.3655E+02  0.2284E+03
     -2.060  0.6336E+02  0.2323E+03
     -1.997  0.8551E+02  0.2377E+03
     -1.935  0.9188E+02  0.2434E+03
     -1.872  0.8052E+02  0.2485E+03
     -1.810  0.6086E+02  0.2523E+03
     -1.747  0.4752E+02  0.2553E+03
     -1.685  0.4252E+02  0.2579E+03
     -1.622  0.4194E+02  0.2605E+03
     -1.559  0.5267E+02  0.2638E+03
     -1.497  0.6602E+02  0.2680E+03
     -1.434  0.6235E+02  0.2719E+03
     -1.372  0.5597E+02  0.2754E+03
     -1.309  0.5515E+02  0.2788E+03
     -1.247  0.5094E+02  0.2820E+03
     -1.184  0.5531E+02  0.2855E+03
     -1.122  0.7052E+02  0.2899E+03
     -1.059  0.8153E+02  0.2950E+03
     -0.996  0.8475E+02  0.3003E+03
     -0.934  0.7197E+02  0.3048E+03
     -0.871  0.5669E+02  0.3083E+03
     -0.809  0.5393E+02  0.3117E+03
     -0.746  0.4871E+02  0.3147E+03
     -0.684  0.4327E+02  0.3174E+03
     -0.621  0.5537E+02  0.3209E+03
     -0.559  0.6675E+02  0.3251E+03
     -0.496  0.6028E+02  0.3289E+03
     -0.434  0.5873E+02  0.3325E+03
     -0.371  0.6755E+02  0.3368E+03
     -0.308  0.8537E+02  0.3421E+03
     -0.246  0.9138E+02  0.3478E+03
     -0.183  0.6844E+02  0.3521E+03
     -0.121  0.6180E+02  0.3560E+03
     -0.058  0.9008E+02  0.3616E+03
      0.004  0.8721E+02  0.3670E+03
      0.067  0.4719E+02  0.3700E+03
      0.129  0.3995E+02  0.3725E+03
      0.192  0.5607E+02  0.3760E+03
      0.255  0.4825E+02  0.3790E+03
      0.317  0.3973E+02  0.3815E+03
      0.380  0.3487E+02  0.3837E+03
      0.442  0.2184E+02  0.3851E+03
      0.505  0.1111E+02  0.3857E+03
      0.567  0.5848E+01  0.3861E+03
      0.630  0.5055E+01  0.3864E+03
      0.692  0.6857E+01  0.3869E+03
      0.755  0.1008E+02  0.3875E+03
      0.817  0.1190E+02  0.3882E+03
      0.880  0.9577E+01  0.3888E+03
      0.943  0.1033E+02  0.3895E+03
      1.005  0.1293E+02  0.3903E+03
      1.068  0.8741E+01  0.3908E+03
      1.130  0.4718E+01  0.3911E+03
      1.193  0.7117E+01  0.3916E+03
      1.255  0.1064E+02  0.3922E+03
      1.318  0.1151E+02  0.3930E+03
      1.380  0.1059E+02  0.3936E+03
      1.443  0.7867E+01  0.3941E+03
      1.505  0.1719E+02  0.3952E+03
      1.568  0.2879E+02  0.3970E+03
      1.631  0.2548E+02  0.3986E+03
      1.693  0.1729E+02  0.3997E+03
      1.756  0.1242E+02  0.4004E+03
      1.818  0.6969E+01  0.4009E+03
      1.881  0.3955E+01  0.4011E+03
      1.943  0.4927E+01  0.4014E+03
      2.006  0.6612E+01  0.4018E+03
      2.068  0.4824E+01  0.4021E+03
      2.131  0.3481E+01  0.4024E+03
      2.194  0.6502E+01  0.4028E+03
      2.256  0.1136E+02  0.4035E+03
      2.319  0.1144E+02  0.4042E+03
      2.381  0.1150E+02  0.4049E+03
      2.444  0.1952E+02  0.4061E+03
      2.506  0.2238E+02  0.4075E+03
      2.569  0.1207E+02  0.4083E+03
      2.631  0.6322E+01  0.4087E+03
      2.694  0.8763E+01  0.4092E+03
      2.756  0.1344E+02  0.4101E+03
      2.819  0.1549E+02  0.4110E+03
      2.882  0.1349E+02  0.4119E+03
      2.944  0.1359E+02  0.4127E+03
      3.007  0.1216E+02  0.4135E+03
      3.069  0.1008E+02  0.4141E+03
      3.132  0.1403E+02  0.4150E+03
      3.194  0.1288E+02  0.4158E+03
      3.257  0.1106E+02  0.4165E+03
      3.319  0.1061E+02  0.4172E+03
      3.382  0.6937E+01  0.4176E+03
      3.445  0.6684E+01  0.4180E+03
      3.507  0.6365E+01  0.4184E+03
      3.570  0.5165E+01  0.4187E+03
      3.632  0.1084E+02  0.4194E+03
      3.695  0.1901E+02  0.4206E+03
      3.757  0.1960E+02  0.4218E+03
      3.820  0.1281E+02  0.4226E+03
      3.882  0.6390E+01  0.4230E+03
      3.945  0.8473E+01  0.4236E+03
      4.007  0.1231E+02  0.4243E+03
      4.070  0.1025E+02  0.4250E+03
      4.133  0.3677E+01  0.4252E+03
      4.195 -0.1883E+00  0.4252E+03
      4.258  0.1428E+01  0.4253E+03
      4.320  0.7005E+01  0.4257E+03
      4.383  0.1847E+02  0.4269E+03
      4.445  0.2841E+02  0.4287E+03
      4.508  0.2126E+02  0.4300E+03
      4.570  0.8944E+01  0.4305E+03
      4.633  0.6682E+01  0.4310E+03
      4.696  0.8276E+01  0.4315E+03
      4.758  0.9724E+01  0.4321E+03
      4.821  0.1019E+02  0.4327E+03
      4.883  0.9580E+01  0.4333E+03
      4.946  0.1195E+02  0.4341E+03
      5.008  0.1402E+02  0.4350E+03
      5.071  0.1371E+02  0.4358E+03
      5.133  0.1211E+02  0.4366E+03
      5.196  0.8079E+01  0.4371E+03
      5.258  0.9132E+01  0.4376E+03
      5.321  0.1152E+02  0.4384E+03
      5.384  0.6704E+01  0.4388E+03
      5.446  0.6173E+01  0.4392E+03
      5.509  0.1667E+02  0.4402E+03
      5.571  0.2338E+02  0.4417E+03
      5.634  0.2058E+02  0.4430E+03
      5.696  0.2172E+02  0.4443E+03
      5.759  0.2545E+02  0.4459E+03
      5.821  0.1963E+02  0.4471E+03
      5.884  0.1499E+02  0.4481E+03
      5.946  0.2036E+02  0.4494E+03
      6.009  0.2866E+02  0.4511E+03
      6.072  0.2980E+02  0.4530E+03
      6.134  0.2024E+02  0.4543E+03
      6.197  0.1318E+02  0.4551E+03
      6.259  0.1618E+02  0.4561E+03
      6.322  0.2510E+02  0.4577E+03
      6.384  0.3063E+02  0.4596E+03
      6.447  0.1987E+02  0.4608E+03
      6.509  0.1054E+02  0.4615E+03
      6.572  0.1941E+02  0.4627E+03
      6.635  0.3124E+02  0.4647E+03
      6.697  0.3222E+02  0.4667E+03
      6.760  0.2724E+02  0.4684E+03
      6.822  0.1693E+02  0.4694E+03
      6.885  0.1389E+02  0.4703E+03
      6.947  0.1953E+02  0.4715E+03
      7.010  0.1626E+02  0.4726E+03
      7.072  0.1128E+02  0.4733E+03
      7.135  0.1666E+02  0.4743E+03
      7.197  0.2455E+02  0.4758E+03
      7.260  0.2481E+02  0.4774E+03
      7.323  0.1441E+02  0.4783E+03
      7.385  0.3452E+01  0.4785E+03
      7.448  0.4568E+00  0.4785E+03
      7.510  0.4438E+01  0.4788E+03
      7.573  0.7780E+01  0.4793E+03
      7.635  0.6589E+01  0.4797E+03
      7.698  0.3229E+01  0.4799E+03
      7.760  0.4002E+00  0.4799E+03
      7.823 -0.1087E+00  0.4799E+03
      7.886  0.4707E+00  0.4800E+03
      7.948  0.5483E+00  0.4800E+03
      8.011  0.1374E+00  0.4800E+03
      8.073 -0.3002E-01  0.4800E+03
      8.136 -0.1375E-01  0.4800E+03
      8.198 -0.1460E-02  0.4800E+03
      8.261 -0.5923E-04  0.4800E+03
      8.323 -0.1012E-05  0.4800E+03
      8.386 -0.7546E-08  0.4800E+03
      8.448 -0.2498E-10  0.4800E+03
      8.511 -0.3720E-13  0.4800E+03
      8.574  0.0000E+00  0.4800E+03
      8.636  0.0000E+00  0.4800E+03
      8.699  0.0000E+00  0.4800E+03
      8.761  0.0000E+00  0.4800E+03
      8.824  0.0000E+00  0.4800E+03
      8.886  0.0000E+00  0.4800E+03
