   37   37    1    1
  0.4190497E+02  0.8468310E-09  0.8468310E-09  0.2496566E-08  0.5000000E-15
  1.000000000000000E-004
  CAR 
 unknown system                          
    361     13    240
 
  0.1276756E-14  0.1276756E-14  0.1276756E-14  0.4000000E-01
      1         -8.878426   1.000000
      2         -7.609247   1.000000
      3         -6.542286   1.000000
      4         -6.481761   1.000000
      5         -6.468261   1.000000
      6         -6.458187   1.000000
      7         -6.452301   1.000000
      8         -6.451038   1.000000
      9         -6.431096   1.000000
     10         -6.426259   1.000000
     11         -5.995107   1.000000
     12         -5.908676   1.000000
     13         -5.905107   1.000000
     14         -5.904820   1.000000
     15         -5.896325   1.000000
     16         -5.894359   1.000000
     17         -5.569785   1.000000
     18         -5.449787   1.000000
     19         -5.448508   1.000000
     20         -5.441204   1.000000
     21         -5.437169   1.000000
     22         -5.436286   1.000000
     23         -5.365507   1.000000
     24         -5.221006   1.000000
     25         -5.217728   1.000000
     26         -5.216504   1.000000
     27         -5.210677   1.000000
     28         -5.208732   1.000000
     29         -5.055900   1.000000
     30         -5.013902   1.000000
     31         -5.005494   1.000000
     32         -5.003794   1.000000
     33         -5.002155   1.000000
     34         -5.001088   1.000000
     35         -4.970396   1.000000
     36         -4.963532   1.000000
     37         -4.960935   1.000000
     38         -4.951495   1.000000
     39         -4.948107   1.000000
     40         -4.904111   1.000000
     41         -4.790381   1.000000
     42         -4.373616   1.000000
     43         -4.372923   1.000000
     44         -4.347200   1.000000
     45         -4.344857   1.000000
     46         -4.307612   1.000000
     47         -4.305404   1.000000
     48         -4.301646   1.000000
     49         -4.293491   1.000000
     50         -4.290574   1.000000
     51         -4.245662   1.000000
     52         -4.132792   1.000000
     53         -4.111786   1.000000
     54         -4.048260   1.000000
     55         -3.906904   1.000000
     56         -3.582013   1.000000
     57         -3.571293   1.000000
     58         -3.568772   1.000000
     59         -3.554966   1.000000
     60         -3.552271   1.000000
     61         -3.542027   1.000000
     62         -3.475506   1.000000
     63         -3.383607   1.000000
     64         -3.380882   1.000000
     65         -3.365948   1.000000
     66         -3.365490   1.000000
     67         -3.357484   1.000000
     68         -3.355085   1.000000
     69         -3.322138   1.000000
     70         -3.319463   1.000000
     71         -3.316094   1.000000
     72         -3.292406   1.000000
     73         -3.289659   1.000000
     74         -3.287510   1.000000
     75         -3.260059   1.000000
     76         -3.259333   1.000000
     77         -3.231461   1.000000
     78         -3.148839   1.000000
     79         -3.142631   1.000000
     80         -3.134967   1.000000
     81         -3.132644   1.000000
     82         -3.124021   1.000000
     83         -2.934118   1.000000
     84         -2.929862   1.000000
     85         -2.925675   1.000000
     86         -2.922620   1.000000
     87         -2.909841   1.000000
     88         -2.904770   1.000000
     89         -2.903564   1.000000
     90         -2.891031   1.000000
     91         -2.886426   1.000000
     92         -2.819763   1.000000
     93         -2.819235   1.000000
     94         -2.766291   1.000000
     95         -2.766172   1.000000
     96         -2.728089   1.000000
     97         -2.727942   1.000000
     98         -2.689001   1.000000
     99         -2.688144   1.000000
    100         -2.673725   1.000000
    101         -2.672963   1.000000
    102         -2.534167   1.000000
    103         -2.529552   1.000000
    104         -2.516335   1.000000
    105         -2.496980   1.000000
    106         -2.491354   1.000000
    107         -2.487108   1.000000
    108         -2.131961   1.000000
    109         -2.028599   1.000000
    110         -2.025087   1.000000
    111         -2.000482   1.000000
    112         -1.992872   1.000000
    113         -1.989310   1.000000
    114         -1.985724   1.000000
    115         -1.982012   1.000000
    116         -1.943836   1.000000
    117         -1.943679   1.000000
    118         -1.935888   1.000000
    119         -1.931509   1.000000
    120         -1.930194   1.000000
    121         -1.859271   1.000000
    122         -1.847418   1.000000
    123         -1.732803   1.000000
    124         -1.704867   1.000000
    125         -1.704280   1.000000
    126         -1.687164   1.000000
    127         -1.686161   1.000000
    128         -1.606771   1.000000
    129         -1.590646   1.000000
    130         -1.587244   1.000000
    131         -1.524222   1.000000
    132         -1.523877   1.000000
    133         -1.505348   1.000000
    134         -1.491781   1.000000
    135         -1.298630   1.000000
    136         -1.288340   1.000000
    137         -1.260037   1.000000
    138         -1.256969   1.000000
    139         -1.246544   1.000000
    140         -1.234146   1.000000
    141         -1.180960   1.000000
    142         -1.179141   1.000000
    143         -1.019243   1.000000
    144         -1.014952   1.000000
    145         -1.013757   1.000000
    146         -1.004748   1.000000
    147         -1.001928   1.000000
    148         -0.946003   1.000000
    149         -0.850000   1.000000
    150         -0.845114   1.000000
    151         -0.833905   1.000000
    152         -0.826888   1.000000
    153         -0.822160   1.000000
    154         -0.801847   1.000000
    155         -0.799789   1.000000
    156         -0.794642   1.000000
    157         -0.791324   1.000000
    158         -0.787627   1.000000
    159         -0.785757   1.000000
    160         -0.699087   1.000000
    161         -0.679290   1.000000
    162         -0.677009   1.000000
    163         -0.661945   1.000000
    164         -0.660425   1.000000
    165         -0.657551   1.000000
    166         -0.636362   1.000000
    167         -0.622694   1.000000
    168         -0.578506   1.000000
    169         -0.577347   1.000000
    170         -0.553324   1.000000
    171         -0.545569   1.000000
    172         -0.543828   1.000000
    173         -0.542645   1.000000
    174         -0.538045   1.000000
    175         -0.535533   1.000000
    176         -0.467058   1.000000
    177         -0.445965   1.000000
    178         -0.443454   1.000001
    179         -0.432823   1.000001
    180         -0.427323   1.000002
    181         -0.423986   1.000002
    182         -0.406834   1.000007
    183         -0.345687   1.000253
    184         -0.317517   1.000997
    185         -0.313645   1.001187
    186         -0.311933   1.001280
    187         -0.295722   1.002539
    188         -0.294442   1.002673
    189         -0.105168   0.816592
    190         -0.097164   0.762919
    191         -0.011653   0.116270
    192         -0.009256   0.104001
    193          0.018491   0.003402
    194          0.021373  -0.002949
    195          0.021612  -0.003444
    196          0.028229  -0.015370
    197          0.326619  -0.000000
    198          0.820439  -0.000000
    199          0.899460  -0.000000
    200          0.902929  -0.000000
    201          0.913222  -0.000000
    202          0.913731  -0.000000
    203          0.915941  -0.000000
    204          2.409856  -0.000000
    205          3.182781   0.000000
    206          3.186017   0.000000
    207          3.225782   0.000000
    208          3.228365   0.000000
    209          3.241824   0.000000
    210          4.360708   0.000000
    211          4.772528   0.000000
    212          4.773583   0.000000
    213          4.823629   0.000000
    214          4.826244   0.000000
    215          4.832984   0.000000
    216          4.835541   0.000000
    217          4.950184   0.000000
    218          5.111193   0.000000
    219          5.508942   0.000000
    220          5.539824   0.000000
    221          5.836904   0.000000
    222          5.842993   0.000000
    223          5.853268   0.000000
    224          5.858748   0.000000
    225          5.865346   0.000000
    226          6.157513   0.000000
    227          6.626387   0.000000
    228          6.628391   0.000000
    229          6.640790   0.000000
    230          6.642867   0.000000
    231          6.652400   0.000000
    232          6.887461   0.000000
    233          7.116651   0.000000
    234          7.118329   0.000000
    235          7.135765   0.000000
    236          7.164134   0.000000
    237          7.164735   0.000000
    238          7.171194   0.000000
    239          7.321711   0.000000
    240          7.886287   0.000000
 
  0.2000000E+00  0.1278043E-14  0.1276756E-14  0.8000000E-01
      1         -8.730199   1.000000
      2         -7.464165   1.000000
      3         -6.962929   1.000000
      4         -6.575953   1.000000
      5         -6.553575   1.000000
      6         -6.388821   1.000000
      7         -6.330868   1.000000
      8         -6.270766   1.000000
      9         -6.226933   1.000000
     10         -6.209945   1.000000
     11         -6.061757   1.000000
     12         -5.996931   1.000000
     13         -5.894096   1.000000
     14         -5.834773   1.000000
     15         -5.832372   1.000000
     16         -5.821801   1.000000
     17         -5.568958   1.000000
     18         -5.483108   1.000000
     19         -5.408475   1.000000
     20         -5.407488   1.000000
     21         -5.395890   1.000000
     22         -5.358790   1.000000
     23         -5.321805   1.000000
     24         -5.306869   1.000000
     25         -5.261953   1.000000
     26         -5.231119   1.000000
     27         -5.209003   1.000000
     28         -5.201654   1.000000
     29         -5.153829   1.000000
     30         -5.114695   1.000000
     31         -5.079565   1.000000
     32         -5.022896   1.000000
     33         -5.008290   1.000000
     34         -4.997096   1.000000
     35         -4.991187   1.000000
     36         -4.878344   1.000000
     37         -4.792406   1.000000
     38         -4.786380   1.000000
     39         -4.771396   1.000000
     40         -4.757672   1.000000
     41         -4.706867   1.000000
     42         -4.495901   1.000000
     43         -4.479276   1.000000
     44         -4.454569   1.000000
     45         -4.417553   1.000000
     46         -4.405968   1.000000
     47         -4.384408   1.000000
     48         -4.334333   1.000000
     49         -4.198680   1.000000
     50         -4.191434   1.000000
     51         -4.119659   1.000000
     52         -4.111683   1.000000
     53         -4.081061   1.000000
     54         -4.052724   1.000000
     55         -3.973619   1.000000
     56         -3.810214   1.000000
     57         -3.734990   1.000000
     58         -3.706290   1.000000
     59         -3.678290   1.000000
     60         -3.673673   1.000000
     61         -3.633798   1.000000
     62         -3.566131   1.000000
     63         -3.557567   1.000000
     64         -3.538656   1.000000
     65         -3.517641   1.000000
     66         -3.515311   1.000000
     67         -3.490259   1.000000
     68         -3.441900   1.000000
     69         -3.398076   1.000000
     70         -3.373670   1.000000
     71         -3.358067   1.000000
     72         -3.341199   1.000000
     73         -3.264240   1.000000
     74         -3.255340   1.000000
     75         -3.244121   1.000000
     76         -3.180778   1.000000
     77         -3.172656   1.000000
     78         -3.154281   1.000000
     79         -3.100384   1.000000
     80         -3.079487   1.000000
     81         -3.071757   1.000000
     82         -3.030145   1.000000
     83         -3.016501   1.000000
     84         -2.979359   1.000000
     85         -2.967884   1.000000
     86         -2.951302   1.000000
     87         -2.938501   1.000000
     88         -2.919676   1.000000
     89         -2.912057   1.000000
     90         -2.894417   1.000000
     91         -2.848371   1.000000
     92         -2.804206   1.000000
     93         -2.795141   1.000000
     94         -2.786928   1.000000
     95         -2.757860   1.000000
     96         -2.753548   1.000000
     97         -2.730443   1.000000
     98         -2.703126   1.000000
     99         -2.693957   1.000000
    100         -2.681838   1.000000
    101         -2.571973   1.000000
    102         -2.533037   1.000000
    103         -2.525516   1.000000
    104         -2.515128   1.000000
    105         -2.500675   1.000000
    106         -2.494809   1.000000
    107         -2.487593   1.000000
    108         -2.479787   1.000000
    109         -2.426580   1.000000
    110         -2.420293   1.000000
    111         -2.408505   1.000000
    112         -2.395697   1.000000
    113         -2.300443   1.000000
    114         -2.113827   1.000000
    115         -2.081759   1.000000
    116         -2.033494   1.000000
    117         -2.004317   1.000000
    118         -1.991014   1.000000
    119         -1.969366   1.000000
    120         -1.963616   1.000000
    121         -1.935490   1.000000
    122         -1.922774   1.000000
    123         -1.797372   1.000000
    124         -1.783590   1.000000
    125         -1.778001   1.000000
    126         -1.668910   1.000000
    127         -1.643021   1.000000
    128         -1.589661   1.000000
    129         -1.573755   1.000000
    130         -1.570676   1.000000
    131         -1.534588   1.000000
    132         -1.522630   1.000000
    133         -1.501365   1.000000
    134         -1.494873   1.000000
    135         -1.423712   1.000000
    136         -1.399304   1.000000
    137         -1.386443   1.000000
    138         -1.371338   1.000000
    139         -1.363811   1.000000
    140         -1.198681   1.000000
    141         -1.176127   1.000000
    142         -1.167700   1.000000
    143         -1.137939   1.000000
    144         -1.126636   1.000000
    145         -1.105343   1.000000
    146         -1.073931   1.000000
    147         -1.023691   1.000000
    148         -0.993786   1.000000
    149         -0.991025   1.000000
    150         -0.973310   1.000000
    151         -0.944594   1.000000
    152         -0.905176   1.000000
    153         -0.895701   1.000000
    154         -0.884587   1.000000
    155         -0.858032   1.000000
    156         -0.772527   1.000000
    157         -0.766509   1.000000
    158         -0.741703   1.000000
    159         -0.694155   1.000000
    160         -0.643627   1.000000
    161         -0.622107   1.000000
    162         -0.618988   1.000000
    163         -0.605875   1.000000
    164         -0.576327   1.000000
    165         -0.569983   1.000000
    166         -0.532174   1.000000
    167         -0.479556   1.000000
    168         -0.454383   1.000000
    169         -0.449439   1.000000
    170         -0.389188   1.000022
    171         -0.382706   1.000032
    172         -0.374174   1.000053
    173         -0.338516   1.000365
    174         -0.335046   1.000434
    175         -0.331016   1.000529
    176         -0.330288   1.000548
    177         -0.322525   1.000792
    178         -0.266731   1.007359
    179         -0.254482   1.010802
    180         -0.123008   0.914627
    181         -0.113392   0.865669
    182         -0.085231   0.673746
    183         -0.072774   0.572320
    184         -0.070636   0.554403
    185         -0.053775   0.412364
    186         -0.021099   0.170156
    187         -0.003061   0.074970
    188          0.002813   0.051017
    189          0.019046   0.002125
    190          0.088617  -0.026383
    191          0.122979  -0.011831
    192          0.143198  -0.006251
    193          0.145497  -0.005773
    194          0.299505  -0.000002
    195          0.311327  -0.000001
    196          0.320413  -0.000000
    197          0.368824  -0.000000
    198          0.653210  -0.000000
    199          0.775645  -0.000000
    200          1.182886  -0.000000
    201          1.490511  -0.000000
    202          1.495387  -0.000000
    203          1.622997  -0.000000
    204          2.256007  -0.000000
    205          2.720814   0.000000
    206          2.930838   0.000000
    207          3.430585   0.000000
    208          3.660099   0.000000
    209          3.664626   0.000000
    210          3.772424   0.000000
    211          3.970306   0.000000
    212          4.350775   0.000000
    213          4.627451   0.000000
    214          4.657781   0.000000
    215          4.941094   0.000000
    216          4.994802   0.000000
    217          5.014404   0.000000
    218          5.115845   0.000000
    219          5.233140   0.000000
    220          5.488339   0.000000
    221          5.652360   0.000000
    222          5.741170   0.000000
    223          5.865069   0.000000
    224          5.929421   0.000000
    225          6.028522   0.000000
    226          6.193998   0.000000
    227          6.276066   0.000000
    228          6.319274   0.000000
    229          6.364662   0.000000
    230          6.611887   0.000000
    231          6.722715   0.000000
    232          6.726059   0.000000
    233          6.776492   0.000000
    234          6.870108   0.000000
    235          6.945943   0.000000
    236          7.060235   0.000000
    237          7.229428   0.000000
    238          7.506415   0.000000
    239          7.550924   0.000000
    240          7.630903   0.000000
 
  0.2000000E+00  0.2000000E+00  0.1276756E-14  0.8000000E-01
      1         -8.730240   1.000000
      2         -7.464235   1.000000
      3         -6.964205   1.000000
      4         -6.574967   1.000000
      5         -6.552892   1.000000
      6         -6.388763   1.000000
      7         -6.331039   1.000000
      8         -6.272373   1.000000
      9         -6.226386   1.000000
     10         -6.208460   1.000000
     11         -6.062490   1.000000
     12         -5.996289   1.000000
     13         -5.891999   1.000000
     14         -5.836788   1.000000
     15         -5.834346   1.000000
     16         -5.821812   1.000000
     17         -5.568437   1.000000
     18         -5.481848   1.000000
     19         -5.409470   1.000000
     20         -5.406637   1.000000
     21         -5.396450   1.000000
     22         -5.359687   1.000000
     23         -5.321915   1.000000
     24         -5.305963   1.000000
     25         -5.262081   1.000000
     26         -5.231568   1.000000
     27         -5.211083   1.000000
     28         -5.201948   1.000000
     29         -5.154627   1.000000
     30         -5.113101   1.000000
     31         -5.077795   1.000000
     32         -5.025623   1.000000
     33         -5.008437   1.000000
     34         -4.995457   1.000000
     35         -4.990431   1.000000
     36         -4.878591   1.000000
     37         -4.792630   1.000000
     38         -4.786964   1.000000
     39         -4.770388   1.000000
     40         -4.757627   1.000000
     41         -4.704998   1.000000
     42         -4.495546   1.000000
     43         -4.480748   1.000000
     44         -4.450859   1.000000
     45         -4.419290   1.000000
     46         -4.405743   1.000000
     47         -4.384074   1.000000
     48         -4.335903   1.000000
     49         -4.198029   1.000000
     50         -4.190995   1.000000
     51         -4.119898   1.000000
     52         -4.112315   1.000000
     53         -4.080459   1.000000
     54         -4.053040   1.000000
     55         -3.973179   1.000000
     56         -3.807033   1.000000
     57         -3.734257   1.000000
     58         -3.706275   1.000000
     59         -3.675575   1.000000
     60         -3.671883   1.000000
     61         -3.631272   1.000000
     62         -3.567388   1.000000
     63         -3.562069   1.000000
     64         -3.533853   1.000000
     65         -3.519068   1.000000
     66         -3.517292   1.000000
     67         -3.492364   1.000000
     68         -3.441624   1.000000
     69         -3.395890   1.000000
     70         -3.372035   1.000000
     71         -3.356631   1.000000
     72         -3.341181   1.000000
     73         -3.269075   1.000000
     74         -3.257910   1.000000
     75         -3.250287   1.000000
     76         -3.180635   1.000000
     77         -3.171923   1.000000
     78         -3.153164   1.000000
     79         -3.098736   1.000000
     80         -3.076911   1.000000
     81         -3.067522   1.000000
     82         -3.034787   1.000000
     83         -3.011996   1.000000
     84         -2.978775   1.000000
     85         -2.968865   1.000000
     86         -2.953248   1.000000
     87         -2.938033   1.000000
     88         -2.919144   1.000000
     89         -2.912625   1.000000
     90         -2.895046   1.000000
     91         -2.848237   1.000000
     92         -2.806241   1.000000
     93         -2.792908   1.000000
     94         -2.788270   1.000000
     95         -2.757678   1.000000
     96         -2.752483   1.000000
     97         -2.731909   1.000000
     98         -2.702705   1.000000
     99         -2.695212   1.000000
    100         -2.684392   1.000000
    101         -2.571523   1.000000
    102         -2.534380   1.000000
    103         -2.526000   1.000000
    104         -2.515109   1.000000
    105         -2.503411   1.000000
    106         -2.492223   1.000000
    107         -2.490305   1.000000
    108         -2.476867   1.000000
    109         -2.425291   1.000000
    110         -2.422639   1.000000
    111         -2.409660   1.000000
    112         -2.394289   1.000000
    113         -2.298128   1.000000
    114         -2.111552   1.000000
    115         -2.078836   1.000000
    116         -2.036665   1.000000
    117         -2.006093   1.000000
    118         -1.990537   1.000000
    119         -1.969534   1.000000
    120         -1.965190   1.000000
    121         -1.935420   1.000000
    122         -1.921805   1.000000
    123         -1.797805   1.000000
    124         -1.784943   1.000000
    125         -1.778649   1.000000
    126         -1.672843   1.000000
    127         -1.644662   1.000000
    128         -1.583298   1.000000
    129         -1.579524   1.000000
    130         -1.569742   1.000000
    131         -1.536066   1.000000
    132         -1.523183   1.000000
    133         -1.501503   1.000000
    134         -1.496983   1.000000
    135         -1.424697   1.000000
    136         -1.397286   1.000000
    137         -1.384588   1.000000
    138         -1.369940   1.000000
    139         -1.365080   1.000000
    140         -1.195672   1.000000
    141         -1.178884   1.000000
    142         -1.168523   1.000000
    143         -1.138606   1.000000
    144         -1.126352   1.000000
    145         -1.104786   1.000000
    146         -1.073042   1.000000
    147         -1.024182   1.000000
    148         -0.993045   1.000000
    149         -0.988768   1.000000
    150         -0.974725   1.000000
    151         -0.945715   1.000000
    152         -0.904280   1.000000
    153         -0.893760   1.000000
    154         -0.886379   1.000000
    155         -0.856175   1.000000
    156         -0.772224   1.000000
    157         -0.766193   1.000000
    158         -0.740755   1.000000
    159         -0.693996   1.000000
    160         -0.644860   1.000000
    161         -0.623407   1.000000
    162         -0.619264   1.000000
    163         -0.606868   1.000000
    164         -0.577172   1.000000
    165         -0.572753   1.000000
    166         -0.533367   1.000000
    167         -0.479365   1.000000
    168         -0.453804   1.000000
    169         -0.448382   1.000000
    170         -0.388751   1.000022
    171         -0.383267   1.000031
    172         -0.374210   1.000053
    173         -0.337696   1.000380
    174         -0.336234   1.000409
    175         -0.332067   1.000502
    176         -0.330474   1.000543
    177         -0.320816   1.000857
    178         -0.268808   1.006867
    179         -0.256848   1.010062
    180         -0.126011   0.928005
    181         -0.112978   0.863352
    182         -0.083360   0.658951
    183         -0.072388   0.569098
    184         -0.068703   0.538122
    185         -0.051787   0.395907
    186         -0.019228   0.158797
    187          0.000518   0.059963
    188          0.003561   0.048213
    189          0.021323  -0.002844
    190          0.088443  -0.026462
    191          0.123608  -0.011618
    192          0.142533  -0.006394
    193          0.144275  -0.006023
    194          0.301242  -0.000002
    195          0.311051  -0.000001
    196          0.321734  -0.000000
    197          0.366507  -0.000000
    198          0.656050  -0.000000
    199          0.778976  -0.000000
    200          1.181917  -0.000000
    201          1.489475  -0.000000
    202          1.494442  -0.000000
    203          1.621972  -0.000000
    204          2.253834  -0.000000
    205          2.722559   0.000000
    206          2.933739   0.000000
    207          3.429713   0.000000
    208          3.659233   0.000000
    209          3.664557   0.000000
    210          3.772882   0.000000
    211          3.970783   0.000000
    212          4.349032   0.000000
    213          4.626898   0.000000
    214          4.655987   0.000000
    215          4.938906   0.000000
    216          4.996419   0.000000
    217          5.015318   0.000000
    218          5.115990   0.000000
    219          5.233031   0.000000
    220          5.491628   0.000000
    221          5.652618   0.000000
    222          5.738911   0.000000
    223          5.865952   0.000000
    224          5.932516   0.000000
    225          6.030617   0.000000
    226          6.190983   0.000000
    227          6.276167   0.000000
    228          6.320826   0.000000
    229          6.368100   0.000000
    230          6.611183   0.000000
    231          6.721435   0.000000
    232          6.726258   0.000000
    233          6.775230   0.000000
    234          6.869770   0.000000
    235          6.946000   0.000000
    236          7.059554   0.000000
    237          7.226948   0.000000
    238          7.504093   0.000000
    239          7.551786   0.000000
    240          7.631165   0.000000
 
  0.1276756E-14  0.2000000E+00  0.1276756E-14  0.8000000E-01
      1         -8.730188   1.000000
      2         -7.464250   1.000000
      3         -6.962069   1.000000
      4         -6.575881   1.000000
      5         -6.554546   1.000000
      6         -6.388664   1.000000
      7         -6.330810   1.000000
      8         -6.269209   1.000000
      9         -6.228242   1.000000
     10         -6.210194   1.000000
     11         -6.064919   1.000000
     12         -5.995857   1.000000
     13         -5.887171   1.000000
     14         -5.837936   1.000000
     15         -5.835401   1.000000
     16         -5.819978   1.000000
     17         -5.568225   1.000000
     18         -5.484837   1.000000
     19         -5.408226   1.000000
     20         -5.406589   1.000000
     21         -5.393288   1.000000
     22         -5.361265   1.000000
     23         -5.323016   1.000000
     24         -5.306223   1.000000
     25         -5.262305   1.000000
     26         -5.230115   1.000000
     27         -5.209488   1.000000
     28         -5.201555   1.000000
     29         -5.158448   1.000000
     30         -5.114746   1.000000
     31         -5.076653   1.000000
     32         -5.021552   1.000000
     33         -5.007954   1.000000
     34         -4.996190   1.000000
     35         -4.991280   1.000000
     36         -4.875174   1.000000
     37         -4.792689   1.000000
     38         -4.789320   1.000000
     39         -4.770686   1.000000
     40         -4.757744   1.000000
     41         -4.707725   1.000000
     42         -4.496221   1.000000
     43         -4.482464   1.000000
     44         -4.454688   1.000000
     45         -4.419105   1.000000
     46         -4.402221   1.000000
     47         -4.383002   1.000000
     48         -4.337257   1.000000
     49         -4.199265   1.000000
     50         -4.191305   1.000000
     51         -4.120041   1.000000
     52         -4.112095   1.000000
     53         -4.079092   1.000000
     54         -4.052480   1.000000
     55         -3.973239   1.000000
     56         -3.810235   1.000000
     57         -3.733302   1.000000
     58         -3.707482   1.000000
     59         -3.681189   1.000000
     60         -3.676183   1.000000
     61         -3.632552   1.000000
     62         -3.565963   1.000000
     63         -3.557118   1.000000
     64         -3.537292   1.000000
     65         -3.517211   1.000000
     66         -3.514149   1.000000
     67         -3.493099   1.000000
     68         -3.440943   1.000000
     69         -3.396176   1.000000
     70         -3.375741   1.000000
     71         -3.358179   1.000000
     72         -3.342033   1.000000
     73         -3.263472   1.000000
     74         -3.253097   1.000000
     75         -3.242118   1.000000
     76         -3.181980   1.000000
     77         -3.171999   1.000000
     78         -3.154185   1.000000