<?xml version="1.0" encoding="ISO-8859-1"?>
<modeling>
 <generator>
  <i name="program" type="string">vasp </i>
  <i name="version" type="string">6.4.2  </i>
  <i name="subversion" type="string">20Jul23 (build Mar 01 2024 16:46:03) complex                          parallel </i>
  <i name="platform" type="string">LinuxIFC </i>
  <i name="date" type="string">2025 01 11 </i>
  <i name="time" type="string">15:50:36 </i>
 </generator>
 <incar>
  <i type="string" name="ALGO">Fast</i>
  <i type="int" name="ISPIN">     1</i>
  <i type="int" name="IBRION">    -1</i>
  <i name="EDIFF">      0.00001000</i>
  <i type="int" name="ISYM">     0</i>
  <i name="ENCUT">    680.29000000</i>
  <i type="string" name="LREAL">Auto</i>
  <i type="int" name="ISMEAR">     1</i>
  <i name="SIGMA">      0.10000000</i>
  <i type="string" name="GGA">BF</i>
  <i type="logical" name="LUSE_VDW"> T  </i>
  <i name="Zab_VDW">     -1.88670000</i>
 </incar>
 <primitive_cell>
  <structure name="primitive_cell" >
   <crystal>
    <varray name="basis" >
     <v>       8.46831000       0.00000000       0.00000000 </v>
     <v>       4.23415500       7.33377159       0.00000000 </v>
     <v>       0.00000000       0.00000000      24.96566199 </v>
    </varray>
    <i name="volume">   1550.48373159 </i>
    <varray name="rec_basis" >
     <v>       0.11808732      -0.06817774       0.00000000 </v>
     <v>       0.00000000       0.13635549       0.00000000 </v>
     <v>       0.00000000       0.00000000       0.04005502 </v>
    </varray>
   </crystal>
   <varray name="positions" >
    <v>       0.00000000       0.00000000       0.34046764 </v>
    <v>       0.33400137       0.00000000       0.34046764 </v>
    <v>       0.66800274       0.00000000       0.34046764 </v>
    <v>       1.00000000       0.33400137       0.34046764 </v>
    <v>       0.33400137       0.33400137       0.34046764 </v>
    <v>       0.66800274       0.33400137       0.34046764 </v>
    <v>       1.00000000       0.66800274       0.34046764 </v>
    <v>       0.33400137       0.66800274       0.34046764 </v>
    <v>       0.66800274       0.66800274       0.34046764 </v>
    <v>       0.11133379       0.11133379       0.43297074 </v>
    <v>       0.44533516       0.11133379       0.43297074 </v>
    <v>       0.77933653       0.11133379       0.43297074 </v>
    <v>       0.11133379       0.44533516       0.43297074 </v>
    <v>       0.44533516       0.44533516       0.43297074 </v>
    <v>       0.77933653       0.44533516       0.43297074 </v>
    <v>       0.11133379       0.77933653       0.43297074 </v>
    <v>       0.44533516       0.77933653       0.43297074 </v>
    <v>       0.77933653       0.77933653       0.43297074 </v>
    <v>       0.89094877       0.22470832       0.52554449 </v>
    <v>       0.22138868       0.22450723       0.52549179 </v>
    <v>       0.55654055       0.22368326       0.52415098 </v>
    <v>       0.89079354       0.55532266       0.52550866 </v>
    <v>       0.22326157       0.55687670       0.52436363 </v>
    <v>       0.55661569       0.55697755       0.52431379 </v>
    <v>       0.89012007       0.89038270       0.52442749 </v>
    <v>       0.22332074       0.89022057       0.52456577 </v>
    <v>       0.55654746       0.89028966       0.52427767 </v>
    <v>       0.00084175       0.00126584       0.61770099 </v>
    <v>       0.33535142       0.00124135       0.61764850 </v>
    <v>       0.66773955       0.00178368       0.61761454 </v>
    <v>       0.00091408       0.33518887       0.62310327 </v>
    <v>       0.33534319       0.33475641       0.61753376 </v>
    <v>       0.66714457       0.33479314       0.61743547 </v>
    <v>       0.00093327       0.66920779       0.61757447 </v>
    <v>       0.33438604       0.66838907       0.61747554 </v>
    <v>       0.66724617       0.66914900       0.61752813 </v>
    <v>       0.99994626       0.33748135       0.68537979 </v>
   </varray>
  </structure>
  <varray name="primitive_index" >
   <v type="int" >        1 </v>
   <v type="int" >        2 </v>
   <v type="int" >        3 </v>
   <v type="int" >        4 </v>
   <v type="int" >        5 </v>
   <v type="int" >        6 </v>
   <v type="int" >        7 </v>
   <v type="int" >        8 </v>
   <v type="int" >        9 </v>
   <v type="int" >       10 </v>
   <v type="int" >       11 </v>
   <v type="int" >       12 </v>
   <v type="int" >       13 </v>
   <v type="int" >       14 </v>
   <v type="int" >       15 </v>
   <v type="int" >       16 </v>
   <v type="int" >       17 </v>
   <v type="int" >       18 </v>
   <v type="int" >       19 </v>
   <v type="int" >       20 </v>
   <v type="int" >       21 </v>
   <v type="int" >       22 </v>
   <v type="int" >       23 </v>
   <v type="int" >       24 </v>
   <v type="int" >       25 </v>
   <v type="int" >       26 </v>
   <v type="int" >       27 </v>
   <v type="int" >       28 </v>
   <v type="int" >       29 </v>
   <v type="int" >       30 </v>
   <v type="int" >       31 </v>
   <v type="int" >       32 </v>
   <v type="int" >       33 </v>
   <v type="int" >       34 </v>
   <v type="int" >       35 </v>
   <v type="int" >       36 </v>
   <v type="int" >       37 </v>
  </varray>
 </primitive_cell>
 <kpoints>
  <generation param="Monkhorst-Pack">
   <v type="int" name="divisions">       5        5        1 </v>
   <v name="usershift">      0.00000000       0.00000000       0.00000000 </v>
   <v name="genvec1">      0.20000000      -0.00000000       0.00000000 </v>
   <v name="genvec2">      0.00000000       0.20000000       0.00000000 </v>
   <v name="genvec3">      0.00000000       0.00000000       1.00000000 </v>
   <v name="shift">      0.00000000       0.00000000       0.00000000 </v>
  </generation>
  <varray name="kpointlist" >
   <v>       0.00000000       0.00000000       0.00000000 </v>
   <v>       0.20000000       0.00000000       0.00000000 </v>
   <v>       0.20000000       0.20000000       0.00000000 </v>
   <v>       0.00000000       0.20000000       0.00000000 </v>
   <v>       0.40000000       0.00000000       0.00000000 </v>
   <v>       0.40000000       0.40000000       0.00000000 </v>
   <v>       0.00000000       0.40000000       0.00000000 </v>
   <v>       0.40000000       0.20000000       0.00000000 </v>
   <v>       0.20000000       0.40000000       0.00000000 </v>
   <v>      -0.20000000       0.20000000       0.00000000 </v>
   <v>      -0.40000000       0.20000000       0.00000000 </v>
   <v>       0.40000000      -0.40000000       0.00000000 </v>
   <v>      -0.20000000       0.40000000       0.00000000 </v>
  </varray>
  <varray name="weights" >
   <v>       0.04000000 </v>
   <v>       0.08000000 </v>
   <v>       0.08000000 </v>
   <v>       0.08000000 </v>
   <v>       0.08000000 </v>
   <v>       0.08000000 </v>
   <v>       0.08000000 </v>
   <v>       0.08000000 </v>
   <v>       0.08000000 </v>
   <v>       0.08000000 </v>
   <v>       0.08000000 </v>
   <v>       0.08000000 </v>
   <v>       0.08000000 </v>
  </varray>
 </kpoints>
 <parameters>
  <separator name="general" >
   <i type="string" name="SYSTEM">unknown system</i>
   <i type="logical" name="LCOMPAT"> F  </i>
  </separator>
  <separator name="electronic" >
   <i type="string" name="PREC">normal</i>
   <i name="ENMAX">    680.29000000</i>
   <i name="ENAUG">    400.00000000</i>
   <i name="EDIFF">      0.00001000</i>
   <i type="int" name="IALGO">    68</i>
   <i type="int" name="IWAVPR">    10</i>
   <i type="int" name="NBANDS">   240</i>
   <i type="int" name="NBANDSLOW">    -1</i>
   <i type="int" name="NBANDSHIGH">    -1</i>
   <i name="NELECT">    361.00000000</i>
   <i type="int" name="TURBO">     0</i>
   <i type="int" name="IRESTART">     0</i>
   <i type="int" name="NREBOOT">     0</i>
   <i type="int" name="NMIN">     0</i>
   <i name="EREF">      0.00000000</i>
   <separator name="electronic smearing" >
    <i type="int" name="ISMEAR">     1</i>
    <i name="SIGMA">      0.10000000</i>
    <i name="KSPACING">      0.50000000</i>
    <i type="logical" name="KGAMMA"> T  </i>
    <i type="logical" name="KBLOWUP"> T  </i>
   </separator>
   <separator name="electronic projectors" >
    <i type="logical" name="LREAL"> T  </i>
    <v name="ROPT">     -0.00050000     -0.00050000</v>
    <i type="int" name="LMAXPAW">  -100</i>
    <i type="int" name="LMAXMIX">     2</i>
    <i type="logical" name="NLSPLINE"> F  </i>
   </separator>
   <separator name="electronic startup" >
    <i type="int" name="ISTART">     1</i>
    <i type="int" name="ICHARG">     0</i>
    <i type="int" name="INIWAV">     1</i>
   </separator>
   <separator name="electronic spin" >
    <i type="int" name="ISPIN">     1</i>
    <i type="logical" name="LNONCOLLINEAR"> F  </i>
    <v name="MAGMOM">      1.00000000      1.00000000      1.00000000      1.00000000      1.00000000      1.00000000      1.00000000      1.00000000      1.00000000      1.00000000      1.00000000      1.00000000      1.00000000      1.00000000      1.00000000      1.00000000      1.00000000      1.00000000      1.00000000      1.00000000
      1.00000000      1.00000000      1.00000000      1.00000000      1.00000000      1.00000000      1.00000000      1.00000000      1.00000000      1.00000000      1.00000000      1.00000000      1.00000000      1.00000000      1.00000000      1.00000000      1.00000000</v>
    <i name="NUPDOWN">     -1.00000000</i>
    <i type="logical" name="LSORBIT"> F  </i>
    <v name="SAXIS">      0.00000000      0.00000000      1.00000000</v>
    <i type="logical" name="LSPIRAL"> F  </i>
    <v name="QSPIRAL">      0.00000000      0.00000000      0.00000000</v>
    <i type="logical" name="LZEROZ"> F  </i>
   </separator>
   <separator name="electronic exchange-correlation" >
    <i type="logical" name="LASPH"> F  </i>
    <i type="logical" name="LMETAGGA"> F  </i>
   </separator>
   <separator name="electronic convergence" >
    <i type="int" name="NELM">    60</i>
    <i type="int" name="NELMDL">     0</i>
    <i type="int" name="NELMIN">     2</i>
    <i name="ENINI">    680.29000000</i>
    <separator name="electronic convergence detail" >
     <i type="logical" name="LDIAG"> T  </i>
     <i type="logical" name="LSUBROT"> F  </i>
     <i name="WEIMIN">      0.00000000</i>
     <i name="EBREAK">      0.00000001</i>
     <i name="DEPER">      0.30000000</i>
     <i type="int" name="NRMM">     4</i>
     <i name="TIME">      0.40000000</i>
    </separator>
   </separator>
   <separator name="electronic mixer" >
    <i name="AMIX">      0.40000000</i>
    <i name="BMIX">      1.00000000</i>
    <i name="AMIN">      0.10000000</i>
    <i name="AMIX_MAG">      1.60000000</i>
    <i name="BMIX_MAG">      1.00000000</i>
    <separator name="electronic mixer details" >
     <i type="int" name="IMIX">     4</i>
     <i type="logical" name="MIXFIRST"> F  </i>
     <i type="int" name="MAXMIX">   -45</i>
     <i name="WC">    100.00000000</i>
     <i type="int" name="INIMIX">     1</i>
     <i type="int" name="MIXPRE">     1</i>
     <i type="int" name="MREMOVE">     5</i>
    </separator>
   </separator>
   <separator name="electronic dipolcorrection" >
    <i type="logical" name="LDIPOL"> F  </i>
    <i type="logical" name="LMONO"> F  </i>
    <i type="int" name="IDIPOL">     0</i>
    <i name="EPSILON">      1.00000000</i>
    <v name="DIPOL">   -100.00000000   -100.00000000   -100.00000000</v>
    <i name="EFIELD">      0.00000000</i>
   </separator>
  </separator>
  <separator name="grids" >
   <i type="int" name="NGX">    54</i>
   <i type="int" name="NGY">    54</i>
   <i type="int" name="NGZ">   160</i>
   <i type="int" name="NGXF">   108</i>
   <i type="int" name="NGYF">   108</i>
   <i type="int" name="NGZF">   320</i>
   <i type="logical" name="ADDGRID"> F  </i>
  </separator>
  <separator name="ionic" >
   <i type="int" name="NSW">     0</i>
   <i type="int" name="IBRION">    -1</i>
   <i type="int" name="MDALGO">     0</i>
   <i type="int" name="ISIF">     2</i>
   <i name="PSTRESS">      0.00000000</i>
   <i name="EDIFFG">      0.00010000</i>
   <i type="int" name="NFREE">     0</i>
   <i name="POTIM">      0.50000000</i>
   <i name="SMASS">     -3.00000000</i>
   <i name="SCALEE">      1.00000000</i>
  </separator>
  <separator name="ionic md" >
   <i name="TEBEG">      0.00010000</i>
   <i name="TEEND">      0.00010000</i>
   <i type="int" name="NBLOCK">     1</i>
   <i type="int" name="KBLOCK">     1</i>
   <i type="int" name="NPACO">   256</i>
   <i name="APACO">     10.00000000</i>
  </separator>
  <separator name="symmetry" >
   <i type="int" name="ISYM">     0</i>
   <i name="SYMPREC">      0.00001000</i>
  </separator>
  <separator name="dos" >
   <i type="int" name="LORBIT">     0</i>
   <v name="RWIGS">     -1.00000000     -1.00000000</v>
   <i type="int" name="NEDOS">   301</i>
   <i name="EMIN">     10.00000000</i>
   <i name="EMAX">    -10.00000000</i>
   <i name="EFERMI">      0.00000000</i>
  </separator>
  <separator name="writing" >
   <i type="int" name="NWRITE">     2</i>
   <i type="logical" name="LWAVE"> T  </i>
   <i type="logical" name="LDOWNSAMPLE"> F  </i>
   <i type="logical" name="LCHARG"> T  </i>
   <i type="logical" name="LPARD"> F  </i>
   <i type="logical" name="LVTOT"> F  </i>
   <i type="logical" name="LVHAR"> F  </i>
   <i type="logical" name="LELF"> F  </i>
   <i type="logical" name="LOPTICS"> F  </i>
   <v name="STM">      0.00000000      0.00000000      0.00000000      0.00000000      0.00000000      0.00000000      0.00000000</v>
  </separator>
  <separator name="performance" >
   <i type="int" name="NPAR">    48</i>
   <i type="int" name="NSIM">     4</i>
   <i type="int" name="NBLK">    -1</i>
   <i type="logical" name="LPLANE"> T  </i>
   <i type="logical" name="LSCALAPACK"> T  </i>
   <i type="logical" name="LSCAAWARE"> F  </i>
   <i type="logical" name="LSCALU"> F  </i>
   <i type="logical" name="LASYNC"> F  </i>
   <i type="logical" name="LORBITALREAL"> F  </i>
  </separator>
  <separator name="miscellaneous" >
   <i type="int" name="IDIOT">     3</i>
   <i type="int" name="PHON_NSTRUCT">    -1</i>
   <i type="logical" name="LMUSIC"> F  </i>
   <v name="POMASS">    195.08000000      1.00000000</v>
   <v name="DARWINR">      0.00000000      0.00000000</v>
   <v name="DARWINV">      1.00000000      1.00000000</v>
   <i type="logical" name="LCORR"> T  </i>
  </separator>
  <i type="logical" name="GGA_COMPAT"> T  </i>
  <i type="logical" name="LBERRY"> F  </i>
  <i type="int" name="ICORELEVEL">     0</i>
  <i type="logical" name="LDAU"> F  </i>
  <i type="int" name="I_CONSTRAINED_M">     0</i>
  <separator name="electronic exchange-correlation" >
   <i type="string" name="GGA">BF</i>
   <i type="int" name="VOSKOWN">     0</i>
   <i type="logical" name="LHFCALC"> F  </i>
   <i type="string" name="PRECFOCK"></i>
   <i type="logical" name="LSYMGRAD"> F  </i>
   <i type="logical" name="LHFONE"> F  </i>
   <i type="logical" name="LRHFCALC"> F  </i>
   <i type="logical" name="LTHOMAS"> F  </i>
   <i type="logical" name="LMODELHF"> F  </i>
   <i type="logical" name="LFOCKACE"> F  </i>
   <i name="ENCUT4O">     -1.00000000</i>
   <i type="int" name="EXXOEP">     0</i>
   <i type="int" name="FOURORBIT">     0</i>
   <i name="AEXX">      0.00000000</i>
   <i name="HFALPHA">      0.00000000</i>
   <i name="MCALPHA">      0.00000000</i>
   <i name="ALDAX">      1.00000000</i>
   <i name="AGGAX">      1.00000000</i>
   <i name="ALDAC">      1.00000000</i>
   <i name="AGGAC">      1.00000000</i>
   <i type="int" name="NKREDX">     1</i>
   <i type="int" name="NKREDY">     1</i>
   <i type="int" name="NKREDZ">     1</i>
   <i type="logical" name="SHIFTRED"> F  </i>
   <i type="logical" name="ODDONLY"> F  </i>
   <i type="logical" name="EVENONLY"> F  </i>
   <i type="int" name="LMAXFOCK">     0</i>
   <i type="int" name="NMAXFOCKAE">     0</i>
   <i type="logical" name="LFOCKAEDFT"> F  </i>
   <i name="HFSCREEN">      0.00000000</i>
   <i name="HFSCREENC">      0.00000000</i>
   <i type="int" name="NBANDSGWLOW">     0</i>
  </separator>
  <separator name="vdW DFT" >
   <i type="logical" name="LUSE_VDW"> T  </i>
   <i type="int" name="IVDW_NL">     1</i>
   <i type="logical" name="LSPIN_VDW"> F  </i>
   <i name="Zab_VDW">     -1.88670000</i>
   <i name="PARAM1">      0.12340000</i>
   <i name="PARAM2">      1.00000000</i>
   <i name="PARAM3">      0.00000000</i>
  </separator>
  <separator name="model GW" >
   <i type="int" name="MODEL_GW">     0</i>
   <i name="MODEL_EPS0">     25.14297943</i>
   <i name="MODEL_ALPHA">      1.00000000</i>
  </separator>
  <separator name="linear response parameters" >
   <i type="logical" name="LEPSILON"> F  </i>
   <i type="logical" name="LRPA"> F  </i>
   <i type="logical" name="LNABLA"> F  </i>
   <i type="logical" name="LVEL"> F  </i>
   <i name="CSHIFT">      0.10000000</i>
   <i name="OMEGAMAX">     -1.00000000</i>
   <i name="DEG_THRESHOLD">      0.00200000</i>
   <i name="RTIME">     -0.10000000</i>
   <i name="WPLASMAI">      0.00000000</i>
   <v name="DFIELD">      0.00000000      0.00000000      0.00000000</v>
   <v name="WPLASMA">      0.00000000      0.00000000      0.00000000      0.00000000      0.00000000      0.00000000      0.00000000      0.00000000      0.00000000</v>
  </separator>
  <separator name="orbital magnetization" >
   <i type="logical" name="NUCIND"> F  </i>
   <v name="MAGPOS">      0.00000000      0.00000000      0.00000000</v>
   <i type="logical" name="LNICSALL"> T  </i>
   <i type="logical" name="ORBITALMAG"> F  </i>
   <i type="logical" name="LMAGBLOCH"> F  </i>
   <i type="logical" name="LCHIMAG"> F  </i>
   <i type="logical" name="LGAUGE"> T  </i>
   <i type="int" name="MAGATOM">     0</i>
   <v name="MAGDIPOL">      0.00000000      0.00000000      0.00000000</v>
   <v name="AVECCONST">      0.00000000      0.00000000      0.00000000</v>
  </separator>
  <separator name="response functions" >
   <i type="logical" name="LALL_IN_ONE"> F  </i>
   <i type="int" name="IALL_IN_ONE">    -1</i>
   <i type="int" name="NBANDS_WAVE">    -1</i>
   <i type="logical" name="LFINITE_TEMPERATURE"> F  </i>
   <i type="logical" name="LADDER"> F  </i>
   <i type="logical" name="LRPAFORCE"> F  </i>
   <i type="logical" name="LFXC"> F  </i>
   <i type="logical" name="LHARTREE"> T  </i>
   <i type="int" name="IBSE">     0</i>
   <v type="int" name="KPOINT">    -1     0     0     0</v>
   <i type="logical" name="LTCTC"> F  </i>
   <i type="logical" name="LTCTE"> F  </i>
   <i type="logical" name="LTETE"> F  </i>
   <i type="logical" name="LTRIPLET"> F  </i>
   <i type="logical" name="LFXCEPS"> F  </i>
   <i type="logical" name="LFXHEG"> F  </i>
   <i type="int" name="NATURALO">     2</i>
   <i type="logical" name="LHOLEGF"> F  </i>
   <i type="logical" name="L2ORDER"> F  </i>
   <i type="logical" name="LDMP1"> F  </i>
   <i type="logical" name="LMP2LT"> F  </i>
   <i type="logical" name="LSMP2LT"> F  </i>
   <i type="logical" name="LGWLF"> F  </i>
   <i name="ENCUTGW">     -1.60000002</i>
   <i name="ENCUTGWSOFT">     -1.60000002</i>
   <i name="ENCUTLF">     -1.00000000</i>
   <i type="logical" name="LESF_SPLINES"> F  </i>
   <i type="int" name="LMAXMP2">    -1</i>
   <i name="SCISSOR">      0.00000000</i>
   <i type="int" name="NOMEGA">     0</i>
   <i type="int" name="NOMEGAR">     0</i>
   <i type="int" name="NBANDSGW">    -1</i>
   <i type="int" name="NBANDSO">    -1</i>
   <i type="int" name="NBANDSV">    -1</i>
   <i type="int" name="NELMGW">     1</i>
   <i type="int" name="NELMHF">     1</i>
   <i type="int" name="DIM">     3</i>
   <i type="int" name="IESPILON">     4</i>
   <i type="int" name="ANTIRES">     0</i>
   <i name="OMEGAMAX">    -30.00000000</i>
   <i name="OMEGAMIN">    -30.00000000</i>
   <i name="OMEGATL">   -200.00000000</i>
   <i type="int" name="OMEGAGRID">     0</i>
   <i name="CSHIFT">     -0.10000000</i>
   <i type="logical" name="LSELFENERGY"> F  </i>
   <i type="logical" name="LSPECTRAL"> F  </i>
   <i type="logical" name="LSPECTRALGW"> F  </i>
   <i type="logical" name="LSINGLES"> F  </i>
   <i type="logical" name="LFERMIGW"> F  </i>
   <i type="logical" name="ODDONLYGW"> F  </i>
   <i type="logical" name="EVENONLYGW"> F  </i>
   <i type="int" name="NKREDLFX">     1</i>
   <i type="int" name="NKREDLFY">     1</i>
   <i type="int" name="NKREDLFZ">     1</i>
   <i type="int" name="MAXMEM">  2800</i>
   <i type="int" name="TELESCOPE">     0</i>
   <i type="int" name="NTAUPAR">    -1</i>
   <i type="int" name="NOMEGAPAR">    -1</i>
   <i name="DAMP_NEWTON">      0.80000001</i>
   <i name="LAMBDA">      1.00000000</i>
  </separator>
  <separator name="External order field" >
   <i name="OFIELD_KAPPA">      0.00000000</i>
   <v name="OFIELD_K">      0.00000000      0.00000000      0.00000000</v>
   <i name="OFIELD_Q6_NEAR">      0.00000000</i>
   <i name="OFIELD_Q6_FAR">      0.00000000</i>
   <i name="OFIELD_A">      0.00000000</i>
  </separator>
  <separator name="optional k-points parameters" >
   <i type="int" name="KPOINTS_OPT_MODE">     1</i>
   <i type="logical" name="LKPOINTS_OPT"> F  </i>
  </separator>
 </parameters>
 <atominfo>
  <atoms>      37 </atoms>
  <types>       2 </types>
  <array name="atoms" >
   <dimension dim="1">ion</dimension>
   <field type="string">element</field>
   <field type="int">atomtype</field>
   <set>
    <rc><c>Pt</c><c>   1</c></rc>
    <rc><c>Pt</c><c>   1</c></rc>
    <rc><c>Pt</c><c>   1</c></rc>
    <rc><c>Pt</c><c>   1</c></rc>
    <rc><c>Pt</c><c>   1</c></rc>
    <rc><c>Pt</c><c>   1</c></rc>
    <rc><c>Pt</c><c>   1</c></rc>
    <rc><c>Pt</c><c>   1</c></rc>
    <rc><c>Pt</c><c>   1</c></rc>
    <rc><c>Pt</c><c>   1</c></rc>
    <rc><c>Pt</c><c>   1</c></rc>
    <rc><c>Pt</c><c>   1</c></rc>
    <rc><c>Pt</c><c>   1</c></rc>
    <rc><c>Pt</c><c>   1</c></rc>
    <rc><c>Pt</c><c>   1</c></rc>
    <rc><c>Pt</c><c>   1</c></rc>
    <rc><c>Pt</c><c>   1</c></rc>
    <rc><c>Pt</c><c>   1</c></rc>
    <rc><c>Pt</c><c>   1</c></rc>
    <rc><c>Pt</c><c>   1</c></rc>
    <rc><c>Pt</c><c>   1</c></rc>
    <rc><c>Pt</c><c>   1</c></rc>
    <rc><c>Pt</c><c>   1</c></rc>
    <rc><c>Pt</c><c>   1</c></rc>
    <rc><c>Pt</c><c>   1</c></rc>
    <rc><c>Pt</c><c>   1</c></rc>
    <rc><c>Pt</c><c>   1</c></rc>
    <rc><c>Pt</c><c>   1</c></rc>
    <rc><c>Pt</c><c>   1</c></rc>
    <rc><c>Pt</c><c>   1</c></rc>
    <rc><c>Pt</c><c>   1</c></rc>
    <rc><c>Pt</c><c>   1</c></rc>
    <rc><c>Pt</c><c>   1</c></rc>
    <rc><c>Pt</c><c>   1</c></rc>
    <rc><c>Pt</c><c>   1</c></rc>
    <rc><c>Pt</c><c>   1</c></rc>
    <rc><c>H </c><c>   2</c></rc>
   </set>
  </array>
  <array name="atomtypes" >
   <dimension dim="1">type</dimension>
   <field type="int">atomspertype</field>
   <field type="string">element</field>
   <field>mass</field>
   <field>valence</field>
   <field type="string">pseudopotential</field>
   <set>
    <rc><c>  36</c><c>Pt</c><c>    195.08000000</c><c>     10.00000000</c><c>  PAW_PBE Pt 04Feb2005                  </c></rc>
    <rc><c>   1</c><c>H </c><c>      1.00000000</c><c>      1.00000000</c><c>  PAW_PBE H 15Jun2001                   </c></rc>
   </set>
  </array>
 </atominfo>
 <structure name="initialpos" >
  <crystal>
   <varray name="basis" >
    <v>       8.46831000       0.00000000       0.00000000 </v>
    <v>       4.23415500       7.33377159       0.00000000 </v>
    <v>       0.00000000       0.00000000      24.96566199 </v>
   </varray>
   <i name="volume">   1550.48373159 </i>
   <varray name="rec_basis" >
    <v>       0.11808732      -0.06817774       0.00000000 </v>
    <v>       0.00000000       0.13635549       0.00000000 </v>
    <v>       0.00000000       0.00000000       0.04005502 </v>
   </varray>
  </crystal>
  <varray name="positions" >
   <v>       0.00000000       0.00000000       0.34046764 </v>
   <v>       0.33400137       0.00000000       0.34046764 </v>
   <v>       0.66800274       0.00000000       0.34046764 </v>
   <v>       0.00000000       0.33400137       0.34046764 </v>
   <v>       0.33400137       0.33400137       0.34046764 </v>
   <v>       0.66800274       0.33400137       0.34046764 </v>
   <v>       0.00000000       0.66800274       0.34046764 </v>
   <v>       0.33400137       0.66800274       0.34046764 </v>
   <v>       0.66800274       0.66800274       0.34046764 </v>
   <v>       0.11133379       0.11133379       0.43297074 </v>
   <v>       0.44533516       0.11133379       0.43297074 </v>
   <v>       0.77933653       0.11133379       0.43297074 </v>
   <v>       0.11133379       0.44533516       0.43297074 </v>
   <v>       0.44533516       0.44533516       0.43297074 </v>
   <v>       0.77933653       0.44533516       0.43297074 </v>
   <v>       0.11133379       0.77933653       0.43297074 </v>
   <v>       0.44533516       0.77933653       0.43297074 </v>
   <v>       0.77933653       0.77933653       0.43297074 </v>
   <v>       0.89094877       0.22470832       0.52554449 </v>
   <v>       0.22138868       0.22450723       0.52549179 </v>
   <v>       0.55654055       0.22368326       0.52415098 </v>
   <v>       0.89079354       0.55532266       0.52550866 </v>
   <v>       0.22326157       0.55687670       0.52436363 </v>
   <v>       0.55661569       0.55697755       0.52431379 </v>
   <v>       0.89012007       0.89038270       0.52442749 </v>
   <v>       0.22332074       0.89022057       0.52456577 </v>
   <v>       0.55654746       0.89028966       0.52427767 </v>
   <v>       0.00084175       0.00126584       0.61770099 </v>
   <v>       0.33535142       0.00124135       0.61764850 </v>
   <v>       0.66773955       0.00178368       0.61761454 </v>
   <v>       0.00091408       0.33518887       0.62310327 </v>
   <v>       0.33534319       0.33475641       0.61753376 </v>
   <v>       0.66714457       0.33479314       0.61743547 </v>
   <v>       0.00093327       0.66920779       0.61757447 </v>
   <v>       0.33438604       0.66838907       0.61747554 </v>
   <v>       0.66724617       0.66914900       0.61752813 </v>
   <v>       0.99994626       0.33748135       0.68537979 </v>
  </varray>
  <varray name="selective"  type="logical" >
   <v type="logical" >  F  F  F </v>
   <v type="logical" >  F  F  F </v>
   <v type="logical" >  F  F  F </v>
   <v type="logical" >  F  F  F </v>
   <v type="logical" >  F  F  F </v>
   <v type="logical" >  F  F  F </v>
   <v type="logical" >  F  F  F </v>
   <v type="logical" >  F  F  F </v>
   <v type="logical" >  F  F  F </v>
   <v type="logical" >  F  F  F </v>
   <v type="logical" >  F  F  F </v>
   <v type="logical" >  F  F  F </v>
   <v type="logical" >  F  F  F </v>
   <v type="logical" >  F  F  F </v>
   <v type="logical" >  F  F  F </v>
   <v type="logical" >  F  F  F </v>
   <v type="logical" >  F  F  F </v>
   <v type="logical" >  F  F  F </v>
   <v type="logical" >  T  T  T </v>
   <v type="logical" >  T  T  T </v>
   <v type="logical" >  T  T  T </v>
   <v type="logical" >  T  T  T </v>
   <v type="logical" >  T  T  T </v>
   <v type="logical" >  T  T  T </v>
   <v type="logical" >  T  T  T </v>
   <v type="logical" >  T  T  T </v>
   <v type="logical" >  T  T  T </v>
   <v type="logical" >  T  T  T </v>
   <v type="logical" >  T  T  T </v>
   <v type="logical" >  T  T  T </v>
   <v type="logical" >  T  T  T </v>
   <v type="logical" >  T  T  T </v>
   <v type="logical" >  T  T  T </v>
   <v type="logical" >  T  T  T </v>
   <v type="logical" >  T  T  T </v>
   <v type="logical" >  T  T  T </v>
   <v type="logical" >  T  T  T </v>
  </varray>
  <nose>
   <v>      -3.00000000       0.00000000       0.00010000       0.00010000 </v>
  </nose>
 </structure>
 <calculation>
  <scstep>
   <time name="dav">   14.60   14.75</time>
   <time name="total">   18.22   18.46</time>
   <energy>
    <i name="alphaZ">    797.33612757 </i>
    <i name="ewald"> 132117.15652400 </i>
    <i name="hartreedc">-159517.28552205 </i>
    <i name="XCdc">     89.43049136 </i>
    <i name="pawpsdc">  32151.89304662 </i>
    <i name="pawaedc"> -31154.62474185 </i>
    <i name="eentropy">     -0.08440071 </i>
    <i name="bandstr">  -1085.24808871 </i>
    <i name="atom">  26496.80315902 </i>
    <i name="e_fr_energy">   -104.62340475 </i>
    <i name="e_wo_entrp">   -104.53900404 </i>
    <i name="e_0_energy">   -104.59527118 </i>
   </energy>
  </scstep>
  <scstep>
   <time name="diag">    2.84    2.87</time>
   <time name="diis">    7.83    7.91</time>
   <time name="orth">    0.56    0.57</time>
   <time name="total">   14.41   14.61</time>
   <energy>
    <i name="e_fr_energy">   -104.63247773 </i>
    <i name="e_wo_entrp">   -104.54893045 </i>
    <i name="e_0_energy">   -104.60462864 </i>
   </energy>
  </scstep>
  <scstep>
   <time name="diag">    2.79    2.82</time>
   <time name="diis">    8.54    8.63</time>
   <time name="orth">    0.56    0.56</time>
   <time name="total">   15.07   15.21</time>
   <energy>
    <i name="e_fr_energy">   -104.62414795 </i>
    <i name="e_wo_entrp">   -104.53938425 </i>
    <i name="e_0_energy">   -104.59589338 </i>
   </energy>
  </scstep>
  <scstep>
   <time name="diag">    2.89    2.92</time>
   <time name="diis">    8.24    8.33</time>
   <time name="orth">    0.55    0.55</time>
   <time name="total">   14.86   15.01</time>
   <energy>
    <i name="e_fr_energy">   -104.62307105 </i>
    <i name="e_wo_entrp">   -104.53866915 </i>
    <i name="e_0_energy">   -104.59493709 </i>
   </energy>
  </scstep>
  <scstep>
   <time name="diag">    2.80    2.83</time>
   <time name="diis">    8.38    8.46</time>
   <time name="orth">    0.65    0.66</time>
   <time name="total">   14.28   14.46</time>
   <energy>
    <i name="alphaZ">    797.33612757 </i>
    <i name="ewald"> 132117.15652400 </i>
    <i name="hartreedc">-159518.16024050 </i>
    <i name="XCdc">     89.43141962 </i>
    <i name="pawpsdc">  32152.43838863 </i>
    <i name="pawaedc"> -31155.16791096 </i>
    <i name="eentropy">     -0.08435968 </i>
    <i name="bandstr">  -1084.37617131 </i>
    <i name="atom">  26496.80315902 </i>
    <i name="e_fr_energy">   -104.62306362 </i>
    <i name="e_wo_entrp">   -104.53870394 </i>
    <i name="e_0_energy">   -104.59494373 </i>
   </energy>
  </scstep>
  <structure>
   <crystal>
    <varray name="basis" >
     <v>       8.46831000       0.00000000       0.00000000 </v>
     <v>       4.23415500       7.33377159       0.00000000 </v>
     <v>       0.00000000       0.00000000      24.96566199 </v>
    </varray>
    <i name="volume">   1550.48373159 </i>
    <varray name="rec_basis" >
     <v>       0.11808732      -0.06817774       0.00000000 </v>
     <v>       0.00000000       0.13635549       0.00000000 </v>
     <v>       0.00000000       0.00000000       0.04005502 </v>
    </varray>
   </crystal>
   <varray name="positions" >
    <v>       0.00000000       0.00000000       0.34046764 </v>
    <v>       0.33400137       0.00000000       0.34046764 </v>
    <v>       0.66800274       0.00000000       0.34046764 </v>
    <v>       0.00000000       0.33400137       0.34046764 </v>
    <v>       0.33400137       0.33400137       0.34046764 </v>
    <v>       0.66800274       0.33400137       0.34046764 </v>
    <v>       0.00000000       0.66800274       0.34046764 </v>
    <v>       0.33400137       0.66800274       0.34046764 </v>
    <v>       0.66800274       0.66800274       0.34046764 </v>
    <v>       0.11133379       0.11133379       0.43297074 </v>
    <v>       0.44533516       0.11133379       0.43297074 </v>
    <v>       0.77933653       0.11133379       0.43297074 </v>
    <v>       0.11133379       0.44533516       0.43297074 </v>
    <v>       0.44533516       0.44533516       0.43297074 </v>
    <v>       0.77933653       0.44533516       0.43297074 </v>
    <v>       0.11133379       0.77933653       0.43297074 </v>
    <v>       0.44533516       0.77933653       0.43297074 </v>
    <v>       0.77933653       0.77933653       0.43297074 </v>
    <v>       0.89094877       0.22470832       0.52554449 </v>
    <v>       0.22138868       0.22450723       0.52549179 </v>
    <v>       0.55654055       0.22368326       0.52415098 </v>
    <v>       0.89079354       0.55532266       0.52550866 </v>
    <v>       0.22326157       0.55687670       0.52436363 </v>
    <v>       0.55661569       0.55697755       0.52431379 </v>
    <v>       0.89012007       0.89038270       0.52442749 </v>
    <v>       0.22332074       0.89022057       0.52456577 </v>
    <v>       0.55654746       0.89028966       0.52427767 </v>
    <v>       0.00084175       0.00126584       0.61770099 </v>
    <v>       0.33535142       0.00124135       0.61764850 </v>
    <v>       0.66773955       0.00178368       0.61761454 </v>
    <v>       0.00091408       0.33518887       0.62310327 </v>
    <v>       0.33534319       0.33475641       0.61753376 </v>
    <v>       0.66714457       0.33479314       0.61743547 </v>
    <v>       0.00093327       0.66920779       0.61757447 </v>
    <v>       0.33438604       0.66838907       0.61747554 </v>
    <v>       0.66724617       0.66914900       0.61752813 </v>
    <v>       0.99994626       0.33748135       0.68537979 </v>
   </varray>
  </structure>
  <varray name="forces" >
   <v>       0.04914062       0.03987319      -0.12376564 </v>
   <v>       0.02342491       0.05854519      -0.08767794 </v>
   <v>      -0.03297931       0.06778294      -0.22551189 </v>
   <v>       0.05374823      -0.01707307      -0.09417924 </v>
   <v>       0.00197882      -0.01289934      -0.06553470 </v>
   <v>      -0.04655762       0.00019296      -0.07802322 </v>
   <v>       0.03297418      -0.05689595      -0.11453307 </v>
   <v>      -0.01000973      -0.04787823      -0.09417869 </v>
   <v>      -0.05496452      -0.03215598      -0.09092786 </v>
   <v>       0.07466092       0.09162064       0.23655576 </v>
   <v>       0.04654645       0.04628369      -0.01758555 </v>
   <v>      -0.09490209       0.06886991       0.01770684 </v>
   <v>       0.02067392      -0.04960442       0.22392077 </v>
   <v>      -0.00331319       0.00147456       0.03857908 </v>
   <v>      -0.02970322       0.00037927       0.23964113 </v>
   <v>       0.05189127      -0.09359833       0.09180273 </v>
   <v>      -0.01925894      -0.07009846       0.07895228 </v>
   <v>      -0.07759262       0.00397608       0.04315924 </v>
   <v>       0.00040412      -0.00099031       0.00622433 </v>
   <v>      -0.00255228      -0.00060201       0.00305269 </v>
   <v>      -0.00011390      -0.00112151      -0.00038935 </v>
   <v>       0.00079445       0.00137211       0.00017957 </v>
   <v>      -0.00050258       0.00062308       0.00628889 </v>
   <v>       0.00101539       0.00236535       0.00501986 </v>
   <v>       0.00229872      -0.00070878       0.00017125 </v>
   <v>       0.00220857       0.00149106      -0.00136917 </v>
   <v>       0.00298335      -0.00413656       0.00041431 </v>
   <v>      -0.00194112       0.00143074      -0.00376046 </v>
   <v>       0.00114132       0.00256473      -0.00265784 </v>
   <v>       0.00068281      -0.00004055      -0.00497397 </v>
   <v>       0.00287320       0.00056994       0.00860690 </v>
   <v>       0.00026818       0.00151856       0.00047931 </v>
   <v>      -0.00085285       0.00002780       0.00626277 </v>
   <v>       0.00206251       0.00088343       0.00364268 </v>
   <v>       0.00334649      -0.00162255      -0.00507438 </v>
   <v>      -0.00126620       0.00399441       0.00248527 </v>
   <v>       0.00139172      -0.00641359      -0.00300268 </v>
  </varray>
  <varray name="stress" >
   <v>     -34.70844409       0.02214022      -0.00542210 </v>
   <v>       0.02214032     -34.72856616      -0.01545614 </v>
   <v>      -0.00542170      -0.01545605       2.56128055 </v>
  </varray>
  <energy>
   <i name="e_fr_energy">   -104.62306362 </i>
   <i name="e_wo_entrp">   -104.53870394 </i>
   <i name="e_0_energy">   -104.59494373 </i>
  </energy>
  <time name="totalsc">  103.72  105.45</time>
  <eigenvalues>
   <array>
    <dimension dim="1">band</dimension>
    <dimension dim="2">kpoint</dimension>
    <dimension dim="3">spin</dimension>
    <field>eigene</field>
    <field>occ</field>
    <set>
     <set comment="spin 1">
      <set comment="kpoint 1">
       <r>   -8.8784    1.0000 </r>
       <r>   -7.6092    1.0000 </r>
       <r>   -6.5423    1.0000 </r>
       <r>   -6.4818    1.0000 </r>
       <r>   -6.4683    1.0000 </r>
       <r>   -6.4582    1.0000 </r>
       <r>   -6.4523    1.0000 </r>
       <r>   -6.4510    1.0000 </r>
       <r>   -6.4311    1.0000 </r>
       <r>   -6.4263    1.0000 </r>
       <r>   -5.9951    1.0000 </r>
       <r>   -5.9087    1.0000 </r>
       <r>   -5.9051    1.0000 </r>
       <r>   -5.9048    1.0000 </r>
       <r>   -5.8963    1.0000 </r>
       <r>   -5.8944    1.0000 </r>
       <r>   -5.5698    1.0000 </r>
       <r>   -5.4498    1.0000 </r>
       <r>   -5.4485    1.0000 </r>
       <r>   -5.4412    1.0000 </r>
       <r>   -5.4372    1.0000 </r>
       <r>   -5.4363    1.0000 </r>
       <r>   -5.3655    1.0000 </r>
       <r>   -5.2210    1.0000 </r>
       <r>   -5.2177    1.0000 </r>
       <r>   -5.2165    1.0000 </r>
       <r>   -5.2107    1.0000 </r>
       <r>   -5.2087    1.0000 </r>
       <r>   -5.0559    1.0000 </r>
       <r>   -5.0139    1.0000 </r>
       <r>   -5.0055    1.0000 </r>
       <r>   -5.0038    1.0000 </r>
       <r>   -5.0022    1.0000 </r>
       <r>   -5.0011    1.0000 </r>
       <r>   -4.9704    1.0000 </r>
       <r>   -4.9635    1.0000 </r>
       <r>   -4.9609    1.0000 </r>
       <r>   -4.9515    1.0000 </r>
       <r>   -4.9481    1.0000 </r>
       <r>   -4.9041    1.0000 </r>
       <r>   -4.7904    1.0000 </r>
       <r>   -4.3736    1.0000 </r>
       <r>   -4.3729    1.0000 </r>
       <r>   -4.3472    1.0000 </r>
       <r>   -4.3449    1.0000 </r>
       <r>   -4.3076    1.0000 </r>
       <r>   -4.3054    1.0000 </r>
       <r>   -4.3016    1.0000 </r>
       <r>   -4.2935    1.0000 </r>
       <r>   -4.2906    1.0000 </r>
       <r>   -4.2457    1.0000 </r>
       <r>   -4.1328    1.0000 </r>
       <r>   -4.1118    1.0000 </r>
       <r>   -4.0483    1.0000 </r>
       <r>   -3.9069    1.0000 </r>
       <r>   -3.5820    1.0000 </r>
       <r>   -3.5713    1.0000 </r>
       <r>   -3.5688    1.0000 </r>
       <r>   -3.5550    1.0000 </r>
       <r>   -3.5523    1.0000 </r>
       <r>   -3.5420    1.0000 </r>
       <r>   -3.4755    1.0000 </r>
       <r>   -3.3836    1.0000 </r>
       <r>   -3.3809    1.0000 </r>
       <r>   -3.3659    1.0000 </r>
       <r>   -3.3655    1.0000 </r>
       <r>   -3.3575    1.0000 </r>
       <r>   -3.3551    1.0000 </r>
       <r>   -3.3221    1.0000 </r>
       <r>   -3.3195    1.0000 </r>
       <r>   -3.3161    1.0000 </r>
       <r>   -3.2924    1.0000 </r>
       <r>   -3.2897    1.0000 </r>
       <r>   -3.2875    1.0000 </r>
       <r>   -3.2601    1.0000 </r>
       <r>   -3.2593    1.0000 </r>
       <r>   -3.2315    1.0000 </r>
       <r>   -3.1488    1.0000 </r>
       <r>   -3.1426    1.0000 </r>
       <r>   -3.1350    1.0000 </r>
       <r>   -3.1326    1.0000 </r>
       <r>   -3.1240    1.0000 </r>
       <r>   -2.9341    1.0000 </r>
       <r>   -2.9299    1.0000 </r>
       <r>   -2.9257    1.0000 </r>
       <r>   -2.9226    1.0000 </r>
       <r>   -2.9098    1.0000 </r>
       <r>   -2.9048    1.0000 </r>
       <r>   -2.9036    1.0000 </r>
       <r>   -2.8910    1.0000 </r>
       <r>   -2.8864    1.0000 </r>
       <r>   -2.8198    1.0000 </r>
       <r>   -2.8192    1.0000 </r>
       <r>   -2.7663    1.0000 </r>
       <r>   -2.7662    1.0000 </r>
       <r>   -2.7281    1.0000 </r>
       <r>   -2.7279    1.0000 </r>
       <r>   -2.6890    1.0000 </r>
       <r>   -2.6881    1.0000 </r>
       <r>   -2.6737    1.0000 </r>
       <r>   -2.6730    1.0000 </r>
       <r>   -2.5342    1.0000 </r>
       <r>   -2.5296    1.0000 </r>
       <r>   -2.5163    1.0000 </r>
       <r>   -2.4970    1.0000 </r>
       <r>   -2.4914    1.0000 </r>
       <r>   -2.4871    1.0000 </r>
       <r>   -2.1320    1.0000 </r>
       <r>   -2.0286    1.0000 </r>
       <r>   -2.0251    1.0000 </r>
       <r>   -2.0005    1.0000 </r>
       <r>   -1.9929    1.0000 </r>
       <r>   -1.9893    1.0000 </r>
       <r>   -1.9857    1.0000 </r>
       <r>   -1.9820    1.0000 </r>
       <r>   -1.9438    1.0000 </r>
       <r>   -1.9437    1.0000 </r>
       <r>   -1.9359    1.0000 </r>
       <r>   -1.9315    1.0000 </r>
       <r>   -1.9302    1.0000 </r>
       <r>   -1.8593    1.0000 </r>
       <r>   -1.8474    1.0000 </r>
       <r>   -1.7328    1.0000 </r>
       <r>   -1.7049    1.0000 </r>
       <r>   -1.7043    1.0000 </r>
       <r>   -1.6872    1.0000 </r>
       <r>   -1.6862    1.0000 </r>
       <r>   -1.6068    1.0000 </r>
       <r>   -1.5906    1.0000 </r>
       <r>   -1.5872    1.0000 </r>
       <r>   -1.5242    1.0000 </r>
       <r>   -1.5239    1.0000 </r>
       <r>   -1.5053    1.0000 </r>
       <r>   -1.4918    1.0000 </r>
       <r>   -1.2986    1.0000 </r>
       <r>   -1.2883    1.0000 </r>
       <r>   -1.2600    1.0000 </r>
       <r>   -1.2570    1.0000 </r>
       <r>   -1.2465    1.0000 </r>
       <r>   -1.2341    1.0000 </r>
       <r>   -1.1810    1.0000 </r>
       <r>   -1.1791    1.0000 </r>
       <r>   -1.0192    1.0000 </r>
       <r>   -1.0150    1.0000 </r>
       <r>   -1.0138    1.0000 </r>
       <r>   -1.0047    1.0000 </r>
       <r>   -1.0019    1.0000 </r>
       <r>   -0.9460    1.0000 </r>
       <r>   -0.8500    1.0000 </r>
       <r>   -0.8451    1.0000 </r>
       <r>   -0.8339    1.0000 </r>
       <r>   -0.8269    1.0000 </r>
       <r>   -0.8222    1.0000 </r>
       <r>   -0.8018    1.0000 </r>
       <r>   -0.7998    1.0000 </r>
       <r>   -0.7946    1.0000 </r>
       <r>   -0.7913    1.0000 </r>
       <r>   -0.7876    1.0000 </r>
       <r>   -0.7858    1.0000 </r>
       <r>   -0.6991    1.0000 </r>
       <r>   -0.6793    1.0000 </r>
       <r>   -0.6770    1.0000 </r>
       <r>   -0.6619    1.0000 </r>
       <r>   -0.6604    1.0000 </r>
       <r>   -0.6576    1.0000 </r>
       <r>   -0.6364    1.0000 </r>
       <r>   -0.6227    1.0000 </r>
       <r>   -0.5785    1.0000 </r>
       <r>   -0.5773    1.0000 </r>
       <r>   -0.5533    1.0000 </r>
       <r>   -0.5456    1.0000 </r>
       <r>   -0.5438    1.0000 </r>
       <r>   -0.5426    1.0000 </r>
       <r>   -0.5380    1.0000 </r>
       <r>   -0.5355    1.0000 </r>
       <r>   -0.4671    1.0000 </r>
       <r>   -0.4460    1.0000 </r>
       <r>   -0.4435    1.0000 </r>
       <r>   -0.4328    1.0000 </r>
       <r>   -0.4273    1.0000 </r>
       <r>   -0.4240    1.0000 </r>
       <r>   -0.4068    1.0000 </r>
       <r>   -0.3457    1.0003 </r>
       <r>   -0.3175    1.0010 </r>
       <r>   -0.3136    1.0012 </r>
       <r>   -0.3119    1.0013 </r>
       <r>   -0.2957    1.0025 </r>
       <r>   -0.2944    1.0027 </r>
       <r>   -0.1052    0.8166 </r>
       <r>   -0.0972    0.7629 </r>
       <r>   -0.0117    0.1163 </r>
       <r>   -0.0093    0.1040 </r>
       <r>    0.0185    0.0034 </r>
       <r>    0.0214   -0.0029 </r>
       <r>    0.0216   -0.0034 </r>
       <r>    0.0282   -0.0154 </r>
       <r>    0.3266   -0.0000 </r>
       <r>    0.8204   -0.0000 </r>
       <r>    0.8995   -0.0000 </r>
       <r>    0.9029   -0.0000 </r>
       <r>    0.9132   -0.0000 </r>
       <r>    0.9137   -0.0000 </r>
       <r>    0.9159   -0.0000 </r>
       <r>    2.4099   -0.0000 </r>
       <r>    3.1828    0.0000 </r>
       <r>    3.1860    0.0000 </r>
       <r>    3.2258    0.0000 </r>
       <r>    3.2284    0.0000 </r>
       <r>    3.2418    0.0000 </r>
       <r>    4.3607    0.0000 </r>
       <r>    4.7725    0.0000 </r>
       <r>    4.7736    0.0000 </r>
       <r>    4.8236    0.0000 </r>
       <r>    4.8262    0.0000 </r>
       <r>    4.8330    0.0000 </r>
       <r>    4.8355    0.0000 </r>
       <r>    4.9502    0.0000 </r>
       <r>    5.1112    0.0000 </r>
       <r>    5.5089    0.0000 </r>
       <r>    5.5398    0.0000 </r>
       <r>    5.8369    0.0000 </r>
       <r>    5.8430    0.0000 </r>
       <r>    5.8533    0.0000 </r>
       <r>    5.8587    0.0000 </r>
       <r>    5.8653    0.0000 </r>
       <r>    6.1575    0.0000 </r>
       <r>    6.6264    0.0000 </r>
       <r>    6.6284    0.0000 </r>
       <r>    6.6408    0.0000 </r>
       <r>    6.6429    0.0000 </r>
       <r>    6.6524    0.0000 </r>
       <r>    6.8875    0.0000 </r>
       <r>    7.1167    0.0000 </r>
       <r>    7.1183    0.0000 </r>
       <r>    7.1358    0.0000 </r>
       <r>    7.1641    0.0000 </r>
       <r>    7.1647    0.0000 </r>
       <r>    7.1712    0.0000 </r>
       <r>    7.3217    0.0000 </r>
       <r>    7.8863    0.0000 </r>
      </set>
      <set comment="kpoint 2">
       <r>   -8.7302    1.0000 </r>
       <r>   -7.4642    1.0000 </r>
       <r>   -6.9629    1.0000 </r>
       <r>   -6.5760    1.0000 </r>
       <r>   -6.5536    1.0000 </r>
       <r>   -6.3888    1.0000 </r>
       <r>   -6.3309    1.0000 </r>
       <r>   -6.2708    1.0000 </r>
       <r>   -6.2269    1.0000 </r>
       <r>   -6.2099    1.0000 </r>
       <r>   -6.0618    1.0000 </r>
       <r>   -5.9969    1.0000 </r>
       <r>   -5.8941    1.0000 </r>
       <r>   -5.8348    1.0000 </r>
       <r>   -5.8324    1.0000 </r>
       <r>   -5.8218    1.0000 </r>
       <r>   -5.5690    1.0000 </r>
       <r>   -5.4831    1.0000 </r>
       <r>   -5.4085    1.0000 </r>
       <r>   -5.4075    1.0000 </r>
       <r>   -5.3959    1.0000 </r>
       <r>   -5.3588    1.0000 </r>
       <r>   -5.3218    1.0000 </r>
       <r>   -5.3069    1.0000 </r>
       <r>   -5.2620    1.0000 </r>
       <r>   -5.2311    1.0000 </r>
       <r>   -5.2090    1.0000 </r>
       <r>   -5.2017    1.0000 </r>
       <r>   -5.1538    1.0000 </r>
       <r>   -5.1147    1.0000 </r>
       <r>   -5.0796    1.0000 </r>
       <r>   -5.0229    1.0000 </r>
       <r>   -5.0083    1.0000 </r>
       <r>   -4.9971    1.0000 </r>
       <r>   -4.9912    1.0000 </r>
       <r>   -4.8783    1.0000 </r>
       <r>   -4.7924    1.0000 </r>
       <r>   -4.7864    1.0000 </r>
       <r>   -4.7714    1.0000 </r>
       <r>   -4.7577    1.0000 </r>
       <r>   -4.7069    1.0000 </r>
       <r>   -4.4959    1.0000 </r>
       <r>   -4.4793    1.0000 </r>
       <r>   -4.4546    1.0000 </r>
       <r>   -4.4176    1.0000 </r>
       <r>   -4.4060    1.0000 </r>
       <r>   -4.3844    1.0000 </r>
       <r>   -4.3343    1.0000 </r>
       <r>   -4.1987    1.0000 </r>
       <r>   -4.1914    1.0000 </r>
       <r>   -4.1197    1.0000 </r>
       <r>   -4.1117    1.0000 </r>
       <r>   -4.0811    1.0000 </r>
       <r>   -4.0527    1.0000 </r>
       <r>   -3.9736    1.0000 </r>
       <r>   -3.8102    1.0000 </r>
       <r>   -3.7350    1.0000 </r>
       <r>   -3.7063    1.0000 </r>
       <r>   -3.6783    1.0000 </r>
       <r>   -3.6737    1.0000 </r>
       <r>   -3.6338    1.0000 </r>
       <r>   -3.5661    1.0000 </r>
       <r>   -3.5576    1.0000 </r>
       <r>   -3.5387    1.0000 </r>
       <r>   -3.5176    1.0000 </r>
       <r>   -3.5153    1.0000 </r>
       <r>   -3.4903    1.0000 </r>
       <r>   -3.4419    1.0000 </r>
       <r>   -3.3981    1.0000 </r>
       <r>   -3.3737    1.0000 </r>
       <r>   -3.3581    1.0000 </r>
       <r>   -3.3412    1.0000 </r>
       <r>   -3.2642    1.0000 </r>
       <r>   -3.2553    1.0000 </r>
       <r>   -3.2441    1.0000 </r>
       <r>   -3.1808    1.0000 </r>
       <r>   -3.1727    1.0000 </r>
       <r>   -3.1543    1.0000 </r>
       <r>   -3.1004    1.0000 </r>
       <r>   -3.0795    1.0000 </r>
       <r>   -3.0718    1.0000 </r>
       <r>   -3.0301    1.0000 </r>
       <r>   -3.0165    1.0000 </r>
       <r>   -2.9794    1.0000 </r>
       <r>   -2.9679    1.0000 </r>
       <r>   -2.9513    1.0000 </r>
       <r>   -2.9385    1.0000 </r>
       <r>   -2.9197    1.0000 </r>
       <r>   -2.9121    1.0000 </r>
       <r>   -2.8944    1.0000 </r>
       <r>   -2.8484    1.0000 </r>
       <r>   -2.8042    1.0000 </r>
       <r>   -2.7951    1.0000 </r>
       <r>   -2.7869    1.0000 </r>
       <r>   -2.7579    1.0000 </r>
       <r>   -2.7535    1.0000 </r>
       <r>   -2.7304    1.0000 </r>
       <r>   -2.7031    1.0000 </r>
       <r>   -2.6940    1.0000 </r>
       <r>   -2.6818    1.0000 </r>
       <r>   -2.5720    1.0000 </r>
       <r>   -2.5330    1.0000 </r>
       <r>   -2.5255    1.0000 </r>
       <r>   -2.5151    1.0000 </r>
       <r>   -2.5007    1.0000 </r>
       <r>   -2.4948    1.0000 </r>
       <r>   -2.4876    1.0000 </r>
       <r>   -2.4798    1.0000 </r>
       <r>   -2.4266    1.0000 </r>
       <r>   -2.4203    1.0000 </r>
       <r>   -2.4085    1.0000 </r>
       <r>   -2.3957    1.0000 </r>
       <r>   -2.3004    1.0000 </r>
       <r>   -2.1138    1.0000 </r>
       <r>   -2.0818    1.0000 </r>
       <r>   -2.0335    1.0000 </r>
       <r>   -2.0043    1.0000 </r>
       <r>   -1.9910    1.0000 </r>
       <r>   -1.9694    1.0000 </r>
       <r>   -1.9636    1.0000 </r>
       <r>   -1.9355    1.0000 </r>
       <r>   -1.9228    1.0000 </r>
       <r>   -1.7974    1.0000 </r>
       <r>   -1.7836    1.0000 </r>
       <r>   -1.7780    1.0000 </r>
       <r>   -1.6689    1.0000 </r>
       <r>   -1.6430    1.0000 </r>
       <r>   -1.5897    1.0000 </r>
       <r>   -1.5738    1.0000 </r>
       <r>   -1.5707    1.0000 </r>
       <r>   -1.5346    1.0000 </r>
       <r>   -1.5226    1.0000 </r>
       <r>   -1.5014    1.0000 </r>
       <r>   -1.4949    1.0000 </r>
       <r>   -1.4237    1.0000 </r>
       <r>   -1.3993    1.0000 </r>
       <r>   -1.3864    1.0000 </r>
       <r>   -1.3713    1.0000 </r>
       <r>   -1.3638    1.0000 </r>
       <r>   -1.1987    1.0000 </r>
       <r>   -1.1761    1.0000 </r>
       <r>   -1.1677    1.0000 </r>
       <r>   -1.1379    1.0000 </r>
       <r>   -1.1266    1.0000 </r>
       <r>   -1.1053    1.0000 </r>
       <r>   -1.0739    1.0000 </r>
       <r>   -1.0237    1.0000 </r>
       <r>   -0.9938    1.0000 </r>
       <r>   -0.9910    1.0000 </r>
       <r>   -0.9733    1.0000 </r>
       <r>   -0.9446    1.0000 </r>
       <r>   -0.9052    1.0000 </r>
       <r>   -0.8957    1.0000 </r>
       <r>   -0.8846    1.0000 </r>
       <r>   -0.8580    1.0000 </r>
       <r>   -0.7725    1.0000 </r>
       <r>   -0.7665    1.0000 </r>
       <r>   -0.7417    1.0000 </r>
       <r>   -0.6942    1.0000 </r>
       <r>   -0.6436    1.0000 </r>
       <r>   -0.6221    1.0000 </r>
       <r>   -0.6190    1.0000 </r>
       <r>   -0.6059    1.0000 </r>
       <r>   -0.5763    1.0000 </r>
       <r>   -0.5700    1.0000 </r>
       <r>   -0.5322    1.0000 </r>
       <r>   -0.4796    1.0000 </r>
       <r>   -0.4544    1.0000 </r>
       <r>   -0.4494    1.0000 </r>
       <r>   -0.3892    1.0000 </r>
       <r>   -0.3827    1.0000 </r>
       <r>   -0.3742    1.0001 </r>
       <r>   -0.3385    1.0004 </r>
       <r>   -0.3350    1.0004 </r>
       <r>   -0.3310    1.0005 </r>
       <r>   -0.3303    1.0005 </r>
       <r>   -0.3225    1.0008 </r>
       <r>   -0.2667    1.0074 </r>
       <r>   -0.2545    1.0108 </r>
       <r>   -0.1230    0.9146 </r>
       <r>   -0.1134    0.8657 </r>
       <r>   -0.0852    0.6737 </r>
       <r>   -0.0728    0.5723 </r>
       <r>   -0.0706    0.5544 </r>
       <r>   -0.0538    0.4124 </r>
       <r>   -0.0211    0.1702 </r>
       <r>   -0.0031    0.0750 </r>
       <r>    0.0028    0.0510 </r>
       <r>    0.0190    0.0021 </r>
       <r>    0.0886   -0.0264 </r>
       <r>    0.1230   -0.0118 </r>
       <r>    0.1432   -0.0063 </r>
       <r>    0.1455   -0.0058 </r>
       <r>    0.2995   -0.0000 </r>
       <r>    0.3113   -0.0000 </r>
       <r>    0.3204   -0.0000 </r>
       <r>    0.3688   -0.0000 </r>
       <r>    0.6532   -0.0000 </r>
       <r>    0.7756   -0.0000 </r>
       <r>    1.1829   -0.0000 </r>
       <r>    1.4905   -0.0000 </r>
       <r>    1.4954   -0.0000 </r>
       <r>    1.6230   -0.0000 </r>
       <r>    2.2560   -0.0000 </r>
       <r>    2.7208    0.0000 </r>
       <r>    2.9308    0.0000 </r>
       <r>    3.4306    0.0000 </r>
       <r>    3.6601    0.0000 </r>
       <r>    3.6646    0.0000 </r>
       <r>    3.7724    0.0000 </r>
       <r>    3.9703    0.0000 </r>
       <r>    4.3508    0.0000 </r>
       <r>    4.6275    0.0000 </r>
       <r>    4.6578    0.0000 </r>
       <r>    4.9411    0.0000 </r>
       <r>    4.9948    0.0000 </r>
       <r>    5.0144    0.0000 </r>
       <r>    5.1158    0.0000 </r>
       <r>    5.2331    0.0000 </r>
       <r>    5.4883    0.0000 </r>
       <r>    5.6524    0.0000 </r>
       <r>    5.7412    0.0000 </r>
       <r>    5.8651    0.0000 </r>
       <r>    5.9294    0.0000 </r>
       <r>    6.0285    0.0000 </r>
       <r>    6.1940    0.0000 </r>
       <r>    6.2761    0.0000 </r>
       <r>    6.3193    0.0000 </r>
       <r>    6.3647    0.0000 </r>
       <r>    6.6119    0.0000 </r>
       <r>    6.7227    0.0000 </r>
       <r>    6.7261    0.0000 </r>
       <r>    6.7765    0.0000 </r>
       <r>    6.8701    0.0000 </r>
       <r>    6.9459    0.0000 </r>
       <r>    7.0602    0.0000 </r>
       <r>    7.2294    0.0000 </r>
       <r>    7.5064    0.0000 </r>
       <r>    7.5509    0.0000 </r>
       <r>    7.6309    0.0000 </r>
      </set>
      <set comment="kpoint 3">
       <r>   -8.7302    1.0000 </r>
       <r>   -7.4642    1.0000 </r>
       <r>   -6.9642    1.0000 </r>
       <r>   -6.5750    1.0000 </r>
       <r>   -6.5529    1.0000 </r>
       <r>   -6.3888    1.0000 </r>
       <r>   -6.3310    1.0000 </r>
       <r>   -6.2724    1.0000 </r>
       <r>   -6.2264    1.0000 </r>
       <r>   -6.2085    1.0000 </r>
       <r>   -6.0625    1.0000 </r>
       <r>   -5.9963    1.0000 </r>
       <r>   -5.8920    1.0000 </r>
       <r>   -5.8368    1.0000 </r>
       <r>   -5.8343    1.0000 </r>
       <r>   -5.8218    1.0000 </r>
       <r>   -5.5684    1.0000 </r>
       <r>   -5.4818    1.0000 </r>
       <r>   -5.4095    1.0000 </r>
       <r>   -5.4066    1.0000 </r>
       <r>   -5.3965    1.0000 </r>
       <r>   -5.3597    1.0000 </r>
       <r>   -5.3219    1.0000 </r>
       <r>   -5.3060    1.0000 </r>
       <r>   -5.2621    1.0000 </r>
       <r>   -5.2316    1.0000 </r>
       <r>   -5.2111    1.0000 </r>
       <r>   -5.2019    1.0000 </r>
       <r>   -5.1546    1.0000 </r>
       <r>   -5.1131    1.0000 </r>
       <r>   -5.0778    1.0000 </r>
       <r>   -5.0256    1.0000 </r>
       <r>   -5.0084    1.0000 </r>
       <r>   -4.9955    1.0000 </r>
       <r>   -4.9904    1.0000 </r>
       <r>   -4.8786    1.0000 </r>
       <r>   -4.7926    1.0000 </r>
       <r>   -4.7870    1.0000 </r>
       <r>   -4.7704    1.0000 </r>
       <r>   -4.7576    1.0000 </r>
       <r>   -4.7050    1.0000 </r>
       <r>   -4.4955    1.0000 </r>
       <r>   -4.4807    1.0000 </r>
       <r>   -4.4509    1.0000 </r>
       <r>   -4.4193    1.0000 </r>
       <r>   -4.4057    1.0000 </r>
       <r>   -4.3841    1.0000 </r>
       <r>   -4.3359    1.0000 </r>
       <r>   -4.1980    1.0000 </r>
       <r>   -4.1910    1.0000 </r>
       <r>   -4.1199    1.0000 </r>
       <r>   -4.1123    1.0000 </r>
       <r>   -4.0805    1.0000 </r>
       <r>   -4.0530    1.0000 </r>
       <r>   -3.9732    1.0000 </r>
       <r>   -3.8070    1.0000 </r>
       <r>   -3.7343    1.0000 </r>
       <r>   -3.7063    1.0000 </r>
       <r>   -3.6756    1.0000 </r>
       <r>   -3.6719    1.0000 </r>
       <r>   -3.6313    1.0000 </r>
       <r>   -3.5674    1.0000 </r>
       <r>   -3.5621    1.0000 </r>
       <r>   -3.5339    1.0000 </r>
       <r>   -3.5191    1.0000 </r>
       <r>   -3.5173    1.0000 </r>
       <r>   -3.4924    1.0000 </r>
       <r>   -3.4416    1.0000 </r>
       <r>   -3.3959    1.0000 </r>
       <r>   -3.3720    1.0000 </r>
       <r>   -3.3566    1.0000 </r>
       <r>   -3.3412    1.0000 </r>
       <r>   -3.2691    1.0000 </r>
       <r>   -3.2579    1.0000 </r>
       <r>   -3.2503    1.0000 </r>
       <r>   -3.1806    1.0000 </r>
       <r>   -3.1719    1.0000 </r>
       <r>   -3.1532    1.0000 </r>
       <r>   -3.0987    1.0000 </r>
       <r>   -3.0769    1.0000 </r>
       <r>   -3.0675    1.0000 </r>
       <r>   -3.0348    1.0000 </r>
       <r>   -3.0120    1.0000 </r>
       <r>   -2.9788    1.0000 </r>
       <r>   -2.9689    1.0000 </r>
       <r>   -2.9532    1.0000 </r>
       <r>   -2.9380    1.0000 </r>
       <r>   -2.9191    1.0000 </r>
       <r>   -2.9126    1.0000 </r>
       <r>   -2.8950    1.0000 </r>
       <r>   -2.8482    1.0000 </r>
       <r>   -2.8062    1.0000 </r>
       <r>   -2.7929    1.0000 </r>
       <r>   -2.7883    1.0000 </r>
       <r>   -2.7577    1.0000 </r>
       <r>   -2.7525    1.0000 </r>
       <r>   -2.7319    1.0000 </r>
       <r>   -2.7027    1.0000 </r>
       <r>   -2.6952    1.0000 </r>
       <r>   -2.6844    1.0000 </r>
       <r>   -2.5715    1.0000 </r>
       <r>   -2.5344    1.0000 </r>
       <r>   -2.5260    1.0000 </r>
       <r>   -2.5151    1.0000 </r>
       <r>   -2.5034    1.0000 </r>
       <r>   -2.4922    1.0000 </r>
       <r>   -2.4903    1.0000 </r>
       <r>   -2.4769    1.0000 </r>
       <r>   -2.4253    1.0000 </r>
       <r>   -2.4226    1.0000 </r>
       <r>   -2.4097    1.0000 </r>
       <r>   -2.3943    1.0000 </r>
       <r>   -2.2981    1.0000 </r>
       <r>   -2.1116    1.0000 </r>
       <r>   -2.0788    1.0000 </r>
       <r>   -2.0367    1.0000 </r>
       <r>   -2.0061    1.0000 </r>
       <r>   -1.9905    1.0000 </r>
       <r>   -1.9695    1.0000 </r>
       <r>   -1.9652    1.0000 </r>
       <r>   -1.9354    1.0000 </r>
       <r>   -1.9218    1.0000 </r>
       <r>   -1.7978    1.0000 </r>
       <r>   -1.7849    1.0000 </r>
       <r>   -1.7786    1.0000 </r>
       <r>   -1.6728    1.0000 </r>
       <r>   -1.6447    1.0000 </r>
       <r>   -1.5833    1.0000 </r>
       <r>   -1.5795    1.0000 </r>
       <r>   -1.5697    1.0000 </r>
       <r>   -1.5361    1.0000 </r>
       <r>   -1.5232    1.0000 </r>
       <r>   -1.5015    1.0000 </r>
       <r>   -1.4970    1.0000 </r>
       <r>   -1.4247    1.0000 </r>
       <r>   -1.3973    1.0000 </r>
       <r>   -1.3846    1.0000 </r>
       <r>   -1.3699    1.0000 </r>
       <r>   -1.3651    1.0000 </r>
       <r>   -1.1957    1.0000 </r>
       <r>   -1.1789    1.0000 </r>
       <r>   -1.1685    1.0000 </r>
       <r>   -1.1386    1.0000 </r>
       <r>   -1.1264    1.0000 </r>
       <r>   -1.1048    1.0000 </r>
       <r>   -1.0730    1.0000 </r>
       <r>   -1.0242    1.0000 </r>
       <r>   -0.9930    1.0000 </r>
       <r>   -0.9888    1.0000 </r>
       <r>   -0.9747    1.0000 </r>
       <r>   -0.9457    1.0000 </r>
       <r>   -0.9043    1.0000 </r>
       <r>   -0.8938    1.0000 </r>
       <r>   -0.8864    1.0000 </r>
       <r>   -0.8562    1.0000 </r>
       <r>   -0.7722    1.0000 </r>
       <r>   -0.7662    1.0000 </r>
       <r>   -0.7408    1.0000 </r>
       <r>   -0.6940    1.0000 </r>
       <r>   -0.6449    1.0000 </r>
       <r>   -0.6234    1.0000 </r>
       <r>   -0.6193    1.0000 </r>
       <r>   -0.6069    1.0000 </r>
       <r>   -0.5772    1.0000 </r>
       <r>   -0.5728    1.0000 </r>
       <r>   -0.5334    1.0000 </r>
       <r>   -0.4794    1.0000 </r>
       <r>   -0.4538    1.0000 </r>
       <r>   -0.4484    1.0000 </r>
       <r>   -0.3888    1.0000 </r>
       <r>   -0.3833    1.0000 </r>
       <r>   -0.3742    1.0001 </r>
       <r>   -0.3377    1.0004 </r>
       <r>   -0.3362    1.0004 </r>
       <r>   -0.3321    1.0005 </r>
       <r>   -0.3305    1.0005 </r>
       <r>   -0.3208    1.0009 </r>
       <r>   -0.2688    1.0069 </r>
       <r>   -0.2568    1.0101 </r>
       <r>   -0.1260    0.9280 </r>
       <r>   -0.1130    0.8634 </r>
       <r>   -0.0834    0.6590 </r>
       <r>   -0.0724    0.5691 </r>
       <r>   -0.0687    0.5381 </r>
       <r>   -0.0518    0.3959 </r>
       <r>   -0.0192    0.1588 </r>
       <r>    0.0005    0.0600 </r>
       <r>    0.0036    0.0482 </r>
       <r>    0.0213   -0.0028 </r>
       <r>    0.0884   -0.0265 </r>
       <r>    0.1236   -0.0116 </r>
       <r>    0.1425   -0.0064 </r>
       <r>    0.1443   -0.0060 </r>
       <r>    0.3012   -0.0000 </r>
       <r>    0.3111   -0.0000 </r>
       <r>    0.3217   -0.0000 </r>
       <r>    0.3665   -0.0000 </r>
       <r>    0.6561   -0.0000 </r>
       <r>    0.7790   -0.0000 </r>
       <r>    1.1819   -0.0000 </r>
       <r>    1.4895   -0.0000 </r>
       <r>    1.4944   -0.0000 </r>
       <r>    1.6220   -0.0000 </r>
       <r>    2.2538   -0.0000 </r>
       <r>    2.7226    0.0000 </r>
       <r>    2.9337    0.0000 </r>
       <r>    3.4297    0.0000 </r>
       <r>    3.6592    0.0000 </r>
       <r>    3.6646    0.0000 </r>
       <r>    3.7729    0.0000 </r>
       <r>    3.9708    0.0000 </r>
       <r>    4.3490    0.0000 </r>
       <r>    4.6269    0.0000 </r>
       <r>    4.6560    0.0000 </r>
       <r>    4.9389    0.0000 </r>
       <r>    4.9964    0.0000 </r>
       <r>    5.0153    0.0000 </r>
       <r>    5.1160    0.0000 </r>
       <r>    5.2330    0.0000 </r>
       <r>    5.4916    0.0000 </r>
       <r>    5.6526    0.0000 </r>
       <r>    5.7389    0.0000 </r>
       <r>    5.8660    0.0000 </r>
       <r>    5.9325    0.0000 </r>
       <r>    6.0306    0.0000 </r>
       <r>    6.1910    0.0000 </r>
       <r>    6.2762    0.0000 </r>
       <r>    6.3208    0.0000 </r>
       <r>    6.3681    0.0000 </r>
       <r>    6.6112    0.0000 </r>
       <r>    6.7214    0.0000 </r>
       <r>    6.7263    0.0000 </r>
       <r>    6.7752    0.0000 </r>
       <r>    6.8698    0.0000 </r>
       <r>    6.9460    0.0000 </r>
       <r>    7.0596    0.0000 </r>
       <r>    7.2269    0.0000 </r>
       <r>    7.5041    0.0000 </r>
       <r>    7.5518    0.0000 </r>
       <r>    7.6312    0.0000 </r>
      </set>
      <set comment="kpoint 4">
       <r>   -8.7302    1.0000 </r>
       <r>   -7.4642    1.0000 </r>
       <r>   -6.9621    1.0000 </r>
       <r>   -6.5759    1.0000 </r>
       <r>   -6.5545    1.0000 </r>
       <r>   -6.3887    1.0000 </r>
       <r>   -6.3308    1.0000 </r>
       <r>   -6.2692    1.0000 </r>
       <r>   -6.2282    1.0000 </r>
       <r>   -6.2102    1.0000 </r>
       <r>   -6.0649    1.0000 </r>
       <r>   -5.9959    1.0000 </r>
       <r>   -5.8872    1.0000 </r>
       <r>   -5.8379    1.0000 </r>
       <r>   -5.8354    1.0000 </r>
       <r>   -5.8200    1.0000 </r>
       <r>   -5.5682    1.0000 </r>
       <r>   -5.4848    1.0000 </r>
       <r>   -5.4082    1.0000 </r>
       <r>   -5.4066    1.0000 </r>
       <r>   -5.3933    1.0000 </r>
       <r>   -5.3613    1.0000 </r>
       <r>   -5.3230    1.0000 </r>
       <r>   -5.3062    1.0000 </r>
       <r>   -5.2623    1.0000 </r>
       <r>   -5.2301    1.0000 </r>
       <r>   -5.2095    1.0000 </r>
       <r>   -5.2016    1.0000 </r>
       <r>   -5.1584    1.0000 </r>
       <r>   -5.1147    1.0000 </r>
       <r>   -5.0767    1.0000 </r>
       <r>   -5.0216    1.0000 </r>
       <r>   -5.0080    1.0000 </r>
       <r>   -4.9962    1.0000 </r>
       <r>   -4.9913    1.0000 </r>
       <r>   -4.8752    1.0000 </r>
       <r>   -4.7927    1.0000 </r>
       <r>   -4.7893    1.0000 </r>
       <r>   -4.7707    1.0000 </r>
       <r>   -4.7577    1.0000 </r>
       <r>   -4.7077    1.0000 </r>
       <r>   -4.4962    1.0000 </r>
       <r>   -4.4825    1.0000 </r>
       <r>   -4.4547    1.0000 </r>
       <r>   -4.4191    1.0000 </r>
       <r>   -4.4022    1.0000 </r>
       <r>   -4.3830    1.0000 </r>
       <r>   -4.3373    1.0000 </r>
       <r>   -4.1993    1.0000 </r>
       <r>   -4.1913    1.0000 </r>
       <r>   -4.1200    1.0000 </r>
       <r>   -4.1121    1.0000 </r>
       <r>   -4.0791    1.0000 </r>
       <r>   -4.0525    1.0000 </r>
       <r>   -3.9732    1.0000 </r>
       <r>   -3.8102    1.0000 </r>
       <r>   -3.7333    1.0000 </r>
       <r>   -3.7075    1.0000 </r>
       <r>   -3.6812    1.0000 </r>
       <r>   -3.6762    1.0000 </r>
       <r>   -3.6326    1.0000 </r>
       <r>   -3.5660    1.0000 </r>
       <r>   -3.5571    1.0000 </r>
       <r>   -3.5373    1.0000 </r>
       <r>   -3.5172    1.0000 </r>
       <r>   -3.5141    1.0000 </r>
       <r>   -3.4931    1.0000 </r>
       <r>   -3.4409    1.0000 </r>
       <r>   -3.3962    1.0000 </r>
       <r>   -3.3757    1.0000 </r>
       <r>   -3.3582    1.0000 </r>
       <r>   -3.3420    1.0000 </r>
       <r>   -3.2635    1.0000 </r>
       <r>   -3.2531    1.0000 </r>
       <r>   -3.2421    1.0000 </r>
       <r>   -3.1820    1.0000 </r>
       <r>   -3.1720    1.0000 </r>
       <r>   -3.1542    1.0000 </r>
       <r>   -3.0996    1.0000 </r>
       <r>   -3.0804    1.0000 </r>
       <r>   -3.0733    1.0000 </r>
       <r>   -3.0295    1.0000 </r>
       <r>   -3.0158    1.0000 </r>
       <r>   -2.9790    1.0000 </r>
       <r>   -2.9672    1.0000 </r>
       <r>   -2.9512    1.0000 </r>
       <r>   -2.9383    1.0000 </r>
       <r>   -2.9209    1.0000 </r>
       <r>   -2.9126    1.0000 </r>
       <r>   -2.8946    1.0000 </r>
       <r>   -2.8477    1.0000 </r>
       <r>   -2.8060    1.0000 </r>
       <r>   -2.7940    1.0000 </r>
       <r>   -2.7850    1.0000 </r>
       <r>   -2.7571    1.0000 </r>
       <r>   -2.7526    1.0000 </r>
       <r>   -2.7345    1.0000 </r>
       <r>   -2.7029    1.0000 </r>
       <r>   -2.6942    1.0000 </r>
       <r>   -2.6822    1.0000 </r>
       <r>   -2.5714    1.0000 </r>
       <r>   -2.5342    1.0000 </r>
       <r>   -2.5271    1.0000 </r>
       <r>   -2.5148    1.0000 </r>
       <r>   -2.4988    1.0000 </r>
       <r>   -2.4927    1.0000 </r>
       <r>   -2.4908    1.0000 </r>
       <r>   -2.4762    1.0000 </r>
       <r>   -2.4270    1.0000 </r>
       <r>   -2.4259    1.0000 </r>
       <r>   -2.4083    1.0000 </r>
       <r>   -2.3929    1.0000 </r>
       <r>   -2.3011    1.0000 </r>
       <r>   -2.1136    1.0000 </r>
       <r>   -2.0805    1.0000 </r>
       <r>   -2.0367    1.0000 </r>
       <r>   -2.0075    1.0000 </r>
       <r>   -1.9890    1.0000 </r>
       <r>   -1.9686    1.0000 </r>
       <r>   -1.9656    1.0000 </r>
       <r>   -1.9340    1.0000 </r>
       <r>   -1.9178    1.0000 </r>
       <r>   -1.7968    1.0000 </r>
       <r>   -1.7825    1.0000 </r>
       <r>   -1.7779    1.0000 </r>
       <r>   -1.6722    1.0000 </r>
       <r>   -1.6432    1.0000 </r>
       <r>   -1.5934    1.0000 </r>
       <r>   -1.5688    1.0000 </r>
       <r>   -1.5680    1.0000 </r>
       <r>   -1.5344    1.0000 </r>
       <r>   -1.5234    1.0000 </r>
       <r>   -1.5006    1.0000 </r>
       <r>   -1.4962    1.0000 </r>
       <r>   -1.4235    1.0000 </r>
       <r>   -1.3987    1.0000 </r>
       <r>   -1.3840    1.0000 </r>
       <r>   -1.3716    1.0000 </r>
       <r>   -1.3662    1.0000 </r>
       <r>   -1.1957    1.0000 </r>
       <r>   -1.1762    1.0000 </r>
       <r>   -1.1679    1.0000 </r>
       <r>   -1.1388    1.0000 </r>
       <r>   -1.1274    1.0000 </r>
       <r>   -1.1038    1.0000 </r>
       <r>   -1.0761    1.0000 </r>
       <r>   -1.0237    1.0000 </r>
       <r>   -0.9938    1.0000 </r>
       <r>   -0.9910    1.0000 </r>
       <r>   -0.9735    1.0000 </r>
       <r>   -0.9491    1.0000 </r>
       <r>   -0.9055    1.0000 </r>
       <r>   -0.8942    1.0000 </r>
       <r>   -0.8860    1.0000 </r>
       <r>   -0.8544    1.0000 </r>
       <r>   -0.7722    1.0000 </r>
       <r>   -0.7680    1.0000 </r>
       <r>   -0.7421    1.0000 </r>
       <r>   -0.6941    1.0000 </r>
       <r>   -0.6429    1.0000 </r>
       <r>   -0.6231    1.0000 </r>
       <r>   -0.6193    1.0000 </r>
       <r>   -0.6042    1.0000 </r>
       <r>   -0.5771    1.0000 </r>
       <r>   -0.5693    1.0000 </r>
       <r>   -0.5330    1.0000 </r>
       <r>   -0.4790    1.0000 </r>
       <r>   -0.4539    1.0000 </r>
       <r>   -0.4464    1.0000 </r>
       <r>   -0.3901    1.0000 </r>
       <r>   -0.3830    1.0000 </r>
       <r>   -0.3722    1.0001 </r>
       <r>   -0.3399    1.0003 </r>
       <r>   -0.3363    1.0004 </r>
       <r>   -0.3314    1.0005 </r>
       <r>   -0.3291    1.0006 </r>
       <r>   -0.3224    1.0008 </r>
       <r>   -0.2658    1.0076 </r>
       <r>   -0.2538    1.0110 </r>
       <r>   -0.1226    0.9128 </r>
       <r>   -0.1148    0.8732 </r>
       <r>   -0.0850    0.6715 </r>
       <r>   -0.0722    0.5678 </r>
       <r>   -0.0716    0.5627 </r>
       <r>   -0.0540    0.4139 </r>
       <r>   -0.0225    0.1787 </r>
       <r>   -0.0034    0.0767 </r>
       <r>    0.0028    0.0510 </r>
       <r>    0.0176    0.0055 </r>
       <r>    0.0873   -0.0270 </r>
       <r>    0.1243   -0.0114 </r>
       <r>    0.1432   -0.0063 </r>
       <r>    0.1441   -0.0061 </r>
       <r>    0.3005   -0.0000 </r>
       <r>    0.3115   -0.0000 </r>
       <r>    0.3189   -0.0000 </r>
       <r>    0.3708   -0.0000 </r>
       <r>    0.6528   -0.0000 </r>
       <r>    0.7747   -0.0000 </r>
       <r>    1.1829   -0.0000 </r>
       <r>    1.4915   -0.0000 </r>
       <r>    1.4956   -0.0000 </r>
       <r>    1.6226   -0.0000 </r>
       <r>    2.2566   -0.0000 </r>
       <r>    2.7227    0.0000 </r>
       <r>    2.9299    0.0000 </r>
       <r>    3.4277    0.0000 </r>
       <r>    3.6591    0.0000 </r>
       <r>    3.6647    0.0000 </r>
       <r>    3.7722    0.0000 </r>
       <r>    3.9733    0.0000 </r>
       <r>    4.3492    0.0000 </r>
       <r>    4.6279    0.0000 </r>
       <r>    4.6572    0.0000 </r>
       <r>    4.9416    0.0000 </r>
       <r>    4.9953    0.0000 </r>
       <r>    5.0139    0.0000 </r>
       <r>    5.1186    0.0000 </r>
       <r>    5.2330    0.0000 </r>
       <r>    5.4869    0.0000 </r>
       <r>    5.6524    0.0000 </r>
       <r>    5.7422    0.0000 </r>
       <r>    5.8618    0.0000 </r>
       <r>    5.9286    0.0000 </r>
       <r>    6.0311    0.0000 </r>
       <r>    6.1947    0.0000 </r>
       <r>    6.2760    0.0000 </r>
       <r>    6.3192    0.0000 </r>
       <r>    6.3627    0.0000 </r>
       <r>    6.6110    0.0000 </r>
       <r>    6.7224    0.0000 </r>
       <r>    6.7262    0.0000 </r>
       <r>    6.7765    0.0000 </r>
       <r>    6.8716    0.0000 </r>
       <r>    6.9467    0.0000 </r>
       <r>    7.0609    0.0000 </r>
       <r>    7.2280    0.0000 </r>
       <r>    7.5066    0.0000 </r>
       <r>    7.5541    0.0000 </r>
       <r>    7.6328    0.0000 </r>
      </set>
      <set comment="kpoint 5">
       <r>   -8.3039    1.0000 </r>
       <r>   -7.6651    1.0000 </r>
       <r>   -7.0588    1.0000 </r>
       <r>   -6.6103    1.0000 </r>
       <r>   -6.5835    1.0000 </r>
       <r>   -6.4984    1.0000 </r>
       <r>   -6.2439    1.0000 </r>
       <r>   -6.0871    1.0000 </r>
       <r>   -5.9888    1.0000 </r>
       <r>   -5.9469    1.0000 </r>
       <r>   -5.9070    1.0000 </r>
       <r>   -5.8694    1.0000 </r>
       <r>   -5.7979    1.0000 </r>
       <r>   -5.7055    1.0000 </r>
       <r>   -5.6676    1.0000 </r>
       <r>   -5.6532    1.0000 </r>
       <r>   -5.6426    1.0000 </r>
       <r>   -5.5542    1.0000 </r>
       <r>   -5.5096    1.0000 </r>
       <r>   -5.4803    1.0000 </r>
       <r>   -5.4532    1.0000 </r>
       <r>   -5.4321    1.0000 </r>
       <r>   -5.4279    1.0000 </r>
       <r>   -5.3853    1.0000 </r>
       <r>   -5.3393    1.0000 </r>
       <r>   -5.3189    1.0000 </r>
       <r>   -5.3059    1.0000 </r>
       <r>   -5.1857    1.0000 </r>
       <r>   -5.0461    1.0000 </r>
       <r>   -5.0407    1.0000 </r>
       <r>   -5.0324    1.0000 </r>
       <r>   -5.0202    1.0000 </r>
       <r>   -5.0154    1.0000 </r>
       <r>   -4.9571    1.0000 </r>
       <r>   -4.7880    1.0000 </r>
       <r>   -4.7786    1.0000 </r>
       <r>   -4.7707    1.0000 </r>
       <r>   -4.7579    1.0000 </r>
       <r>   -4.7291    1.0000 </r>
       <r>   -4.6652    1.0000 </r>
       <r>   -4.5554    1.0000 </r>
       <r>   -4.4653    1.0000 </r>
       <r>   -4.4591    1.0000 </r>
       <r>   -4.4455    1.0000 </r>
       <r>   -4.4199    1.0000 </r>
       <r>   -4.3915    1.0000 </r>
       <r>   -4.3606    1.0000 </r>
       <r>   -4.3128    1.0000 </r>
       <r>   -4.3032    1.0000 </r>
       <r>   -4.2762    1.0000 </r>
       <r>   -4.2509    1.0000 </r>
       <r>   -4.1885    1.0000 </r>
       <r>   -4.0869    1.0000 </r>
       <r>   -4.0836    1.0000 </r>
       <r>   -4.0589    1.0000 </r>
       <r>   -4.0475    1.0000 </r>
       <r>   -3.9384    1.0000 </r>
       <r>   -3.8872    1.0000 </r>
       <r>   -3.8688    1.0000 </r>
       <r>   -3.8668    1.0000 </r>
       <r>   -3.8226    1.0000 </r>
       <r>   -3.7133    1.0000 </r>
       <r>   -3.6657    1.0000 </r>
       <r>   -3.6433    1.0000 </r>
       <r>   -3.6400    1.0000 </r>
       <r>   -3.6236    1.0000 </r>
       <r>   -3.5461    1.0000 </r>
       <r>   -3.5332    1.0000 </r>
       <r>   -3.5116    1.0000 </r>
       <r>   -3.4213    1.0000 </r>
       <r>   -3.4005    1.0000 </r>
       <r>   -3.3891    1.0000 </r>
       <r>   -3.3732    1.0000 </r>
       <r>   -3.2892    1.0000 </r>
       <r>   -3.2708    1.0000 </r>
       <r>   -3.2682    1.0000 </r>
       <r>   -3.2471    1.0000 </r>
       <r>   -3.2256    1.0000 </r>
       <r>   -3.1879    1.0000 </r>
       <r>   -3.1639    1.0000 </r>
       <r>   -3.1616    1.0000 </r>
       <r>   -3.1433    1.0000 </r>
       <r>   -3.1264    1.0000 </r>
       <r>   -3.1189    1.0000 </r>
       <r>   -3.0998    1.0000 </r>
       <r>   -3.0981    1.0000 </r>
       <r>   -3.0613    1.0000 </r>
       <r>   -2.9959    1.0000 </r>
       <r>   -2.9702    1.0000 </r>
       <r>   -2.9622    1.0000 </r>
       <r>   -2.9537    1.0000 </r>
       <r>   -2.9490    1.0000 </r>
       <r>   -2.9387    1.0000 </r>
       <r>   -2.8419    1.0000 </r>
       <r>   -2.7874    1.0000 </r>
       <r>   -2.7823    1.0000 </r>
       <r>   -2.7522    1.0000 </r>
       <r>   -2.7198    1.0000 </r>
       <r>   -2.7038    1.0000 </r>
       <r>   -2.6872    1.0000 </r>
       <r>   -2.6697    1.0000 </r>
       <r>   -2.6489    1.0000 </r>
       <r>   -2.5754    1.0000 </r>
       <r>   -2.5313    1.0000 </r>
       <r>   -2.4906    1.0000 </r>
       <r>   -2.4553    1.0000 </r>
       <r>   -2.4515    1.0000 </r>
       <r>   -2.4140    1.0000 </r>
       <r>   -2.3949    1.0000 </r>
       <r>   -2.2741    1.0000 </r>
       <r>   -2.2646    1.0000 </r>
       <r>   -2.2317    1.0000 </r>
       <r>   -2.1701    1.0000 </r>
       <r>   -2.1191    1.0000 </r>
       <r>   -2.0931    1.0000 </r>
       <r>   -2.0779    1.0000 </r>
       <r>   -2.0580    1.0000 </r>
       <r>   -2.0461    1.0000 </r>
       <r>   -2.0316    1.0000 </r>
       <r>   -2.0144    1.0000 </r>
       <r>   -1.9725    1.0000 </r>
       <r>   -1.9442    1.0000 </r>
       <r>   -1.9284    1.0000 </r>
       <r>   -1.9266    1.0000 </r>
       <r>   -1.9127    1.0000 </r>
       <r>   -1.8978    1.0000 </r>
       <r>   -1.8712    1.0000 </r>
       <r>   -1.8524    1.0000 </r>
       <r>   -1.8255    1.0000 </r>
       <r>   -1.7344    1.0000 </r>
       <r>   -1.6946    1.0000 </r>
       <r>   -1.6916    1.0000 </r>
       <r>   -1.6802    1.0000 </r>
       <r>   -1.6178    1.0000 </r>
       <r>   -1.5239    1.0000 </r>
       <r>   -1.4934    1.0000 </r>
       <r>   -1.4872    1.0000 </r>
       <r>   -1.3850    1.0000 </r>
       <r>   -1.3823    1.0000 </r>
       <r>   -1.2957    1.0000 </r>
       <r>   -1.2378    1.0000 </r>
       <r>   -1.2112    1.0000 </r>
       <r>   -1.1748    1.0000 </r>
       <r>   -1.1675    1.0000 </r>
       <r>   -1.1470    1.0000 </r>
       <r>   -1.1218    1.0000 </r>
       <r>   -1.1074    1.0000 </r>
       <r>   -1.0485    1.0000 </r>
       <r>   -1.0393    1.0000 </r>
       <r>   -1.0098    1.0000 </r>
       <r>   -0.9834    1.0000 </r>
       <r>   -0.9524    1.0000 </r>
       <r>   -0.8887    1.0000 </r>
       <r>   -0.8622    1.0000 </r>
       <r>   -0.8492    1.0000 </r>
       <r>   -0.8347    1.0000 </r>
       <r>   -0.8207    1.0000 </r>
       <r>   -0.7872    1.0000 </r>
       <r>   -0.7097    1.0000 </r>
       <r>   -0.6380    1.0000 </r>
       <r>   -0.5962    1.0000 </r>
       <r>   -0.5797    1.0000 </r>
       <r>   -0.5493    1.0000 </r>
       <r>   -0.5458    1.0000 </r>
       <r>   -0.5321    1.0000 </r>
       <r>   -0.4500    1.0000 </r>
       <r>   -0.4291    1.0000 </r>
       <r>   -0.4143    1.0000 </r>
       <r>   -0.3321    1.0005 </r>
       <r>   -0.3294    1.0006 </r>
       <r>   -0.3220    1.0008 </r>
       <r>   -0.2654    1.0077 </r>
       <r>   -0.2571    1.0100 </r>
       <r>   -0.2361    1.0177 </r>
       <r>   -0.2122    1.0285 </r>
       <r>   -0.1409    0.9813 </r>
       <r>   -0.1073    0.8298 </r>
       <r>   -0.0865    0.6834 </r>
       <r>   -0.0796    0.6289 </r>
       <r>   -0.0629    0.4891 </r>
       <r>   -0.0617    0.4787 </r>
       <r>   -0.0391    0.2952 </r>
       <r>   -0.0352    0.2658 </r>
       <r>    0.1376   -0.0076 </r>
       <r>    0.1436   -0.0062 </r>
       <r>    0.1673   -0.0025 </r>
       <r>    0.1812   -0.0014 </r>
       <r>    0.1868   -0.0011 </r>
       <r>    0.3415   -0.0000 </r>
       <r>    0.3838   -0.0000 </r>
       <r>    0.5649   -0.0000 </r>
       <r>    0.7837   -0.0000 </r>
       <r>    0.8353   -0.0000 </r>
       <r>    0.9633   -0.0000 </r>
       <r>    1.2270   -0.0000 </r>
       <r>    1.2368   -0.0000 </r>
       <r>    1.5565   -0.0000 </r>
       <r>    1.6129   -0.0000 </r>
       <r>    1.6351   -0.0000 </r>
       <r>    1.9551   -0.0000 </r>
       <r>    2.1304   -0.0000 </r>
       <r>    2.4439   -0.0000 </r>
       <r>    2.4595   -0.0000 </r>
       <r>    2.4608   -0.0000 </r>
       <r>    2.6370   -0.0000 </r>
       <r>    2.7050    0.0000 </r>
       <r>    2.7630    0.0000 </r>
       <r>    2.8298    0.0000 </r>
       <r>    3.0951    0.0000 </r>
       <r>    3.1047    0.0000 </r>
       <r>    3.4565    0.0000 </r>
       <r>    3.7272    0.0000 </r>
       <r>    4.0499    0.0000 </r>
       <r>    4.2768    0.0000 </r>
       <r>    4.4236    0.0000 </r>
       <r>    4.7440    0.0000 </r>
       <r>    4.9374    0.0000 </r>
       <r>    5.2635    0.0000 </r>
       <r>    5.3278    0.0000 </r>
       <r>    5.5363    0.0000 </r>
       <r>    5.5637    0.0000 </r>
       <r>    5.5823    0.0000 </r>
       <r>    5.5962    0.0000 </r>
       <r>    5.6907    0.0000 </r>
       <r>    5.7689    0.0000 </r>
       <r>    5.9618    0.0000 </r>
       <r>    6.0829    0.0000 </r>
       <r>    6.2170    0.0000 </r>
       <r>    6.3199    0.0000 </r>
       <r>    6.3525    0.0000 </r>
       <r>    6.3992    0.0000 </r>
       <r>    6.5557    0.0000 </r>
       <r>    6.5738    0.0000 </r>
       <r>    6.5782    0.0000 </r>
       <r>    6.6058    0.0000 </r>
       <r>    6.6236    0.0000 </r>
       <r>    6.9335    0.0000 </r>
       <r>    7.1404    0.0000 </r>
       <r>    7.1829    0.0000 </r>
       <r>    7.1992    0.0000 </r>
      </set>
      <set comment="kpoint 6">
       <r>   -8.3041    1.0000 </r>
       <r>   -7.6658    1.0000 </r>
       <r>   -7.0583    1.0000 </r>
       <r>   -6.6093    1.0000 </r>
       <r>   -6.5831    1.0000 </r>
       <r>   -6.4995    1.0000 </r>
       <r>   -6.2460    1.0000 </r>
       <r>   -6.0871    1.0000 </r>
[...]
       <r>    6.9399    0.0000 </r>
       <r>    6.9668    0.0000 </r>
       <r>    7.0738    0.0000 </r>
       <r>    7.2339    0.0000 </r>
       <r>    7.3064    0.0000 </r>
      </set>
     </set>
    </set>
   </array>
  </eigenvalues>
  <separator name="orbital magnetization" >
   <v name="MAGDIPOLOUT">      0.00000000      0.00000000      0.00000000</v>
  </separator>
  <dos>
   <i name="efermi">     -0.06419289 </i>
   <total>
    <array>
     <dimension dim="1">gridpoints</dimension>
     <dimension dim="2">spin</dimension>
     <field>energy</field>
     <field>total</field>
     <field>integrated</field>
     <set>
      <set comment="spin 1">
       <r>    -9.8784     0.0000     0.0000 </r>
       <r>    -9.8159     0.0000     0.0000 </r>
       <r>    -9.7533     0.0000     0.0000 </r>
       <r>    -9.6908    -0.0000    -0.0000 </r>
       <r>    -9.6282    -0.0000    -0.0000 </r>
       <r>    -9.5657    -0.0000    -0.0000 </r>
       <r>    -9.5031    -0.0000    -0.0000 </r>
       <r>    -9.4406    -0.0000    -0.0000 </r>
       <r>    -9.3780    -0.0000    -0.0000 </r>
       <r>    -9.3155    -0.0000    -0.0000 </r>
       <r>    -9.2529    -0.0000    -0.0000 </r>
       <r>    -9.1904    -0.0001    -0.0000 </r>
       <r>    -9.1278    -0.0015    -0.0001 </r>
       <r>    -9.0653    -0.0138    -0.0010 </r>
       <r>    -9.0027    -0.0330    -0.0030 </r>
       <r>    -8.9402     0.0969     0.0030 </r>
       <r>    -8.8776     0.3786     0.0267 </r>
       <r>    -8.8151     0.7564     0.0740 </r>
       <r>    -8.7525     2.5661     0.2345 </r>
       <r>    -8.6900     3.7633     0.4699 </r>
       <r>    -8.6274     1.5582     0.5674 </r>
       <r>    -8.5649    -0.2373     0.5526 </r>
       <r>    -8.5023     0.6879     0.5956 </r>
       <r>    -8.4398     3.1747     0.7942 </r>
       <r>    -8.3772     3.7035     1.0258 </r>
       <r>    -8.3147     3.6404     1.2535 </r>
       <r>    -8.2522     3.4221     1.4676 </r>
       <r>    -8.1896     1.1066     1.5368 </r>
       <r>    -8.1271    -0.2019     1.5241 </r>
       <r>    -8.0645    -0.3995     1.4992 </r>
       <r>    -8.0020    -0.0148     1.4982 </r>
       <r>    -7.9394     3.6892     1.7290 </r>
       <r>    -7.8769     7.6107     2.2050 </r>
       <r>    -7.8143     4.3125     2.4748 </r>
       <r>    -7.7518     0.4185     2.5010 </r>
       <r>    -7.6892     2.0643     2.6301 </r>
       <r>    -7.6267     4.0449     2.8831 </r>
       <r>    -7.5641     2.3141     3.0278 </r>
       <r>    -7.5016     1.9380     3.1490 </r>
       <r>    -7.4390     3.4380     3.3641 </r>
       <r>    -7.3765     2.1633     3.4994 </r>
       <r>    -7.3139     2.4407     3.6521 </r>
       <r>    -7.2514     7.6108     4.1281 </r>
       <r>    -7.1888    11.8664     4.8703 </r>
       <r>    -7.1263     8.6257     5.4099 </r>
       <r>    -7.0637     4.4682     5.6894 </r>
       <r>    -7.0012     4.7182     5.9845 </r>
       <r>    -6.9386     4.5997     6.2722 </r>
       <r>    -6.8761     1.9575     6.3946 </r>
       <r>    -6.8135    -0.1663     6.3842 </r>
       <r>    -6.7510     1.5235     6.4795 </r>
       <r>    -6.6884     6.1425     6.8637 </r>
       <r>    -6.6259    11.6297     7.5911 </r>
       <r>    -6.5633    16.7489     8.6388 </r>
       <r>    -6.5008    15.3816     9.6009 </r>
       <r>    -6.4382    10.1528    10.2359 </r>
       <r>    -6.3757     7.5619    10.7089 </r>
       <r>    -6.3131     8.4262    11.2360 </r>
       <r>    -6.2506    15.4435    12.2019 </r>
       <r>    -6.1880    24.4999    13.7344 </r>
       <r>    -6.1255    30.4499    15.6390 </r>
       <r>    -6.0629    33.9031    17.7596 </r>
       <r>    -6.0004    33.1111    19.8307 </r>
       <r>    -5.9378    34.4102    21.9830 </r>
       <r>    -5.8753    36.6121    24.2730 </r>
       <r>    -5.8127    31.8063    26.2625 </r>
       <r>    -5.7502    21.9030    27.6325 </r>
       <r>    -5.6876    24.0160    29.1347 </r>
       <r>    -5.6251    37.7585    31.4965 </r>
       <r>    -5.5625    46.9084    34.4305 </r>
       <r>    -5.5000    47.9885    37.4322 </r>
       <r>    -5.4374    51.3195    40.6421 </r>
       <r>    -5.3749    61.2166    44.4712 </r>
       <r>    -5.3123    64.2373    48.4892 </r>
       <r>    -5.2498    53.2638    51.8208 </r>
       <r>    -5.1872    47.2030    54.7733 </r>
       <r>    -5.1247    48.3653    57.7985 </r>
       <r>    -5.0621    55.3394    61.2599 </r>
       <r>    -4.9996    71.7053    65.7450 </r>
       <r>    -4.9371    57.8744    69.3650 </r>
       <r>    -4.8745    29.8598    71.2327 </r>
       <r>    -4.8120    29.5680    73.0821 </r>
       <r>    -4.7494    42.6949    75.7527 </r>
       <r>    -4.6869    34.4870    77.9098 </r>
       <r>    -4.6243    19.4659    79.1274 </r>
       <r>    -4.5618    26.3699    80.7768 </r>
       <r>    -4.4992    47.6059    83.7545 </r>
       <r>    -4.4367    62.7836    87.6815 </r>
       <r>    -4.3741    60.4585    91.4631 </r>
       <r>    -4.3116    47.6937    94.4463 </r>
       <r>    -4.2490    42.3273    97.0939 </r>
       <r>    -4.1865    44.4729    99.8756 </r>
       <r>    -4.1239    52.3025   103.1471 </r>
       <r>    -4.0614    59.4218   106.8639 </r>
       <r>    -3.9988    50.1933   110.0034 </r>
       <r>    -3.9363    43.3575   112.7154 </r>
       <r>    -3.8737    44.4807   115.4976 </r>
       <r>    -3.8112    39.1394   117.9457 </r>
       <r>    -3.7486    36.8660   120.2517 </r>
       <r>    -3.6861    52.1670   123.5147 </r>
       <r>    -3.6235    63.5263   127.4882 </r>
       <r>    -3.5610    58.8265   131.1677 </r>
       <r>    -3.4984    56.1458   134.6796 </r>
       <r>    -3.4359    61.6970   138.5387 </r>
       <r>    -3.3733    73.2009   143.1173 </r>
       <r>    -3.3108    77.6165   147.9721 </r>
       <r>    -3.2482    71.8898   152.4688 </r>
       <r>    -3.1857    66.7719   156.6453 </r>
       <r>    -3.1231    79.6650   161.6283 </r>
       <r>    -3.0606    86.6654   167.0491 </r>
       <r>    -2.9980    77.7598   171.9129 </r>
       <r>    -2.9355    77.2062   176.7421 </r>
       <r>    -2.8729    75.9102   181.4902 </r>
       <r>    -2.8104    79.5238   186.4643 </r>
       <r>    -2.7478    98.5845   192.6307 </r>
       <r>    -2.6853   107.2385   199.3384 </r>
       <r>    -2.6227    88.0180   204.8438 </r>
       <r>    -2.5602    65.2009   208.9221 </r>
       <r>    -2.4976    65.6519   213.0285 </r>
       <r>    -2.4351    65.9976   217.1566 </r>
       <r>    -2.3725    50.0319   220.2861 </r>
       <r>    -2.3100    35.5340   222.5087 </r>
       <r>    -2.2474    30.8454   224.4380 </r>
       <r>    -2.1849    26.5341   226.0977 </r>
       <r>    -2.1223    36.5544   228.3841 </r>
       <r>    -2.0598    63.3583   232.3472 </r>
       <r>    -1.9972    85.5075   237.6956 </r>
       <r>    -1.9347    91.8805   243.4426 </r>
       <r>    -1.8721    80.5155   248.4788 </r>
       <r>    -1.8096    60.8598   252.2855 </r>
       <r>    -1.7471    47.5194   255.2578 </r>
       <r>    -1.6845    42.5189   257.9173 </r>
       <r>    -1.6220    41.9361   260.5404 </r>
       <r>    -1.5594    52.6696   263.8348 </r>
       <r>    -1.4969    66.0198   267.9643 </r>
       <r>    -1.4343    62.3510   271.8643 </r>
       <r>    -1.3718    55.9668   275.3649 </r>
       <r>    -1.3092    55.1521   278.8147 </r>
       <r>    -1.2467    50.9385   282.0008 </r>
       <r>    -1.1841    55.3059   285.4601 </r>
       <r>    -1.1216    70.5157   289.8708 </r>
       <r>    -1.0590    81.5303   294.9705 </r>
       <r>    -0.9965    84.7542   300.2718 </r>
       <r>    -0.9339    71.9682   304.7733 </r>
       <r>    -0.8714    56.6940   308.3195 </r>
       <r>    -0.8088    53.9316   311.6928 </r>
       <r>    -0.7463    48.7108   314.7396 </r>
       <r>    -0.6837    43.2707   317.4462 </r>
       <r>    -0.6212    55.3730   320.9097 </r>
       <r>    -0.5586    66.7476   325.0847 </r>
       <r>    -0.4961    60.2813   328.8552 </r>
       <r>    -0.4335    58.7349   332.5291 </r>
       <r>    -0.3710    67.5478   336.7541 </r>
       <r>    -0.3084    85.3737   342.0941 </r>
       <r>    -0.2459    91.3796   347.8098 </r>
       <r>    -0.1833    68.4376   352.0906 </r>
       <r>    -0.1208    61.7976   355.9559 </r>
       <r>    -0.0582    90.0842   361.5906 </r>
       <r>     0.0043    87.2121   367.0456 </r>
       <r>     0.0669    47.1854   369.9970 </r>
       <r>     0.1294    39.9501   372.4959 </r>
       <r>     0.1920    56.0654   376.0027 </r>
       <r>     0.2545    48.2471   379.0205 </r>
       <r>     0.3171    39.7311   381.5057 </r>
       <r>     0.3796    34.8741   383.6870 </r>
       <r>     0.4422    21.8399   385.0531 </r>
       <r>     0.5047    11.1125   385.7482 </r>
       <r>     0.5673     5.8478   386.1139 </r>
       <r>     0.6298     5.0552   386.4301 </r>
       <r>     0.6924     6.8575   386.8591 </r>
       <r>     0.7549    10.0791   387.4895 </r>
       <r>     0.8175    11.9007   388.2339 </r>
       <r>     0.8800     9.5766   388.8329 </r>
       <r>     0.9426    10.3315   389.4791 </r>
       <r>     1.0051    12.9266   390.2877 </r>
       <r>     1.0677     8.7407   390.8344 </r>
       <r>     1.1302     4.7184   391.1295 </r>
       <r>     1.1928     7.1169   391.5747 </r>
       <r>     1.2553    10.6416   392.2403 </r>
       <r>     1.3179    11.5088   392.9602 </r>
       <r>     1.3804    10.5922   393.6227 </r>
       <r>     1.4430     7.8671   394.1148 </r>
       <r>     1.5055    17.1871   395.1898 </r>
       <r>     1.5680    28.7929   396.9908 </r>
       <r>     1.6306    25.4831   398.5847 </r>
       <r>     1.6931    17.2898   399.6662 </r>
       <r>     1.7557    12.4219   400.4432 </r>
       <r>     1.8182     6.9690   400.8791 </r>
       <r>     1.8808     3.9549   401.1264 </r>
       <r>     1.9433     4.9274   401.4346 </r>
       <r>     2.0059     6.6116   401.8482 </r>
       <r>     2.0684     4.8237   402.1499 </r>
       <r>     2.1310     3.4815   402.3677 </r>
       <r>     2.1935     6.5022   402.7744 </r>
       <r>     2.2561    11.3640   403.4852 </r>
       <r>     2.3186    11.4356   404.2005 </r>
       <r>     2.3812    11.4968   404.9196 </r>
       <r>     2.4437    19.5200   406.1405 </r>
       <r>     2.5063    22.3832   407.5406 </r>
       <r>     2.5688    12.0691   408.2955 </r>
       <r>     2.6314     6.3223   408.6910 </r>
       <r>     2.6939     8.7626   409.2390 </r>
       <r>     2.7565    13.4419   410.0798 </r>
       <r>     2.8190    15.4914   411.0488 </r>
       <r>     2.8816    13.4892   411.8925 </r>
       <r>     2.9441    13.5928   412.7427 </r>
       <r>     3.0067    12.1592   413.5033 </r>
       <r>     3.0692    10.0827   414.1340 </r>
       <r>     3.1318    14.0274   415.0114 </r>
       <r>     3.1943    12.8764   415.8168 </r>
       <r>     3.2569    11.0616   416.5087 </r>
       <r>     3.3194    10.6094   417.1723 </r>
       <r>     3.3820     6.9371   417.6062 </r>
       <r>     3.4445     6.6835   418.0242 </r>
       <r>     3.5071     6.3648   418.4223 </r>
       <r>     3.5696     5.1651   418.7454 </r>
       <r>     3.6322    10.8426   419.4236 </r>
       <r>     3.6947    19.0124   420.6128 </r>
       <r>     3.7573    19.6032   421.8390 </r>
       <r>     3.8198    12.8067   422.6400 </r>
       <r>     3.8824     6.3897   423.0397 </r>
       <r>     3.9449     8.4730   423.5697 </r>
       <r>     4.0075    12.3097   424.3396 </r>
       <r>     4.0700    10.2502   424.9808 </r>
       <r>     4.1326     3.6768   425.2107 </r>
       <r>     4.1951    -0.1883   425.1990 </r>
       <r>     4.2577     1.4284   425.2883 </r>
       <r>     4.3202     7.0054   425.7265 </r>
       <r>     4.3828    18.4677   426.8816 </r>
       <r>     4.4453    28.4077   428.6585 </r>
       <r>     4.5079    21.2641   429.9885 </r>
       <r>     4.5704     8.9437   430.5480 </r>
       <r>     4.6330     6.6816   430.9659 </r>
       <r>     4.6955     8.2764   431.4836 </r>
       <r>     4.7580     9.7244   432.0918 </r>
       <r>     4.8206    10.1894   432.7292 </r>
       <r>     4.8831     9.5797   433.3284 </r>
       <r>     4.9457    11.9471   434.0756 </r>
       <r>     5.0082    14.0239   434.9528 </r>
       <r>     5.0708    13.7071   435.8102 </r>
       <r>     5.1333    12.1117   436.5678 </r>
       <r>     5.1959     8.0786   437.0731 </r>
       <r>     5.2584     9.1318   437.6443 </r>
       <r>     5.3210    11.5225   438.3650 </r>
       <r>     5.3835     6.7040   438.7843 </r>
       <r>     5.4461     6.1731   439.1704 </r>
       <r>     5.5086    16.6727   440.2133 </r>
       <r>     5.5712    23.3792   441.6756 </r>
       <r>     5.6337    20.5832   442.9631 </r>
       <r>     5.6963    21.7229   444.3218 </r>
       <r>     5.7588    25.4482   445.9136 </r>
       <r>     5.8214    19.6291   447.1414 </r>
       <r>     5.8839    14.9860   448.0788 </r>
       <r>     5.9465    20.3609   449.3523 </r>
       <r>     6.0090    28.6628   451.1451 </r>
       <r>     6.0716    29.8018   453.0092 </r>
       <r>     6.1341    20.2386   454.2751 </r>
       <r>     6.1967    13.1781   455.0994 </r>
       <r>     6.2592    16.1840   456.1117 </r>
       <r>     6.3218    25.0960   457.6814 </r>
       <r>     6.3843    30.6314   459.5974 </r>
       <r>     6.4469    19.8653   460.8399 </r>
       <r>     6.5094    10.5369   461.4990 </r>
       <r>     6.5720    19.4098   462.7131 </r>
       <r>     6.6345    31.2375   464.6670 </r>
       <r>     6.6971    32.2244   466.6826 </r>
       <r>     6.7596    27.2379   468.3863 </r>
       <r>     6.8222    16.9317   469.4453 </r>
       <r>     6.8847    13.8927   470.3143 </r>
       <r>     6.9473    19.5315   471.5360 </r>
       <r>     7.0098    16.2604   472.5530 </r>
       <r>     7.0724    11.2771   473.2584 </r>
       <r>     7.1349    16.6637   474.3007 </r>
       <r>     7.1975    24.5508   475.8363 </r>
       <r>     7.2600    24.8061   477.3879 </r>
       <r>     7.3226    14.4119   478.2894 </r>
       <r>     7.3851     3.4521   478.5053 </r>
       <r>     7.4477     0.4568   478.5339 </r>
       <r>     7.5102     4.4385   478.8115 </r>
       <r>     7.5728     7.7803   479.2982 </r>
       <r>     7.6353     6.5888   479.7103 </r>
       <r>     7.6979     3.2291   479.9123 </r>
       <r>     7.7604     0.4002   479.9373 </r>
       <r>     7.8230    -0.1087   479.9305 </r>
       <r>     7.8855     0.4707   479.9599 </r>
       <r>     7.9481     0.5483   479.9942 </r>
       <r>     8.0106     0.1374   480.0028 </r>
       <r>     8.0731    -0.0300   480.0010 </r>
       <r>     8.1357    -0.0137   480.0001 </r>
       <r>     8.1982    -0.0015   480.0000 </r>
       <r>     8.2608    -0.0001   480.0000 </r>
       <r>     8.3233    -0.0000   480.0000 </r>
       <r>     8.3859    -0.0000   480.0000 </r>
       <r>     8.4484    -0.0000   480.0000 </r>
       <r>     8.5110    -0.0000   480.0000 </r>
       <r>     8.5735     0.0000   480.0000 </r>
       <r>     8.6361     0.0000   480.0000 </r>
       <r>     8.6986     0.0000   480.0000 </r>
       <r>     8.7612     0.0000   480.0000 </r>
       <r>     8.8237     0.0000   480.0000 </r>
       <r>     8.8863     0.0000   480.0000 </r>
      </set>
     </set>
    </array>
   </total>
  </dos>
 </calculation>
 <structure name="finalpos" >
  <crystal>
   <varray name="basis" >
    <v>       8.46831000       0.00000000       0.00000000 </v>
    <v>       4.23415500       7.33377159       0.00000000 </v>
    <v>       0.00000000       0.00000000      24.96566199 </v>
   </varray>
   <i name="volume">   1550.48373159 </i>
   <varray name="rec_basis" >
    <v>       0.11808732      -0.06817774       0.00000000 </v>
    <v>       0.00000000       0.13635549       0.00000000 </v>
    <v>       0.00000000       0.00000000       0.04005502 </v>
   </varray>
  </crystal>
  <varray name="positions" >
   <v>       0.00000000       0.00000000       0.34046764 </v>
   <v>       0.33400137       0.00000000       0.34046764 </v>
   <v>       0.66800274       0.00000000       0.34046764 </v>
   <v>       0.00000000       0.33400137       0.34046764 </v>
   <v>       0.33400137       0.33400137       0.34046764 </v>
   <v>       0.66800274       0.33400137       0.34046764 </v>
   <v>       0.00000000       0.66800274       0.34046764 </v>
   <v>       0.33400137       0.66800274       0.34046764 </v>
   <v>       0.66800274       0.66800274       0.34046764 </v>
   <v>       0.11133379       0.11133379       0.43297074 </v>
   <v>       0.44533516       0.11133379       0.43297074 </v>
   <v>       0.77933653       0.11133379       0.43297074 </v>
   <v>       0.11133379       0.44533516       0.43297074 </v>
   <v>       0.44533516       0.44533516       0.43297074 </v>
   <v>       0.77933653       0.44533516       0.43297074 </v>
   <v>       0.11133379       0.77933653       0.43297074 </v>
   <v>       0.44533516       0.77933653       0.43297074 </v>
   <v>       0.77933653       0.77933653       0.43297074 </v>
   <v>       0.89094877       0.22470832       0.52554449 </v>
   <v>       0.22138868       0.22450723       0.52549179 </v>
   <v>       0.55654055       0.22368326       0.52415098 </v>
   <v>       0.89079354       0.55532266       0.52550866 </v>
   <v>       0.22326157       0.55687670       0.52436363 </v>
   <v>       0.55661569       0.55697755       0.52431379 </v>
   <v>       0.89012007       0.89038270       0.52442749 </v>
   <v>       0.22332074       0.89022057       0.52456577 </v>
   <v>       0.55654746       0.89028966       0.52427767 </v>
   <v>       0.00084175       0.00126584       0.61770099 </v>
   <v>       0.33535142       0.00124135       0.61764850 </v>
   <v>       0.66773955       0.00178368       0.61761454 </v>
   <v>       0.00091408       0.33518887       0.62310327 </v>
   <v>       0.33534319       0.33475641       0.61753376 </v>
   <v>       0.66714457       0.33479314       0.61743547 </v>
   <v>       0.00093327       0.66920779       0.61757447 </v>
   <v>       0.33438604       0.66838907       0.61747554 </v>
   <v>       0.66724617       0.66914900       0.61752813 </v>
   <v>       0.99994626       0.33748135       0.68537979 </v>
  </varray>
  <varray name="selective"  type="logical" >
   <v type="logical" >  F  F  F </v>
   <v type="logical" >  F  F  F </v>
   <v type="logical" >  F  F  F </v>
   <v type="logical" >  F  F  F </v>
   <v type="logical" >  F  F  F </v>
   <v type="logical" >  F  F  F </v>
   <v type="logical" >  F  F  F </v>
   <v type="logical" >  F  F  F </v>
   <v type="logical" >  F  F  F </v>
   <v type="logical" >  F  F  F </v>
   <v type="logical" >  F  F  F </v>
   <v type="logical" >  F  F  F </v>
   <v type="logical" >  F  F  F </v>
   <v type="logical" >  F  F  F </v>
   <v type="logical" >  F  F  F </v>
   <v type="logical" >  F  F  F </v>
   <v type="logical" >  F  F  F </v>
   <v type="logical" >  F  F  F </v>
   <v type="logical" >  T  T  T </v>
   <v type="logical" >  T  T  T </v>
   <v type="logical" >  T  T  T </v>
   <v type="logical" >  T  T  T </v>
   <v type="logical" >  T  T  T </v>
   <v type="logical" >  T  T  T </v>
   <v type="logical" >  T  T  T </v>
   <v type="logical" >  T  T  T </v>
   <v type="logical" >  T  T  T </v>
   <v type="logical" >  T  T  T </v>
   <v type="logical" >  T  T  T </v>
   <v type="logical" >  T  T  T </v>
   <v type="logical" >  T  T  T </v>
   <v type="logical" >  T  T  T </v>
   <v type="logical" >  T  T  T </v>
   <v type="logical" >  T  T  T </v>
   <v type="logical" >  T  T  T </v>
   <v type="logical" >  T  T  T </v>
   <v type="logical" >  T  T  T </v>
  </varray>
  <nose>
   <v>      -3.00000000       0.00000000       0.00010000       0.00010000 </v>
  </nose>
 </structure>
</modeling>
