unknown system                          
           1
     8.468310    0.000000    0.000000
     4.234155    7.333772    0.000000
     0.000000    0.000000   24.965662
   Pt   H 
    36     1
Direct configuration=     1
   0.00000000  0.00000000  0.34046764
   0.33400137  0.00000000  0.34046764
   0.66800274  0.00000000  0.34046764
   0.00000000  0.33400137  0.34046764
   0.33400137  0.33400137  0.34046764
   0.66800274  0.33400137  0.34046764
   0.00000000  0.66800274  0.34046764
   0.33400137  0.66800274  0.34046764
   0.66800274  0.66800274  0.34046764
   0.11133379  0.11133379  0.43297074
   0.44533516  0.11133379  0.43297074
   0.77933653  0.11133379  0.43297074
   0.11133379  0.44533516  0.43297074
   0.44533516  0.44533516  0.43297074
   0.77933653  0.44533516  0.43297074
   0.11133379  0.77933653  0.43297074
   0.44533516  0.77933653  0.43297074
   0.77933653  0.77933653  0.43297074
   0.89094877  0.22470832  0.52554449
   0.22138868  0.22450723  0.52549179
   0.55654055  0.22368326  0.52415098
   0.89079354  0.55532266  0.52550866
   0.22326157  0.55687670  0.52436363
   0.55661569  0.55697755  0.52431379
   0.89012007  0.89038270  0.52442749
   0.22332074  0.89022057  0.52456577
   0.55654746  0.89028966  0.52427767
   0.00084175  0.00126584  0.61770099
   0.33535142  0.00124135  0.61764850
   0.66773955  0.00178368  0.61761454
   0.00091408  0.33518887  0.62310327
   0.33534319  0.33475641  0.61753376
   0.66714457  0.33479314  0.61743547
   0.00093327  0.66920779  0.61757447
   0.33438604  0.66838907  0.61747554
   0.66724617  0.66914900  0.61752813
   0.99994626  0.33748135  0.68537979
