
     Program PWSCF v.7.1 starts on 21Feb2025 at 16:47: 8 
        Git branch: heads/qe-7.1
        Last git commit: 48ba0178f8fede6d020eb786884699a9f063f55d-dirty
        Last git commit date: Fri Jan 27 14:22:33 2023 +0000
        Last git commit subject: Merge branch 'fix_hubbard' into 'develop'

     This program is part of the open-source Quantum ESPRESSO suite
     for quantum simulation of materials; please cite
         "P. Giannozzi et al., J. Phys.:Condens. Matter 21 395502 (2009);
         "P. Giannozzi et al., J. Phys.:Condens. Matter 29 465901 (2017);
         "P. Giannozzi et al., J. Chem. Phys. 152 154105 (2020);
          URL http://www.quantum-espresso.org", 
     in publications or presentations arising from this work. More details at
     http://www.quantum-espresso.org/quote

     Parallel version (MPI), running on    48 processors

     MPI processes distributed on     1 nodes
     16410 MiB available memory on the printing compute node when the environment starts

     Reading input from espresso.pwi
Warning: card &CELL ignored
Warning: card / ignored
Warning: card &FCP ignored
Warning: card / ignored
Warning: card &RISM ignored
Warning: card / ignored

     Current dimensions of program PWSCF are:
     Max number of different atomic species (ntypx) = 10
     Max number of k-points (npk) =  40000
     Max angular momentum in pseudopotentials (lmaxx) =  4
     file Pt.pbe-n-kjpaw_psl.1.0.0.UPF: wavefunction(s)  6S 5D renormalized
     file H.pbe-kjpaw_psl.1.0.0.UPF: wavefunction(s)  1S renormalized

     **************************************************************************
     Initializing libbeef V0.1.2 with the BEEF-vdW functional.
     Citation: Wellendorff et al., PRB 85, 235149 (2012).
     **************************************************************************


     IMPORTANT: XC functional enforced from input :
     Exchange-correlation= BEEF-VDW
                           (   1   4  43  14   2   0   0)
     Any further DFT definition will be discarded
     Please, verify this is what you really want


     R & G space division:  proc/nbgrp/npool/nimage =      48
     Subspace diagonalization in iterative solution of the eigenvalue problem:
     one sub-group per band group will be used
     custom distributed-memory algorithm (size of sub-group:  2*  2 procs)


     Parallelization info
     --------------------
     sticks:   dense  smooth     PW     G-vecs:    dense   smooth      PW
     Min         150      59     16                30552     7447    1068
     Max         151      60     17                30571     7456    1081
     Sum        7243    2839    769              1467143   357639   51591

     Using Slab Decomposition



     bravais-lattice index     =            0
     lattice parameter (alat)  =      16.0028  a.u.
     unit-cell volume          =   10463.1828 (a.u.)^3
     number of atoms/cell      =           37
     number of atomic types    =            2
     number of electrons       =       361.00
     number of Kohn-Sham states=          217
     kinetic-energy cutoff     =      40.0000  Ry
     charge density cutoff     =     410.0000  Ry
     scf convergence threshold =      1.0E-06
     mixing beta               =       0.7000
     number of iterations used =            8  local-TF  mixing
     Exchange-correlation= BEEF-VDW
                           (   1   4  43  14   2   0   0)

     celldm(1)=  16.002787  celldm(2)=   0.000000  celldm(3)=   0.000000
     celldm(4)=   0.000000  celldm(5)=   0.000000  celldm(6)=   0.000000

     crystal axes: (cart. coord. in units of alat)
               a(1) = (   1.000000   0.000000   0.000000 )  
               a(2) = (   0.500000   0.866025   0.000000 )  
               a(3) = (   0.000000   0.000000   2.948128 )  

     reciprocal axes: (cart. coord. in units 2 pi/alat)
               b(1) = (  1.000000 -0.577350  0.000000 )  
               b(2) = (  0.000000  1.154701  0.000000 )  
               b(3) = (  0.000000  0.000000  0.339198 )  


     PseudoPot. # 1 for Pt read from file:
     /users/kbadger1/espresso/pseudo/pslibrary.1.0.0/pbe/PSEUDOPOTENTIALS/Pt.pbe-n-kjpaw_psl.1.0.0.UPF
     MD5 check sum: 2e24a0b5bf98a4ed1a57fa81bca8c143
     Pseudo is Projector augmented-wave + core cor, Zval = 10.0
     Generated using 'atomic' code by A. Dal Corso  v.7.0
     Shape of augmentation charge: PSQ
     Using radial grid of 1277 points,  6 beta functions with: 
                l(1) =   0
                l(2) =   0
                l(3) =   1
                l(4) =   1
                l(5) =   2
                l(6) =   2
     Q(r) pseudized with 0 coefficients 


     PseudoPot. # 2 for H  read from file:
     /users/kbadger1/espresso/pseudo/pslibrary.1.0.0/pbe/PSEUDOPOTENTIALS/H.pbe-kjpaw_psl.1.0.0.UPF
     MD5 check sum: fe4c6fa958fa6d3815bf5d2419cbf1df
     Pseudo is Projector augmented-wave, Zval =  1.0
     Generated using 'atomic' code by A. Dal Corso  v.7.0
     Shape of augmentation charge: PSQ
     Using radial grid of  929 points,  2 beta functions with: 
                l(1) =   0
                l(2) =   0
     Q(r) pseudized with 0 coefficients 


     atomic species   valence    mass     pseudopotential
        Pt            10.00   195.08400     Pt( 1.00)
        H              1.00     1.00800     H ( 1.00)

     No symmetry found



   Cartesian axes

     site n.     atom                  positions (alat units)
         1           Pt  tau(   1) = (   0.0000000   0.0000000   1.0037422  )
         2           Pt  tau(   2) = (   0.3340014   0.0000000   1.0037422  )
         3           Pt  tau(   3) = (   0.6680027   0.0000000   1.0037422  )
         4           Pt  tau(   4) = (   0.1670007   0.2892537   1.0037422  )
         5           Pt  tau(   5) = (   0.5010021   0.2892537   1.0037422  )
         6           Pt  tau(   6) = (   0.8350034   0.2892537   1.0037422  )
         7           Pt  tau(   7) = (   0.3340014   0.5785073   1.0037422  )
         8           Pt  tau(   8) = (   0.6680027   0.5785073   1.0037422  )
         9           Pt  tau(   9) = (   1.0020041   0.5785073   1.0037422  )
        10           Pt  tau(  10) = (   0.1670007   0.0964179   1.2764532  )
        11           Pt  tau(  11) = (   0.5010021   0.0964179   1.2764532  )
        12           Pt  tau(  12) = (   0.8350034   0.0964179   1.2764532  )
        13           Pt  tau(  13) = (   0.3340014   0.3856716   1.2764532  )
        14           Pt  tau(  14) = (   0.6680027   0.3856716   1.2764532  )
        15           Pt  tau(  15) = (   1.0020041   0.3856716   1.2764532  )
        16           Pt  tau(  16) = (   0.5010021   0.6749252   1.2764532  )
        17           Pt  tau(  17) = (   0.8350034   0.6749252   1.2764532  )
        18           Pt  tau(  18) = (   1.1690048   0.6749252   1.2764532  )
        19           Pt  tau(  19) = (   0.0002936   0.1981873   1.5412747  )
        20           Pt  tau(  20) = (   0.3305053   0.1918974   1.5435370  )
        21           Pt  tau(  21) = (   0.6636839   0.1926773   1.5436553  )
        22           Pt  tau(  22) = (   0.1656355   0.4811710   1.5439981  )
        23           Pt  tau(  23) = (   0.4977694   0.4799051   1.5438257  )
        24           Pt  tau(  24) = (   0.8288568   0.4795336   1.5427135  )
        25           Pt  tau(  25) = (   0.3339378   0.7711887   1.5385705  )
        26           Pt  tau(  26) = (   0.6707350   0.7686651   1.5413305  )
        27           Pt  tau(  27) = (   0.9984584   0.7705492   1.5437974  )
        28           Pt  tau(  28) = (   0.0137926   0.0102016   1.8029163  )
        29           Pt  tau(  29) = (   0.3478502   0.0090580   1.8305588  )
        30           Pt  tau(  30) = (   0.6772385   0.0036064   1.8126190  )
        31           Pt  tau(  31) = (   0.1796589   0.3009386   1.8308489  )
        32           Pt  tau(  32) = (   0.5074358   0.2949946   1.8216191  )
        33           Pt  tau(  33) = (   0.8388124   0.2909098   1.8164613  )
        34           Pt  tau(  34) = (   0.3400488   0.5883697   1.8127977  )
        35           Pt  tau(  35) = (   0.6695061   0.5843859   1.8165080  )
        36           Pt  tau(  36) = (   0.9996091   0.5796634   1.8088011  )
        37           H   tau(  37) = (   0.3307301   0.1970393   1.9499123  )

     number of k points=    13  Marzari-Vanderbilt smearing, width (Ry)=  0.0200
                       cart. coord. in units 2pi/alat
        k(    1) = (   0.0000000   0.0000000   0.0000000), wk =   0.0800000
        k(    2) = (   0.0000000   0.2309401   0.0000000), wk =   0.1600000
        k(    3) = (   0.0000000   0.4618802   0.0000000), wk =   0.1600000
        k(    4) = (   0.2000000  -0.1154701   0.0000000), wk =   0.1600000
        k(    5) = (   0.2000000   0.1154701   0.0000000), wk =   0.1600000
        k(    6) = (   0.2000000   0.3464102   0.0000000), wk =   0.1600000
        k(    7) = (   0.2000000  -0.5773503   0.0000000), wk =   0.1600000
        k(    8) = (   0.2000000  -0.3464102   0.0000000), wk =   0.1600000
        k(    9) = (   0.4000000  -0.2309401   0.0000000), wk =   0.1600000
        k(   10) = (   0.4000000   0.0000000   0.0000000), wk =   0.1600000
        k(   11) = (   0.4000000   0.2309401   0.0000000), wk =   0.1600000
        k(   12) = (   0.4000000  -0.6928203   0.0000000), wk =   0.1600000
        k(   13) = (   0.4000000  -0.4618802   0.0000000), wk =   0.1600000

     Dense  grid:  1467143 G-vectors     FFT dimensions: ( 108, 108, 320)

     Smooth grid:   357639 G-vectors     FFT dimensions: (  72,  72, 192)

     Estimated max dynamical RAM per process >     211.30 MB

     Estimated total dynamical RAM >       9.90 GB

     Initial potential from superposition of free atoms

     starting charge     360.9939, renormalised to     361.0000

     negative rho (up, down):  3.719E-03 0.000E+00


     %%%%%%%%%%%%%%%%%%%%%%%%%%%%%%%%%%%%%%%%%%%%%%%%%%%%%%%%%%%%%%%%%%%%%%%%
     %                                                                      %
     % You are using vdW-DF, which was implemented by the Thonhauser group. %
     % Please cite the following two papers that made this development      %
     % possible and the two reviews that describe the various versions:     %
     %                                                                      %
     %   T. Thonhauser et al., PRL 115, 136402 (2015).                      %
     %   T. Thonhauser et al., PRB 76, 125112 (2007).                       %
     %   K. Berland et al., Rep. Prog. Phys. 78, 066501 (2015).             %
     %   D.C. Langreth et al., J. Phys.: Condens. Matter 21, 084203 (2009). %
     %                                                                      %
     % If you are calculating stress with vdW-DF, please also cite:         %
     %                                                                      %
     %   R. Sabatini et al., J. Phys.: Condens. Matter 24, 424209 (2012).   %
     %                                                                      %
     %%%%%%%%%%%%%%%%%%%%%%%%%%%%%%%%%%%%%%%%%%%%%%%%%%%%%%%%%%%%%%%%%%%%%%%%

     %%%%%%%%%%%%%%%%%%%%%%%%%%%%%%%%%%%%%%%%%%%%%%%%%%%%%%%%%%%%%%%%%%%%%%%%
     %                                                                      %
     %  vdW-DF NEWS:                                                        %
     %                                                                      %
     %  * vdW-DF3 is now available. DOI: 10.1021/acs.jctc.0c00471           %
     %    use with input_dft = 'vdW-DF3-opt1' or 'vdW-DF3-opt2'             %
     %                                                                      %
     %  * Unscreened and range-separated hybrid vdW-DF-cx functionals       %
     %    DOI: 10.1063/1.4986522 and 10.1088/1361-648X/ac2ad2               %
     %    use with input_dft = 'vdW-DF-cx0'    and 'vdW-DF-ahcx'            %
     %  * Unscreened and range-separated hybrid vdW-DF2-b86r functionals    %
     %    DOI: 10.1063/1.4986522 and DOI: 10.1103/PhysRevX.12.041003        %
     %    use with input_dft = 'vdW-DF2-br0' and 'vdW-DF2-ahbr'             %
     %                                                                      %
     %%%%%%%%%%%%%%%%%%%%%%%%%%%%%%%%%%%%%%%%%%%%%%%%%%%%%%%%%%%%%%%%%%%%%%%%


     Starting wfcs are  325 randomized atomic wfcs
     Checking if some PAW data can be deallocated... 

     total cpu time spent up to now is       10.9 secs

     per-process dynamical memory:   208.6 Mb

     Self-consistent Calculation

     iteration #  1     ecut=    40.00 Ry     beta= 0.70
     Davidson diagonalization with overlap
     ethr =  1.00E-02,  avg # of iterations =  2.0

     Threshold (ethr) on eigenvalues was too large:
     Diagonalizing with lowered threshold

     Davidson diagonalization with overlap
     ethr =  3.79E-04,  avg # of iterations =  4.1

     negative rho (up, down):  1.868E-02 0.000E+00

     total cpu time spent up to now is       42.0 secs

     total energy              =  -27755.26913670 Ry
     estimated scf accuracy    <       1.56406013 Ry

     iteration #  2     ecut=    40.00 Ry     beta= 0.70
     Davidson diagonalization with overlap
     ethr =  4.33E-04,  avg # of iterations =  2.0

     negative rho (up, down):  1.685E-02 0.000E+00

     total cpu time spent up to now is       54.4 secs

     total energy              =  -27755.36929864 Ry
     estimated scf accuracy    <       0.85076249 Ry

     iteration #  3     ecut=    40.00 Ry     beta= 0.70
     Davidson diagonalization with overlap
     ethr =  2.36E-04,  avg # of iterations =  2.0

     negative rho (up, down):  1.159E-02 0.000E+00

     total cpu time spent up to now is       66.8 secs

     total energy              =  -27755.42158539 Ry
     estimated scf accuracy    <       0.09710546 Ry

     iteration #  4     ecut=    40.00 Ry     beta= 0.70
     Davidson diagonalization with overlap
     c_bands:  1 eigenvalues not converged
     c_bands:  1 eigenvalues not converged
     c_bands:  1 eigenvalues not converged
     c_bands:  1 eigenvalues not converged
     ethr =  2.69E-05,  avg # of iterations = 13.6

     negative rho (up, down):  8.765E-03 0.000E+00

     total cpu time spent up to now is       97.7 secs

     total energy              =  -27755.47122277 Ry
     estimated scf accuracy    <       0.09909890 Ry

     iteration #  5     ecut=    40.00 Ry     beta= 0.70
     Davidson diagonalization with overlap
     ethr =  2.69E-05,  avg # of iterations =  3.7

     negative rho (up, down):  4.262E-03 0.000E+00

     total cpu time spent up to now is      111.1 secs

     total energy              =  -27755.47141409 Ry
     estimated scf accuracy    <       0.03051298 Ry

     iteration #  6     ecut=    40.00 Ry     beta= 0.70
     Davidson diagonalization with overlap
     c_bands:  1 eigenvalues not converged
     ethr =  8.45E-06,  avg # of iterations =  9.9

     negative rho (up, down):  2.333E-03 0.000E+00

     total cpu time spent up to now is      127.3 secs

     total energy              =  -27755.47366418 Ry
     estimated scf accuracy    <       0.00251939 Ry

     iteration #  7     ecut=    40.00 Ry     beta= 0.70
     Davidson diagonalization with overlap
     c_bands:  1 eigenvalues not converged
     c_bands:  1 eigenvalues not converged
     c_bands:  1 eigenvalues not converged
     ethr =  6.98E-07,  avg # of iterations = 11.1

     negative rho (up, down):  1.844E-03 0.000E+00

     total cpu time spent up to now is      154.9 secs

     total energy              =  -27755.47427949 Ry
     estimated scf accuracy    <       0.00191260 Ry

     iteration #  8     ecut=    40.00 Ry     beta= 0.70
     Davidson diagonalization with overlap
     ethr =  5.30E-07,  avg # of iterations =  2.5

     negative rho (up, down):  1.578E-03 0.000E+00

     total cpu time spent up to now is      167.7 secs

     total energy              =  -27755.47443552 Ry
     estimated scf accuracy    <       0.00019263 Ry

     iteration #  9     ecut=    40.00 Ry     beta= 0.70
     Davidson diagonalization with overlap
     ethr =  5.34E-08,  avg # of iterations =  5.3

     negative rho (up, down):  1.194E-03 0.000E+00

     total cpu time spent up to now is      192.9 secs

     total energy              =  -27755.47455537 Ry
     estimated scf accuracy    <       0.00008099 Ry

     iteration # 10     ecut=    40.00 Ry     beta= 0.70
     Davidson diagonalization with overlap
     ethr =  2.24E-08,  avg # of iterations =  4.2

     negative rho (up, down):  1.135E-03 0.000E+00

     total cpu time spent up to now is      213.1 secs

     total energy              =  -27755.47457287 Ry
     estimated scf accuracy    <       0.00007866 Ry

     iteration # 11     ecut=    40.00 Ry     beta= 0.70
     Davidson diagonalization with overlap
     ethr =  2.18E-08,  avg # of iterations =  1.3

     negative rho (up, down):  1.204E-03 0.000E+00

     total cpu time spent up to now is      224.7 secs

     total energy              =  -27755.47457619 Ry
     estimated scf accuracy    <       0.00004694 Ry

     iteration # 12     ecut=    40.00 Ry     beta= 0.70
     Davidson diagonalization with overlap
     ethr =  1.30E-08,  avg # of iterations =  1.7

     negative rho (up, down):  1.413E-03 0.000E+00

     total cpu time spent up to now is      236.8 secs

     total energy              =  -27755.47457923 Ry
     estimated scf accuracy    <       0.00001841 Ry

     iteration # 13     ecut=    40.00 Ry     beta= 0.70
     Davidson diagonalization with overlap
     ethr =  5.10E-09,  avg # of iterations =  2.0

     negative rho (up, down):  1.776E-03 0.000E+00

     total cpu time spent up to now is      249.9 secs

     total energy              =  -27755.47458154 Ry
     estimated scf accuracy    <       0.00001145 Ry

     iteration # 14     ecut=    40.00 Ry     beta= 0.70
     Davidson diagonalization with overlap
     ethr =  3.17E-09,  avg # of iterations =  1.8

     negative rho (up, down):  2.149E-03 0.000E+00

     total cpu time spent up to now is      263.4 secs

     total energy              =  -27755.47458363 Ry
     estimated scf accuracy    <       0.00000860 Ry

     iteration # 15     ecut=    40.00 Ry     beta= 0.70
     Davidson diagonalization with overlap
     ethr =  2.38E-09,  avg # of iterations =  1.0

     negative rho (up, down):  2.853E-03 0.000E+00

     total cpu time spent up to now is      274.5 secs

     total energy              =  -27755.47458138 Ry
     estimated scf accuracy    <       0.00000825 Ry

     iteration # 16     ecut=    40.00 Ry     beta= 0.70
     Davidson diagonalization with overlap
     ethr =  2.28E-09,  avg # of iterations =  1.1

     negative rho (up, down):  3.109E-03 0.000E+00

     total cpu time spent up to now is      285.9 secs

     total energy              =  -27755.47458045 Ry
     estimated scf accuracy    <       0.00000213 Ry

     iteration # 17     ecut=    40.00 Ry     beta= 0.70
     Davidson diagonalization with overlap
     ethr =  5.91E-10,  avg # of iterations =  2.5

     negative rho (up, down):  3.490E-03 0.000E+00

     total cpu time spent up to now is      299.7 secs

     End of self-consistent calculation

          k = 0.0000 0.0000 0.0000 ( 44645 PWs)   bands (ev):

    -6.7319  -5.5275  -4.8176  -4.3269  -4.3023  -4.2949  -4.2698  -4.2684
    -4.2619  -4.2535  -3.9264  -3.7294  -3.7284  -3.7068  -3.7030  -3.6884
    -3.6316  -3.2680  -3.2393  -3.2313  -3.2300  -3.2279  -3.1570  -3.0287
    -3.0228  -3.0140  -3.0059  -2.9867  -2.9020  -2.8213  -2.8185  -2.8097
    -2.8026  -2.7806  -2.7798  -2.7590  -2.7511  -2.7421  -2.7395  -2.7254
    -2.2725  -2.1563  -2.1526  -2.1422  -2.1298  -2.0958  -2.0730  -2.0628
    -2.0399  -2.0283  -1.9526  -1.9404  -1.9190  -1.8264  -1.7879  -1.3767
    -1.3325  -1.3041  -1.3016  -1.2720  -1.2446  -1.2210  -1.1829  -1.1723
    -1.1703  -1.1529  -1.1366  -1.1311  -1.1246  -1.1127  -1.1079  -1.0991
    -1.0833  -1.0769  -1.0644  -1.0412  -1.0163  -0.9458  -0.9186  -0.9003
    -0.8968  -0.8379  -0.8296  -0.7980  -0.7851  -0.7758  -0.7428  -0.7300
    -0.7215  -0.6500  -0.6370  -0.5659  -0.5576  -0.5271  -0.5160  -0.4575
    -0.4551  -0.4130  -0.4122  -0.3665  -0.3579  -0.3045  -0.2783  -0.2652
    -0.2480  -0.2410  -0.1968  -0.0160   0.1618   0.2056   0.2144   0.2588
     0.2769   0.2789   0.3086   0.3216   0.3261   0.3335   0.3670   0.4098
     0.4508   0.4575   0.5283   0.5379   0.5399   0.5740   0.5864   0.6438
     0.6914   0.6995   0.7151   0.7267   0.7279   0.9344   0.9389   0.9626
     0.9834   0.9890   0.9989   1.0061   1.1277   1.1845   1.2344   1.2373
     1.2440   1.2540   1.2777   1.3674   1.3842   1.3974   1.4161   1.4314
     1.4385   1.4445   1.4496   1.4536   1.4625   1.4632   1.4744   1.5515
     1.5556   1.5557   1.5843   1.6015   1.6183   1.6278   1.6349   1.6697
     1.6791   1.7057   1.7076   1.7324   1.7403   1.7427   1.7590   1.8122
     1.8131   1.8291   1.8378   1.8455   1.8614   1.8696   1.9375   1.9436
     1.9503   1.9634   1.9714   1.9876   2.1400   2.1885   2.2676   2.2754
     2.2800   2.2979   2.2996   2.3298   2.7934   3.1142   3.1299   3.1542
     3.1878   3.1991   3.2334   5.1021   5.4764   5.5050   5.5383   5.5764
     5.5849   6.8970   7.0204   7.0699   7.0899   7.1210   7.1572   7.2120
     7.3328

          k = 0.0000 0.2309 0.0000 ( 44694 PWs)   bands (ev):

    -6.5844  -5.4025  -4.8366  -4.7042  -4.4030  -4.3924  -4.1266  -4.0914
    -4.0546  -4.0484  -3.9015  -3.8182  -3.7438  -3.6647  -3.6418  -3.6211
    -3.5467  -3.3678  -3.2355  -3.2286  -3.1752  -3.1478  -3.1207  -3.0949
    -3.0743  -3.0554  -3.0233  -2.9826  -2.9614  -2.9483  -2.8890  -2.8196
    -2.8011  -2.7724  -2.7366  -2.6434  -2.6279  -2.5947  -2.5410  -2.5244
    -2.3163  -2.2867  -2.2693  -2.2227  -2.1961  -2.1717  -2.1422  -2.0922
    -1.9649  -1.9474  -1.8998  -1.8924  -1.8403  -1.8143  -1.7923  -1.6302
    -1.5486  -1.5297  -1.4700  -1.4303  -1.3891  -1.3640  -1.3174  -1.2977
    -1.2778  -1.2692  -1.2353  -1.2207  -1.1588  -1.1406  -1.1280  -1.1056
    -1.0671  -1.0174  -1.0043  -0.9874  -0.9791  -0.9514  -0.9050  -0.8930
    -0.8889  -0.8566  -0.8449  -0.7755  -0.7572  -0.7355  -0.7182  -0.6970
    -0.6571  -0.6364  -0.6120  -0.6004  -0.5632  -0.5489  -0.5249  -0.4947
    -0.4684  -0.4532  -0.4270  -0.3921  -0.3509  -0.2951  -0.2668  -0.2526
    -0.2337  -0.2174  -0.2099  -0.1972  -0.1828  -0.1569  -0.1449  -0.1249
     0.0202   0.1588   0.2208   0.2398   0.2553   0.2738   0.2908   0.3115
     0.3363   0.3883   0.4723   0.4983   0.5559   0.5960   0.6155   0.6406
     0.6586   0.6663   0.7040   0.7417   0.7649   0.8264   0.8400   0.8605
     0.8742   0.8924   0.9964   1.0384   1.0743   1.1079   1.1165   1.1457
     1.1579   1.1882   1.2314   1.2501   1.2728   1.2937   1.3205   1.3524
     1.3680   1.3934   1.4285   1.4573   1.4832   1.5018   1.5397   1.5940
     1.6180   1.6332   1.6532   1.6805   1.7017   1.7283   1.7788   1.7999
     1.8465   1.8561   1.8658   1.8865   1.9146   1.9206   1.9239   1.9274
     1.9441   2.0055   2.0091   2.1431   2.1612   2.1758   2.1815   2.2030
     2.2160   2.2436   2.2666   2.2785   2.2955   2.3319   2.3921   2.4220
     2.4634   2.5734   2.5795   2.6124   2.6458   2.9729   3.0390   3.5107
     3.7766   3.7981   3.9013   4.7097   5.1211   5.2348   5.8602   5.9145
     5.9358   6.0948   6.3402   6.6979   6.9049   7.0714   7.2421   7.2958
     7.3152

          k = 0.0000 0.4619 0.0000 ( 44748 PWs)   bands (ev):

    -6.1605  -5.5290  -5.0827  -4.5980  -4.4323  -4.4161  -4.1597  -4.0585
    -3.9093  -3.7438  -3.7170  -3.7093  -3.6012  -3.5168  -3.5021  -3.4854
    -3.4662  -3.4383  -3.3361  -3.3244  -3.2917  -3.2716  -3.2597  -3.1654
    -3.1311  -3.1258  -3.0732  -2.9867  -2.8694  -2.8609  -2.8379  -2.8245
    -2.7937  -2.7041  -2.6052  -2.5832  -2.5411  -2.5198  -2.4888  -2.4186
    -2.3147  -2.2495  -2.2211  -2.2110  -2.1832  -2.1526  -2.1364  -2.1180
    -2.0820  -2.0374  -2.0024  -1.9869  -1.8923  -1.8832  -1.8131  -1.7723
    -1.7405  -1.7147  -1.6679  -1.6397  -1.5889  -1.4991  -1.4398  -1.4241
    -1.3824  -1.3500  -1.3272  -1.2974  -1.2590  -1.1849  -1.1715  -1.1399
    -1.1122  -1.0720  -1.0632  -1.0457  -1.0184  -1.0093  -0.9697  -0.9580
    -0.9451  -0.9241  -0.9081  -0.8997  -0.8765  -0.8529  -0.8473  -0.7897
    -0.7676  -0.7449  -0.7243  -0.6806  -0.6521  -0.6104  -0.5694  -0.5381
    -0.4544  -0.4438  -0.4257  -0.4103  -0.3743  -0.3537  -0.2873  -0.2697
    -0.2510  -0.2208  -0.1747  -0.1380  -0.1072  -0.0120  -0.0061   0.0772
     0.0953   0.1487   0.1688   0.1782   0.1852   0.2045   0.2339   0.2453
     0.2770   0.2937   0.3185   0.3500   0.3641   0.3929   0.4051   0.4144
     0.4271   0.5316   0.5382   0.5841   0.6427   0.6691   0.7217   0.7382
     0.8339   0.8537   0.8979   0.9662   1.0135   1.0459   1.1118   1.1199
     1.1295   1.1493   1.1622   1.2022   1.2307   1.2597   1.2927   1.3094
     1.3500   1.3782   1.4021   1.4299   1.4498   1.4873   1.5771   1.6102
     1.6279   1.6616   1.6941   1.7316   1.7730   1.8064   1.8320   1.8964
     1.9178   1.9370   1.9406   1.9731   2.0222   2.0404   2.0555   2.1460
     2.1509   2.1621   2.1806   2.1898   2.1936   2.2015   2.2253   2.3866
     2.4153   2.4230   2.4405   2.4523   2.5950   2.6613   2.8328   3.0421
     3.0758   3.2740   3.4622   3.4811   3.7716   3.8788   3.9835   4.1954
     4.4580   4.6841   4.6969   4.7826   4.9321   4.9867   5.0766   5.1319
     5.3106   5.3786   5.8935   5.9985   6.3938   6.5594   6.9137   7.0582
     7.4222

          k = 0.2000-0.1155 0.0000 ( 44694 PWs)   bands (ev):

    -6.5845  -5.4020  -4.8376  -4.7066  -4.4011  -4.3897  -4.1268  -4.0969
    -4.0528  -4.0447  -3.8989  -3.8170  -3.7500  -3.6657  -3.6439  -3.6222
    -3.5442  -3.3657  -3.2343  -3.2290  -3.1786  -3.1486  -3.1201  -3.0959
    -3.0762  -3.0562  -3.0223  -2.9809  -2.9590  -2.9462  -2.8911  -2.8208
    -2.8024  -2.7742  -2.7364  -2.6440  -2.6266  -2.5955  -2.5393  -2.5212
    -2.3156  -2.2855  -2.2694  -2.2231  -2.1960  -2.1720  -2.1422  -2.0904
    -1.9634  -1.9469  -1.9020  -1.8917  -1.8393  -1.8160  -1.7927  -1.6248
    -1.5490  -1.5307  -1.4652  -1.4227  -1.3839  -1.3608  -1.3208  -1.3028
    -1.2806  -1.2722  -1.2369  -1.2226  -1.1559  -1.1417  -1.1227  -1.1022
    -1.0669  -1.0303  -1.0231  -0.9913  -0.9790  -0.9471  -0.9002  -0.8941
    -0.8849  -0.8551  -0.8208  -0.7750  -0.7606  -0.7365  -0.7294  -0.6948
    -0.6598  -0.6405  -0.6108  -0.6036  -0.5620  -0.5483  -0.5216  -0.4962
    -0.4678  -0.4530  -0.4270  -0.3906  -0.3501  -0.2956  -0.2679  -0.2589
    -0.2350  -0.2197  -0.2082  -0.1978  -0.1818  -0.1569  -0.1457  -0.1246
     0.0270   0.1649   0.2232   0.2386   0.2568   0.2697   0.2904   0.3093
     0.3316   0.3894   0.4710   0.4982   0.5558   0.5961   0.6121   0.6409
     0.6544   0.6648   0.7041   0.7409   0.7639   0.8264   0.8381   0.8614
     0.8748   0.8970   0.9896   1.0407   1.0741   1.1078   1.1173   1.1463
     1.1584   1.1888   1.2316   1.2510   1.2732   1.2947   1.3214   1.3530
     1.3677   1.3946   1.4274   1.4584   1.4841   1.5042   1.5363   1.5939
     1.6173   1.6317   1.6531   1.6790   1.6985   1.7266   1.7785   1.8012
     1.8458   1.8570   1.8662   1.8856   1.9152   1.9206   1.9238   1.9270
     1.9426   2.0009   2.0054   2.1491   2.1576   2.1757   2.1830   2.2034
     2.2176   2.2481   2.2684   2.2820   2.3025   2.3300   2.3917   2.4220
     2.4614   2.5745   2.5814   2.6131   2.6418   2.9777   3.0465   3.5089
     3.7756   3.7946   3.8994   4.7055   5.1202   5.2435   5.8625   5.9139
     5.9327   6.0971   6.3405   6.6955   6.9034   7.0618   7.2416   7.3007
     7.3150

          k = 0.2000 0.1155 0.0000 ( 44694 PWs)   bands (ev):

    -6.5849  -5.4066  -4.8556  -4.6895  -4.4036  -4.3920  -4.1261  -4.0980
    -4.0509  -4.0459  -3.9179  -3.8221  -3.7312  -3.6703  -3.6311  -3.6192
    -3.5504  -3.3611  -3.2312  -3.2263  -3.1969  -3.1400  -3.1166  -3.0870
    -3.0722  -3.0573  -3.0346  -3.0032  -2.9517  -2.9310  -2.8848  -2.8189
    -2.8169  -2.7488  -2.7276  -2.6393  -2.6182  -2.5892  -2.5446  -2.5330
    -2.3153  -2.2826  -2.2692  -2.2284  -2.2004  -2.1600  -2.1389  -2.0906
    -1.9831  -1.9351  -1.9014  -1.8885  -1.8454  -1.7979  -1.7917  -1.6302
    -1.5350  -1.5224  -1.4595  -1.4163  -1.3737  -1.3492  -1.3444  -1.3079
    -1.2858  -1.2768  -1.2356  -1.2180  -1.1389  -1.1252  -1.1129  -1.0793
    -1.0603  -1.0575  -1.0422  -0.9956  -0.9544  -0.9455  -0.8949  -0.8907
    -0.8477  -0.8287  -0.7985  -0.7938  -0.7723  -0.7455  -0.7372  -0.7132
    -0.6522  -0.6304  -0.6208  -0.6117  -0.5858  -0.5651  -0.5206  -0.4856
    -0.4799  -0.4548  -0.4354  -0.4147  -0.3405  -0.3163  -0.3020  -0.2668
    -0.2599  -0.2373  -0.2357  -0.2147  -0.1760  -0.1533  -0.1471  -0.1398
     0.1016   0.1290   0.1911   0.2359   0.2736   0.2897   0.2967   0.3253
     0.3404   0.3778   0.4250   0.4857   0.5742   0.5931   0.6062   0.6321
     0.6456   0.6790   0.7026   0.7339   0.7455   0.8298   0.8523   0.8657
     0.8895   0.8991   1.0135   1.0253   1.0631   1.0774   1.0997   1.1045
     1.1443   1.2000   1.2168   1.2352   1.2800   1.2822   1.3347   1.3377
     1.3738   1.3840   1.4669   1.4796   1.4981   1.5072   1.5659   1.6087
     1.6157   1.6537   1.6673   1.6826   1.7105   1.7285   1.7920   1.7964
     1.8291   1.8356   1.8596   1.8818   1.9124   1.9167   1.9276   1.9395
     1.9421   1.9958   2.0010   2.1384   2.1579   2.1837   2.2016   2.2037
     2.2318   2.2628   2.2821   2.2934   2.3146   2.3344   2.3851   2.4289
     2.4470   2.5683   2.5834   2.6082   2.6553   3.0001   3.0388   3.5272
     3.7269   3.7849   3.9302   4.6559   5.1595   5.2706   5.8483   5.9158
     5.9713   6.0901   6.3021   6.7033   6.8942   7.0208   7.2671   7.2828
     7.3166

          k = 0.2000 0.3464 0.0000 ( 44714 PWs)   bands (ev):

    -6.2990  -5.2336  -5.0579  -5.0222  -4.5789  -3.9812  -3.9666  -3.9290
    -3.9174  -3.8882  -3.8729  -3.8593  -3.7976  -3.7735  -3.5496  -3.4030
    -3.3886  -3.3706  -3.3642  -3.3168  -3.2924  -3.1722  -3.1249  -3.0977
    -3.0693  -3.0323  -3.0020  -2.9782  -2.9556  -2.9124  -2.8951  -2.8527
    -2.8265  -2.7898  -2.7754  -2.7164  -2.5379  -2.4059  -2.3370  -2.3169
    -2.3016  -2.2902  -2.2739  -2.2576  -2.2240  -2.2027  -2.1421  -2.0403
    -2.0301  -2.0003  -1.9546  -1.9294  -1.8741  -1.8566  -1.8379  -1.7666
    -1.7327  -1.6100  -1.5994  -1.5732  -1.5068  -1.4913  -1.4618  -1.4474
    -1.4111  -1.3724  -1.3571  -1.2368  -1.2117  -1.1835  -1.1536  -1.1394
    -1.0969  -1.0930  -1.0587  -1.0337  -1.0216  -0.9418  -0.9240  -0.9162
    -0.8962  -0.8842  -0.8741  -0.8525  -0.8259  -0.7888  -0.7757  -0.7404
    -0.6938  -0.6772  -0.6564  -0.6406  -0.5783  -0.5551  -0.5387  -0.5091
    -0.4957  -0.4788  -0.4662  -0.4480  -0.4326  -0.4229  -0.3860  -0.3699
    -0.3436  -0.3071  -0.2511  -0.2311  -0.1932  -0.1356  -0.1115  -0.0856
    -0.0613   0.0502   0.0834   0.1493   0.2394   0.2557   0.2775   0.2925
     0.3219   0.3360   0.3551   0.3753   0.3939   0.4333   0.4577   0.4616
     0.6004   0.6463   0.6846   0.6997   0.7164   0.7335   0.7572   0.8032
     0.8612   0.8839   0.9163   0.9656   0.9867   1.0309   1.0495   1.1092
     1.1305   1.1438   1.1842   1.1990   1.2089   1.2277   1.2368   1.2624
     1.2784   1.2918   1.3130   1.3973   1.4457   1.5002   1.6104   1.6191
     1.6534   1.7666   1.7839   1.8099   1.8210   1.8872   1.9229   1.9429
     1.9512   1.9685   1.9838   2.0045   2.0243   2.0346   2.0486   2.0841
     2.1160   2.1386   2.1806   2.2013   2.2219   2.2473   2.2579   2.3041
     2.4245   2.4393   2.4859   2.5053   2.5477   2.5637   2.5832   2.6786
     2.7062   3.0032   3.2151   3.2348   3.6388   3.7821   3.7911   3.8197
     4.2725   4.5110   4.5400   4.6970   4.7103   4.7916   5.3793   5.8123
     5.8970   5.9905   6.1251   6.3565   6.6600   6.6954   6.7278   6.7393
     6.7759

          k = 0.2000-0.5774 0.0000 ( 44692 PWs)   bands (ev):

    -5.7759  -5.7510  -5.1789  -4.9137  -4.4563  -4.2217  -3.9626  -3.8748
    -3.8237  -3.8025  -3.6965  -3.6793  -3.5950  -3.5696  -3.4674  -3.4428
    -3.4303  -3.4135  -3.3961  -3.3477  -3.2557  -3.2453  -3.2289  -3.2027
    -3.1919  -3.1567  -3.0372  -2.9744  -2.9461  -2.8522  -2.8331  -2.8202
    -2.7837  -2.7610  -2.6957  -2.6566  -2.5741  -2.5404  -2.4474  -2.3877
    -2.3703  -2.2890  -2.2253  -2.2015  -2.1525  -2.1227  -2.0458  -2.0082
    -1.9630  -1.9474  -1.9244  -1.9203  -1.8934  -1.8478  -1.7757  -1.7625
    -1.7323  -1.7120  -1.7049  -1.6874  -1.6678  -1.6205  -1.6044  -1.5065
    -1.4636  -1.4298  -1.4099  -1.3207  -1.3013  -1.2867  -1.2449  -1.2229
    -1.1811  -1.1578  -1.0938  -1.0840  -1.0677  -1.0429  -0.9953  -0.9862
    -0.9721  -0.9390  -0.9031  -0.8672  -0.8475  -0.8250  -0.7501  -0.7191
    -0.6819  -0.6568  -0.6211  -0.5995  -0.5911  -0.5711  -0.5458  -0.5336
    -0.4997  -0.4875  -0.4481  -0.4427  -0.4274  -0.4186  -0.4024  -0.3852
    -0.3650  -0.3559  -0.3247  -0.2958  -0.2697  -0.0999  -0.0508   0.0150
     0.0372   0.0682   0.0903   0.1353   0.1563   0.1849   0.2145   0.2263
     0.2538   0.2750   0.3082   0.3559   0.3738   0.3976   0.4506   0.4567
     0.5072   0.5302   0.5833   0.6807   0.7365   0.7569   0.7829   0.8137
     0.8477   0.8768   0.9099   0.9262   0.9345   0.9481   0.9704   0.9930
     1.0534   1.0984   1.1026   1.1273   1.1513   1.1927   1.2109   1.2432
     1.2610   1.3681   1.4227   1.4643   1.4990   1.5419   1.6110   1.6464
     1.6712   1.7429   1.7618   1.7749   1.8638   1.8850   1.9490   1.9780
     1.9968   2.0038   2.0152   2.0344   2.0602   2.0799   2.1572   2.1664
     2.1905   2.2062   2.2159   2.2235   2.2382   2.2961   2.3857   2.4214
     2.4323   2.4424   2.4572   2.5124   2.5473   2.6156   2.7390   3.3937
     3.5789   3.5999   3.8049   3.8667   3.9372   3.9768   4.0025   4.3348
     4.5541   4.5919   4.7954   5.0599   5.1098   5.1644   5.2084   5.3423
     5.4685   5.5261   5.6301   5.8770   6.0215   6.0641   6.4839   6.6780
     6.7156

          k = 0.2000-0.3464 0.0000 ( 44714 PWs)   bands (ev):

    -6.2977  -5.2204  -5.0605  -5.0186  -4.5760  -3.9816  -3.9655  -3.9249
    -3.9149  -3.8886  -3.8713  -3.8596  -3.7899  -3.7757  -3.5514  -3.4083
    -3.3879  -3.3809  -3.3707  -3.3166  -3.2954  -3.1643  -3.1154  -3.0879
    -3.0702  -3.0365  -3.0203  -2.9886  -2.9479  -2.9101  -2.8996  -2.8525
    -2.8229  -2.7797  -2.7748  -2.7317  -2.5962  -2.4156  -2.3591  -2.3141
    -2.3027  -2.2880  -2.2693  -2.2435  -2.2243  -2.2025  -2.1523  -2.0446
    -2.0238  -2.0102  -1.9468  -1.9139  -1.8764  -1.8660  -1.8243  -1.7746
    -1.7366  -1.6143  -1.6040  -1.5864  -1.5437  -1.4873  -1.4648  -1.4401
    -1.3916  -1.3765  -1.3479  -1.2413  -1.2102  -1.1961  -1.1758  -1.1389
    -1.1273  -1.1014  -1.0860  -1.0643  -1.0314  -0.9714  -0.9338  -0.9171
    -0.9049  -0.8810  -0.8644  -0.8495  -0.8310  -0.7874  -0.7134  -0.6962
    -0.6864  -0.6731  -0.6598  -0.6360  -0.5642  -0.5418  -0.5199  -0.4991
    -0.4591  -0.4565  -0.4453  -0.4245  -0.4037  -0.3863  -0.3734  -0.3684
    -0.3283  -0.2913  -0.2307  -0.2181  -0.1851  -0.1415  -0.1273  -0.0917
    -0.0602   0.0570   0.0795   0.1934   0.2286   0.2601   0.2672   0.2877
     0.2998   0.3215   0.3509   0.3664   0.3856   0.4113   0.4299   0.4767
     0.5908   0.6181   0.6768   0.6959   0.7273   0.7400   0.7693   0.8050
     0.8823   0.9026   0.9274   0.9443   0.9885   1.0154   1.0708   1.1120
     1.1344   1.1466   1.1899   1.2046   1.2240   1.2423   1.2525   1.2693
     1.2830   1.3079   1.3350   1.3992   1.4431   1.4930   1.5723   1.6018
     1.6335   1.7502   1.7861   1.7954   1.8255   1.8795   1.9151   1.9421
     1.9684   1.9739   1.9936   2.0062   2.0258   2.0391   2.0500   2.0773
     2.0962   2.1172   2.1765   2.2109   2.2231   2.2340   2.2410   2.3087
     2.4164   2.4541   2.4734   2.4848   2.5400   2.5566   2.5785   2.6872
     2.7040   3.0024   3.2163   3.2461   3.6097   3.7781   3.8117   3.8219
     4.2716   4.5311   4.5389   4.6858   4.7037   4.7590   5.3555   5.8045
     5.8945   5.9762   6.1143   6.3676   6.6617   6.7086   6.7402   6.7472
     6.7770

          k = 0.4000-0.2309 0.0000 ( 44748 PWs)   bands (ev):

    -6.1607  -5.5293  -5.0819  -4.5990  -4.4314  -4.4125  -4.1620  -4.0642
    -3.9096  -3.7447  -3.7146  -3.7061  -3.6064  -3.5182  -3.5022  -3.4866
    -3.4673  -3.4389  -3.3346  -3.3224  -3.2939  -3.2726  -3.2611  -3.1662
    -3.1298  -3.1241  -3.0743  -2.9938  -2.8684  -2.8589  -2.8371  -2.8198
    -2.7927  -2.7043  -2.6015  -2.5828  -2.5398  -2.5184  -2.4859  -2.4170
    -2.3150  -2.2498  -2.2215  -2.2129  -2.1849  -2.1533  -2.1348  -2.1108
    -2.0836  -2.0385  -2.0044  -1.9859  -1.8897  -1.8805  -1.8117  -1.7693
    -1.7347  -1.7060  -1.6666  -1.6349  -1.5855  -1.4979  -1.4418  -1.4276
    -1.3853  -1.3557  -1.3316  -1.2965  -1.2614  -1.1987  -1.1752  -1.1419
    -1.1154  -1.0684  -1.0629  -1.0416  -1.0188  -1.0067  -0.9695  -0.9537
    -0.9443  -0.9246  -0.9081  -0.8980  -0.8776  -0.8537  -0.8453  -0.7927
    -0.7647  -0.7448  -0.7176  -0.6728  -0.6542  -0.6182  -0.5637  -0.5378
    -0.4571  -0.4468  -0.4272  -0.4153  -0.3799  -0.3608  -0.2854  -0.2708
    -0.2521  -0.2251  -0.1792  -0.1386  -0.1116  -0.0107  -0.0051   0.0794
     0.0983   0.1509   0.1716   0.1805   0.1913   0.2067   0.2345   0.2482
     0.2791   0.2942   0.3159   0.3445   0.3585   0.3927   0.3999   0.4158
     0.4258   0.5280   0.5367   0.5837   0.6430   0.6643   0.7163   0.7344
     0.8323   0.8587   0.9002   0.9699   1.0127   1.0484   1.1097   1.1183
     1.1316   1.1503   1.1645   1.2040   1.2334   1.2637   1.2922   1.3099
     1.3514   1.3787   1.4037   1.4305   1.4506   1.4801   1.5720   1.6089
     1.6296   1.6601   1.6917   1.7314   1.7703   1.8060   1.8339   1.8947
     1.9175   1.9342   1.9395   1.9719   2.0209   2.0346   2.0516   2.1448
     2.1515   2.1638   2.1819   2.1920   2.1979   2.2022   2.2308   2.3866
     2.4185   2.4306   2.4435   2.4629   2.5939   2.6611   2.8265   3.0504
     3.0730   3.2717   3.4610   3.4808   3.7694   3.8794   3.9795   4.2007
     4.4604   4.6839   4.6968   4.7869   4.9285   4.9850   5.0768   5.1403
     5.3115   5.3786   5.8915   6.0033   6.3925   6.5569   6.9087   7.0572
     7.4254

          k = 0.4000 0.0000 0.0000 ( 44714 PWs)   bands (ev):

    -6.2991  -5.2324  -5.0584  -5.0232  -4.5792  -3.9834  -3.9686  -3.9268
    -3.9157  -3.8872  -3.8708  -3.8594  -3.7977  -3.7729  -3.5535  -3.4012
    -3.3931  -3.3719  -3.3665  -3.3212  -3.2904  -3.1681  -3.1253  -3.0993
    -3.0683  -3.0272  -3.0024  -2.9753  -2.9541  -2.9117  -2.8935  -2.8544
    -2.8294  -2.7889  -2.7747  -2.7237  -2.5413  -2.4066  -2.3345  -2.3129
    -2.3006  -2.2886  -2.2738  -2.2578  -2.2238  -2.2033  -2.1391  -2.0388
    -2.0297  -1.9999  -1.9540  -1.9283  -1.8741  -1.8558  -1.8401  -1.7673
    -1.7329  -1.6070  -1.5952  -1.5704  -1.5048  -1.4860  -1.4589  -1.4455
    -1.4090  -1.3710  -1.3544  -1.2370  -1.2133  -1.1878  -1.1637  -1.1420
    -1.0986  -1.0952  -1.0584  -1.0345  -1.0247  -0.9380  -0.9233  -0.9124
    -0.8946  -0.8822  -0.8729  -0.8537  -0.8306  -0.7890  -0.7784  -0.7411
    -0.6955  -0.6771  -0.6558  -0.6398  -0.5782  -0.5560  -0.5408  -0.5098
    -0.4982  -0.4797  -0.4667  -0.4487  -0.4328  -0.4211  -0.3869  -0.3683
    -0.3437  -0.3091  -0.2500  -0.2318  -0.1920  -0.1374  -0.1147  -0.0858
    -0.0641   0.0527   0.0839   0.1482   0.2378   0.2554   0.2768   0.2896
     0.3210   0.3350   0.3595   0.3762   0.3964   0.4321   0.4576   0.4650
     0.5964   0.6469   0.6818   0.6976   0.7160   0.7345   0.7567   0.8018
     0.8583   0.8840   0.9162   0.9644   0.9862   1.0291   1.0472   1.1108
     1.1313   1.1430   1.1858   1.1990   1.2108   1.2307   1.2403   1.2630
     1.2798   1.2941   1.3157   1.3952   1.4459   1.5016   1.6074   1.6168
     1.6528   1.7658   1.7854   1.8093   1.8210   1.8882   1.9209   1.9417
     1.9559   1.9692   1.9829   2.0049   2.0229   2.0294   2.0432   2.0854
     2.1138   2.1435   2.1781   2.2020   2.2174   2.2470   2.2583   2.3020
     2.4291   2.4468   2.4939   2.5102   2.5487   2.5637   2.5870   2.6788
     2.7045   2.9964   3.2127   3.2311   3.6375   3.7865   3.7964   3.8223
     4.2730   4.5115   4.5360   4.6974   4.7105   4.7904   5.3783   5.8190
     5.8958   5.9963   6.1253   6.3564   6.6586   6.6960   6.7267   6.7352
     6.7770

          k = 0.4000 0.2309 0.0000 ( 44748 PWs)   bands (ev):

    -6.1627  -5.5364  -5.0980  -4.5966  -4.4374  -4.4176  -4.1661  -4.0581
    -3.9183  -3.7448  -3.7114  -3.7061  -3.6064  -3.5134  -3.4992  -3.4734
    -3.4700  -3.4433  -3.3399  -3.3274  -3.3051  -3.2648  -3.2577  -3.1729
    -3.1310  -3.1223  -3.1008  -2.9094  -2.8630  -2.8501  -2.8320  -2.8159
    -2.8120  -2.6906  -2.6046  -2.5687  -2.5348  -2.5131  -2.4972  -2.3980
    -2.3323  -2.2142  -2.2078  -2.2044  -2.1845  -2.1282  -2.1266  -2.1050
    -2.1023  -2.0225  -1.9941  -1.9835  -1.9078  -1.8714  -1.8102  -1.7787
    -1.7326  -1.6918  -1.6647  -1.6387  -1.5760  -1.5077  -1.4258  -1.4101
    -1.3830  -1.3534  -1.3287  -1.3195  -1.2331  -1.2228  -1.1735  -1.1579
    -1.1140  -1.0597  -1.0472  -1.0240  -1.0126  -0.9813  -0.9643  -0.9528
    -0.9370  -0.9244  -0.9080  -0.8911  -0.8693  -0.8271  -0.8107  -0.8075
    -0.7602  -0.7413  -0.6962  -0.6617  -0.6280  -0.6242  -0.6115  -0.5344
    -0.5204  -0.4957  -0.4805  -0.4427  -0.4250  -0.4188  -0.3326  -0.3017
    -0.2885  -0.2836  -0.2020  -0.1976  -0.1233  -0.0180   0.0057   0.0757
     0.0807   0.1221   0.1674   0.1789   0.2197   0.2402   0.2520   0.2693
     0.3078   0.3122   0.3253   0.3543   0.3613   0.3726   0.3949   0.4379
     0.4610   0.5194   0.5427   0.5796   0.6379   0.6722   0.7326   0.7558
     0.8218   0.8440   0.8753   0.9713   0.9795   1.0135   1.0380   1.0740
     1.1302   1.1357   1.1658   1.1845   1.2554   1.2638   1.2977   1.3510
     1.3620   1.3848   1.4058   1.4320   1.4334   1.4513   1.5661   1.6120
     1.6505   1.6949   1.7093   1.7328   1.7998   1.8216   1.8250   1.8841
     1.9072   1.9294   1.9433   2.0044   2.0233   2.0376   2.0460   2.1485
     2.1506   2.1813   2.1868   2.1944   2.2074   2.2268   2.2620   2.4029
     2.4232   2.4404   2.4467   2.4778   2.6000   2.6617   2.8378   3.0513
     3.0749   3.2377   3.4688   3.4731   3.7923   3.8785   3.9617   4.1944
     4.5101   4.6947   4.7017   4.8250   4.9192   4.9308   5.1145   5.1702
     5.3249   5.3726   5.8647   6.0220   6.4198   6.5146   6.9511   7.0261
     7.4926

          k = 0.4000-0.6928 0.0000 ( 44692 PWs)   bands (ev):

    -5.7804  -5.7532  -5.1725  -4.9346  -4.4529  -4.2199  -3.9707  -3.8737
    -3.8318  -3.8007  -3.6945  -3.6783  -3.5895  -3.5739  -3.4698  -3.4465
    -3.4301  -3.4012  -3.3983  -3.3610  -3.2550  -3.2478  -3.2238  -3.2030
    -3.1866  -3.1752  -3.0210  -2.9813  -2.9393  -2.8313  -2.8179  -2.8108
    -2.7770  -2.7732  -2.6696  -2.6376  -2.5835  -2.5474  -2.4342  -2.3825
    -2.3693  -2.3139  -2.2054  -2.1964  -2.1431  -2.1196  -2.0435  -2.0246
    -1.9495  -1.9415  -1.9174  -1.8920  -1.8806  -1.8391  -1.7681  -1.7634
    -1.7470  -1.7225  -1.7188  -1.7038  -1.6706  -1.6059  -1.5740  -1.4853
    -1.4784  -1.4401  -1.4321  -1.3101  -1.2768  -1.2600  -1.2366  -1.2058
    -1.1909  -1.1630  -1.1409  -1.0881  -1.0702  -1.0553  -0.9983  -0.9842
    -0.9195  -0.9086  -0.8888  -0.8638  -0.8226  -0.8173  -0.7653  -0.7212
    -0.6909  -0.6716  -0.6503  -0.6273  -0.5856  -0.5720  -0.5593  -0.5367
    -0.5158  -0.4950  -0.4773  -0.4583  -0.4364  -0.4273  -0.4219  -0.3926
    -0.3850  -0.3701  -0.3491  -0.3441  -0.2994  -0.1331  -0.0745   0.0020
     0.0182   0.0705   0.1108   0.1326   0.1708   0.2182   0.2219   0.2411
     0.2609   0.2934   0.3205   0.3717   0.4008   0.4139   0.4445   0.4933
     0.5051   0.5202   0.5663   0.6420   0.7129   0.7767   0.8043   0.8294
     0.8433   0.8527   0.8819   0.9094   0.9191   0.9467   0.9742   0.9987
     1.0539   1.1144   1.1259   1.1301   1.1535   1.1774   1.1888   1.2062
     1.2175   1.3590   1.3738   1.4751   1.5244   1.5701   1.6339   1.6563
     1.7175   1.7558   1.7731   1.7829   1.8457   1.8848   1.9520   1.9621
     1.9807   1.9918   2.0121   2.0501   2.0761   2.0864   2.1592   2.1702
     2.1844   2.1956   2.2252   2.2396   2.2442   2.3067   2.4020   2.4220
     2.4439   2.4464   2.4754   2.5009   2.5538   2.6198   2.7171   3.4132
     3.5784   3.5961   3.7827   3.8756   3.9501   3.9620   3.9863   4.3660
     4.5575   4.5973   4.8459   5.0309   5.0769   5.1847   5.2128   5.3873
     5.4666   5.5971   5.6292   5.8660   6.0200   6.0268   6.5096   6.6641
     6.6822

          k = 0.4000-0.4619 0.0000 ( 44692 PWs)   bands (ev):

    -5.7757  -5.7517  -5.1793  -4.9107  -4.4566  -4.2254  -3.9673  -3.8734
    -3.8234  -3.8018  -3.6941  -3.6773  -3.5956  -3.5717  -3.4654  -3.4444
    -3.4292  -3.4143  -3.3943  -3.3493  -3.2586  -3.2476  -3.2294  -3.2023
    -3.1941  -3.1571  -3.0369  -2.9731  -2.9467  -2.8507  -2.8328  -2.8214
    -2.7782  -2.7606  -2.6955  -2.6571  -2.5707  -2.5378  -2.4448  -2.3918
    -2.3709  -2.2888  -2.2254  -2.2013  -2.1536  -2.1223  -2.0527  -2.0087
    -1.9645  -1.9461  -1.9203  -1.9146  -1.8868  -1.8470  -1.7724  -1.7597
    -1.7309  -1.7095  -1.7025  -1.6872  -1.6725  -1.6219  -1.6034  -1.5075
    -1.4646  -1.4280  -1.4082  -1.3236  -1.3045  -1.2841  -1.2449  -1.2252
    -1.1878  -1.1646  -1.0941  -1.0846  -1.0653  -1.0421  -0.9955  -0.9829
    -0.9704  -0.9380  -0.9022  -0.8603  -0.8484  -0.8302  -0.7513  -0.7161
    -0.6842  -0.6540  -0.6195  -0.6004  -0.5908  -0.5714  -0.5478  -0.5374
    -0.5029  -0.4881  -0.4492  -0.4380  -0.4255  -0.4158  -0.4028  -0.3882
    -0.3658  -0.3592  -0.3254  -0.2967  -0.2735  -0.1029  -0.0566   0.0155
     0.0386   0.0677   0.0884   0.1342   0.1619   0.1863   0.2125   0.2247
     0.2540   0.2779   0.3100   0.3523   0.3713   0.3975   0.4507   0.4578
     0.5084   0.5301   0.5775   0.6835   0.7370   0.7567   0.7859   0.8158
     0.8480   0.8756   0.9092   0.9270   0.9357   0.9483   0.9699   0.9940
     1.0547   1.0997   1.1042   1.1280   1.1523   1.1929   1.2104   1.2423
     1.2598   1.3676   1.4169   1.4597   1.4997   1.5406   1.6136   1.6483
     1.6712   1.7428   1.7630   1.7750   1.8642   1.8843   1.9477   1.9759
     1.9945   2.0024   2.0123   2.0305   2.0620   2.0839   2.1601   2.1675
     2.1871   2.2054   2.2123   2.2233   2.2365   2.2958   2.3857   2.4249
     2.4360   2.4446   2.4665   2.5139   2.5526   2.6165   2.7395   3.3875
     3.5789   3.5995   3.8020   3.8704   3.9325   3.9754   3.9988   4.3396
     4.5562   4.5928   4.7944   5.0590   5.1098   5.1644   5.2075   5.3596
     5.4726   5.5287   5.6236   5.8778   6.0218   6.0619   6.4883   6.6680
     6.7127

     the Fermi energy is     2.2126 ev

!    total energy              =  -27755.47457873 Ry
     total all-electron energy =  -1326642.239995 Ry
     estimated scf accuracy    <       0.00000061 Ry
     smearing contrib. (-TS)   =       0.00140455 Ry
     internal energy E=F+TS    =  -27755.47598328 Ry

     The total energy is F=E-TS. E is the sum of the following terms:
     one-electron contribution =  -23024.12686458 Ry
     hartree contribution      =   11814.77277528 Ry
     xc contribution           =    -891.02015256 Ry
     ewald contribution        =    9818.95576927 Ry
     one-center paw contrib.   =  -25474.05751069 Ry

     convergence has been achieved in  17 iterations

     negative rho (up, down):  3.490E-03 0.000E+00

     Forces acting on atoms (cartesian axes, Ry/au):

     atom    1 type  1   force =     0.00341063    0.00182739   -0.00586126
     atom    2 type  1   force =     0.00042502    0.00264465   -0.00473985
     atom    3 type  1   force =    -0.00203811    0.00357358   -0.00525196
     atom    4 type  1   force =     0.00262269   -0.00122034   -0.00475840
     atom    5 type  1   force =     0.00054975    0.00011746   -0.00312296
     atom    6 type  1   force =    -0.00181639   -0.00007881   -0.00399909
     atom    7 type  1   force =     0.00217888   -0.00382420   -0.00518556
     atom    8 type  1   force =    -0.00079811   -0.00178626   -0.00392113
     atom    9 type  1   force =    -0.00211208   -0.00138054   -0.00353714
     atom   10 type  1   force =    -0.00037817    0.00015008   -0.00504759
     atom   11 type  1   force =    -0.00068320    0.00086520   -0.00376522
     atom   12 type  1   force =    -0.00547907    0.00502545   -0.00812040
     atom   13 type  1   force =    -0.00001699   -0.00043716   -0.00340045
     atom   14 type  1   force =    -0.00418339   -0.00195161   -0.00347300
     atom   15 type  1   force =    -0.00494066    0.00370389   -0.00395398
     atom   16 type  1   force =     0.00114462   -0.00680387   -0.00781155
     atom   17 type  1   force =     0.00009986   -0.00551886   -0.00386712
     atom   18 type  1   force =    -0.00672055   -0.00339418   -0.00713038
     atom   19 type  1   force =     0.00392989   -0.00451884    0.00707810
     atom   20 type  1   force =     0.00569000    0.00337474    0.01217077
     atom   21 type  1   force =     0.00518244    0.00246617    0.00109326
     atom   22 type  1   force =     0.00381487    0.00196091    0.00309999
     atom   23 type  1   force =     0.00477936    0.00349374    0.00100942
     atom   24 type  1   force =     0.00865393    0.00514004    0.00014712
     atom   25 type  1   force =     0.00416782    0.00230562    0.00809796
     atom   26 type  1   force =    -0.00188790    0.00569811    0.00702862
     atom   27 type  1   force =     0.00378014    0.00232890    0.00327820
     atom   28 type  1   force =    -0.01019131   -0.00594342    0.02210744
     atom   29 type  1   force =    -0.01265790   -0.00731748   -0.00140636
     atom   30 type  1   force =    -0.00381858    0.00095682    0.00693106
     atom   31 type  1   force =    -0.01253384   -0.00868288   -0.00071373
     atom   32 type  1   force =     0.00914422    0.00530047    0.00735826
     atom   33 type  1   force =     0.00206120    0.00511586    0.00150956
     atom   34 type  1   force =    -0.00114906   -0.00411570    0.00657300
     atom   35 type  1   force =     0.00544183   -0.00098210    0.00157894
     atom   36 type  1   force =     0.00787100    0.00430553    0.01618058
     atom   37 type  2   force =    -0.00354286   -0.00239835   -0.01617514
     The non-local contrib.  to forces
     atom    1 type  1   force =     0.00077454    0.00046358   -0.01635959
     atom    2 type  1   force =     0.00034774    0.00237986   -0.01767389
     atom    3 type  1   force =     0.00066326    0.00106295   -0.01764580
     atom    4 type  1   force =     0.00227773   -0.00083730   -0.01767080
     atom    5 type  1   force =    -0.00081107   -0.00038749   -0.01737032
     atom    6 type  1   force =    -0.00167610    0.00079629   -0.01768415
     atom    7 type  1   force =     0.00124867    0.00006364   -0.01772279
     atom    8 type  1   force =    -0.00017030   -0.00179568   -0.01769625
     atom    9 type  1   force =    -0.00206725   -0.00112789   -0.01657360
     atom   10 type  1   force =    -0.00020153    0.00029752   -0.00351962
     atom   11 type  1   force =    -0.00160298    0.00117207   -0.00240934
     atom   12 type  1   force =    -0.00135468    0.00474269   -0.00363507
     atom   13 type  1   force =    -0.00020189   -0.00124439   -0.00234977
     atom   14 type  1   force =    -0.00189606   -0.00061588   -0.00302763
     atom   15 type  1   force =    -0.00412817    0.00329220   -0.00338110
     atom   16 type  1   force =     0.00293066   -0.00293829   -0.00350162
     atom   17 type  1   force =     0.00025789   -0.00446568   -0.00332810
     atom   18 type  1   force =    -0.00554258   -0.00271049   -0.00290870
     atom   19 type  1   force =    -0.00083975   -0.00658556    0.00211277
     atom   20 type  1   force =     0.00572614    0.00338432    0.01913929
     atom   21 type  1   force =     0.00830710    0.00107630    0.00042238
     atom   22 type  1   force =     0.00289687    0.00672614   -0.00055511
     atom   23 type  1   force =     0.00513111    0.00686104    0.00031236
     atom   24 type  1   force =     0.00847979    0.00517075    0.00177675
     atom   25 type  1   force =     0.00442898    0.00268220    0.00776845
     atom   26 type  1   force =    -0.00577751    0.00276721    0.00221088
     atom   27 type  1   force =     0.00727272   -0.00083294   -0.00032607
     atom   28 type  1   force =    -0.01017554   -0.00625460    0.02570476
     atom   29 type  1   force =    -0.01715578    0.01890923    0.00364847
     atom   30 type  1   force =    -0.00432234    0.00052825    0.01864976
     atom   31 type  1   force =     0.00635022   -0.02442290   -0.00080589
     atom   32 type  1   force =    -0.02940132   -0.01636424    0.01831145
     atom   33 type  1   force =     0.00032093    0.00633971    0.01608313
     atom   34 type  1   force =    -0.00158745   -0.00546518    0.01887046
     atom   35 type  1   force =     0.00585177   -0.00390943    0.01613036
     atom   36 type  1   force =     0.01101304    0.00574909    0.01985855
     atom   37 type  2   force =    -0.00377314   -0.00080643   -0.01933116
     The ionic contribution  to forces
     atom    1 type  1   force =     0.13906909    0.07988765  -96.66967787
     atom    2 type  1   force =     0.02516143    0.14715385  -96.59627098
     atom    3 type  1   force =    -0.14363938    0.22234338  -96.60856384
     atom    4 type  1   force =     0.14040726   -0.05094694  -96.59534410
     atom    5 type  1   force =     0.00855907    0.00595641  -96.52365426
     atom    6 type  1   force =    -0.14210908    0.08759775  -96.55285589
     atom    7 type  1   force =     0.12106832   -0.23635810  -96.60685567
     atom    8 type  1   force =     0.00396067   -0.16691855  -96.55206061
     atom    9 type  1   force =    -0.14087382   -0.08190762  -96.55152486
     atom   10 type  1   force =     0.13398444    0.08273456  -32.77987243
     atom   11 type  1   force =    -0.02772485    0.17781270  -32.75442075
     atom   12 type  1   force =    -0.15860764    0.30158246  -32.74400242
     atom   13 type  1   force =     0.13321342   -0.09878444  -32.74438653
     atom   14 type  1   force =    -0.09874467   -0.04620367  -32.87437546
     atom   15 type  1   force =    -0.10710246    0.18068178  -32.82678732
     atom   16 type  1   force =     0.17490773   -0.28848375  -32.73789611
     atom   17 type  1   force =     0.09119933   -0.18109872  -32.82720821
     atom   18 type  1   force =    -0.25889750   -0.15179695  -32.65204071
     atom   19 type  1   force =     0.15039288   -0.09303138   32.06115357
     atom   20 type  1   force =    -0.03802425   -0.01242836   32.62452293
     atom   21 type  1   force =     0.00908254   -0.01284520   32.24196164
     atom   22 type  1   force =     0.06376864   -0.01316487   32.49143362
     atom   23 type  1   force =    -0.01118979    0.01675597   32.27813860
     atom   24 type  1   force =     0.11938186    0.07064058   32.05630263
     atom   25 type  1   force =     0.06932419    0.04027962   31.28832802
     atom   26 type  1   force =    -0.00877492    0.17823986   32.06482645
     atom   27 type  1   force =     0.02667834    0.05856048   32.44868436
     atom   28 type  1   force =    -0.24957033   -0.13189943   93.79931080
     atom   29 type  1   force =    -0.39051720   -1.65052882   97.14195330
     atom   30 type  1   force =     0.33360340   -0.34395909   95.52789577
     atom   31 type  1   force =    -1.66863216    0.47482292   97.12690055
     atom   32 type  1   force =     1.11136755    0.63625874   95.88348571
     atom   33 type  1   force =     0.27036534    0.03233385   96.20657857
     atom   34 type  1   force =    -0.12835598    0.44902327   95.54904573
     atom   35 type  1   force =     0.16666987    0.19648829   96.21647557
     atom   36 type  1   force =     0.19967309    0.11373290   94.90151701
     atom   37 type  2   force =     0.08092556    0.00746887   12.28928320
     The local contribution  to forces
     atom    1 type  1   force =    -0.13593196   -0.07823654   96.66195281
     atom    2 type  1   force =    -0.02500062   -0.14641530   96.59126513
     atom    3 type  1   force =     0.14051712   -0.21926904   96.60291010
     atom    4 type  1   force =    -0.13961959    0.05038969   96.59033691
     atom    5 type  1   force =    -0.00727901   -0.00551426   96.52008203
     atom    6 type  1   force =     0.14172804   -0.08822849   96.54881333
     atom    7 type  1   force =    -0.11986454    0.23182485   96.60138953
     atom    8 type  1   force =    -0.00449431    0.16659498   96.54811155
     atom    9 type  1   force =     0.14043911    0.08142263   96.54692533
     atom   10 type  1   force =    -0.13383972   -0.08265703   32.77540544
     atom   11 type  1   force =     0.02847629   -0.17783495   32.75038096
     atom   12 type  1   force =     0.15389948   -0.30039551   32.73667454
     atom   13 type  1   force =    -0.13294107    0.09937474   32.74073892
     atom   14 type  1   force =     0.09619584    0.04475161   32.87098870
     atom   15 type  1   force =     0.10601842   -0.17971935   32.82329262
     atom   16 type  1   force =    -0.17624159    0.28366461   32.73077526
     atom   17 type  1   force =    -0.09108256    0.17950161   32.82370642
     atom   18 type  1   force =     0.25689361    0.15059354   32.64532868
     atom   19 type  1   force =    -0.14515978    0.09462788  -32.05295098
     atom   20 type  1   force =     0.03812891    0.01260276  -32.62712955
     atom   21 type  1   force =    -0.01199534    0.01426677  -32.23891221
     atom   22 type  1   force =    -0.06236487    0.00839718  -32.48504580
     atom   23 type  1   force =     0.01089459   -0.01992845  -32.27509973
     atom   24 type  1   force =    -0.11860034   -0.07033437  -32.05611849
     atom   25 type  1   force =    -0.06914391   -0.04041042  -31.28505514
     atom   26 type  1   force =     0.01241409   -0.17462328  -32.05680264
     atom   27 type  1   force =    -0.02986718   -0.05501000  -32.44236113
     atom   28 type  1   force =     0.24956147    0.13225843  -93.78491209
     atom   29 type  1   force =     0.39364841    1.61561104  -97.13464867
     atom   30 type  1   force =    -0.33341413    0.34419665  -95.52154261
     atom   31 type  1   force =     1.64087984   -0.45567390  -97.11497696
     atom   32 type  1   force =    -1.06745210   -0.61150413  -95.88072303
     atom   33 type  1   force =    -0.26782780   -0.03298895  -96.20287876
     atom   34 type  1   force =     0.12843988   -0.44795265  -95.54330949
     atom   35 type  1   force =    -0.16620886   -0.19323954  -96.21274461
     atom   36 type  1   force =    -0.20188284   -0.11471784  -94.88660739
     atom   37 type  2   force =    -0.08069883   -0.00906157  -12.28607304
     The core correction contribution to forces
     atom    1 type  1   force =    -0.00041303   -0.00023354    0.01767568
     atom    2 type  1   force =    -0.00005236   -0.00044492    0.01741649
     atom    3 type  1   force =     0.00030186   -0.00057033    0.01751902
     atom    4 type  1   force =    -0.00041439    0.00018393    0.01741729
     atom    5 type  1   force =    -0.00001829   -0.00000831    0.01729561
     atom    6 type  1   force =     0.00031071   -0.00018383    0.01719158
     atom    7 type  1   force =    -0.00034683    0.00055848    0.01750383
     atom    8 type  1   force =    -0.00000587    0.00036499    0.01719405
     atom    9 type  1   force =     0.00037182    0.00021845    0.01714904
     atom   10 type  1   force =    -0.00022309   -0.00014552    0.00258185
     atom   11 type  1   force =     0.00004965   -0.00029521    0.00225903
     atom   12 type  1   force =     0.00060393   -0.00086509    0.00246249
     atom   13 type  1   force =    -0.00020695    0.00014560    0.00221935
     atom   14 type  1   force =     0.00028332    0.00013433    0.00255416
     atom   15 type  1   force =     0.00037000   -0.00049230    0.00256752
     atom   16 type  1   force =    -0.00042161    0.00094259    0.00243860
     atom   17 type  1   force =    -0.00020855    0.00055855    0.00257194
     atom   18 type  1   force =     0.00072577    0.00040659    0.00209254
     atom   19 type  1   force =    -0.00033624    0.00058884   -0.00318707
     atom   20 type  1   force =    -0.00024008   -0.00017178   -0.00434690
     atom   21 type  1   force =    -0.00024303    0.00002132   -0.00233095
     atom   22 type  1   force =    -0.00055616   -0.00015227   -0.00274531
     atom   23 type  1   force =    -0.00009344   -0.00025623   -0.00231965
     atom   24 type  1   force =    -0.00050513   -0.00032428   -0.00180019
     atom   25 type  1   force =    -0.00041025   -0.00025859   -0.00294073
     atom   26 type  1   force =     0.00034490   -0.00062141   -0.00316604
     atom   27 type  1   force =    -0.00043596   -0.00041926   -0.00272768
     atom   28 type  1   force =     0.00005802   -0.00000393   -0.01727426
     atom   29 type  1   force =     0.00130942    0.00861069   -0.01175918
     atom   30 type  1   force =     0.00031977    0.00021167   -0.01729833
     atom   31 type  1   force =     0.00875502   -0.00337510   -0.01128734
     atom   32 type  1   force =    -0.00533641   -0.00307010   -0.01305155
     atom   33 type  1   force =    -0.00072704   -0.00051786   -0.01754625
     atom   34 type  1   force =     0.00033525    0.00024900   -0.01728788
     atom   35 type  1   force =    -0.00079626   -0.00029122   -0.01753652
     atom   36 type  1   force =    -0.00098641   -0.00054042   -0.01787751
     atom   37 type  2   force =     0.00000000    0.00000000    0.00000000
     The Hubbard contrib.    to forces
     atom    1 type  1   force =     0.00000000    0.00000000    0.00000000
     atom    2 type  1   force =     0.00000000    0.00000000    0.00000000
     atom    3 type  1   force =     0.00000000    0.00000000    0.00000000
     atom    4 type  1   force =     0.00000000    0.00000000    0.00000000
     atom    5 type  1   force =     0.00000000    0.00000000    0.00000000
     atom    6 type  1   force =     0.00000000    0.00000000    0.00000000
     atom    7 type  1   force =     0.00000000    0.00000000    0.00000000
     atom    8 type  1   force =     0.00000000    0.00000000    0.00000000
     atom    9 type  1   force =     0.00000000    0.00000000    0.00000000
     atom   10 type  1   force =     0.00000000    0.00000000    0.00000000
     atom   11 type  1   force =     0.00000000    0.00000000    0.00000000
     atom   12 type  1   force =     0.00000000    0.00000000    0.00000000
     atom   13 type  1   force =     0.00000000    0.00000000    0.00000000
     atom   14 type  1   force =     0.00000000    0.00000000    0.00000000
     atom   15 type  1   force =     0.00000000    0.00000000    0.00000000
     atom   16 type  1   force =     0.00000000    0.00000000    0.00000000
     atom   17 type  1   force =     0.00000000    0.00000000    0.00000000
     atom   18 type  1   force =     0.00000000    0.00000000    0.00000000
     atom   19 type  1   force =     0.00000000    0.00000000    0.00000000
     atom   20 type  1   force =     0.00000000    0.00000000    0.00000000
     atom   21 type  1   force =     0.00000000    0.00000000    0.00000000
     atom   22 type  1   force =     0.00000000    0.00000000    0.00000000
     atom   23 type  1   force =     0.00000000    0.00000000    0.00000000
     atom   24 type  1   force =     0.00000000    0.00000000    0.00000000
     atom   25 type  1   force =     0.00000000    0.00000000    0.00000000
     atom   26 type  1   force =     0.00000000    0.00000000    0.00000000
     atom   27 type  1   force =     0.00000000    0.00000000    0.00000000
     atom   28 type  1   force =     0.00000000    0.00000000    0.00000000
     atom   29 type  1   force =     0.00000000    0.00000000    0.00000000
     atom   30 type  1   force =     0.00000000    0.00000000    0.00000000
     atom   31 type  1   force =     0.00000000    0.00000000    0.00000000
     atom   32 type  1   force =     0.00000000    0.00000000    0.00000000
     atom   33 type  1   force =     0.00000000    0.00000000    0.00000000
     atom   34 type  1   force =     0.00000000    0.00000000    0.00000000
     atom   35 type  1   force =     0.00000000    0.00000000    0.00000000
     atom   36 type  1   force =     0.00000000    0.00000000    0.00000000
     atom   37 type  2   force =     0.00000000    0.00000000    0.00000000
     The SCF correction term to forces
     atom    1 type  1   force =    -0.00000000   -0.00000000    0.00000000
     atom    2 type  1   force =    -0.00000000   -0.00000000    0.00000000
     atom    3 type  1   force =     0.00000000    0.00000000    0.00000000
     atom    4 type  1   force =    -0.00000000   -0.00000000    0.00000000
     atom    5 type  1   force =     0.00000000    0.00000000    0.00000000
     atom    6 type  1   force =    -0.00000000   -0.00000000    0.00000000
     atom    7 type  1   force =     0.00000000    0.00000000    0.00000000
     atom    8 type  1   force =    -0.00000000   -0.00000000    0.00000000
     atom    9 type  1   force =     0.00000000    0.00000000    0.00000000
     atom   10 type  1   force =    -0.00000000   -0.00000000    0.00000000
     atom   11 type  1   force =     0.00000000    0.00000000    0.00000000
     atom   12 type  1   force =    -0.00000000   -0.00000000    0.00000000
     atom   13 type  1   force =     0.00000000    0.00000000    0.00000000
     atom   14 type  1   force =    -0.00000000   -0.00000000    0.00000000
     atom   15 type  1   force =    -0.00000000   -0.00000000    0.00000000
     atom   16 type  1   force =    -0.00000000    0.00000000    0.00000000
     atom   17 type  1   force =    -0.00000000   -0.00000000    0.00000000
     atom   18 type  1   force =     0.00000000    0.00000000    0.00000000
     atom   19 type  1   force =    -0.00012747   -0.00011816   -0.00003652
     atom   20 type  1   force =     0.00009903   -0.00001175   -0.00000134
     atom   21 type  1   force =     0.00003092   -0.00005256   -0.00003393
     atom   22 type  1   force =     0.00007015    0.00015518    0.00002625
     atom   23 type  1   force =     0.00003665    0.00006185   -0.00000848
     atom   24 type  1   force =    -0.00010249   -0.00001219    0.00000009
     atom   25 type  1   force =    -0.00003142    0.00001326    0.00001103
     atom   26 type  1   force =    -0.00009470   -0.00006383   -0.00002636
     atom   27 type  1   force =     0.00013198    0.00003109    0.00002238
     atom   28 type  1   force =    -0.00006517   -0.00004344   -0.00070810
     atom   29 type  1   force =     0.00005702    0.00008083   -0.00058662
     atom   30 type  1   force =    -0.00000552   -0.00002021   -0.00075985
     atom   31 type  1   force =     0.00011300   -0.00003345   -0.00053041
     atom   32 type  1   force =    -0.00003375   -0.00001935   -0.00065065
     atom   33 type  1   force =    -0.00007047   -0.00005043   -0.00071346
     atom   34 type  1   force =     0.00001901    0.00003030   -0.00073215
     atom   35 type  1   force =    -0.00007493   -0.00002975   -0.00073218
     atom   36 type  1   force =     0.00005387    0.00008225   -0.00069642
     atom   37 type  2   force =     0.00000331    0.00000123   -0.00004046

     Total force =     0.052317     Total SCF correction =     0.002092

     Writing all to output data dir ./pwscf.save/
