
     Program PWSCF v.7.1 starts on  4Dec2025 at 19:14:10 
        Git branch: heads/qe-7.1
        Last git commit: 48ba0178f8fede6d020eb786884699a9f063f55d-dirty
        Last git commit date: Fri Jan 27 14:22:33 2023 +0000
        Last git commit subject: Merge branch 'fix_hubbard' into 'develop'

     This program is part of the open-source Quantum ESPRESSO suite
     for quantum simulation of materials; please cite
         "P. Giannozzi et al., J. Phys.:Condens. Matter 21 395502 (2009);
         "P. Giannozzi et al., J. Phys.:Condens. Matter 29 465901 (2017);
         "P. Giannozzi et al., J. Chem. Phys. 152 154105 (2020);
          URL http://www.quantum-espresso.org", 
     in publications or presentations arising from this work. More details at
     http://www.quantum-espresso.org/quote

     Parallel version (MPI), running on    96 processors

     MPI processes distributed on     2 nodes
     38180 MiB available memory on the printing compute node when the environment starts

     Reading input from espresso.pwi
Warning: card &CELL ignored
Warning: card / ignored
Warning: card &FCP ignored
Warning: card / ignored
Warning: card &RISM ignored
Warning: card / ignored

     Current dimensions of program PWSCF are:
     Max number of different atomic species (ntypx) = 10
     Max number of k-points (npk) =  40000
     Max angular momentum in pseudopotentials (lmaxx) =  4
     file Co.pbe-n-kjpaw_psl.1.0.0.UPF: wavefunction(s)  4S 3D renormalized
     file C.pbe-n-kjpaw_psl.1.0.0.UPF: wavefunction(s)  2S 2P renormalized
     file O.pbe-nl-kjpaw_psl.1.0.0.UPF: wavefunction(s)  2S 2P renormalized
     file H.pbe-kjpaw_psl.1.0.0.UPF: wavefunction(s)  1S renormalized

     **************************************************************************
     Initializing libbeef V0.1.2 with the BEEF-vdW functional.
     Citation: Wellendorff et al., PRB 85, 235149 (2012).
     **************************************************************************


     IMPORTANT: XC functional enforced from input :
     Exchange-correlation= BEEF-VDW
                           (   1   4  43  14   2   0   0)
     Any further DFT definition will be discarded
     Please, verify this is what you really want


     R & G space division:  proc/nbgrp/npool/nimage =      96
     Subspace diagonalization in iterative solution of the eigenvalue problem:
     one sub-group per band group will be used
     custom distributed-memory algorithm (size of sub-group:  2*  2 procs)


     Parallelization info
     --------------------
     sticks:   dense  smooth     PW     G-vecs:    dense   smooth      PW
     Min          43      23      6                 7829     3049     440
     Max          44      24      7                 7845     3068     465
     Sum        4153    2221    613               752179   293251   42993

     Using Slab Decomposition



     bravais-lattice index     =            0
     lattice parameter (alat)  =      14.1729  a.u.
     unit-cell volume          =    8574.3059 (a.u.)^3
     number of atoms/cell      =           39
     number of atomic types    =            4
     number of electrons       =       335.00
     number of Kohn-Sham states=          202
     kinetic-energy cutoff     =      40.0000  Ry
     charge density cutoff     =     300.0000  Ry
     scf convergence threshold =      1.0E-06
     mixing beta               =       0.7000
     number of iterations used =            8  local-TF  mixing
     Exchange-correlation= BEEF-VDW
                           (   1   4  43  14   2   0   0)

     celldm(1)=  14.172946  celldm(2)=   0.000000  celldm(3)=   0.000000
     celldm(4)=   0.000000  celldm(5)=   0.000000  celldm(6)=   0.000000

     crystal axes: (cart. coord. in units of alat)
               a(1) = (   1.000000   0.000000   0.000000 )  
               a(2) = (   0.500000   0.866025   0.000000 )  
               a(3) = (   0.000000   0.000000   3.477667 )  

     reciprocal axes: (cart. coord. in units 2 pi/alat)
               b(1) = (  1.000000 -0.577350  0.000000 )  
               b(2) = (  0.000000  1.154701  0.000000 )  
               b(3) = (  0.000000  0.000000  0.287549 )  


     PseudoPot. # 1 for Co read from file:
     /users/kbadger1/espresso/pseudo/pslibrary.1.0.0/pbe/PSEUDOPOTENTIALS/Co.pbe-n-kjpaw_psl.1.0.0.UPF
     MD5 check sum: 88af6ec42553d4236c267fdfcb472151
     Pseudo is Projector augmented-wave + core cor, Zval =  9.0
     Generated using 'atomic' code by A. Dal Corso  v.7.0
     Shape of augmentation charge: PSQ
     Using radial grid of 1193 points,  6 beta functions with: 
                l(1) =   0
                l(2) =   0
                l(3) =   1
                l(4) =   1
                l(5) =   2
                l(6) =   2
     Q(r) pseudized with 0 coefficients 


     PseudoPot. # 2 for C  read from file:
     /users/kbadger1/espresso/pseudo/pslibrary.1.0.0/pbe/PSEUDOPOTENTIALS/C.pbe-n-kjpaw_psl.1.0.0.UPF
     MD5 check sum: 6408e75cdba28732cea38a4db8498ce4
     Pseudo is Projector augmented-wave + core cor, Zval =  4.0
     Generated using 'atomic' code by A. Dal Corso  v.7.0
     Shape of augmentation charge: PSQ
     Using radial grid of 1073 points,  4 beta functions with: 
                l(1) =   0
                l(2) =   0
                l(3) =   1
                l(4) =   1
     Q(r) pseudized with 0 coefficients 


     PseudoPot. # 3 for O  read from file:
     /users/kbadger1/espresso/pseudo/pslibrary.1.0.0/pbe/PSEUDOPOTENTIALS/O.pbe-nl-kjpaw_psl.1.0.0.UPF
     MD5 check sum: f0439fab3598ca4e468f064226030408
     Pseudo is Projector augmented-wave + core cor, Zval =  6.0
     Generated using 'atomic' code by A. Dal Corso  v.7.0
     Shape of augmentation charge: PSQ
     Using radial grid of 1095 points,  4 beta functions with: 
                l(1) =   0
                l(2) =   0
                l(3) =   1
                l(4) =   1
     Q(r) pseudized with 0 coefficients 


     PseudoPot. # 4 for H  read from file:
     /users/kbadger1/espresso/pseudo/pslibrary.1.0.0/pbe/PSEUDOPOTENTIALS/H.pbe-kjpaw_psl.1.0.0.UPF
     MD5 check sum: fe4c6fa958fa6d3815bf5d2419cbf1df
     Pseudo is Projector augmented-wave, Zval =  1.0
     Generated using 'atomic' code by A. Dal Corso  v.7.0
     Shape of augmentation charge: PSQ
     Using radial grid of  929 points,  2 beta functions with: 
                l(1) =   0
                l(2) =   0
     Q(r) pseudized with 0 coefficients 


     atomic species   valence    mass     pseudopotential
        Co             9.00    58.93319     Co( 1.00)
        C              4.00    12.00000     C ( 1.00)
        O              6.00    15.99491     O ( 1.00)
        H              1.00     1.00783     H ( 1.00)

     Starting magnetic structure 
     atomic species   magnetization
        Co           1.000
        C            1.000
        O            0.000
        H            0.000

     No symmetry found



   Cartesian axes

     site n.     atom                  positions (alat units)
         1           Co  tau(   1) = (   0.0000000   0.1924501   1.3333333  )
         2           Co  tau(   2) = (   0.3333333   0.1924501   1.3333333  )
         3           Co  tau(   3) = (   0.6666667   0.1924501   1.3333333  )
         4           Co  tau(   4) = (   0.1666667   0.4811252   1.3333333  )
         5           Co  tau(   5) = (   0.5000000   0.4811252   1.3333333  )
         6           Co  tau(   6) = (   0.8333333   0.4811252   1.3333333  )
         7           Co  tau(   7) = (   0.3333333   0.7698004   1.3333333  )
         8           Co  tau(   8) = (   0.6666667   0.7698004   1.3333333  )
         9           Co  tau(   9) = (   1.0000000   0.7698004   1.3333333  )
        10           Co  tau(  10) = (   0.0000000   0.0000000   1.6036667  )
        11           Co  tau(  11) = (   0.3333333   0.0000000   1.6036667  )
        12           Co  tau(  12) = (   0.6666667   0.0000000   1.6036667  )
        13           Co  tau(  13) = (   0.1666667   0.2886751   1.6036667  )
        14           Co  tau(  14) = (   0.5000000   0.2886751   1.6036667  )
        15           Co  tau(  15) = (   0.8333333   0.2886751   1.6036667  )
        16           Co  tau(  16) = (   0.3333333   0.5773503   1.6036667  )
        17           Co  tau(  17) = (   0.6666667   0.5773503   1.6036667  )
        18           Co  tau(  18) = (   1.0000000   0.5773503   1.6036667  )
        19           Co  tau(  19) = (   0.0000000   0.1924501   1.8740000  )
        20           Co  tau(  20) = (   0.3333333   0.1924501   1.8740000  )
        21           Co  tau(  21) = (   0.6666667   0.1924501   1.8740000  )
        22           Co  tau(  22) = (   0.1666667   0.4811252   1.8740000  )
        23           Co  tau(  23) = (   0.5000000   0.4811252   1.8740000  )
        24           Co  tau(  24) = (   0.8333333   0.4811252   1.8740000  )
        25           Co  tau(  25) = (   0.3333333   0.7698004   1.8740000  )
        26           Co  tau(  26) = (   0.6666667   0.7698004   1.8740000  )
        27           Co  tau(  27) = (   1.0000000   0.7698004   1.8740000  )
        28           Co  tau(  28) = (   0.0000000   0.0000000   2.1443333  )
        29           Co  tau(  29) = (   0.3333333   0.0000000   2.1443333  )
        30           Co  tau(  30) = (   0.6666667   0.0000000   2.1443333  )
        31           Co  tau(  31) = (   0.1666667   0.2886751   2.1443333  )
        32           Co  tau(  32) = (   0.5000000   0.2886751   2.1443333  )
        33           Co  tau(  33) = (   0.8333333   0.2886751   2.1443333  )
        34           Co  tau(  34) = (   0.3333333   0.5773503   2.1443333  )
        35           Co  tau(  35) = (   0.6666667   0.5773503   2.1443333  )
        36           Co  tau(  36) = (   1.0000000   0.5773503   2.1443333  )
        37           C   tau(  37) = (   0.3789815   0.1665392   2.3320914  )
        38           O   tau(  38) = (   0.3569870   0.1529349   2.4886792  )
        39           H   tau(  39) = (   0.5910622   0.3832204   2.3053805  )

     number of k points=    13  Marzari-Vanderbilt smearing, width (Ry)=  0.0010
                       cart. coord. in units 2pi/alat
        k(    1) = (   0.0000000   0.0000000   0.0000000), wk =   0.0400000
        k(    2) = (   0.0000000   0.2309401   0.0000000), wk =   0.0800000
        k(    3) = (   0.0000000   0.4618802   0.0000000), wk =   0.0800000
        k(    4) = (   0.2000000  -0.1154701   0.0000000), wk =   0.0800000
        k(    5) = (   0.2000000   0.1154701   0.0000000), wk =   0.0800000
        k(    6) = (   0.2000000   0.3464102   0.0000000), wk =   0.0800000
        k(    7) = (   0.2000000  -0.5773503   0.0000000), wk =   0.0800000
        k(    8) = (   0.2000000  -0.3464102   0.0000000), wk =   0.0800000
        k(    9) = (   0.4000000  -0.2309401   0.0000000), wk =   0.0800000
        k(   10) = (   0.4000000   0.0000000   0.0000000), wk =   0.0800000
        k(   11) = (   0.4000000   0.2309401   0.0000000), wk =   0.0800000
        k(   12) = (   0.4000000  -0.6928203   0.0000000), wk =   0.0800000
        k(   13) = (   0.4000000  -0.4618802   0.0000000), wk =   0.0800000

     Dense  grid:   752179 G-vectors     FFT dimensions: (  80,  80, 288)

     Smooth grid:   293251 G-vectors     FFT dimensions: (  60,  60, 200)

     Estimated max dynamical RAM per process >      84.82 MB

     Estimated total dynamical RAM >       7.95 GB
     Generating pointlists ...
     new r_m :   0.0857 (alat units)  1.2147 (a.u.) for type    1
     new r_m :   0.0655 (alat units)  0.9279 (a.u.) for type    2
     new r_m :   0.0655 (alat units)  0.9279 (a.u.) for type    3
     new r_m :   0.0857 (alat units)  1.2147 (a.u.) for type    4

     Initial potential from superposition of free atoms

     starting charge     334.9897, renormalised to     335.0000

     negative rho (up, down):  3.047E-03 4.544E-04


     %%%%%%%%%%%%%%%%%%%%%%%%%%%%%%%%%%%%%%%%%%%%%%%%%%%%%%%%%%%%%%%%%%%%%%%%
     %                                                                      %
     % You are using vdW-DF, which was implemented by the Thonhauser group. %
     % Please cite the following two papers that made this development      %
     % possible and the two reviews that describe the various versions:     %
     %                                                                      %
     %   T. Thonhauser et al., PRL 115, 136402 (2015).                      %
     %   T. Thonhauser et al., PRB 76, 125112 (2007).                       %
     %   K. Berland et al., Rep. Prog. Phys. 78, 066501 (2015).             %
     %   D.C. Langreth et al., J. Phys.: Condens. Matter 21, 084203 (2009). %
     %                                                                      %
     % If you are calculating stress with vdW-DF, please also cite:         %
     %                                                                      %
     %   R. Sabatini et al., J. Phys.: Condens. Matter 24, 424209 (2012).   %
     %   C.M. Frostenson et al., Electr. Struct. 4, 014001 (2022).          %
     %                                                                      %
     %%%%%%%%%%%%%%%%%%%%%%%%%%%%%%%%%%%%%%%%%%%%%%%%%%%%%%%%%%%%%%%%%%%%%%%%

     %%%%%%%%%%%%%%%%%%%%%%%%%%%%%%%%%%%%%%%%%%%%%%%%%%%%%%%%%%%%%%%%%%%%%%%%
     %                                                                      %
     %  vdW-DF NEWS:                                                        %
     %                                                                      %
     %  * vdW-DF3 is now available. DOI: 10.1021/acs.jctc.0c00471           %
     %    use with input_dft = 'vdW-DF3-opt1' or 'vdW-DF3-opt2'             %
     %                                                                      %
     %  * Unscreened and range-separated hybrid vdW-DF-cx functionals       %
     %    DOI: 10.1063/1.4986522 and 10.1088/1361-648X/ac2ad2               %
     %    use with input_dft = 'vdW-DF-cx0'    and 'vdW-DF-ahcx'            %
     %  * Unscreened and range-separated hybrid vdW-DF2-b86r functionals    %
     %    DOI: 10.1063/1.4986522 and DOI: 10.1103/PhysRevX.12.041003        %
     %    use with input_dft = 'vdW-DF2-br0' and 'vdW-DF2-ahbr'             %
     %                                                                      %
     %%%%%%%%%%%%%%%%%%%%%%%%%%%%%%%%%%%%%%%%%%%%%%%%%%%%%%%%%%%%%%%%%%%%%%%%


     Starting wfcs are  333 randomized atomic wfcs
     Checking if some PAW data can be deallocated... 

     total cpu time spent up to now is       11.6 secs

     per-process dynamical memory:   213.6 Mb

     Self-consistent Calculation

     iteration #  1     ecut=    40.00 Ry     beta= 0.70
     Davidson diagonalization with overlap
     ethr =  1.00E-02,  avg # of iterations =  2.0

     negative rho (up, down):  6.774E-05 1.390E-06

     total cpu time spent up to now is       26.3 secs

     total energy              =   -6052.98169178 Ry
     estimated scf accuracy    <      39.26494446 Ry

     total magnetization       =    69.00 Bohr mag/cell
     absolute magnetization    =    81.27 Bohr mag/cell

     iteration #  2     ecut=    40.00 Ry     beta= 0.70
     Davidson diagonalization with overlap
     ethr =  1.00E-02,  avg # of iterations =  1.0

     negative rho (up, down):  2.756E-05 9.724E-07

     total cpu time spent up to now is       40.0 secs

     total energy              =   -6052.43976960 Ry
     estimated scf accuracy    <      25.22392213 Ry

     total magnetization       =    68.89 Bohr mag/cell
     absolute magnetization    =    76.75 Bohr mag/cell

     iteration #  3     ecut=    40.00 Ry     beta= 0.70
     Davidson diagonalization with overlap
     ethr =  7.53E-03,  avg # of iterations =  1.0

     negative rho (up, down):  1.376E-06 2.801E-06

     total cpu time spent up to now is       51.9 secs

     total energy              =   -6055.06505647 Ry
     estimated scf accuracy    <      83.18361431 Ry

     total magnetization       =    66.12 Bohr mag/cell
     absolute magnetization    =    73.52 Bohr mag/cell

     iteration #  4     ecut=    40.00 Ry     beta= 0.70
     Davidson diagonalization with overlap
     ethr =  7.53E-03,  avg # of iterations =  1.0

     negative rho (up, down):  1.571E-06 8.090E-07

     total cpu time spent up to now is       65.2 secs

     total energy              =   -6056.30454553 Ry
     estimated scf accuracy    <       5.09316035 Ry

     total magnetization       =    60.46 Bohr mag/cell
     absolute magnetization    =    70.23 Bohr mag/cell

     iteration #  5     ecut=    40.00 Ry     beta= 0.70
     Davidson diagonalization with overlap
     ethr =  1.52E-03,  avg # of iterations =  1.2

     negative rho (up, down):  1.519E-06 7.117E-07

     total cpu time spent up to now is       76.9 secs

     total energy              =   -6056.32249308 Ry
     estimated scf accuracy    <       2.16725947 Ry

     total magnetization       =    59.98 Bohr mag/cell
     absolute magnetization    =    69.42 Bohr mag/cell

     iteration #  6     ecut=    40.00 Ry     beta= 0.70
     Davidson diagonalization with overlap
     ethr =  6.47E-04,  avg # of iterations =  1.7

     negative rho (up, down):  1.657E-06 8.666E-07

     total cpu time spent up to now is       91.5 secs

     total energy              =   -6056.42435814 Ry
     estimated scf accuracy    <       0.59052078 Ry

     total magnetization       =    59.81 Bohr mag/cell
     absolute magnetization    =    68.89 Bohr mag/cell

     iteration #  7     ecut=    40.00 Ry     beta= 0.70
     Davidson diagonalization with overlap
     ethr =  1.76E-04,  avg # of iterations =  5.8

     negative rho (up, down):  1.291E-06 6.925E-07

     total cpu time spent up to now is      108.4 secs

     total energy              =   -6056.45888152 Ry
     estimated scf accuracy    <       0.66355615 Ry

     total magnetization       =    59.97 Bohr mag/cell
     absolute magnetization    =    68.67 Bohr mag/cell

     iteration #  8     ecut=    40.00 Ry     beta= 0.70
     Davidson diagonalization with overlap
     ethr =  1.76E-04,  avg # of iterations =  1.5

     negative rho (up, down):  7.691E-07 3.682E-07

     total cpu time spent up to now is      121.8 secs

     total energy              =   -6056.47768853 Ry
     estimated scf accuracy    <       0.12589707 Ry

     total magnetization       =    59.96 Bohr mag/cell
     absolute magnetization    =    68.51 Bohr mag/cell

     iteration #  9     ecut=    40.00 Ry     beta= 0.70
     Davidson diagonalization with overlap
     c_bands:  1 eigenvalues not converged
     ethr =  3.76E-05,  avg # of iterations = 10.3

     negative rho (up, down):  4.559E-07 2.659E-07

     total cpu time spent up to now is      146.4 secs

     total energy              =   -6056.48297596 Ry
     estimated scf accuracy    <       0.20416502 Ry

     total magnetization       =    60.28 Bohr mag/cell
     absolute magnetization    =    68.37 Bohr mag/cell

     iteration # 10     ecut=    40.00 Ry     beta= 0.70
     Davidson diagonalization with overlap
     ethr =  3.76E-05,  avg # of iterations =  1.8

     negative rho (up, down):  3.140E-07 1.793E-07

     total cpu time spent up to now is      160.3 secs

     total energy              =   -6056.48933109 Ry
     estimated scf accuracy    <       0.11241504 Ry

     total magnetization       =    60.46 Bohr mag/cell
     absolute magnetization    =    68.36 Bohr mag/cell

     iteration # 11     ecut=    40.00 Ry     beta= 0.70
     Davidson diagonalization with overlap
     ethr =  3.36E-05,  avg # of iterations =  1.3

     negative rho (up, down):  9.757E-08 4.166E-08

     total cpu time spent up to now is      171.8 secs

     total energy              =   -6056.48630868 Ry
     estimated scf accuracy    <       0.12269112 Ry

     total magnetization       =    60.35 Bohr mag/cell
     absolute magnetization    =    68.18 Bohr mag/cell

     iteration # 12     ecut=    40.00 Ry     beta= 0.70
     Davidson diagonalization with overlap
     ethr =  3.36E-05,  avg # of iterations =  1.8

     negative rho (up, down):  1.796E-06 3.198E-07

     total cpu time spent up to now is      186.1 secs

     total energy              =   -6056.48887120 Ry
     estimated scf accuracy    <       0.09043638 Ry

     total magnetization       =    60.31 Bohr mag/cell
     absolute magnetization    =    68.03 Bohr mag/cell

     iteration # 13     ecut=    40.00 Ry     beta= 0.70
     Davidson diagonalization with overlap
     ethr =  2.70E-05,  avg # of iterations =  1.0

     negative rho (up, down):  1.346E-07 6.510E-08

     total cpu time spent up to now is      197.3 secs

     total energy              =   -6056.48963087 Ry
     estimated scf accuracy    <       0.08532078 Ry

     total magnetization       =    60.35 Bohr mag/cell
     absolute magnetization    =    68.00 Bohr mag/cell

     iteration # 14     ecut=    40.00 Ry     beta= 0.70
     Davidson diagonalization with overlap
     ethr =  2.55E-05,  avg # of iterations =  1.3

     total cpu time spent up to now is      210.4 secs

     total energy              =   -6056.48521794 Ry
     estimated scf accuracy    <       0.08279400 Ry

     total magnetization       =    60.35 Bohr mag/cell
     absolute magnetization    =    68.02 Bohr mag/cell

     iteration # 15     ecut=    40.00 Ry     beta= 0.70
     Davidson diagonalization with overlap
     ethr =  2.47E-05,  avg # of iterations =  1.3

     negative rho (up, down):  3.400E-03 2.164E-03

     total cpu time spent up to now is      222.0 secs

     total energy              =   -6056.48305074 Ry
     estimated scf accuracy    <       0.06773010 Ry

     total magnetization       =    60.37 Bohr mag/cell
     absolute magnetization    =    68.04 Bohr mag/cell

     iteration # 16     ecut=    40.00 Ry     beta= 0.70
     Davidson diagonalization with overlap
     ethr =  2.02E-05,  avg # of iterations =  1.7

     negative rho (up, down):  7.742E-03 6.110E-03

     total cpu time spent up to now is      234.7 secs

     total energy              =   -6056.48259696 Ry
     estimated scf accuracy    <       0.07478646 Ry

     total magnetization       =    60.34 Bohr mag/cell
     absolute magnetization    =    67.91 Bohr mag/cell

     iteration # 17     ecut=    40.00 Ry     beta= 0.70
     Davidson diagonalization with overlap
     ethr =  2.02E-05,  avg # of iterations =  1.3

     negative rho (up, down):  1.630E-02 1.433E-02

     total cpu time spent up to now is      248.1 secs

     total energy              =   -6056.47976296 Ry
     estimated scf accuracy    <       0.08887010 Ry

     total magnetization       =    60.33 Bohr mag/cell
     absolute magnetization    =    67.87 Bohr mag/cell

     iteration # 18     ecut=    40.00 Ry     beta= 0.70
     Davidson diagonalization with overlap
     ethr =  2.02E-05,  avg # of iterations =  1.2

     negative rho (up, down):  2.080E-02 1.933E-02

     total cpu time spent up to now is      259.5 secs

     total energy              =   -6056.48186689 Ry
     estimated scf accuracy    <       0.01088332 Ry

     total magnetization       =    60.31 Bohr mag/cell
     absolute magnetization    =    67.82 Bohr mag/cell

     iteration # 19     ecut=    40.00 Ry     beta= 0.70
     Davidson diagonalization with overlap
     c_bands:  1 eigenvalues not converged
     c_bands:  1 eigenvalues not converged
     c_bands:  1 eigenvalues not converged
     c_bands:  2 eigenvalues not converged
     c_bands:  1 eigenvalues not converged
     c_bands:  1 eigenvalues not converged
     ethr =  3.25E-06,  avg # of iterations =  9.6

     negative rho (up, down):  1.647E-02 1.493E-02

     total cpu time spent up to now is      281.5 secs

     total energy              =   -6056.48206500 Ry
     estimated scf accuracy    <       0.01951916 Ry

     total magnetization       =    60.38 Bohr mag/cell
     absolute magnetization    =    67.89 Bohr mag/cell

     iteration # 20     ecut=    40.00 Ry     beta= 0.70
     Davidson diagonalization with overlap
     ethr =  3.25E-06,  avg # of iterations =  2.3

     negative rho (up, down):  1.639E-02 1.504E-02

     total cpu time spent up to now is      294.5 secs

     total energy              =   -6056.48191747 Ry
     estimated scf accuracy    <       0.00928525 Ry

     total magnetization       =    60.38 Bohr mag/cell
     absolute magnetization    =    67.89 Bohr mag/cell

     iteration # 21     ecut=    40.00 Ry     beta= 0.70
     Davidson diagonalization with overlap
     ethr =  2.77E-06,  avg # of iterations =  1.6

     negative rho (up, down):  1.643E-02 1.537E-02

     total cpu time spent up to now is      308.5 secs

     total energy              =   -6056.48165478 Ry
     estimated scf accuracy    <       0.01049085 Ry

     total magnetization       =    60.39 Bohr mag/cell
     absolute magnetization    =    67.90 Bohr mag/cell

     iteration # 22     ecut=    40.00 Ry     beta= 0.70
     Davidson diagonalization with overlap
     ethr =  2.77E-06,  avg # of iterations =  1.7

     negative rho (up, down):  9.507E-03 8.640E-03

     total cpu time spent up to now is      320.5 secs

     total energy              =   -6056.48167290 Ry
     estimated scf accuracy    <       0.00622414 Ry

     total magnetization       =    60.44 Bohr mag/cell
     absolute magnetization    =    67.95 Bohr mag/cell

     iteration # 23     ecut=    40.00 Ry     beta= 0.70
     Davidson diagonalization with overlap
     c_bands:  3 eigenvalues not converged
     ethr =  1.86E-06,  avg # of iterations =  2.0

     negative rho (up, down):  1.094E-02 1.023E-02

     total cpu time spent up to now is      334.3 secs

     total energy              =   -6056.48203589 Ry
     estimated scf accuracy    <       0.00773874 Ry

     total magnetization       =    60.40 Bohr mag/cell
     absolute magnetization    =    67.94 Bohr mag/cell

     iteration # 24     ecut=    40.00 Ry     beta= 0.70
     Davidson diagonalization with overlap
     ethr =  1.86E-06,  avg # of iterations =  1.7

     negative rho (up, down):  1.062E-02 9.928E-03

     total cpu time spent up to now is      346.3 secs

     total energy              =   -6056.48241445 Ry
     estimated scf accuracy    <       0.00172828 Ry

     total magnetization       =    60.42 Bohr mag/cell
     absolute magnetization    =    67.96 Bohr mag/cell

     iteration # 25     ecut=    40.00 Ry     beta= 0.70
     Davidson diagonalization with overlap
     c_bands:  1 eigenvalues not converged
     ethr =  5.16E-07,  avg # of iterations =  2.4

     negative rho (up, down):  7.309E-03 6.645E-03

     total cpu time spent up to now is      361.4 secs

     total energy              =   -6056.48257708 Ry
     estimated scf accuracy    <       0.00038726 Ry

     total magnetization       =    60.44 Bohr mag/cell
     absolute magnetization    =    67.97 Bohr mag/cell

     iteration # 26     ecut=    40.00 Ry     beta= 0.70
     Davidson diagonalization with overlap
     c_bands:  1 eigenvalues not converged
     c_bands:  3 eigenvalues not converged
     ethr =  1.16E-07,  avg # of iterations =  8.0

     negative rho (up, down):  4.308E-03 3.467E-03

     total cpu time spent up to now is      379.8 secs

     total energy              =   -6056.48265966 Ry
     estimated scf accuracy    <       0.00057181 Ry

     total magnetization       =    60.44 Bohr mag/cell
     absolute magnetization    =    67.97 Bohr mag/cell

     iteration # 27     ecut=    40.00 Ry     beta= 0.70
     Davidson diagonalization with overlap
     ethr =  1.16E-07,  avg # of iterations =  1.8

     negative rho (up, down):  4.757E-03 3.984E-03

     total cpu time spent up to now is      393.5 secs

     total energy              =   -6056.48264709 Ry
     estimated scf accuracy    <       0.00030291 Ry

     total magnetization       =    60.44 Bohr mag/cell
     absolute magnetization    =    67.97 Bohr mag/cell

     iteration # 28     ecut=    40.00 Ry     beta= 0.70
     Davidson diagonalization with overlap
     ethr =  9.04E-08,  avg # of iterations =  1.2

     negative rho (up, down):  3.842E-03 2.930E-03

     total cpu time spent up to now is      405.1 secs

     total energy              =   -6056.48269348 Ry
     estimated scf accuracy    <       0.00009772 Ry

     total magnetization       =    60.44 Bohr mag/cell
     absolute magnetization    =    67.97 Bohr mag/cell

     iteration # 29     ecut=    40.00 Ry     beta= 0.70
     Davidson diagonalization with overlap
     ethr =  2.92E-08,  avg # of iterations =  2.8

     negative rho (up, down):  3.428E-03 2.504E-03

     total cpu time spent up to now is      420.5 secs

     total energy              =   -6056.48267135 Ry
     estimated scf accuracy    <       0.00018387 Ry

     total magnetization       =    60.44 Bohr mag/cell
     absolute magnetization    =    67.97 Bohr mag/cell

     iteration # 30     ecut=    40.00 Ry     beta= 0.70
     Davidson diagonalization with overlap
     ethr =  2.92E-08,  avg # of iterations =  1.3

     negative rho (up, down):  2.901E-03 1.834E-03

     total cpu time spent up to now is      432.2 secs

     total energy              =   -6056.48270503 Ry
     estimated scf accuracy    <       0.00004243 Ry

     total magnetization       =    60.43 Bohr mag/cell
     absolute magnetization    =    67.97 Bohr mag/cell

     iteration # 31     ecut=    40.00 Ry     beta= 0.70
     Davidson diagonalization with overlap
     ethr =  1.27E-08,  avg # of iterations =  3.2

     negative rho (up, down):  2.219E-03 1.101E-03

     total cpu time spent up to now is      445.5 secs

     total energy              =   -6056.48272072 Ry
     estimated scf accuracy    <       0.00007463 Ry

     total magnetization       =    60.43 Bohr mag/cell
     absolute magnetization    =    67.96 Bohr mag/cell

     iteration # 32     ecut=    40.00 Ry     beta= 0.70
     Davidson diagonalization with overlap
     ethr =  1.27E-08,  avg # of iterations =  2.0

     negative rho (up, down):  2.205E-03 1.121E-03

     total cpu time spent up to now is      459.8 secs

     total energy              =   -6056.48272331 Ry
     estimated scf accuracy    <       0.00005303 Ry

     total magnetization       =    60.43 Bohr mag/cell
     absolute magnetization    =    67.96 Bohr mag/cell

     iteration # 33     ecut=    40.00 Ry     beta= 0.70
     Davidson diagonalization with overlap
     ethr =  1.27E-08,  avg # of iterations =  1.7

     negative rho (up, down):  2.168E-03 1.082E-03

     total cpu time spent up to now is      471.8 secs

     total energy              =   -6056.48272557 Ry
     estimated scf accuracy    <       0.00001775 Ry

     total magnetization       =    60.43 Bohr mag/cell
     absolute magnetization    =    67.96 Bohr mag/cell

     iteration # 34     ecut=    40.00 Ry     beta= 0.70
     Davidson diagonalization with overlap
     ethr =  5.30E-09,  avg # of iterations =  2.0

     negative rho (up, down):  2.202E-03 1.169E-03

     total cpu time spent up to now is      486.8 secs

     total energy              =   -6056.48272462 Ry
     estimated scf accuracy    <       0.00000901 Ry

     total magnetization       =    60.43 Bohr mag/cell
     absolute magnetization    =    67.96 Bohr mag/cell

     iteration # 35     ecut=    40.00 Ry     beta= 0.70
     Davidson diagonalization with overlap
     ethr =  2.69E-09,  avg # of iterations =  5.8

     negative rho (up, down):  2.216E-03 1.154E-03

     total cpu time spent up to now is      502.5 secs

     total energy              =   -6056.48272656 Ry
     estimated scf accuracy    <       0.00000738 Ry

     total magnetization       =    60.43 Bohr mag/cell
     absolute magnetization    =    67.96 Bohr mag/cell

     iteration # 36     ecut=    40.00 Ry     beta= 0.70
     Davidson diagonalization with overlap
     ethr =  2.20E-09,  avg # of iterations =  1.6

     negative rho (up, down):  2.235E-03 1.158E-03

     total cpu time spent up to now is      516.3 secs

     total energy              =   -6056.48272746 Ry
     estimated scf accuracy    <       0.00000134 Ry

     total magnetization       =    60.43 Bohr mag/cell
     absolute magnetization    =    67.96 Bohr mag/cell

     iteration # 37     ecut=    40.00 Ry     beta= 0.70
     Davidson diagonalization with overlap
     c_bands:  1 eigenvalues not converged
     ethr =  4.00E-10,  avg # of iterations =  7.5

     negative rho (up, down):  2.235E-03 1.158E-03

     total cpu time spent up to now is      534.7 secs

     total energy              =   -6056.48272766 Ry
     estimated scf accuracy    <       0.00000119 Ry

     total magnetization       =    60.43 Bohr mag/cell
     absolute magnetization    =    67.96 Bohr mag/cell

     iteration # 38     ecut=    40.00 Ry     beta= 0.70
     Davidson diagonalization with overlap
     ethr =  3.55E-10,  avg # of iterations =  1.6

     negative rho (up, down):  2.241E-03 1.154E-03

     Magnetic moment per site  (integrated on atomic sphere of radius R)
     atom   1 (R=0.086)  charge=  5.4279  magn=  1.6017
     atom   2 (R=0.086)  charge=  5.4291  magn=  1.5875
     atom   3 (R=0.086)  charge=  5.4282  magn=  1.5931
     atom   4 (R=0.086)  charge=  5.4278  magn=  1.6006
     atom   5 (R=0.086)  charge=  5.4281  magn=  1.5974
     atom   6 (R=0.086)  charge=  5.4277  magn=  1.6012
     atom   7 (R=0.086)  charge=  5.4276  magn=  1.6072
     atom   8 (R=0.086)  charge=  5.4279  magn=  1.6002
     atom   9 (R=0.086)  charge=  5.4279  magn=  1.5979
     atom  10 (R=0.086)  charge=  5.4211  magn=  1.5344
     atom  11 (R=0.086)  charge=  5.4230  magn=  1.5374
     atom  12 (R=0.086)  charge=  5.4222  magn=  1.5472
     atom  13 (R=0.086)  charge=  5.4228  magn=  1.5419
     atom  14 (R=0.086)  charge=  5.4234  magn=  1.5296
     atom  15 (R=0.086)  charge=  5.4228  magn=  1.5437
     atom  16 (R=0.086)  charge=  5.4227  magn=  1.5404
     atom  17 (R=0.086)  charge=  5.4230  magn=  1.5445
     atom  18 (R=0.086)  charge=  5.4230  magn=  1.5408
     atom  19 (R=0.086)  charge=  5.4220  magn=  1.5224
     atom  20 (R=0.086)  charge=  5.4211  magn=  1.5392
     atom  21 (R=0.086)  charge=  5.4224  magn=  1.5318
     atom  22 (R=0.086)  charge=  5.4222  magn=  1.5367
     atom  23 (R=0.086)  charge=  5.4220  magn=  1.5315
     atom  24 (R=0.086)  charge=  5.4215  magn=  1.5578
     atom  25 (R=0.086)  charge=  5.4218  magn=  1.5346
     atom  26 (R=0.086)  charge=  5.4213  magn=  1.5102
     atom  27 (R=0.086)  charge=  5.4226  magn=  1.5300
     atom  28 (R=0.086)  charge=  5.4250  magn=  1.6310
     atom  29 (R=0.086)  charge=  5.4354  magn=  1.2374
     atom  30 (R=0.086)  charge=  5.4296  magn=  1.6256
     atom  31 (R=0.086)  charge=  5.4326  magn=  1.5310
     atom  32 (R=0.086)  charge=  5.4310  magn=  0.8405
     atom  33 (R=0.086)  charge=  5.4285  magn=  1.6039
     atom  34 (R=0.086)  charge=  5.4282  magn=  1.6354
     atom  35 (R=0.086)  charge=  5.4258  magn=  1.5500
     atom  36 (R=0.086)  charge=  5.4261  magn=  1.6181
     atom  37 (R=0.065)  charge=  1.0464  magn= -0.0202
     atom  38 (R=0.065)  charge=  2.9207  magn= -0.0370
     atom  39 (R=0.086)  charge=  0.7410  magn= -0.0150

     total cpu time spent up to now is      549.2 secs

     End of self-consistent calculation

 ------ SPIN UP ------------


          k = 0.0000 0.0000 0.0000 ( 36693 PWs)   bands (ev):

   -21.9493  -9.1954  -7.6533  -6.4531  -5.8084  -5.6476  -5.3852  -4.8994
    -4.8237  -4.8193  -4.8144  -4.7999  -4.7874  -4.7699  -4.5187  -4.3401
    -4.2820  -4.2807  -4.2636  -4.2460  -4.2316  -4.0079  -3.7634  -3.7614
    -3.7518  -3.7380  -3.7138  -3.6757  -3.6262  -3.6237  -3.6200  -3.6141
    -3.5969  -3.5471  -3.5430  -3.4290  -3.2430  -3.2379  -3.2342  -3.2318
    -3.1773  -3.1730  -3.1666  -3.1630  -3.1598  -3.1517  -3.1439  -3.0978
    -3.0083  -3.0068  -2.9381  -2.9340  -2.9284  -2.9223  -2.9140  -2.9016
    -2.8980  -2.8974  -2.8739  -2.8695  -2.8012  -2.7924  -2.7891  -2.7810
    -2.7186  -2.6036  -2.2958  -2.2599  -2.2580  -2.2533  -2.2518  -2.1510
    -2.1300  -2.1182  -2.1059  -2.0975  -2.0871  -2.0788  -2.0738  -2.0682
    -2.0274  -2.0240  -1.9980  -1.9857  -1.9777  -1.9701  -1.9572  -1.9483
    -1.9438  -1.9367  -1.9315  -1.9260  -1.9157  -1.9034  -1.8988  -1.8880
    -1.8863  -1.8830  -1.8808  -1.8801  -1.8768  -1.8744  -1.8721  -1.8582
    -1.8518  -1.8456  -1.8226  -1.8055  -1.7963  -1.7263  -1.7200  -1.6212
    -1.5446  -1.4353  -1.4341  -1.4320  -1.4231  -1.4176  -1.4065  -1.3910
    -1.3870  -1.3822  -1.3673  -1.3418  -1.3383  -1.2112  -1.2079  -1.1898
    -1.1748  -1.1682  -1.0835  -1.0416  -1.0179  -1.0058  -0.9691  -0.9561
    -0.9513  -0.9468  -0.9376  -0.9298  -0.9222  -0.8774  -0.8237  -0.7988
    -0.7181  -0.6944  -0.6911  -0.6867  -0.6725  -0.6475  -0.6321  -0.6262
    -0.6227  -0.6202  -0.6189  -0.6162  -0.6102  -0.6018  -0.5971  -0.5878
    -0.5844  -0.5759  -0.5662  -0.5523  -0.5504  -0.5444  -0.5342  -0.5256
    -0.5250  -0.5115  -0.5052  -0.4989  -0.4948  -0.4805  -0.4793  -0.4734
    -0.4693  -0.4634  -0.4439  -0.4197  -0.4043  -0.3926  -0.3874  -0.3799
    -0.3761  -0.3667  -0.3609  -0.3477  -0.3423  -0.3045  -0.2966  -0.2936
    -0.2867  -0.2848  -0.2288  -0.2236  -0.2181  -0.2097  -0.1782  -0.1647
     0.4795   0.7967

          k = 0.0000 0.2309 0.0000 ( 36641 PWs)   bands (ev):

   -21.9493  -9.1842  -7.5121  -6.3543  -5.8452  -5.6712  -5.5159  -5.3523
    -5.0582  -5.0382  -4.7959  -4.5808  -4.4834  -4.4686  -4.4299  -4.3946
    -4.3321  -4.2869  -4.2017  -4.1744  -4.1413  -3.9797  -3.8764  -3.7608
    -3.7479  -3.6857  -3.6510  -3.6323  -3.6276  -3.6234  -3.6136  -3.5964
    -3.5649  -3.5271  -3.5035  -3.4822  -3.4760  -3.4010  -3.2699  -3.2541
    -3.2472  -3.1998  -3.1955  -3.1780  -3.1602  -3.0991  -3.0644  -3.0468
    -3.0289  -3.0233  -3.0158  -2.9824  -2.9525  -2.8921  -2.8827  -2.8587
    -2.8175  -2.8066  -2.7855  -2.7824  -2.7566  -2.7198  -2.7169  -2.7038
    -2.6707  -2.5945  -2.3819  -2.3706  -2.3456  -2.3337  -2.3139  -2.2287
    -2.2213  -2.2079  -2.2020  -2.1911  -2.1848  -2.1701  -2.1383  -2.0940
    -2.0888  -2.0718  -2.0527  -2.0201  -2.0153  -2.0083  -1.9979  -1.9869
    -1.9799  -1.9767  -1.9678  -1.9642  -1.9515  -1.9395  -1.9021  -1.8728
    -1.8642  -1.8442  -1.8008  -1.7900  -1.7831  -1.7717  -1.7652  -1.7622
    -1.7537  -1.7445  -1.7352  -1.7301  -1.7257  -1.7088  -1.6864  -1.6766
    -1.6641  -1.6451  -1.6284  -1.5778  -1.5551  -1.4989  -1.4554  -1.4510
    -1.4382  -1.4336  -1.4216  -1.4180  -1.3953  -1.3743  -1.3055  -1.2653
    -1.2295  -1.2091  -1.1720  -1.1607  -1.1357  -1.1028  -1.0785  -1.0636
    -1.0109  -0.9808  -0.9745  -0.9574  -0.9291  -0.9180  -0.8906  -0.8824
    -0.8667  -0.8393  -0.8186  -0.7976  -0.7911  -0.7836  -0.7727  -0.7552
    -0.7066  -0.6961  -0.6878  -0.6843  -0.6652  -0.6427  -0.6262  -0.6188
    -0.6121  -0.6076  -0.5993  -0.5902  -0.5755  -0.5625  -0.5499  -0.5337
    -0.4944  -0.4790  -0.4675  -0.4424  -0.4289  -0.4165  -0.3842  -0.3690
    -0.3589  -0.3463  -0.3388  -0.3348  -0.3161  -0.3087  -0.3035  -0.2616
    -0.2339  -0.2211  -0.2151  -0.1943  -0.1860  -0.1752  -0.1565  -0.1345
    -0.0849  -0.0161   0.1306   0.1583   0.2066   0.2903   0.4021   0.4313
     0.4653   0.7958

          k = 0.0000 0.4619 0.0000 ( 36606 PWs)   bands (ev):

   -21.9493  -9.1665  -7.0959  -6.4460  -6.1099  -5.8141  -5.5435  -5.3728
    -5.1933  -5.1499  -5.0511  -4.5838  -4.3393  -4.3036  -4.2697  -4.2242
    -4.1666  -4.1107  -4.1034  -4.0032  -3.9731  -3.9691  -3.9336  -3.8090
    -3.7911  -3.7819  -3.7776  -3.7673  -3.7011  -3.6739  -3.6614  -3.6033
    -3.5075  -3.4989  -3.4850  -3.4609  -3.4490  -3.4085  -3.3516  -3.3421
    -3.3301  -3.3182  -3.2905  -3.2034  -3.1153  -3.0923  -3.0239  -3.0108
    -2.9867  -2.9659  -2.9457  -2.9336  -2.9251  -2.9136  -2.8872  -2.8426
    -2.8311  -2.8093  -2.7681  -2.7418  -2.6380  -2.6209  -2.6029  -2.5747
    -2.5464  -2.5141  -2.4915  -2.4769  -2.4653  -2.4042  -2.3466  -2.3447
    -2.3423  -2.3306  -2.3203  -2.3018  -2.2886  -2.2793  -2.2628  -2.2266
    -2.2130  -2.1829  -2.1642  -2.1428  -2.1142  -2.1044  -2.0586  -2.0283
    -2.0138  -2.0033  -1.9829  -1.9623  -1.9492  -1.9115  -1.9007  -1.8924
    -1.8901  -1.8650  -1.8601  -1.8382  -1.8282  -1.8241  -1.8157  -1.7846
    -1.7734  -1.7392  -1.7183  -1.7101  -1.6451  -1.6292  -1.6035  -1.5896
    -1.5763  -1.5599  -1.5482  -1.5037  -1.4945  -1.4818  -1.4760  -1.4672
    -1.4576  -1.4523  -1.4456  -1.4379  -1.4283  -1.4237  -1.4009  -1.3868
    -1.3735  -1.3578  -1.3030  -1.2591  -1.2483  -1.2342  -1.2152  -1.1897
    -1.1716  -1.1235  -1.0951  -1.0869  -1.0616  -1.0487  -1.0160  -0.9885
    -0.9692  -0.9301  -0.9167  -0.9037  -0.8770  -0.8460  -0.8211  -0.7756
    -0.7468  -0.7127  -0.7038  -0.6870  -0.6847  -0.6788  -0.6685  -0.6605
    -0.6407  -0.6296  -0.5430  -0.5330  -0.5300  -0.5208  -0.5069  -0.4938
    -0.4815  -0.4660  -0.4588  -0.4536  -0.4237  -0.4058  -0.3510  -0.3389
    -0.3256  -0.3135  -0.2860  -0.2427  -0.2384  -0.2074  -0.1994  -0.1603
    -0.1286  -0.1203  -0.1124  -0.0957  -0.0901  -0.0865  -0.0787  -0.0307
     0.0139   0.0456   0.4338   0.6219   0.9397   1.0908   1.1375   1.2700
     1.4684   1.5217

          k = 0.2000-0.1155 0.0000 ( 36641 PWs)   bands (ev):

   -21.9493  -9.1859  -7.5110  -6.3528  -5.8233  -5.6676  -5.5374  -5.3553
    -5.0606  -5.0329  -4.7892  -4.6198  -4.4745  -4.4692  -4.4199  -4.3966
    -4.3085  -4.2888  -4.2204  -4.1480  -4.1395  -4.0240  -3.8550  -3.7664
    -3.7572  -3.6879  -3.6440  -3.6310  -3.6273  -3.6182  -3.6091  -3.5941
    -3.5777  -3.5159  -3.5028  -3.4807  -3.4759  -3.3933  -3.2588  -3.2514
    -3.2381  -3.1988  -3.1952  -3.1852  -3.1640  -3.0899  -3.0630  -3.0516
    -3.0290  -3.0277  -3.0110  -2.9865  -2.9633  -2.8906  -2.8824  -2.8512
    -2.8223  -2.8156  -2.7870  -2.7820  -2.7577  -2.7200  -2.7172  -2.7026
    -2.6863  -2.5860  -2.3785  -2.3714  -2.3497  -2.3414  -2.3160  -2.2297
    -2.2195  -2.2044  -2.1996  -2.1901  -2.1843  -2.1760  -2.1516  -2.0966
    -2.0845  -2.0724  -2.0512  -2.0196  -2.0122  -2.0081  -1.9958  -1.9903
    -1.9778  -1.9731  -1.9637  -1.9629  -1.9553  -1.9359  -1.9195  -1.8783
    -1.8606  -1.8565  -1.7922  -1.7858  -1.7758  -1.7736  -1.7657  -1.7623
    -1.7497  -1.7419  -1.7336  -1.7309  -1.7203  -1.7022  -1.6906  -1.6747
    -1.6602  -1.6524  -1.6223  -1.5657  -1.5524  -1.4714  -1.4583  -1.4555
    -1.4473  -1.4279  -1.4239  -1.4163  -1.3952  -1.3815  -1.3628  -1.2573
    -1.2359  -1.2012  -1.1704  -1.1586  -1.1419  -1.0878  -1.0697  -1.0609
    -1.0446  -0.9690  -0.9578  -0.9481  -0.9207  -0.9165  -0.8856  -0.8739
    -0.8572  -0.8434  -0.8340  -0.8061  -0.7917  -0.7767  -0.7706  -0.7650
    -0.7066  -0.7018  -0.6898  -0.6839  -0.6740  -0.6555  -0.6305  -0.6176
    -0.6117  -0.6062  -0.6015  -0.5887  -0.5713  -0.5617  -0.5482  -0.5325
    -0.5045  -0.4907  -0.4778  -0.4419  -0.4246  -0.4062  -0.3932  -0.3676
    -0.3623  -0.3495  -0.3447  -0.3313  -0.3152  -0.3081  -0.3025  -0.2692
    -0.2352  -0.2275  -0.2143  -0.1939  -0.1874  -0.1719  -0.1589  -0.1392
    -0.0789  -0.0059   0.1454   0.1586   0.2474   0.3051   0.4164   0.4294
     0.4627   0.7813

          k = 0.2000 0.1155 0.0000 ( 36641 PWs)   bands (ev):

   -21.9493  -9.1838  -7.5125  -6.3557  -5.8616  -5.6639  -5.4779  -5.3842
    -5.0563  -5.0366  -4.8012  -4.5611  -4.4855  -4.4677  -4.4400  -4.3868
    -4.3328  -4.2989  -4.2028  -4.1737  -4.1420  -3.9723  -3.8760  -3.7664
    -3.7410  -3.6816  -3.6447  -3.6358  -3.6284  -3.6250  -3.6130  -3.6049
    -3.5447  -3.5364  -3.5123  -3.4809  -3.4770  -3.4042  -3.2738  -3.2532
    -3.2489  -3.1999  -3.1971  -3.1812  -3.1567  -3.0945  -3.0666  -3.0436
    -3.0272  -3.0235  -3.0150  -2.9879  -2.9528  -2.8932  -2.8830  -2.8565
    -2.8229  -2.7973  -2.7866  -2.7805  -2.7630  -2.7199  -2.7171  -2.7058
    -2.6548  -2.5999  -2.3798  -2.3718  -2.3427  -2.3335  -2.3162  -2.2282
    -2.2225  -2.2153  -2.1985  -2.1931  -2.1845  -2.1711  -2.1246  -2.0957
    -2.0891  -2.0730  -2.0432  -2.0185  -2.0141  -2.0086  -2.0030  -1.9877
    -1.9799  -1.9757  -1.9690  -1.9646  -1.9529  -1.9334  -1.9159  -1.8744
    -1.8635  -1.8429  -1.8021  -1.7899  -1.7847  -1.7719  -1.7661  -1.7633
    -1.7527  -1.7434  -1.7394  -1.7299  -1.7284  -1.7110  -1.6830  -1.6783
    -1.6642  -1.6517  -1.6211  -1.5765  -1.5569  -1.5096  -1.4576  -1.4493
    -1.4386  -1.4293  -1.4224  -1.4161  -1.3968  -1.3618  -1.2847  -1.2718
    -1.2316  -1.2149  -1.1720  -1.1621  -1.1342  -1.1130  -1.0803  -1.0716
    -1.0005  -0.9858  -0.9733  -0.9474  -0.9339  -0.9204  -0.8905  -0.8838
    -0.8664  -0.8388  -0.8216  -0.7982  -0.7948  -0.7827  -0.7785  -0.7558
    -0.7026  -0.6924  -0.6862  -0.6818  -0.6697  -0.6339  -0.6289  -0.6185
    -0.6115  -0.6058  -0.5997  -0.5886  -0.5754  -0.5621  -0.5548  -0.5453
    -0.4913  -0.4719  -0.4625  -0.4452  -0.4302  -0.4235  -0.3830  -0.3691
    -0.3623  -0.3495  -0.3398  -0.3292  -0.3153  -0.3078  -0.3022  -0.2585
    -0.2278  -0.2206  -0.2133  -0.1931  -0.1865  -0.1504  -0.1440  -0.1361
    -0.0838  -0.0381   0.1259   0.1597   0.1939   0.2873   0.4050   0.4273
     0.4592   0.7612

          k = 0.2000 0.3464 0.0000 ( 36608 PWs)   bands (ev):

   -21.9493  -9.1689  -7.2343  -6.1983  -6.0446  -5.9165  -5.6694  -5.4911
    -5.3689  -4.7958  -4.7550  -4.5413  -4.4806  -4.4774  -4.2866  -4.2551
    -4.2168  -4.1529  -4.1476  -4.0711  -4.0251  -3.9053  -3.8795  -3.8463
    -3.8016  -3.7624  -3.6728  -3.6678  -3.6280  -3.6229  -3.6095  -3.5998
    -3.5700  -3.5582  -3.5386  -3.5034  -3.4586  -3.4342  -3.4204  -3.3687
    -3.2859  -3.2404  -3.1945  -3.1641  -3.1472  -3.1345  -3.0820  -3.0345
    -3.0020  -2.9627  -2.9583  -2.9496  -2.9231  -2.8984  -2.8779  -2.8709
    -2.8516  -2.8201  -2.7469  -2.6764  -2.6679  -2.6471  -2.6279  -2.6076
    -2.5965  -2.5465  -2.4852  -2.4125  -2.3928  -2.3705  -2.3573  -2.3287
    -2.3111  -2.3028  -2.2958  -2.2773  -2.2554  -2.2457  -2.2393  -2.2262
    -2.1989  -2.1733  -2.1491  -2.0902  -2.0487  -2.0402  -2.0317  -2.0101
    -1.9920  -1.9742  -1.9443  -1.9374  -1.9330  -1.9028  -1.8847  -1.8788
    -1.8708  -1.8686  -1.8619  -1.8414  -1.8386  -1.8210  -1.8069  -1.8022
    -1.7757  -1.7479  -1.7260  -1.7050  -1.6958  -1.6711  -1.6507  -1.6466
    -1.6349  -1.6215  -1.6029  -1.5720  -1.5492  -1.5397  -1.5126  -1.4960
    -1.4851  -1.4741  -1.4617  -1.4501  -1.4341  -1.4203  -1.4048  -1.3591
    -1.3319  -1.3220  -1.3090  -1.2135  -1.1927  -1.1742  -1.1570  -1.0914
    -1.0439  -1.0401  -1.0348  -1.0298  -1.0109  -1.0004  -0.9837  -0.9782
    -0.9596  -0.9341  -0.9184  -0.8762  -0.8570  -0.8471  -0.8343  -0.8245
    -0.7965  -0.7857  -0.7679  -0.7605  -0.7455  -0.7347  -0.6177  -0.5910
    -0.5739  -0.5589  -0.5502  -0.5388  -0.5251  -0.5180  -0.5017  -0.4949
    -0.4740  -0.4422  -0.4236  -0.4062  -0.3874  -0.3684  -0.3271  -0.3204
    -0.3114  -0.3102  -0.3021  -0.2816  -0.2709  -0.2658  -0.2572  -0.2351
    -0.2274  -0.1529  -0.1409  -0.1381  -0.0963  -0.0942  -0.0552   0.0497
     0.2396   0.2513   0.3033   0.3871   0.5620   0.6349   0.9399   1.1386
     1.2375   1.4185

          k = 0.2000-0.5774 0.0000 ( 36660 PWs)   bands (ev):

   -21.9493  -9.1619  -6.7210  -6.6658  -6.1201  -5.9540  -5.7687  -5.4590
    -5.2292  -5.1845  -4.8077  -4.4785  -4.4420  -4.2100  -4.1700  -4.0496
    -4.0360  -4.0199  -4.0068  -3.9957  -3.9481  -3.9310  -3.9261  -3.9220
    -3.8974  -3.8241  -3.7781  -3.7716  -3.7490  -3.7394  -3.6976  -3.6076
    -3.5915  -3.5815  -3.5636  -3.5329  -3.4801  -3.4304  -3.3322  -3.2948
    -3.2887  -3.2728  -3.2037  -3.1883  -3.1620  -3.1193  -3.0788  -3.0714
    -3.0483  -3.0052  -2.9747  -2.9138  -2.8815  -2.8597  -2.8431  -2.7931
    -2.7765  -2.7152  -2.7109  -2.6992  -2.6888  -2.6760  -2.6476  -2.6035
    -2.5428  -2.4930  -2.4846  -2.4769  -2.4555  -2.4159  -2.4034  -2.3506
    -2.3423  -2.3070  -2.2958  -2.2918  -2.2807  -2.2616  -2.2407  -2.2265
    -2.2114  -2.2037  -2.1875  -2.1658  -2.1583  -2.1187  -2.0908  -2.0757
    -2.0661  -2.0470  -1.9875  -1.9647  -1.9438  -1.9216  -1.9108  -1.9031
    -1.8821  -1.8740  -1.8631  -1.8526  -1.8362  -1.8186  -1.8126  -1.7667
    -1.7507  -1.7300  -1.7170  -1.7120  -1.6951  -1.6885  -1.6817  -1.6700
    -1.6645  -1.6609  -1.6337  -1.6158  -1.5766  -1.5556  -1.5508  -1.5235
    -1.4856  -1.4719  -1.4536  -1.4143  -1.4030  -1.3903  -1.3831  -1.3572
    -1.3172  -1.3096  -1.2908  -1.2229  -1.1880  -1.1804  -1.1655  -1.1475
    -1.1225  -1.1156  -1.1030  -1.0829  -1.0658  -1.0476  -1.0290  -1.0081
    -0.9665  -0.9629  -0.9377  -0.9240  -0.9058  -0.8738  -0.8522  -0.8421
    -0.8330  -0.8099  -0.7997  -0.7843  -0.7673  -0.7487  -0.7229  -0.5740
    -0.5559  -0.5453  -0.5331  -0.5310  -0.5168  -0.5100  -0.4955  -0.4721
    -0.4575  -0.4510  -0.4400  -0.4241  -0.3734  -0.3299  -0.3107  -0.3054
    -0.2895  -0.2796  -0.2636  -0.2463  -0.2211  -0.2085  -0.2037  -0.1873
    -0.1753  -0.1406  -0.1105  -0.1055  -0.0934  -0.0780  -0.0586  -0.0215
     0.1593   0.2848   0.5415   0.9015   0.9697   1.1912   1.2647   1.5665
     1.6863   1.7346

          k = 0.2000-0.3464 0.0000 ( 36608 PWs)   bands (ev):

   -21.9493  -9.1722  -7.2301  -6.2061  -5.9813  -5.9318  -5.6673  -5.5550
    -5.3407  -4.8290  -4.7047  -4.5863  -4.4788  -4.4656  -4.2745  -4.2544
    -4.2302  -4.1539  -4.1479  -4.0248  -4.0110  -3.9969  -3.8777  -3.8556
    -3.8073  -3.7569  -3.6673  -3.6520  -3.6419  -3.6203  -3.6125  -3.5905
    -3.5702  -3.5627  -3.5219  -3.4955  -3.4617  -3.4189  -3.4034  -3.3644
    -3.2783  -3.2167  -3.1937  -3.1791  -3.1499  -3.1280  -3.0751  -3.0351
    -2.9891  -2.9847  -2.9564  -2.9412  -2.9351  -2.9012  -2.8820  -2.8632
    -2.8459  -2.8276  -2.7350  -2.7194  -2.6684  -2.6546  -2.6307  -2.6175
    -2.5921  -2.5556  -2.4805  -2.4153  -2.3931  -2.3723  -2.3553  -2.3247
    -2.3111  -2.3008  -2.2952  -2.2714  -2.2543  -2.2449  -2.2329  -2.2256
    -2.2168  -2.1745  -2.1446  -2.1201  -2.0488  -2.0428  -2.0191  -2.0041
    -1.9965  -1.9722  -1.9574  -1.9370  -1.9202  -1.9058  -1.8893  -1.8846
    -1.8769  -1.8666  -1.8605  -1.8420  -1.8301  -1.8256  -1.8081  -1.7923
    -1.7811  -1.7758  -1.7526  -1.7028  -1.6985  -1.6676  -1.6529  -1.6446
    -1.6393  -1.6156  -1.5818  -1.5736  -1.5473  -1.5214  -1.5109  -1.4922
    -1.4777  -1.4731  -1.4631  -1.4411  -1.4340  -1.4113  -1.4020  -1.3520
    -1.3380  -1.3007  -1.2876  -1.2363  -1.1981  -1.1636  -1.1550  -1.0791
    -1.0620  -1.0391  -1.0249  -1.0213  -1.0135  -1.0054  -0.9789  -0.9693
    -0.9536  -0.9477  -0.9225  -0.8789  -0.8677  -0.8551  -0.8347  -0.8216
    -0.8008  -0.7790  -0.7687  -0.7572  -0.7446  -0.7348  -0.6169  -0.5998
    -0.5836  -0.5649  -0.5510  -0.5388  -0.5306  -0.5142  -0.5049  -0.4892
    -0.4710  -0.4441  -0.4116  -0.4012  -0.3899  -0.3758  -0.3420  -0.3188
    -0.3146  -0.3097  -0.3042  -0.2806  -0.2726  -0.2627  -0.2555  -0.2409
    -0.2340  -0.1575  -0.1418  -0.1363  -0.0950  -0.0898  -0.0789   0.0586
     0.1766   0.2510   0.2748   0.4734   0.5295   0.6577   1.0565   1.1390
     1.2594   1.3855

          k = 0.4000-0.2309 0.0000 ( 36606 PWs)   bands (ev):

   -21.9493  -9.1708  -7.0912  -6.4401  -6.1049  -5.7446  -5.6235  -5.3550
    -5.2067  -5.1477  -5.0620  -4.5799  -4.3124  -4.2987  -4.2811  -4.2348
    -4.1700  -4.1095  -4.0986  -4.0328  -3.9749  -3.9697  -3.9622  -3.8043
    -3.7906  -3.7869  -3.7782  -3.7691  -3.7148  -3.6707  -3.6638  -3.5336
    -3.5043  -3.4941  -3.4805  -3.4584  -3.4503  -3.4064  -3.3483  -3.3428
    -3.3269  -3.3219  -3.2438  -3.1947  -3.1236  -3.0970  -3.0315  -3.0244
    -2.9897  -2.9728  -2.9465  -2.9343  -2.9270  -2.9059  -2.8874  -2.8372
    -2.8301  -2.8043  -2.7778  -2.7700  -2.6378  -2.6308  -2.6047  -2.5932
    -2.5420  -2.5157  -2.4891  -2.4790  -2.4619  -2.4018  -2.3468  -2.3440
    -2.3391  -2.3315  -2.3241  -2.3037  -2.2891  -2.2734  -2.2590  -2.2472
    -2.2157  -2.1796  -2.1623  -2.1438  -2.1194  -2.0920  -2.0530  -2.0222
    -2.0124  -2.0020  -1.9746  -1.9692  -1.9603  -1.9153  -1.9008  -1.8942
    -1.8914  -1.8748  -1.8611  -1.8355  -1.8247  -1.8161  -1.8110  -1.7913
    -1.7779  -1.7483  -1.7129  -1.7106  -1.6430  -1.6257  -1.6108  -1.6065
    -1.5843  -1.5615  -1.5349  -1.5128  -1.4952  -1.4744  -1.4723  -1.4653
    -1.4619  -1.4541  -1.4452  -1.4355  -1.4307  -1.4199  -1.4081  -1.3965
    -1.3892  -1.3445  -1.2800  -1.2696  -1.2520  -1.2285  -1.2106  -1.2002
    -1.1703  -1.1059  -1.0963  -1.0889  -1.0522  -1.0417  -1.0065  -0.9643
    -0.9451  -0.9286  -0.9161  -0.8946  -0.8802  -0.8638  -0.8417  -0.7504
    -0.7361  -0.7282  -0.7072  -0.7020  -0.6888  -0.6808  -0.6749  -0.6637
    -0.6544  -0.6312  -0.5490  -0.5381  -0.5291  -0.5203  -0.5146  -0.4999
    -0.4889  -0.4777  -0.4532  -0.4480  -0.4263  -0.4078  -0.3586  -0.3415
    -0.3333  -0.3107  -0.2985  -0.2438  -0.2367  -0.2110  -0.2017  -0.1596
    -0.1293  -0.1254  -0.1171  -0.1031  -0.0904  -0.0851  -0.0797  -0.0264
     0.0136   0.0514   0.4977   0.6132   0.9273   1.1189   1.1442   1.3513
     1.4828   1.5132

          k = 0.4000 0.0000 0.0000 ( 36608 PWs)   bands (ev):

   -21.9493  -9.1715  -7.2314  -6.2039  -6.0081  -5.9233  -5.6675  -5.5237
    -5.3530  -4.8373  -4.7175  -4.5578  -4.4814  -4.4657  -4.2846  -4.2532
    -4.2233  -4.1544  -4.1476  -4.0381  -4.0229  -3.9711  -3.8756  -3.8510
    -3.8057  -3.7575  -3.6681  -3.6563  -3.6320  -3.6170  -3.6081  -3.6033
    -3.5704  -3.5618  -3.5233  -3.4961  -3.4603  -3.4201  -3.4128  -3.3622
    -3.2761  -3.2192  -3.1950  -3.1762  -3.1502  -3.1335  -3.0838  -3.0350
    -2.9968  -2.9752  -2.9588  -2.9420  -2.9314  -2.8971  -2.8913  -2.8630
    -2.8447  -2.8258  -2.7390  -2.7032  -2.6669  -2.6495  -2.6405  -2.6159
    -2.5874  -2.5559  -2.4827  -2.4147  -2.3987  -2.3721  -2.3551  -2.3251
    -2.3107  -2.3010  -2.2949  -2.2725  -2.2577  -2.2443  -2.2313  -2.2266
    -2.2200  -2.1709  -2.1422  -2.0984  -2.0479  -2.0434  -2.0195  -2.0048
    -1.9966  -1.9727  -1.9481  -1.9399  -1.9300  -1.9039  -1.8875  -1.8853
    -1.8777  -1.8657  -1.8584  -1.8434  -1.8326  -1.8231  -1.8086  -1.7996
    -1.7806  -1.7710  -1.7431  -1.7042  -1.6968  -1.6611  -1.6508  -1.6491
    -1.6408  -1.6207  -1.5949  -1.5614  -1.5493  -1.5393  -1.5190  -1.4870
    -1.4829  -1.4713  -1.4620  -1.4406  -1.4274  -1.4130  -1.4004  -1.3576
    -1.3368  -1.3117  -1.2936  -1.2304  -1.2031  -1.1717  -1.1531  -1.0827
    -1.0565  -1.0370  -1.0271  -1.0159  -1.0127  -1.0047  -0.9778  -0.9702
    -0.9542  -0.9425  -0.9186  -0.8783  -0.8712  -0.8493  -0.8369  -0.8277
    -0.8050  -0.7852  -0.7665  -0.7549  -0.7421  -0.7339  -0.6197  -0.5878
    -0.5869  -0.5639  -0.5502  -0.5392  -0.5239  -0.5201  -0.4994  -0.4932
    -0.4694  -0.4452  -0.4171  -0.4084  -0.3878  -0.3745  -0.3374  -0.3234
    -0.3126  -0.3090  -0.3058  -0.2809  -0.2704  -0.2617  -0.2599  -0.2377
    -0.2283  -0.1556  -0.1396  -0.1370  -0.0924  -0.0871  -0.0663   0.0449
     0.1912   0.2516   0.2817   0.4469   0.5482   0.6575   1.0293   1.1331
     1.2595   1.4120

          k = 0.4000 0.2309 0.0000 ( 36606 PWs)   bands (ev):

   -21.9493  -9.1654  -7.0978  -6.4490  -6.1157  -5.8358  -5.4865  -5.4000
    -5.1934  -5.1467  -5.0460  -4.5937  -4.3431  -4.3006  -4.2778  -4.2240
    -4.1573  -4.1104  -4.1065  -3.9964  -3.9740  -3.9693  -3.9021  -3.8128
    -3.7905  -3.7816  -3.7764  -3.7672  -3.6819  -3.6766  -3.6539  -3.6452
    -3.5100  -3.5045  -3.4914  -3.4605  -3.4554  -3.4069  -3.3503  -3.3445
    -3.3306  -3.3174  -3.2898  -3.1990  -3.1182  -3.0819  -3.0255  -3.0029
    -2.9899  -2.9659  -2.9463  -2.9432  -2.9303  -2.9096  -2.8750  -2.8440
    -2.8334  -2.8105  -2.7758  -2.7281  -2.6313  -2.6211  -2.6079  -2.5756
    -2.5488  -2.5094  -2.4896  -2.4833  -2.4730  -2.4023  -2.3509  -2.3434
    -2.3402  -2.3304  -2.3204  -2.3040  -2.2866  -2.2811  -2.2601  -2.2188
    -2.2056  -2.1851  -2.1675  -2.1508  -2.1118  -2.0949  -2.0549  -2.0329
    -2.0167  -2.0056  -1.9839  -1.9675  -1.9434  -1.9112  -1.9052  -1.8924
    -1.8796  -1.8690  -1.8591  -1.8400  -1.8305  -1.8238  -1.8158  -1.7873
    -1.7727  -1.7425  -1.7256  -1.7094  -1.6455  -1.6328  -1.6037  -1.5875
    -1.5701  -1.5591  -1.5429  -1.4976  -1.4941  -1.4874  -1.4757  -1.4698
    -1.4589  -1.4552  -1.4391  -1.4380  -1.4278  -1.4190  -1.4052  -1.3874
    -1.3706  -1.3561  -1.3165  -1.2595  -1.2416  -1.2348  -1.2152  -1.1865
    -1.1751  -1.1223  -1.1012  -1.0891  -1.0796  -1.0387  -1.0272  -0.9920
    -0.9655  -0.9306  -0.9136  -0.9084  -0.8759  -0.8462  -0.8211  -0.7815
    -0.7283  -0.7124  -0.7032  -0.6892  -0.6836  -0.6740  -0.6686  -0.6560
    -0.6444  -0.6430  -0.5425  -0.5339  -0.5308  -0.5154  -0.5051  -0.4872
    -0.4830  -0.4729  -0.4567  -0.4445  -0.4312  -0.4041  -0.3489  -0.3343
    -0.3290  -0.3152  -0.2803  -0.2393  -0.2370  -0.2013  -0.1997  -0.1592
    -0.1271  -0.1174  -0.1136  -0.0922  -0.0881  -0.0851  -0.0678  -0.0402
     0.0134   0.0469   0.4064   0.6986   0.9006   1.0441   1.1429   1.2134
     1.4896   1.5333

          k = 0.4000-0.6928 0.0000 ( 36660 PWs)   bands (ev):

   -21.9493  -9.1612  -6.7259  -6.6654  -6.1205  -5.9281  -5.8223  -5.4162
    -5.2143  -5.1976  -4.8254  -4.4854  -4.4395  -4.2073  -4.1688  -4.0431
    -4.0363  -4.0140  -4.0046  -3.9850  -3.9553  -3.9317  -3.9268  -3.9160
    -3.8971  -3.8013  -3.7785  -3.7741  -3.7523  -3.7369  -3.7154  -3.6075
    -3.5906  -3.5855  -3.5705  -3.5464  -3.4863  -3.4249  -3.3266  -3.2956
    -3.2900  -3.2695  -3.1980  -3.1899  -3.1621  -3.1145  -3.0768  -3.0741
    -3.0635  -2.9967  -2.9852  -2.9129  -2.8773  -2.8511  -2.8458  -2.7911
    -2.7748  -2.7162  -2.7083  -2.7010  -2.6894  -2.6809  -2.6337  -2.6160
    -2.5402  -2.4958  -2.4859  -2.4706  -2.4611  -2.4215  -2.4051  -2.3492
    -2.3403  -2.3086  -2.3020  -2.2866  -2.2795  -2.2586  -2.2357  -2.2212
    -2.2103  -2.2012  -2.1783  -2.1666  -2.1573  -2.1368  -2.0972  -2.0771
    -2.0611  -2.0423  -1.9944  -1.9606  -1.9432  -1.9225  -1.9118  -1.9045
    -1.8810  -1.8747  -1.8645  -1.8475  -1.8310  -1.8240  -1.8117  -1.7559
    -1.7382  -1.7317  -1.7166  -1.7027  -1.6956  -1.6905  -1.6799  -1.6742
    -1.6704  -1.6634  -1.6360  -1.6268  -1.5780  -1.5583  -1.5489  -1.5333
    -1.4880  -1.4687  -1.4510  -1.4160  -1.4022  -1.3910  -1.3797  -1.3651
    -1.3149  -1.3118  -1.2856  -1.2350  -1.1826  -1.1791  -1.1703  -1.1428
    -1.1252  -1.1124  -1.1029  -1.0904  -1.0726  -1.0482  -1.0217  -0.9987
    -0.9670  -0.9586  -0.9349  -0.9207  -0.9119  -0.8782  -0.8577  -0.8513
    -0.8263  -0.8134  -0.7997  -0.7785  -0.7663  -0.7511  -0.7208  -0.5750
    -0.5551  -0.5477  -0.5379  -0.5258  -0.5225  -0.5071  -0.4951  -0.4627
    -0.4590  -0.4433  -0.4424  -0.4308  -0.3710  -0.3198  -0.3139  -0.3029
    -0.2925  -0.2791  -0.2623  -0.2337  -0.2179  -0.2099  -0.2004  -0.1900
    -0.1826  -0.1549  -0.1121  -0.1043  -0.0923  -0.0797  -0.0591  -0.0193
     0.1678   0.2887   0.5821   0.8622   0.9500   1.1907   1.2518   1.5848
     1.6913   1.7288

          k = 0.4000-0.4619 0.0000 ( 36660 PWs)   bands (ev):

   -21.9493  -9.1646  -6.6999  -6.6785  -6.1135  -5.9830  -5.6731  -5.5460
    -5.2280  -5.1813  -4.8026  -4.4674  -4.4401  -4.2170  -4.1672  -4.0720
    -4.0372  -4.0232  -4.0067  -4.0014  -3.9478  -3.9379  -3.9270  -3.9256
    -3.8910  -3.8428  -3.7770  -3.7696  -3.7460  -3.7408  -3.6911  -3.6033
    -3.5916  -3.5829  -3.5612  -3.5077  -3.4405  -3.4234  -3.3564  -3.2955
    -3.2902  -3.2382  -3.2100  -3.1904  -3.1636  -3.1222  -3.0763  -3.0756
    -3.0390  -3.0102  -2.9843  -2.9155  -2.8776  -2.8580  -2.8427  -2.8005
    -2.7919  -2.7168  -2.7065  -2.6937  -2.6857  -2.6737  -2.6516  -2.6339
    -2.5447  -2.4999  -2.4864  -2.4706  -2.4514  -2.4139  -2.3963  -2.3510
    -2.3449  -2.3042  -2.2978  -2.2954  -2.2840  -2.2625  -2.2372  -2.2331
    -2.2164  -2.2069  -2.1888  -2.1634  -2.1599  -2.1303  -2.0851  -2.0693
    -2.0544  -2.0159  -1.9895  -1.9695  -1.9533  -1.9259  -1.9130  -1.9020
    -1.8832  -1.8716  -1.8650  -1.8576  -1.8446  -1.8215  -1.8132  -1.7980
    -1.7535  -1.7292  -1.7189  -1.7089  -1.6929  -1.6862  -1.6807  -1.6702
    -1.6608  -1.6584  -1.6370  -1.6035  -1.5727  -1.5633  -1.5509  -1.5230
    -1.4685  -1.4635  -1.4394  -1.4215  -1.4053  -1.3972  -1.3795  -1.3562
    -1.3249  -1.3072  -1.2791  -1.2496  -1.1983  -1.1707  -1.1626  -1.1418
    -1.1266  -1.1185  -1.1055  -1.0770  -1.0582  -1.0387  -1.0259  -1.0155
    -0.9670  -0.9464  -0.9340  -0.9265  -0.9152  -0.8706  -0.8540  -0.8379
    -0.8301  -0.8125  -0.8036  -0.7899  -0.7659  -0.7551  -0.7133  -0.5822
    -0.5549  -0.5511  -0.5406  -0.5262  -0.5191  -0.5108  -0.4961  -0.4812
    -0.4556  -0.4416  -0.4353  -0.4251  -0.3847  -0.3369  -0.3141  -0.3060
    -0.2911  -0.2823  -0.2635  -0.2523  -0.2175  -0.2088  -0.2026  -0.1882
    -0.1814  -0.1184  -0.1127  -0.1043  -0.0926  -0.0793  -0.0598  -0.0199
     0.1565   0.2681   0.5004   0.8759   1.1185   1.1889   1.3116   1.5235
     1.6925   1.7350

 ------ SPIN DOWN ----------


          k = 0.0000 0.0000 0.0000 ( 36693 PWs)   bands (ev):

   -22.0310  -9.2767  -7.7803  -6.5291  -5.7999  -5.6901  -5.4147  -4.7370
    -4.6274  -4.6187  -4.6161  -4.5913  -4.5765  -4.5609  -4.0575  -3.7467
    -3.7446  -3.7306  -3.7156  -3.7054  -3.6615  -3.2814  -2.8074  -2.7977
    -2.7900  -2.7840  -2.7222  -2.5705  -2.3402  -2.3287  -2.3230  -2.3183
    -2.3001  -2.2324  -2.1291  -2.1253  -2.0594  -2.0409  -2.0313  -2.0303
    -1.9465  -1.9428  -1.8950  -1.8912  -1.8338  -1.8079  -1.8010  -1.7849
    -1.7503  -1.7364  -1.5505  -1.5441  -1.5283  -1.5201  -1.5055  -1.5039
    -1.4913  -1.4900  -1.4590  -1.4542  -1.4238  -1.4149  -1.4121  -1.4105
    -1.3402  -1.2535  -0.9002  -0.8604  -0.8390  -0.8338  -0.7960  -0.7479
    -0.6489  -0.6247  -0.5373  -0.5247  -0.5161  -0.5083  -0.4971  -0.4854
    -0.4617  -0.4515  -0.4271  -0.4235  -0.4156  -0.4151  -0.3609  -0.3563
    -0.3487  -0.3194  -0.3043  -0.2952  -0.2766  -0.2673  -0.2595  -0.2531
    -0.2506  -0.2415  -0.2298  -0.2291  -0.2259  -0.2235  -0.1823  -0.1430
    -0.1240  -0.1031  -0.0873  -0.0611  -0.0182  -0.0051   0.0002   0.0037
     0.0066   0.0099   0.0151   0.0527   0.0837   0.0851   0.1317   0.1578
     0.1691   0.1753   0.1841   0.2136   0.2592   0.3931   0.4050   0.4523
     0.4609   0.4804   0.4889   0.4927   0.5983   0.6911   0.7766   0.8115
     0.8279   0.8699   0.9811   1.0013   1.0284   1.0493   1.0557   1.0601
     1.1115   1.1862   1.2025   1.2184   1.2265   1.2344   1.2431   1.2631
     1.2722   1.2870   1.2958   1.3143   1.3280   1.3346   1.3397   1.3743
     1.3776   1.3843   1.3876   1.3968   1.4260   1.4397   1.4467   1.4563
     1.4663   1.4803   1.4898   1.5018   1.5051   1.5140   1.5163   1.5511
     1.5591   1.5759   1.5792   1.5852   1.5937   1.6000   1.6062   1.6414
     1.6473   1.6500   1.6530   1.6574   1.6618   1.6701   1.6788   1.6833
     1.6869   1.7325   1.7339   1.8761   1.8821   1.8851   1.8881   1.8902
     1.8927   2.0301

          k = 0.0000 0.2309 0.0000 ( 36641 PWs)   bands (ev):

   -22.0310  -9.2657  -7.6385  -6.4254  -5.8721  -5.6891  -5.5367  -5.3850
    -4.9883  -4.9751  -4.6303  -4.3910  -4.1192  -4.0653  -4.0432  -3.9285
    -3.7896  -3.7426  -3.4589  -3.3907  -3.3091  -3.2376  -2.9671  -2.7824
    -2.7569  -2.7333  -2.6776  -2.5658  -2.4451  -2.3612  -2.3571  -2.3456
    -2.3137  -2.2858  -2.2721  -2.2706  -2.2232  -2.1888  -2.0904  -2.0873
    -2.0037  -2.0031  -1.9628  -1.8396  -1.8317  -1.8096  -1.7911  -1.7006
    -1.6656  -1.6526  -1.5980  -1.5616  -1.5544  -1.5253  -1.5128  -1.5082
    -1.4927  -1.4780  -1.4084  -1.3847  -1.3717  -1.3516  -1.3226  -1.2858
    -1.2323  -1.1488  -0.9563  -0.9192  -0.8906  -0.8850  -0.8361  -0.7727
    -0.7576  -0.7128  -0.6818  -0.6308  -0.6186  -0.5673  -0.5384  -0.5314
    -0.4948  -0.4881  -0.4686  -0.4599  -0.4524  -0.4379  -0.4226  -0.3735
    -0.3347  -0.3175  -0.3036  -0.3014  -0.2932  -0.2626  -0.2449  -0.2336
    -0.2234  -0.2124  -0.2095  -0.2026  -0.2011  -0.1982  -0.1788  -0.1518
    -0.1263  -0.1169  -0.0998  -0.0938  -0.0895  -0.0688  -0.0479  -0.0232
    -0.0009   0.0072   0.0494   0.0738   0.0987   0.1153   0.1220   0.1510
     0.2445   0.2752   0.3072   0.3537   0.3772   0.3869   0.4208   0.4372
     0.4423   0.4496   0.4664   0.4722   0.5892   0.7148   0.7716   0.7908
     0.8018   0.8171   0.8268   0.8416   0.8829   0.8957   0.9542   0.9792
     1.0213   1.0386   1.0697   1.0982   1.1136   1.1338   1.1576   1.1629
     1.2248   1.2415   1.2625   1.2762   1.2873   1.3016   1.3376   1.3457
     1.3643   1.3842   1.4171   1.4380   1.4546   1.4637   1.4860   1.5108
     1.5291   1.5399   1.5456   1.5482   1.5692   1.6162   1.6273   1.6351
     1.6423   1.6665   1.6716   1.7014   1.7074   1.7167   1.7229   1.7328
     1.7479   1.7928   1.7959   1.8129   1.8159   1.8236   1.8339   1.8518
     1.8652   1.8749   1.8817   1.8987   1.9700   1.9841   1.9900   2.0432
     2.0648   2.1147

          k = 0.0000 0.4619 0.0000 ( 36606 PWs)   bands (ev):

   -22.0310  -9.2482  -7.2170  -6.5444  -6.1615  -5.8458  -5.5837  -5.4048
    -5.2001  -5.1513  -5.0444  -4.3976  -4.1194  -4.0341  -3.7419  -3.4514
    -3.4450  -3.3713  -3.3125  -3.1398  -3.0936  -3.0045  -2.9658  -2.8472
    -2.8431  -2.7746  -2.7387  -2.7025  -2.6357  -2.6065  -2.5788  -2.5561
    -2.5241  -2.4330  -2.3170  -2.3013  -2.2320  -2.2084  -2.1141  -2.1083
    -2.1000  -2.0755  -2.0476  -1.8228  -1.7999  -1.7914  -1.7470  -1.7187
    -1.6025  -1.5880  -1.5702  -1.5560  -1.5497  -1.5191  -1.5140  -1.4972
    -1.4714  -1.4066  -1.4020  -1.3755  -1.3539  -1.3433  -1.2002  -1.1766
    -1.0698  -1.0415  -0.9725  -0.9327  -0.9143  -0.8758  -0.8568  -0.8517
    -0.8270  -0.7938  -0.7911  -0.7561  -0.7145  -0.6810  -0.6678  -0.6377
    -0.6080  -0.5937  -0.5624  -0.5524  -0.5199  -0.4901  -0.4499  -0.4116
    -0.3860  -0.3725  -0.3445  -0.3139  -0.2843  -0.2607  -0.2439  -0.2230
    -0.1973  -0.1929  -0.1808  -0.1575  -0.1488  -0.1447  -0.1294  -0.1158
    -0.0890  -0.0740  -0.0577  -0.0434  -0.0369  -0.0344  -0.0203  -0.0042
     0.0185   0.0387   0.0821   0.1356   0.1640   0.1665   0.1789   0.2172
     0.2285   0.2356   0.2510   0.2951   0.3169   0.3302   0.3476   0.3706
     0.3970   0.4128   0.4268   0.4392   0.4775   0.5533   0.5984   0.6126
     0.6591   0.6923   0.7446   0.8096   0.8373   0.8665   0.8821   0.9022
     0.9260   0.9424   0.9700   0.9842   1.0101   1.1157   1.1275   1.1852
     1.1973   1.2214   1.2568   1.2635   1.3027   1.3176   1.3382   1.3577
     1.3863   1.3995   1.4069   1.4725   1.5007   1.5161   1.5407   1.5485
     1.5587   1.5640   1.5909   1.6052   1.6304   1.6360   1.6494   1.6804
     1.6848   1.7143   1.7803   1.7859   1.8006   1.8069   1.8231   1.8375
     1.8489   1.8735   1.8824   1.8937   1.9118   1.9145   1.9240   1.9277
     1.9731   2.0187   2.0425   2.1347   2.1560   2.2353   2.5558   2.6132
     2.6641   2.6942

          k = 0.2000-0.1155 0.0000 ( 36641 PWs)   bands (ev):

   -22.0310  -9.2671  -7.6374  -6.4233  -5.8416  -5.7065  -5.5529  -5.3791
    -4.9969  -4.9684  -4.6115  -4.4468  -4.0759  -4.0652  -4.0177  -3.9394
    -3.8156  -3.7354  -3.4396  -3.3915  -3.3697  -3.2358  -2.9188  -2.7950
    -2.7673  -2.7106  -2.6743  -2.5971  -2.4206  -2.3625  -2.3586  -2.3369
    -2.3166  -2.2827  -2.2705  -2.2663  -2.2201  -2.2051  -2.0939  -2.0856
    -2.0032  -2.0003  -1.9482  -1.8659  -1.8332  -1.8092  -1.8036  -1.6984
    -1.6688  -1.6533  -1.5967  -1.5658  -1.5475  -1.5295  -1.5122  -1.5055
    -1.4962  -1.4903  -1.3998  -1.3859  -1.3727  -1.3571  -1.3178  -1.2732
    -1.2388  -1.1426  -0.9592  -0.9239  -0.8889  -0.8846  -0.8304  -0.7855
    -0.7297  -0.7052  -0.6784  -0.6329  -0.6184  -0.5627  -0.5449  -0.5360
    -0.4940  -0.4841  -0.4742  -0.4696  -0.4564  -0.4297  -0.4075  -0.3746
    -0.3511  -0.3084  -0.3033  -0.3005  -0.2831  -0.2632  -0.2453  -0.2298
    -0.2223  -0.2193  -0.2105  -0.2038  -0.2016  -0.1994  -0.1712  -0.1529
    -0.1360  -0.1182  -0.1078  -0.0964  -0.0722  -0.0584  -0.0425  -0.0217
    -0.0128   0.0141   0.0390   0.0606   0.1040   0.1190   0.1239   0.1509
     0.2387   0.2667   0.3028   0.3568   0.3743   0.3810   0.4326   0.4389
     0.4419   0.4519   0.4649   0.4693   0.6005   0.6995   0.7747   0.7971
     0.8028   0.8122   0.8252   0.8336   0.8910   0.9005   0.9514   0.9743
     1.0179   1.0315   1.0658   1.0848   1.1069   1.1241   1.1542   1.2101
     1.2204   1.2452   1.2583   1.2762   1.2907   1.2981   1.3379   1.3451
     1.3707   1.3886   1.4245   1.4330   1.4522   1.4631   1.4779   1.4923
     1.5263   1.5418   1.5433   1.5463   1.5755   1.6271   1.6307   1.6406
     1.6454   1.6667   1.6738   1.7006   1.7039   1.7160   1.7220   1.7279
     1.7497   1.7917   1.7956   1.8104   1.8150   1.8239   1.8347   1.8519
     1.8726   1.8761   1.8827   1.9136   1.9709   1.9846   1.9870   2.0370
     2.0673   2.1187

          k = 0.2000 0.1155 0.0000 ( 36641 PWs)   bands (ev):

   -22.0310  -9.2652  -7.6389  -6.4270  -5.8896  -5.6768  -5.5045  -5.4118
    -4.9863  -4.9768  -4.6423  -4.3568  -4.1244  -4.0679  -4.0449  -3.9531
    -3.7796  -3.7415  -3.4610  -3.3944  -3.2958  -3.2259  -2.9752  -2.8071
    -2.7496  -2.7196  -2.6925  -2.5465  -2.4536  -2.3648  -2.3564  -2.3405
    -2.3211  -2.2921  -2.2728  -2.2672  -2.2310  -2.1763  -2.0901  -2.0867
    -2.0065  -2.0017  -1.9552  -1.8513  -1.8184  -1.8068  -1.7984  -1.6870
    -1.6735  -1.6599  -1.5896  -1.5755  -1.5533  -1.5237  -1.5088  -1.5057
    -1.5003  -1.4539  -1.4211  -1.3856  -1.3727  -1.3530  -1.3227  -1.2847
    -1.2330  -1.1505  -0.9599  -0.9242  -0.8909  -0.8762  -0.8247  -0.8010
    -0.7627  -0.6902  -0.6714  -0.6397  -0.6249  -0.5674  -0.5497  -0.5198
    -0.4966  -0.4856  -0.4708  -0.4611  -0.4585  -0.4373  -0.4263  -0.3660
    -0.3329  -0.3138  -0.3045  -0.3005  -0.2924  -0.2595  -0.2398  -0.2316
    -0.2253  -0.2143  -0.2091  -0.2064  -0.2013  -0.2007  -0.1679  -0.1523
    -0.1333  -0.1179  -0.1008  -0.0963  -0.0871  -0.0633  -0.0461  -0.0308
    -0.0034   0.0131   0.0571   0.0837   0.0884   0.1117   0.1217   0.1517
     0.2242   0.2825   0.3142   0.3469   0.3658   0.3889   0.4234   0.4295
     0.4421   0.4552   0.4680   0.4719   0.6279   0.6876   0.7741   0.7881
     0.8044   0.8103   0.8309   0.8437   0.8727   0.8954   0.9442   0.9712
     0.9938   1.0609   1.0768   1.0967   1.1129   1.1424   1.1585   1.1618
     1.2222   1.2528   1.2692   1.2822   1.2916   1.2956   1.3365   1.3449
     1.3610   1.3882   1.4225   1.4445   1.4509   1.4634   1.4841   1.5052
     1.5248   1.5389   1.5460   1.5555   1.5655   1.6127   1.6214   1.6348
     1.6453   1.6651   1.6747   1.7033   1.7103   1.7158   1.7230   1.7322
     1.7497   1.7927   1.7973   1.8124   1.8145   1.8248   1.8333   1.8508
     1.8675   1.8760   1.8819   1.8884   1.9696   1.9821   1.9906   2.0352
     2.0680   2.1151

          k = 0.2000 0.3464 0.0000 ( 36608 PWs)   bands (ev):

   -22.0310  -9.2506  -7.3579  -6.2580  -6.1077  -5.9892  -5.6867  -5.5290
    -5.4042  -4.7457  -4.6826  -4.3224  -4.2582  -4.2548  -3.8097  -3.4323
    -3.4171  -3.4117  -3.3880  -3.2338  -3.1635  -3.1159  -3.1074  -2.8944
    -2.7479  -2.6771  -2.6631  -2.6571  -2.5801  -2.5497  -2.5131  -2.4645
    -2.4568  -2.4416  -2.4271  -2.3399  -2.3016  -2.2360  -2.0779  -2.0630
    -2.0224  -1.9967  -1.9500  -1.9359  -1.9150  -1.7862  -1.7334  -1.7108
    -1.6207  -1.5944  -1.5557  -1.5457  -1.5397  -1.5272  -1.5016  -1.4915
    -1.4792  -1.4676  -1.3988  -1.3731  -1.3142  -1.2886  -1.2067  -1.1518
    -1.1014  -1.0547  -0.9918  -0.9569  -0.8952  -0.8638  -0.8453  -0.8128
    -0.7902  -0.7726  -0.7548  -0.7178  -0.6825  -0.6683  -0.6658  -0.6366
    -0.6178  -0.5977  -0.5751  -0.5547  -0.5424  -0.4674  -0.4139  -0.3961
    -0.3858  -0.3732  -0.3513  -0.3171  -0.3090  -0.2849  -0.2715  -0.2550
    -0.2426  -0.2215  -0.2081  -0.1984  -0.1858  -0.1607  -0.1461  -0.1248
    -0.1116  -0.0961  -0.0858  -0.0743  -0.0682  -0.0526  -0.0419  -0.0256
     0.0236   0.0467   0.0666   0.0853   0.1724   0.1918   0.2084   0.2375
     0.2637   0.2678   0.2984   0.3114   0.3713   0.3812   0.3971   0.4002
     0.4090   0.4300   0.4822   0.5012   0.5456   0.6011   0.6745   0.7100
     0.7611   0.7975   0.8157   0.8451   0.8523   0.8587   0.8667   0.9063
     0.9159   0.9317   0.9367   0.9560   0.9904   1.0499   1.0961   1.1091
     1.1472   1.1574   1.1684   1.1930   1.2149   1.2595   1.2703   1.3049
     1.3519   1.4182   1.4640   1.5076   1.5160   1.5340   1.5535   1.5661
     1.5766   1.5884   1.6057   1.6167   1.6647   1.6830   1.6918   1.6986
     1.7105   1.7385   1.7516   1.7618   1.7698   1.7877   1.7950   1.8220
     1.8299   1.8336   1.8460   1.8650   1.8709   1.8943   1.9218   1.9528
     1.9619   1.9739   2.0617   2.0953   2.2023   2.2337   2.2922   2.5254
     2.5517   2.5631

          k = 0.2000-0.5774 0.0000 ( 36660 PWs)   bands (ev):

   -22.0310  -9.2437  -6.8306  -6.7787  -6.1905  -5.9981  -5.8142  -5.4963
    -5.2630  -5.2081  -4.7653  -4.3245  -4.2152  -3.7141  -3.5144  -3.4519
    -3.4484  -3.3497  -3.1969  -3.1084  -3.0395  -3.0268  -3.0165  -2.8948
    -2.8902  -2.8745  -2.8528  -2.8420  -2.7013  -2.6462  -2.5126  -2.4980
    -2.4757  -2.4618  -2.4250  -2.4137  -2.3744  -2.3083  -2.1990  -2.0516
    -1.9629  -1.9583  -1.9386  -1.9133  -1.8646  -1.7862  -1.7139  -1.7016
    -1.6761  -1.6595  -1.6466  -1.5548  -1.5129  -1.4797  -1.4737  -1.4592
    -1.4318  -1.3750  -1.3296  -1.3137  -1.2703  -1.2493  -1.2317  -1.1283
    -1.0881  -1.0530  -0.9514  -0.9351  -0.9270  -0.8666  -0.8554  -0.8212
    -0.8034  -0.7906  -0.7672  -0.7404  -0.7221  -0.6796  -0.6633  -0.6406
    -0.6275  -0.6021  -0.5948  -0.5839  -0.5664  -0.5618  -0.5280  -0.4984
    -0.4937  -0.4528  -0.4331  -0.4222  -0.3794  -0.3649  -0.3211  -0.2738
    -0.2526  -0.2213  -0.1991  -0.1909  -0.1581  -0.1505  -0.1379  -0.1194
    -0.0909  -0.0615  -0.0458  -0.0290  -0.0057   0.0013   0.0618   0.0845
     0.1196   0.1319   0.1443   0.1519   0.1667   0.1882   0.2243   0.2401
     0.2564   0.2620   0.3095   0.3372   0.3531   0.3768   0.3912   0.4242
     0.4322   0.4433   0.4676   0.4886   0.4994   0.5122   0.5269   0.5627
     0.6114   0.6958   0.7201   0.7790   0.7916   0.8123   0.8489   0.8567
     0.8715   0.8837   0.9066   0.9536   1.0006   1.0399   1.0618   1.0914
     1.1140   1.1305   1.1573   1.1898   1.2148   1.2312   1.2444   1.3013
     1.3770   1.4332   1.4659   1.4799   1.5238   1.5658   1.5938   1.6049
     1.6139   1.6261   1.6319   1.6400   1.6709   1.6937   1.7012   1.7116
     1.7610   1.7752   1.7798   1.7975   1.8003   1.8054   1.8144   1.8163
     1.8375   1.8636   1.8735   1.9037   1.9121   1.9288   1.9353   1.9568
     2.0155   2.1002   2.2222   2.3395   2.3895   2.6671   2.7511   2.8117
     2.8507   2.9507

          k = 0.2000-0.3464 0.0000 ( 36608 PWs)   bands (ev):

   -22.0310  -9.2537  -7.3538  -6.2617  -6.0499  -6.0085  -5.6780  -5.5978
    -5.3736  -4.7850  -4.6182  -4.3951  -4.2483  -4.2336  -3.7902  -3.4309
    -3.4203  -3.4122  -3.3997  -3.2874  -3.1442  -3.1244  -3.1008  -2.8760
    -2.7455  -2.6787  -2.6628  -2.6123  -2.5766  -2.5597  -2.5487  -2.4658
    -2.4576  -2.4451  -2.4159  -2.3088  -2.2634  -2.2394  -2.0830  -2.0707
    -2.0540  -1.9951  -1.9602  -1.9368  -1.9148  -1.7815  -1.7329  -1.7166
    -1.6563  -1.5853  -1.5554  -1.5531  -1.5380  -1.5251  -1.5111  -1.4962
    -1.4855  -1.4613  -1.4133  -1.3803  -1.3338  -1.2809  -1.1831  -1.1510
    -1.0897  -1.0656  -0.9790  -0.9274  -0.8825  -0.8529  -0.8398  -0.8070
    -0.7944  -0.7690  -0.7369  -0.7173  -0.6924  -0.6744  -0.6550  -0.6337
    -0.6219  -0.6073  -0.5859  -0.5688  -0.5242  -0.4628  -0.4139  -0.4060
    -0.3995  -0.3829  -0.3504  -0.3227  -0.2980  -0.2843  -0.2771  -0.2523
    -0.2381  -0.2331  -0.2193  -0.1945  -0.1801  -0.1566  -0.1390  -0.1242
    -0.1145  -0.1027  -0.0948  -0.0674  -0.0550  -0.0462  -0.0415  -0.0258
     0.0382   0.0590   0.0660   0.0876   0.1510   0.1807   0.2198   0.2418
     0.2618   0.2758   0.3125   0.3485   0.3706   0.3807   0.3900   0.3954
     0.4060   0.4292   0.4635   0.4764   0.5278   0.5898   0.7005   0.7089
     0.7438   0.7789   0.8244   0.8432   0.8609   0.8672   0.8853   0.8977
     0.9071   0.9291   0.9410   0.9558   0.9919   1.0454   1.0775   1.1006
     1.1339   1.1615   1.1709   1.2078   1.2154   1.2548   1.2792   1.3316
     1.3350   1.4022   1.4785   1.5070   1.5160   1.5396   1.5505   1.5613
     1.5782   1.5852   1.6099   1.6152   1.6711   1.6792   1.6913   1.6983
     1.7204   1.7393   1.7425   1.7553   1.7718   1.7848   1.7977   1.8155
     1.8314   1.8361   1.8436   1.8576   1.8698   1.8786   1.9242   1.9525
     1.9632   2.0143   2.0597   2.0902   2.1844   2.2311   2.3941   2.4643
     2.5277   2.5643

          k = 0.4000-0.2309 0.0000 ( 36606 PWs)   bands (ev):

   -22.0310  -9.2521  -7.2127  -6.5377  -6.1557  -5.7751  -5.6745  -5.3795
    -5.2154  -5.1497  -5.0478  -4.4082  -4.0956  -4.0184  -3.7954  -3.4529
    -3.4447  -3.3727  -3.3196  -3.1551  -3.0370  -3.0028  -2.9857  -2.8500
    -2.8442  -2.7828  -2.7329  -2.7073  -2.6247  -2.6055  -2.5977  -2.5394
    -2.5302  -2.3646  -2.3197  -2.3038  -2.2297  -2.2221  -2.1156  -2.1093
    -2.0912  -2.0797  -2.0529  -1.8434  -1.8117  -1.7926  -1.7643  -1.7496
    -1.5967  -1.5838  -1.5701  -1.5579  -1.5486  -1.5217  -1.5155  -1.4968
    -1.4833  -1.4082  -1.3967  -1.3787  -1.3645  -1.3481  -1.1947  -1.1670
    -1.0721  -1.0282  -0.9397  -0.9113  -0.9023  -0.8740  -0.8522  -0.8448
    -0.8239  -0.8094  -0.7905  -0.7607  -0.7156  -0.6783  -0.6581  -0.6347
    -0.6112  -0.5954  -0.5651  -0.5577  -0.5211  -0.5051  -0.4549  -0.3944
    -0.3731  -0.3606  -0.3404  -0.3206  -0.2998  -0.2789  -0.2473  -0.2305
    -0.1991  -0.1900  -0.1750  -0.1669  -0.1494  -0.1464  -0.1183  -0.0967
    -0.0877  -0.0689  -0.0576  -0.0492  -0.0407  -0.0273  -0.0143   0.0030
     0.0145   0.0403   0.0674   0.1111   0.1563   0.1609   0.1798   0.2205
     0.2224   0.2373   0.2554   0.2843   0.3230   0.3361   0.3451   0.3633
     0.4016   0.4141   0.4296   0.4392   0.4775   0.5381   0.6070   0.6105
     0.6749   0.7044   0.7448   0.7940   0.8414   0.8688   0.8851   0.8970
     0.9238   0.9355   0.9557   0.9885   1.0024   1.0658   1.1672   1.1897
     1.2026   1.2299   1.2459   1.2657   1.3073   1.3219   1.3471   1.3606
     1.3858   1.4022   1.4113   1.4713   1.4909   1.4975   1.5484   1.5553
     1.5671   1.5675   1.5927   1.6073   1.6286   1.6412   1.6507   1.6777
     1.6850   1.7405   1.7542   1.7856   1.7981   1.8140   1.8249   1.8421
     1.8453   1.8733   1.8766   1.8924   1.9090   1.9146   1.9245   1.9268
     1.9725   2.0319   2.0484   2.1146   2.1356   2.2211   2.5628   2.6386
     2.6636   2.7113

          k = 0.4000 0.0000 0.0000 ( 36608 PWs)   bands (ev):

   -22.0310  -9.2530  -7.3551  -6.2604  -6.0752  -5.9975  -5.6834  -5.5663
    -5.3830  -4.7905  -4.6328  -4.3600  -4.2510  -4.2412  -3.7963  -3.4308
    -3.4138  -3.4119  -3.4038  -3.2756  -3.1502  -3.1188  -3.1042  -2.8831
    -2.7471  -2.6707  -2.6642  -2.6336  -2.5732  -2.5530  -2.5472  -2.4631
    -2.4557  -2.4439  -2.4173  -2.3108  -2.2768  -2.2387  -2.0825  -2.0685
    -2.0496  -1.9865  -1.9650  -1.9337  -1.9190  -1.7841  -1.7297  -1.7224
    -1.6444  -1.5985  -1.5552  -1.5489  -1.5360  -1.5262  -1.5065  -1.4940
    -1.4769  -1.4631  -1.4119  -1.3715  -1.3337  -1.2886  -1.1857  -1.1570
    -1.0886  -1.0631  -0.9766  -0.9426  -0.8900  -0.8524  -0.8385  -0.8130
    -0.7987  -0.7631  -0.7454  -0.7115  -0.6889  -0.6699  -0.6533  -0.6360
    -0.6193  -0.5978  -0.5848  -0.5516  -0.5421  -0.4453  -0.4328  -0.4087
    -0.3908  -0.3758  -0.3454  -0.3274  -0.2993  -0.2844  -0.2728  -0.2599
    -0.2476  -0.2296  -0.2173  -0.1938  -0.1853  -0.1642  -0.1535  -0.1181
    -0.1057  -0.0985  -0.0891  -0.0699  -0.0582  -0.0539  -0.0380  -0.0257
     0.0305   0.0587   0.0638   0.0794   0.1734   0.1837   0.2179   0.2422
     0.2643   0.2927   0.3118   0.3254   0.3601   0.3826   0.3884   0.3978
     0.4088   0.4309   0.4528   0.4794   0.5407   0.6124   0.6608   0.7082
[...]
     atom    8 type  1   force =     0.00002349   -0.00196461   -0.10324515
     atom    9 type  1   force =    -0.00156219    0.00327352   -0.10396530
     atom   10 type  1   force =     0.00103434   -0.00115775   -0.01694696
     atom   11 type  1   force =     0.00022689   -0.00089065   -0.00946769
     atom   12 type  1   force =    -0.00110566    0.00135956   -0.01148997
     atom   13 type  1   force =     0.00047728    0.00188310   -0.00927796
     atom   14 type  1   force =     0.00026768    0.00027320   -0.00672353
     atom   15 type  1   force =    -0.00149217    0.00020719   -0.01075305
     atom   16 type  1   force =     0.00074112   -0.00215225   -0.01269357
     atom   17 type  1   force =     0.00053295    0.00008551   -0.00854386
     atom   18 type  1   force =    -0.00077926   -0.00034300   -0.01328269
     atom   19 type  1   force =    -0.00129509   -0.00066992    0.01202441
     atom   20 type  1   force =    -0.00987130   -0.00178555   -0.00302239
     atom   21 type  1   force =     0.01259895   -0.00790737   -0.00232774
     atom   22 type  1   force =     0.00005993   -0.00044374    0.01278871
     atom   23 type  1   force =    -0.00044919    0.01283424   -0.00058177
     atom   24 type  1   force =    -0.00027676   -0.00186905    0.01381145
     atom   25 type  1   force =     0.00068649   -0.00000834    0.01954962
     atom   26 type  1   force =    -0.00470446   -0.00033389    0.00240606
     atom   27 type  1   force =     0.00451573    0.00005020    0.00969141
     atom   28 type  1   force =     0.00085335    0.00167563    0.11494186
     atom   29 type  1   force =     0.01071245    0.04838297    0.10039243
     atom   30 type  1   force =    -0.01662998    0.01413880    0.13584291
     atom   31 type  1   force =     0.03932546   -0.02235224    0.13831327
     atom   32 type  1   force =    -0.05315755   -0.05134900    0.04669158
     atom   33 type  1   force =    -0.01675460    0.00995528    0.12588163
     atom   34 type  1   force =     0.01182023   -0.00646711    0.12790193
     atom   35 type  1   force =     0.00074983   -0.00329229    0.10216581
     atom   36 type  1   force =     0.00000066   -0.00115724    0.10563641
     atom   37 type  2   force =    -0.09184305   -0.01011373    0.41748817
     atom   38 type  3   force =     0.37383053    0.24742755   -2.67723562
     atom   39 type  4   force =    -0.00588641   -0.00523817   -0.02414838
     The ionic contribution  to forces
     atom    1 type  1   force =    -0.00598535    0.00028543 -111.13193254
     atom    2 type  1   force =    -0.00377652    0.00072747 -111.15151190
     atom    3 type  1   force =     0.00976180   -0.00073324 -111.13943869
     atom    4 type  1   force =    -0.00448844    0.00580766 -111.13183963
     atom    5 type  1   force =     0.00174760    0.00857539 -111.13734905
     atom    6 type  1   force =     0.00274082   -0.00007058 -111.12841178
     atom    7 type  1   force =     0.00099694   -0.00062163 -111.12642438
     atom    8 type  1   force =    -0.00523362   -0.00510978 -111.13481220
     atom    9 type  1   force =     0.00423674   -0.00886069 -111.13683847
     atom   10 type  1   force =    -0.03847616   -0.01673652  -40.06388364
     atom   11 type  1   force =    -0.01611752   -0.06071549  -40.17385530
     atom   12 type  1   force =     0.05457869   -0.03928649  -40.09452004
     atom   13 type  1   force =    -0.06446684    0.03368695  -40.13843361
     atom   14 type  1   force =     0.03715851    0.03623540  -40.19474392
     atom   15 type  1   force =     0.02731654    0.00816209  -40.06629037
     atom   16 type  1   force =    -0.01172677    0.04925686  -40.07013093
     atom   17 type  1   force =     0.00881853    0.00723041  -40.07526534
     atom   18 type  1   force =     0.00291454   -0.01783651  -40.05265596
     atom   19 type  1   force =    -0.29072803    0.01505539   31.55035310
     atom   20 type  1   force =    -0.21010134    0.05408617   30.48096509
     atom   21 type  1   force =     0.49726681   -0.04783209   31.19412379
     atom   22 type  1   force =    -0.20950372    0.27503287   31.55856323
     atom   23 type  1   force =     0.07608535    0.42915015   31.28114319
     atom   24 type  1   force =     0.13203447    0.00379642   31.68494831
     atom   25 type  1   force =     0.04201821   -0.02559499   31.77640562
     atom   26 type  1   force =    -0.25338650   -0.25803812   31.42019457
     atom   27 type  1   force =     0.21266786   -0.44325973   31.31504728
     atom   28 type  1   force =    -1.31559411   -0.56266892  104.12340843
     atom   29 type  1   force =    -1.14405669   -4.55297759   99.07058794
     atom   30 type  1   force =     2.13262266   -1.42218178  103.44163322
     atom   31 type  1   force =    -3.35861493    1.92583921  101.60989579
     atom   32 type  1   force =     2.45955482    2.39932705   98.06906637
     atom   33 type  1   force =     1.06383380    0.09269660  104.12534296
     atom   34 type  1   force =    -0.43765867    1.60575456  104.08933808
     atom   35 type  1   force =     0.41274845    0.68124068  103.78909853
     atom   36 type  1   force =     0.11909443   -0.55594787  104.41467762
     atom   37 type  2   force =     0.83135507    0.65162169   51.21780565
     atom   38 type  3   force =    -1.48082133   -0.95236168   89.72994974
     atom   39 type  4   force =     0.72118389    0.68726527   15.20578923
     The local contribution  to forces
     atom    1 type  1   force =     0.00532054   -0.00095691  111.23658467
     atom    2 type  1   force =     0.00630830    0.00051534  111.25908136
     atom    3 type  1   force =    -0.01162409    0.00310626  111.24551384
     atom    4 type  1   force =     0.00355908   -0.00347866  111.23864926
     atom    5 type  1   force =    -0.00237071   -0.01302122  111.24527758
     atom    6 type  1   force =    -0.00056704    0.00082583  111.23152986
     atom    7 type  1   force =    -0.00191547    0.00067795  111.23141671
     atom    8 type  1   force =     0.00609940    0.00648647  111.24151938
     atom    9 type  1   force =    -0.00354272    0.00565589  111.24220624
     atom   10 type  1   force =     0.03837743    0.01712691   40.06033094
     atom   11 type  1   force =     0.01377780    0.06102869   40.16308180
     atom   12 type  1   force =    -0.05262958    0.03703358   40.08903250
     atom   13 type  1   force =     0.06312914   -0.03562768   40.13050342
     atom   14 type  1   force =    -0.03740114   -0.03522448   40.17978863
     atom   15 type  1   force =    -0.02565891   -0.00913577   40.05684456
     atom   16 type  1   force =     0.01177670   -0.04661486   40.06343782
     atom   17 type  1   force =    -0.00911482   -0.00674252   40.06395853
     atom   18 type  1   force =    -0.00153345    0.01850242   40.04441655
     atom   19 type  1   force =     0.28955252   -0.01447223  -31.53951732
     atom   20 type  1   force =     0.22006736   -0.05220323  -30.46552079
     atom   21 type  1   force =    -0.50784298    0.05292120  -31.17712196
     atom   22 type  1   force =     0.20928346   -0.27316333  -31.55118922
     atom   23 type  1   force =    -0.07667431   -0.44192209  -31.26633451
     atom   24 type  1   force =    -0.13066221   -0.00119563  -31.67639675
     atom   25 type  1   force =    -0.04407582    0.02531011  -31.77071279
     atom   26 type  1   force =     0.25624388    0.25706443  -31.40651922
     atom   27 type  1   force =    -0.21350031    0.44265861  -31.30812976
     atom   28 type  1   force =     1.31201336    0.56017943 -104.24628475
     atom   29 type  1   force =     1.12481515    4.48050925  -99.17787732
     atom   30 type  1   force =    -2.10733303    1.39769733 -103.58680245
     atom   31 type  1   force =     3.30724122   -1.89940332 -101.75312533
     atom   32 type  1   force =    -2.40882708   -2.34632727  -98.09305666
     atom   33 type  1   force =    -1.04293411   -0.10392064 -104.25726232
     atom   34 type  1   force =     0.42061501   -1.59026982 -104.22556962
     atom   35 type  1   force =    -0.41356806   -0.67657699 -103.89133017
     atom   36 type  1   force =    -0.11783850    0.55782622 -104.53048553
     atom   37 type  2   force =    -0.74167825   -0.64001449  -51.63333021
     atom   38 type  3   force =     1.11172759    0.71368719  -87.07076475
     atom   39 type  4   force =    -0.69697350   -0.66428569  -15.19443669
     The core correction contribution to forces
     atom    1 type  1   force =     0.00002586    0.00012046    0.01020671
     atom    2 type  1   force =     0.00040978    0.00009048    0.01003277
     atom    3 type  1   force =    -0.00012749    0.00013920    0.01035727
     atom    4 type  1   force =    -0.00005896    0.00001596    0.01003969
     atom    5 type  1   force =    -0.00021538   -0.00024157    0.01040537
     atom    6 type  1   force =     0.00019105    0.00017433    0.00995964
     atom    7 type  1   force =     0.00000560    0.00016682    0.01035471
     atom    8 type  1   force =    -0.00008828   -0.00002288    0.01031258
     atom    9 type  1   force =     0.00003753   -0.00011052    0.01000089
     atom   10 type  1   force =    -0.00016968   -0.00012705   -0.00189545
     atom   11 type  1   force =    -0.00005369   -0.00017837   -0.00194265
     atom   12 type  1   force =     0.00015236   -0.00043424   -0.00179731
     atom   13 type  1   force =    -0.00015787   -0.00011694   -0.00189279
     atom   14 type  1   force =     0.00022362    0.00009270   -0.00168620
     atom   15 type  1   force =     0.00015452    0.00006087   -0.00191656
     atom   16 type  1   force =    -0.00012663    0.00026832   -0.00175422
     atom   17 type  1   force =     0.00009534   -0.00004734   -0.00178545
     atom   18 type  1   force =     0.00013209    0.00015418   -0.00169565
     atom   19 type  1   force =    -0.00002929   -0.00036521    0.00183703
     atom   20 type  1   force =    -0.00118811   -0.00042234    0.00076454
     atom   21 type  1   force =     0.00071185   -0.00066661    0.00018397
     atom   22 type  1   force =    -0.00021909    0.00071137    0.00134580
     atom   23 type  1   force =    -0.00002736    0.00086254    0.00085758
     atom   24 type  1   force =     0.00039087    0.00036651    0.00191791
     atom   25 type  1   force =     0.00027658    0.00007745    0.00197166
     atom   26 type  1   force =    -0.00024074    0.00052857    0.00175757
     atom   27 type  1   force =     0.00060244   -0.00037365    0.00106748
     atom   28 type  1   force =     0.00151647    0.00028612   -0.00957855
     atom   29 type  1   force =     0.00315790    0.00983798   -0.00500732
     atom   30 type  1   force =    -0.00452600    0.00367374   -0.00772490
     atom   31 type  1   force =     0.00732091   -0.00382527   -0.00580490
     atom   32 type  1   force =    -0.00391001   -0.00463131    0.00179874
     atom   33 type  1   force =    -0.00594995    0.00206867   -0.00702000
     atom   34 type  1   force =     0.00328740   -0.00378874   -0.00760613
     atom   35 type  1   force =    -0.00315299   -0.00787428   -0.00628997
     atom   36 type  1   force =    -0.00084027    0.00051907   -0.01046912
     atom   37 type  2   force =     0.00096706    0.00026927   -0.00163040
     atom   38 type  3   force =    -0.00275537   -0.00188497    0.01955344
     atom   39 type  4   force =     0.00000000    0.00000000    0.00000000
     The Hubbard contrib.    to forces
     atom    1 type  1   force =     0.00000000    0.00000000    0.00000000
     atom    2 type  1   force =     0.00000000    0.00000000    0.00000000
     atom    3 type  1   force =     0.00000000    0.00000000    0.00000000
     atom    4 type  1   force =     0.00000000    0.00000000    0.00000000
     atom    5 type  1   force =     0.00000000    0.00000000    0.00000000
     atom    6 type  1   force =     0.00000000    0.00000000    0.00000000
     atom    7 type  1   force =     0.00000000    0.00000000    0.00000000
     atom    8 type  1   force =     0.00000000    0.00000000    0.00000000
     atom    9 type  1   force =     0.00000000    0.00000000    0.00000000
     atom   10 type  1   force =     0.00000000    0.00000000    0.00000000
     atom   11 type  1   force =     0.00000000    0.00000000    0.00000000
     atom   12 type  1   force =     0.00000000    0.00000000    0.00000000
     atom   13 type  1   force =     0.00000000    0.00000000    0.00000000
     atom   14 type  1   force =     0.00000000    0.00000000    0.00000000
     atom   15 type  1   force =     0.00000000    0.00000000    0.00000000
     atom   16 type  1   force =     0.00000000    0.00000000    0.00000000
     atom   17 type  1   force =     0.00000000    0.00000000    0.00000000
     atom   18 type  1   force =     0.00000000    0.00000000    0.00000000
     atom   19 type  1   force =     0.00000000    0.00000000    0.00000000
     atom   20 type  1   force =     0.00000000    0.00000000    0.00000000
     atom   21 type  1   force =     0.00000000    0.00000000    0.00000000
     atom   22 type  1   force =     0.00000000    0.00000000    0.00000000
     atom   23 type  1   force =     0.00000000    0.00000000    0.00000000
     atom   24 type  1   force =     0.00000000    0.00000000    0.00000000
     atom   25 type  1   force =     0.00000000    0.00000000    0.00000000
     atom   26 type  1   force =     0.00000000    0.00000000    0.00000000
     atom   27 type  1   force =     0.00000000    0.00000000    0.00000000
     atom   28 type  1   force =     0.00000000    0.00000000    0.00000000
     atom   29 type  1   force =     0.00000000    0.00000000    0.00000000
     atom   30 type  1   force =     0.00000000    0.00000000    0.00000000
     atom   31 type  1   force =     0.00000000    0.00000000    0.00000000
     atom   32 type  1   force =     0.00000000    0.00000000    0.00000000
     atom   33 type  1   force =     0.00000000    0.00000000    0.00000000
     atom   34 type  1   force =     0.00000000    0.00000000    0.00000000
     atom   35 type  1   force =     0.00000000    0.00000000    0.00000000
     atom   36 type  1   force =     0.00000000    0.00000000    0.00000000
     atom   37 type  2   force =     0.00000000    0.00000000    0.00000000
     atom   38 type  3   force =     0.00000000    0.00000000    0.00000000
     atom   39 type  4   force =     0.00000000    0.00000000    0.00000000
     The SCF correction term to forces
     atom    1 type  1   force =    -0.00000000   -0.00000000    0.00000000
     atom    2 type  1   force =     0.00000000   -0.00000000    0.00000000
     atom    3 type  1   force =    -0.00000000   -0.00000000    0.00000000
     atom    4 type  1   force =     0.00000000    0.00000000    0.00000000
     atom    5 type  1   force =    -0.00000000   -0.00000000    0.00000000
     atom    6 type  1   force =     0.00000000    0.00000000    0.00000000
     atom    7 type  1   force =    -0.00000000    0.00000000    0.00000000
     atom    8 type  1   force =     0.00000000    0.00000000    0.00000000
     atom    9 type  1   force =     0.00000000    0.00000000    0.00000000
     atom   10 type  1   force =     0.00000000   -0.00000000    0.00000000
     atom   11 type  1   force =     0.00000000    0.00000000    0.00000000
     atom   12 type  1   force =    -0.00000000    0.00000000    0.00000000
     atom   13 type  1   force =     0.00000000   -0.00000000    0.00000000
     atom   14 type  1   force =     0.00000000   -0.00000000    0.00000000
     atom   15 type  1   force =    -0.00000000   -0.00000000    0.00000000
     atom   16 type  1   force =     0.00000000   -0.00000000    0.00000000
     atom   17 type  1   force =     0.00000000    0.00000000    0.00000000
     atom   18 type  1   force =    -0.00000000    0.00000000    0.00000000
     atom   19 type  1   force =     0.00000000    0.00000000    0.00000000
     atom   20 type  1   force =     0.00000000    0.00000000    0.00000000
     atom   21 type  1   force =    -0.00000000    0.00000000    0.00000000
     atom   22 type  1   force =     0.00000000   -0.00000000    0.00000000
     atom   23 type  1   force =     0.00000000   -0.00000000    0.00000000
     atom   24 type  1   force =    -0.00000000    0.00000000    0.00000000
     atom   25 type  1   force =     0.00000000   -0.00000000    0.00000000
     atom   26 type  1   force =     0.00000000   -0.00000000    0.00000000
     atom   27 type  1   force =    -0.00000000    0.00000000    0.00000000
     atom   28 type  1   force =     0.00000000    0.00000000   -0.00000000
     atom   29 type  1   force =     0.00000000    0.00000000    0.00000000
     atom   30 type  1   force =    -0.00000000    0.00000000   -0.00000000
     atom   31 type  1   force =     0.00000000    0.00000000    0.00000000
     atom   32 type  1   force =    -0.00000000   -0.00000000   -0.00000000
     atom   33 type  1   force =     0.00000000    0.00000000   -0.00000000
     atom   34 type  1   force =    -0.00000000   -0.00000000   -0.00000000
     atom   35 type  1   force =    -0.00000000   -0.00000000   -0.00000000
     atom   36 type  1   force =     0.00000000   -0.00000000   -0.00000000
     atom   37 type  2   force =    -0.00004073    0.00005315   -0.00013966
     atom   38 type  3   force =     0.00000048    0.00004767   -0.00024361
     atom   39 type  4   force =    -0.00004069   -0.00002758   -0.00003296

     Total force =     0.029532     Total SCF correction =     0.000299

     Writing all to output data dir ./pwscf.save/

     init_run     :     10.89s CPU     11.30s WALL (       1 calls)
     electrons    :    529.68s CPU    537.71s WALL (       1 calls)
     forces       :      2.95s CPU      3.02s WALL (       1 calls)

     Called by init_run:
     wfcinit      :      7.64s CPU      7.93s WALL (       1 calls)
     potinit      :      2.15s CPU      2.24s WALL (       1 calls)
     hinit0       :      0.86s CPU      0.87s WALL (       1 calls)

     Called by electrons:
     c_bands      :    449.98s CPU    456.31s WALL (      38 calls)
     sum_band     :     54.28s CPU     55.13s WALL (      38 calls)
     v_of_rho     :      6.77s CPU      7.19s WALL (      39 calls)
     newd         :      2.26s CPU      2.30s WALL (      39 calls)
     PAW_pot      :      9.76s CPU      9.89s WALL (      39 calls)
     mix_rho      :      8.02s CPU      8.20s WALL (      38 calls)
     vdW_kernel   :      1.09s CPU      1.10s WALL (       1 calls)

     Called by c_bands:
     init_us_2    :      4.78s CPU      4.89s WALL (    2028 calls)
     init_us_2:cp :      4.77s CPU      4.89s WALL (    2028 calls)
     cegterg      :    435.39s CPU    441.29s WALL (     988 calls)

     Called by *egterg:
     cdiaghg      :    158.49s CPU    159.68s WALL (    3581 calls)
     h_psi        :    191.81s CPU    195.41s WALL (    3607 calls)
     s_psi        :     21.56s CPU     21.85s WALL (    3607 calls)
     g_psi        :      0.43s CPU      0.44s WALL (    2593 calls)

     Called by h_psi:
     h_psi:calbec :     30.68s CPU     31.28s WALL (    3607 calls)
     vloc_psi     :    137.52s CPU    140.20s WALL (    3607 calls)
     add_vuspsi   :     22.54s CPU     22.84s WALL (    3607 calls)

     General routines
     calbec       :     44.89s CPU     45.69s WALL (    4699 calls)
     fft          :      4.16s CPU      4.55s WALL (    3548 calls)
     ffts         :      4.98s CPU      5.09s WALL (   13341 calls)
     fftw         :    157.07s CPU    159.98s WALL ( 1034206 calls)
     interpolate  :      0.50s CPU      0.51s WALL (      78 calls)

     Parallel routines

     PWSCF        :   9m 7.87s CPU   9m20.67s WALL


   This run was terminated on:  19:23:31   4Dec2025            

=------------------------------------------------------------------------------=
   JOB DONE.
=------------------------------------------------------------------------------=
