  37  37   0   0
  0.4190497E+02  0.8468310E-09  0.8468310E-09  0.2496566E-08  0.5000000E-15
  1.000000000000000E-004
  CAR 
 unknown system                          
      8.61215676     -9.90454024  301     -0.07552336      1.00000000
     -9.905  0.0000E+00  0.0000E+00
     -9.843  0.0000E+00  0.0000E+00
     -9.781  0.0000E+00  0.0000E+00
     -9.719 -0.4355E-28 -0.2688E-29
     -9.658 -0.6423E-24 -0.3965E-25
     -9.596 -0.4392E-20 -0.2711E-21
     -9.534 -0.1390E-16 -0.8585E-18
     -9.472 -0.1970E-13 -0.1217E-14
     -9.411 -0.1320E-10 -0.8159E-12
     -9.349 -0.4043E-08 -0.2504E-09
     -9.287 -0.5623E-06 -0.3496E-07
     -9.226 -0.3498E-04 -0.2194E-05
     -9.164 -0.9442E-03 -0.6047E-04
     -9.102 -0.1025E-01 -0.6933E-03
     -9.040 -0.3353E-01 -0.2763E-02
     -8.979  0.5006E-01  0.3273E-03
     -8.917  0.3282E+00  0.2058E-01
     -8.855  0.6081E+00  0.5812E-01
     -8.794  0.2047E+01  0.1845E+00
     -8.732  0.3811E+01  0.4197E+00
     -8.670  0.2256E+01  0.5589E+00
     -8.608 -0.1900E-01  0.5577E+00
     -8.547  0.2084E+00  0.5706E+00
     -8.485  0.2594E+01  0.7307E+00
     -8.423  0.3827E+01  0.9669E+00
     -8.361  0.3605E+01  0.1189E+01
     -8.300  0.3735E+01  0.1420E+01
     -8.238  0.1795E+01  0.1531E+01
     -8.176 -0.4706E-01  0.1528E+01
     -8.115 -0.3858E+00  0.1504E+01
     -8.053  0.1182E+00  0.1511E+01
     -7.991  0.2814E+01  0.1685E+01
     -7.929  0.6085E+01  0.2061E+01
     -7.868  0.5359E+01  0.2391E+01
     -7.806  0.2797E+01  0.2564E+01
     -7.744  0.4960E+01  0.2870E+01
     -7.683  0.7236E+01  0.3317E+01
     -7.621  0.4219E+01  0.3577E+01
     -7.559  0.2955E+01  0.3760E+01
     -7.497  0.3453E+01  0.3973E+01
     -7.436  0.5614E+01  0.4319E+01
     -7.374  0.7009E+01  0.4752E+01
     -7.312  0.3074E+01  0.4942E+01
     -7.250  0.4320E+01  0.5208E+01
     -7.189  0.1090E+02  0.5881E+01
     -7.127  0.9759E+01  0.6483E+01
     -7.065  0.5030E+01  0.6794E+01
     -7.004  0.2306E+01  0.6936E+01
     -6.942  0.2819E+01  0.7110E+01
     -6.880  0.7704E+01  0.7586E+01
     -6.818  0.9181E+01  0.8152E+01
     -6.757  0.4279E+01  0.8416E+01
     -6.695  0.2294E+01  0.8558E+01
     -6.633  0.6350E+01  0.8950E+01
     -6.572  0.1346E+02  0.9781E+01
     -6.510  0.1545E+02  0.1073E+02
     -6.448  0.1250E+02  0.1151E+02
     -6.386  0.1098E+02  0.1218E+02
     -6.325  0.8031E+01  0.1268E+02
     -6.263  0.8456E+01  0.1320E+02
     -6.201  0.1719E+02  0.1426E+02
     -6.139  0.3057E+02  0.1615E+02
     -6.078  0.3747E+02  0.1846E+02
     -6.016  0.3186E+02  0.2043E+02
     -5.954  0.2931E+02  0.2224E+02
     -5.893  0.3219E+02  0.2423E+02
     -5.831  0.3610E+02  0.2645E+02
     -5.769  0.3176E+02  0.2841E+02
     -5.707  0.2614E+02  0.3003E+02
     -5.646  0.3177E+02  0.3199E+02
     -5.584  0.3907E+02  0.3440E+02
     -5.522  0.4206E+02  0.3700E+02
     -5.461  0.4975E+02  0.4007E+02
     -5.399  0.6268E+02  0.4394E+02
     -5.337  0.6459E+02  0.4792E+02
     -5.275  0.5526E+02  0.5133E+02
     -5.214  0.4664E+02  0.5421E+02
     -5.152  0.4337E+02  0.5689E+02
     -5.090  0.4883E+02  0.5990E+02
     -5.028  0.6801E+02  0.6410E+02
     -4.967  0.6494E+02  0.6811E+02
     -4.905  0.3470E+02  0.7025E+02
     -4.843  0.2264E+02  0.7165E+02
     -4.782  0.3759E+02  0.7397E+02
     -4.720  0.4078E+02  0.7649E+02
     -4.658  0.2428E+02  0.7798E+02
     -4.596  0.2336E+02  0.7943E+02
     -4.535  0.3989E+02  0.8189E+02
     -4.473  0.5590E+02  0.8534E+02
     -4.411  0.6212E+02  0.8917E+02
     -4.350  0.5510E+02  0.9257E+02
     -4.288  0.4528E+02  0.9537E+02
     -4.226  0.3886E+02  0.9777E+02
     -4.164  0.4380E+02  0.1005E+03
     -4.103  0.6061E+02  0.1042E+03
     -4.041  0.6104E+02  0.1080E+03
     -3.979  0.5050E+02  0.1111E+03
     -3.917  0.4602E+02  0.1139E+03
     -3.856  0.4285E+02  0.1166E+03
     -3.794  0.3710E+02  0.1189E+03
     -3.732  0.4134E+02  0.1214E+03
     -3.671  0.5909E+02  0.1251E+03
     -3.609  0.6259E+02  0.1289E+03
     -3.547  0.5471E+02  0.1323E+03
     -3.485  0.5497E+02  0.1357E+03
     -3.424  0.6740E+02  0.1399E+03
     -3.362  0.7666E+02  0.1446E+03
     -3.300  0.7181E+02  0.1490E+03
     -3.239  0.6495E+02  0.1530E+03
     -3.177  0.6992E+02  0.1574E+03
     -3.115  0.8614E+02  0.1627E+03
     -3.053  0.8656E+02  0.1680E+03
     -2.992  0.7865E+02  0.1729E+03
     -2.930  0.7958E+02  0.1778E+03
     -2.868  0.7531E+02  0.1824E+03
     -2.806  0.8357E+02  0.1876E+03
     -2.745  0.1024E+03  0.1939E+03
     -2.683  0.1043E+03  0.2003E+03
     -2.621  0.8557E+02  0.2056E+03
     -2.560  0.6355E+02  0.2095E+03
     -2.498  0.6285E+02  0.2134E+03
     -2.436  0.6218E+02  0.2173E+03
     -2.374  0.4503E+02  0.2200E+03
     -2.313  0.2979E+02  0.2219E+03
     -2.251  0.2393E+02  0.2234E+03
     -2.189  0.2839E+02  0.2251E+03
     -2.128  0.4272E+02  0.2278E+03
     -2.066  0.6307E+02  0.2316E+03
     -2.004  0.8569E+02  0.2369E+03
     -1.942  0.9301E+02  0.2427E+03
     -1.881  0.8319E+02  0.2478E+03
     -1.819  0.6319E+02  0.2517E+03
     -1.757  0.4438E+02  0.2544E+03
     -1.695  0.4088E+02  0.2570E+03
     -1.634  0.4741E+02  0.2599E+03
     -1.572  0.5798E+02  0.2635E+03
     -1.510  0.5828E+02  0.2671E+03
     -1.449  0.5149E+02  0.2703E+03
     -1.387  0.5713E+02  0.2738E+03
     -1.325  0.6163E+02  0.2776E+03
     -1.263  0.5185E+02  0.2808E+03
     -1.202  0.5337E+02  0.2841E+03
     -1.140  0.7314E+02  0.2886E+03
     -1.078  0.8511E+02  0.2938E+03
     -1.017  0.8597E+02  0.2991E+03
     -0.955  0.7291E+02  0.3036E+03
     -0.893  0.5806E+02  0.3072E+03
     -0.831  0.5680E+02  0.3107E+03
     -0.770  0.5239E+02  0.3140E+03
     -0.708  0.4308E+02  0.3166E+03
     -0.646  0.4961E+02  0.3197E+03
     -0.584  0.6242E+02  0.3235E+03
     -0.523  0.6038E+02  0.3273E+03
     -0.461  0.5863E+02  0.3309E+03
     -0.399  0.6796E+02  0.3351E+03
     -0.338  0.8767E+02  0.3405E+03
     -0.276  0.9651E+02  0.3465E+03
     -0.214  0.7379E+02  0.3510E+03
     -0.152  0.5499E+02  0.3544E+03
     -0.091  0.8193E+02  0.3595E+03
     -0.029  0.9826E+02  0.3655E+03
      0.033  0.5987E+02  0.3692E+03
      0.094  0.3232E+02  0.3712E+03
      0.156  0.4945E+02  0.3743E+03
      0.218  0.5691E+02  0.3778E+03
      0.280  0.4445E+02  0.3805E+03
      0.341  0.3930E+02  0.3829E+03
      0.403  0.2881E+02  0.3847E+03
      0.465  0.1388E+02  0.3856E+03
      0.527  0.3796E+01  0.3858E+03
      0.588  0.8386E+00  0.3859E+03
      0.650  0.4088E+01  0.3861E+03
      0.712  0.1122E+02  0.3868E+03
      0.773  0.1715E+02  0.3879E+03
      0.835  0.1342E+02  0.3887E+03
      0.897  0.7675E+01  0.3892E+03
      0.959  0.1001E+02  0.3898E+03
      1.020  0.1031E+02  0.3904E+03
      1.082  0.3202E+01  0.3906E+03
      1.144  0.8215E+00  0.3907E+03
      1.205  0.8670E+01  0.3912E+03
      1.267  0.1539E+02  0.3922E+03
      1.329  0.1423E+02  0.3930E+03
      1.391  0.1117E+02  0.3937E+03
      1.452  0.1378E+02  0.3946E+03
      1.514  0.2542E+02  0.3961E+03
      1.576  0.2696E+02  0.3978E+03
      1.638  0.1862E+02  0.3990E+03
      1.699  0.1524E+02  0.3999E+03
      1.761  0.1101E+02  0.4006E+03
      1.823  0.3173E+01  0.4008E+03
      1.884  0.1590E+01  0.4009E+03
      1.946  0.3482E+01  0.4011E+03
      2.008  0.5035E+01  0.4014E+03
      2.070  0.6693E+01  0.4018E+03
      2.131  0.5878E+01  0.4022E+03
      2.193  0.8478E+01  0.4027E+03
      2.255  0.1159E+02  0.4034E+03
      2.316  0.1071E+02  0.4041E+03
      2.378  0.1363E+02  0.4049E+03
      2.440  0.2028E+02  0.4062E+03
      2.502  0.2151E+02  0.4075E+03
      2.563  0.1318E+02  0.4083E+03
      2.625  0.6852E+01  0.4087E+03
      2.687  0.6135E+01  0.4091E+03
      2.749  0.9294E+01  0.4097E+03
      2.810  0.1771E+02  0.4108E+03
      2.872  0.1994E+02  0.4120E+03
      2.934  0.1426E+02  0.4129E+03
      2.995  0.8361E+01  0.4134E+03
      3.057  0.1044E+02  0.4141E+03
      3.119  0.1404E+02  0.4149E+03
      3.181  0.1131E+02  0.4156E+03
      3.242  0.9993E+01  0.4162E+03
      3.304  0.8913E+01  0.4168E+03
      3.366  0.3947E+01  0.4170E+03
      3.427 -0.2560E+00  0.4170E+03
      3.489  0.1301E+01  0.4171E+03
      3.551  0.9825E+01  0.4177E+03
      3.613  0.2094E+02  0.4190E+03
      3.674  0.2695E+02  0.4207E+03
      3.736  0.2266E+02  0.4221E+03
      3.798  0.1230E+02  0.4228E+03
      3.860  0.5234E+01  0.4231E+03
      3.921  0.3330E+01  0.4233E+03
      3.983  0.3414E+01  0.4236E+03
      4.045  0.3173E+01  0.4237E+03
      4.106  0.5484E+01  0.4241E+03
      4.168  0.9353E+01  0.4247E+03
      4.230  0.9001E+01  0.4252E+03
      4.292  0.6200E+01  0.4256E+03
      4.353  0.1045E+02  0.4262E+03
      4.415  0.2263E+02  0.4276E+03
      4.477  0.2254E+02  0.4290E+03
      4.538  0.9354E+01  0.4296E+03
      4.600  0.6184E+01  0.4300E+03
      4.662  0.1228E+02  0.4308E+03
      4.724  0.1591E+02  0.4317E+03
      4.785  0.1353E+02  0.4326E+03
      4.847  0.8338E+01  0.4331E+03
      4.909  0.5847E+01  0.4334E+03
      4.971  0.8934E+01  0.4340E+03
      5.032  0.1023E+02  0.4346E+03
      5.094  0.4768E+01  0.4349E+03
      5.156  0.5131E+01  0.4352E+03
      5.217  0.1219E+02  0.4360E+03
      5.279  0.1508E+02  0.4369E+03
      5.341  0.1157E+02  0.4376E+03
      5.403  0.8914E+01  0.4382E+03
      5.464  0.1498E+02  0.4391E+03
      5.526  0.2299E+02  0.4405E+03
      5.588  0.2644E+02  0.4422E+03
      5.649  0.2482E+02  0.4437E+03
      5.711  0.2178E+02  0.4450E+03
      5.773  0.1961E+02  0.4462E+03
      5.835  0.1766E+02  0.4473E+03
      5.896  0.1589E+02  0.4483E+03
      5.958  0.2272E+02  0.4497E+03
      6.020  0.3450E+02  0.4518E+03
      6.082  0.2941E+02  0.4537E+03
      6.143  0.1200E+02  0.4544E+03
      6.205  0.8776E+01  0.4549E+03
      6.267  0.2081E+02  0.4562E+03
      6.328  0.3273E+02  0.4583E+03
      6.390  0.2753E+02  0.4600E+03
      6.452  0.1480E+02  0.4609E+03
      6.514  0.1633E+02  0.4619E+03
      6.575  0.2406E+02  0.4634E+03
      6.637  0.2648E+02  0.4650E+03
      6.699  0.2702E+02  0.4667E+03
      6.760  0.2721E+02  0.4683E+03
      6.822  0.1979E+02  0.4696E+03
      6.884  0.1044E+02  0.4702E+03
      6.946  0.1099E+02  0.4709E+03
      7.007  0.1547E+02  0.4718E+03
      7.069  0.1844E+02  0.4730E+03
      7.131  0.2283E+02  0.4744E+03
      7.193  0.2495E+02  0.4759E+03
      7.254  0.2209E+02  0.4773E+03
      7.316  0.1374E+02  0.4781E+03
      7.378  0.5726E+01  0.4785E+03
      7.439  0.3010E+01  0.4787E+03
      7.501  0.4020E+01  0.4789E+03
      7.563  0.6072E+01  0.4793E+03
      7.625  0.7361E+01  0.4798E+03
      7.686  0.4065E+01  0.4800E+03
      7.748  0.3315E+00  0.4800E+03
      7.810 -0.3152E+00  0.4800E+03
      7.871 -0.7976E-01  0.4800E+03
      7.933 -0.6676E-02  0.4800E+03
      7.995 -0.2323E-03  0.4800E+03
      8.057 -0.3568E-05  0.4800E+03
      8.118 -0.2478E-07  0.4800E+03
      8.180 -0.7868E-10  0.4800E+03
      8.242 -0.1151E-12  0.4800E+03
      8.304  0.0000E+00  0.4800E+03
      8.365  0.0000E+00  0.4800E+03
      8.427  0.0000E+00  0.4800E+03
      8.489  0.0000E+00  0.4800E+03
      8.550  0.0000E+00  0.4800E+03
      8.612  0.0000E+00  0.4800E+03
