   37   37    1    1
  0.4190497E+02  0.8468310E-09  0.8468310E-09  0.2496566E-08  0.5000000E-15
  1.000000000000000E-004
  CAR 
 unknown system                          
    361     13    240
 
  0.1276756E-14  0.1276756E-14  0.1276756E-14  0.4000000E-01
      1         -8.904540   1.000000
      2         -7.839917   1.000000
      3         -7.124406   1.000000
      4         -6.502882   1.000000
      5         -6.469553   1.000000
      6         -6.456679   1.000000
      7         -6.452957   1.000000
      8         -6.437558   1.000000
      9         -6.433064   1.000000
     10         -6.426129   1.000000
     11         -6.135280   1.000000
     12         -5.916101   1.000000
     13         -5.912162   1.000000
     14         -5.908847   1.000000
     15         -5.907224   1.000000
     16         -5.898836   1.000000
     17         -5.821774   1.000000
     18         -5.473308   1.000000
     19         -5.468720   1.000000
     20         -5.450417   1.000000
     21         -5.449609   1.000000
     22         -5.439261   1.000000
     23         -5.351458   1.000000
     24         -5.229328   1.000000
     25         -5.225259   1.000000
     26         -5.224455   1.000000
     27         -5.219197   1.000000
     28         -5.218450   1.000000
     29         -5.122299   1.000000
     30         -5.038413   1.000000
     31         -5.034383   1.000000
     32         -5.022729   1.000000
     33         -5.022648   1.000000
     34         -5.009885   1.000000
     35         -4.970014   1.000000
     36         -4.956749   1.000000
     37         -4.952033   1.000000
     38         -4.949008   1.000000
     39         -4.913301   1.000000
     40         -4.909995   1.000000
     41         -4.574370   1.000000
     42         -4.380559   1.000000
     43         -4.380253   1.000000
     44         -4.348316   1.000000
     45         -4.336264   1.000000
     46         -4.323911   1.000000
     47         -4.316226   1.000000
     48         -4.293496   1.000000
     49         -4.291915   1.000000
     50         -4.286388   1.000000
     51         -4.134181   1.000000
     52         -4.133456   1.000000
     53         -4.051731   1.000000
     54         -4.032207   1.000000
     55         -4.031974   1.000000
     56         -3.586264   1.000000
     57         -3.581664   1.000000
     58         -3.572219   1.000000
     59         -3.562204   1.000000
     60         -3.554770   1.000000
     61         -3.503882   1.000000
     62         -3.471793   1.000000
     63         -3.391790   1.000000
     64         -3.375231   1.000000
     65         -3.371723   1.000000
     66         -3.370596   1.000000
     67         -3.363612   1.000000
     68         -3.356777   1.000000
     69         -3.350971   1.000000
     70         -3.312421   1.000000
     71         -3.312210   1.000000
     72         -3.305524   1.000000
     73         -3.301928   1.000000
     74         -3.299223   1.000000
     75         -3.264199   1.000000
     76         -3.257120   1.000000
     77         -3.256135   1.000000
     78         -3.156143   1.000000
     79         -3.152598   1.000000
     80         -3.150212   1.000000
     81         -3.143060   1.000000
     82         -3.141316   1.000000
     83         -3.129756   1.000000
     84         -2.944420   1.000000
     85         -2.935202   1.000000
     86         -2.931890   1.000000
     87         -2.916004   1.000000
     88         -2.910800   1.000000
     89         -2.908138   1.000000
     90         -2.893969   1.000000
     91         -2.886215   1.000000
     92         -2.838607   1.000000
     93         -2.833330   1.000000
     94         -2.771593   1.000000
     95         -2.758524   1.000000
     96         -2.750227   1.000000
     97         -2.727566   1.000000
     98         -2.721472   1.000000
     99         -2.695158   1.000000
    100         -2.690082   1.000000
    101         -2.630203   1.000000
    102         -2.526470   1.000000
    103         -2.519255   1.000000
    104         -2.514950   1.000000
    105         -2.505689   1.000000
    106         -2.501321   1.000000
    107         -2.492636   1.000000
    108         -2.272562   1.000000
    109         -2.021186   1.000000
    110         -2.005627   1.000000
    111         -1.998553   1.000000
    112         -1.988164   1.000000
    113         -1.986729   1.000000
    114         -1.982566   1.000000
    115         -1.975443   1.000000
    116         -1.974765   1.000000
    117         -1.959928   1.000000
    118         -1.955272   1.000000
    119         -1.949267   1.000000
    120         -1.870350   1.000000
    121         -1.865270   1.000000
    122         -1.807764   1.000000
    123         -1.737800   1.000000
    124         -1.732451   1.000000
    125         -1.726261   1.000000
    126         -1.720910   1.000000
    127         -1.711246   1.000000
    128         -1.599803   1.000000
    129         -1.591094   1.000000
    130         -1.539727   1.000000
    131         -1.537813   1.000000
    132         -1.525488   1.000000
    133         -1.487385   1.000000
    134         -1.290583   1.000000
    135         -1.276371   1.000000
    136         -1.275064   1.000000
    137         -1.255022   1.000000
    138         -1.250006   1.000000
    139         -1.247853   1.000000
    140         -1.183844   1.000000
    141         -1.175551   1.000000
    142         -1.048891   1.000000
    143         -1.046872   1.000000
    144         -1.029377   1.000000
    145         -1.027332   1.000000
    146         -1.023975   1.000000
    147         -1.022558   1.000000
    148         -0.899768   1.000000
    149         -0.886806   1.000000
    150         -0.863280   1.000000
    151         -0.848991   1.000000
    152         -0.830780   1.000000
    153         -0.828070   1.000000
    154         -0.821644   1.000000
    155         -0.815850   1.000000
    156         -0.808667   1.000000
    157         -0.806897   1.000000
    158         -0.802024   1.000000
    159         -0.795018   1.000000
    160         -0.730921   1.000000
    161         -0.724915   1.000000
    162         -0.701755   1.000000
    163         -0.677112   1.000000
    164         -0.669117   1.000000
    165         -0.655596   1.000000
    166         -0.646121   1.000000
    167         -0.644744   1.000000
    168         -0.605542   1.000000
    169         -0.591222   1.000000
    170         -0.589568   1.000000
    171         -0.553406   1.000000
    172         -0.550079   1.000000
    173         -0.547637   1.000000
    174         -0.538811   1.000000
    175         -0.536103   1.000000
    176         -0.458015   1.000000
    177         -0.445936   1.000001
    178         -0.445233   1.000001
    179         -0.439204   1.000002
    180         -0.433909   1.000002
    181         -0.431286   1.000003
    182         -0.382004   1.000065
    183         -0.347362   1.000413
    184         -0.339099   1.000618
    185         -0.323033   1.001293
    186         -0.319855   1.001486
    187         -0.313272   1.001967
    188         -0.306389   1.002608
    189         -0.119865   0.837458
    190         -0.104301   0.732717
    191         -0.017980   0.091313
    192         -0.015440   0.079610
    193         -0.014975   0.077540
    194          0.004355   0.010264
    195          0.006445   0.005087
    196          0.009404  -0.001602
    197          0.547360  -0.000000
    198          0.818733  -0.000000
    199          0.850033  -0.000000
    200          0.859902  -0.000000
    201          0.891766  -0.000000
    202          0.899618  -0.000000
    203          0.901211  -0.000000
    204          2.888091   0.000000
    205          3.132051   0.000000
    206          3.141629   0.000000
    207          3.202209   0.000000
    208          3.212839   0.000000
    209          3.214468   0.000000
    210          4.677107   0.000000
    211          4.713260   0.000000
    212          4.774788   0.000000
    213          4.811331   0.000000
    214          4.817354   0.000000
    215          4.826037   0.000000
    216          4.904627   0.000000
    217          5.091837   0.000000
    218          5.257607   0.000000
    219          5.433383   0.000000
    220          5.477613   0.000000
    221          5.793932   0.000000
    222          5.794753   0.000000
    223          5.842604   0.000000
    224          5.859014   0.000000
    225          5.869898   0.000000
    226          6.165216   0.000000
    227          6.373450   0.000000
    228          6.597557   0.000000
    229          6.604671   0.000000
    230          6.622724   0.000000
    231          6.841999   0.000000
    232          7.041307   0.000000
    233          7.129232   0.000000
    234          7.133999   0.000000
    235          7.152234   0.000000
    236          7.158113   0.000000
    237          7.163156   0.000000
    238          7.235513   0.000000
    239          7.262444   0.000000
    240          7.391048   0.000000
 
  0.2000000E+00  0.1278043E-14  0.1276756E-14  0.8000000E-01
      1         -8.756710   1.000000
      2         -7.723379   1.000000
      3         -7.073258   1.000000
      4         -6.923269   1.000000
      5         -6.561248   1.000000
      6         -6.547059   1.000000
      7         -6.360153   1.000000
      8         -6.263579   1.000000
      9         -6.223466   1.000000
     10         -6.211388   1.000000
     11         -6.110575   1.000000
     12         -6.000602   1.000000
     13         -5.964334   1.000000
     14         -5.844230   1.000000
     15         -5.838722   1.000000
     16         -5.826766   1.000000
     17         -5.745211   1.000000
     18         -5.535679   1.000000
     19         -5.420846   1.000000
     20         -5.417567   1.000000
     21         -5.409835   1.000000
     22         -5.379473   1.000000
     23         -5.337325   1.000000
     24         -5.304068   1.000000
     25         -5.278254   1.000000
     26         -5.235939   1.000000
     27         -5.219447   1.000000
     28         -5.208527   1.000000
     29         -5.149094   1.000000
     30         -5.115803   1.000000
     31         -5.108327   1.000000
     32         -5.036027   1.000000
     33         -5.020623   1.000000
     34         -5.011473   1.000000
     35         -5.008070   1.000000
     36         -4.862846   1.000000
     37         -4.815270   1.000000
     38         -4.781659   1.000000
     39         -4.767970   1.000000
     40         -4.753239   1.000000
     41         -4.578228   1.000000
     42         -4.498485   1.000000
     43         -4.492753   1.000000
     44         -4.443273   1.000000
     45         -4.414708   1.000000
     46         -4.401072   1.000000
     47         -4.388216   1.000000
     48         -4.291759   1.000000
     49         -4.213686   1.000000
     50         -4.149050   1.000000
     51         -4.126813   1.000000
     52         -4.112421   1.000000
     53         -4.068568   1.000000
     54         -4.047515   1.000000
     55         -3.988534   1.000000
     56         -3.832622   1.000000
     57         -3.735387   1.000000
     58         -3.727673   1.000000
     59         -3.686842   1.000000
     60         -3.672000   1.000000
     61         -3.640862   1.000000
     62         -3.587202   1.000000
     63         -3.562332   1.000000
     64         -3.557029   1.000000
     65         -3.527949   1.000000
     66         -3.524603   1.000000
     67         -3.452553   1.000000
     68         -3.438940   1.000000
     69         -3.406538   1.000000
     70         -3.375587   1.000000
     71         -3.363404   1.000000
     72         -3.317411   1.000000
     73         -3.267963   1.000000
     74         -3.259390   1.000000
     75         -3.254172   1.000000
     76         -3.179983   1.000000
     77         -3.177311   1.000000
     78         -3.158713   1.000000
     79         -3.129499   1.000000
     80         -3.095254   1.000000
     81         -3.087129   1.000000
     82         -3.065217   1.000000
     83         -3.024377   1.000000
     84         -3.013145   1.000000
     85         -2.963708   1.000000
     86         -2.950575   1.000000
     87         -2.939549   1.000000
     88         -2.936933   1.000000
     89         -2.918733   1.000000
     90         -2.908191   1.000000
     91         -2.862109   1.000000
     92         -2.832587   1.000000
     93         -2.803160   1.000000
     94         -2.779687   1.000000
     95         -2.773939   1.000000
     96         -2.767752   1.000000
     97         -2.755076   1.000000
     98         -2.731464   1.000000
     99         -2.697789   1.000000
    100         -2.687785   1.000000
    101         -2.613516   1.000000
    102         -2.565734   1.000000
    103         -2.554453   1.000000
    104         -2.522410   1.000000
    105         -2.509420   1.000000
    106         -2.502893   1.000000
    107         -2.495961   1.000000
    108         -2.487970   1.000000
    109         -2.447734   1.000000
    110         -2.439927   1.000000
    111         -2.428414   1.000000
    112         -2.416671   1.000000
    113         -2.191269   1.000000
    114         -2.076098   1.000000
    115         -2.026516   1.000000
    116         -2.011358   1.000000
    117         -1.993989   1.000000
    118         -1.986972   1.000000
    119         -1.984631   1.000000
    120         -1.942428   1.000000
    121         -1.938209   1.000000
    122         -1.885774   1.000000
    123         -1.804655   1.000000
    124         -1.778341   1.000000
    125         -1.706239   1.000000
    126         -1.656625   1.000000
    127         -1.649175   1.000000
    128         -1.606891   1.000000
    129         -1.590337   1.000000
    130         -1.568477   1.000000
    131         -1.541496   1.000000
    132         -1.530810   1.000000
    133         -1.528813   1.000000
    134         -1.446561   1.000000
    135         -1.404927   1.000000
    136         -1.395789   1.000000
    137         -1.386743   1.000000
    138         -1.377783   1.000000
    139         -1.248506   1.000000
    140         -1.200618   1.000000
    141         -1.174023   1.000000
    142         -1.160761   1.000000
    143         -1.150920   1.000000
    144         -1.145164   1.000000
    145         -1.124815   1.000000
    146         -1.062339   1.000000
    147         -1.034215   1.000000
    148         -1.004572   1.000000
    149         -0.990870   1.000000
    150         -0.983648   1.000000
    151         -0.932127   1.000000
    152         -0.921924   1.000000
    153         -0.909564   1.000000
    154         -0.897890   1.000000
    155         -0.814490   1.000000
    156         -0.795102   1.000000
    157         -0.774387   1.000000
    158         -0.762977   1.000000
    159         -0.724888   1.000000
    160         -0.673321   1.000000
    161         -0.649023   1.000000
    162         -0.614091   1.000000
    163         -0.606119   1.000000
    164         -0.589810   1.000000
    165         -0.563747   1.000000
    166         -0.544184   1.000000
    167         -0.482062   1.000000
    168         -0.477200   1.000000
    169         -0.418094   1.000007
    170         -0.406793   1.000015
    171         -0.392655   1.000035
    172         -0.384969   1.000055
    173         -0.361541   1.000200
    174         -0.351702   1.000332
    175         -0.346888   1.000423
    176         -0.336842   1.000688
    177         -0.330340   1.000931
    178         -0.271356   1.009126
    179         -0.268435   1.009984
    180         -0.130567   0.896530
    181         -0.122602   0.853632
    182         -0.105239   0.739587
    183         -0.087877   0.603668
    184         -0.075485   0.499677
    185         -0.068891   0.444004
    186         -0.040369   0.221896
    187         -0.022680   0.114688
    188         -0.008910   0.052509
    189          0.001992   0.016586
    190          0.077912  -0.026097
    191          0.102251  -0.015302
    192          0.128323  -0.007046
    193          0.184939  -0.000716
    194          0.292397  -0.000001
    195          0.299788  -0.000001
    196          0.313006  -0.000000
    197          0.357247  -0.000000
    198          0.699540  -0.000000
    199          0.742868  -0.000000
    200          1.260194  -0.000000
    201          1.460511  -0.000000
    202          1.480190  -0.000000
    203          1.597356  -0.000000
    204          2.407447  -0.000000
    205          2.820502   0.000000
    206          2.901536   0.000000
    207          3.566453   0.000000
    208          3.649701   0.000000
    209          3.664423   0.000000
    210          3.737603   0.000000
    211          3.978468   0.000000
    212          4.446017   0.000000
    213          4.606494   0.000000
    214          4.758669   0.000000
    215          4.959699   0.000000
    216          4.988659   0.000000
    217          5.003304   0.000000
    218          5.217334   0.000000
    219          5.305001   0.000000
    220          5.459799   0.000000
    221          5.655885   0.000000
    222          5.701398   0.000000
    223          5.833891   0.000000
    224          5.899504   0.000000
    225          6.061845   0.000000
    226          6.204291   0.000000
    227          6.283072   0.000000
    228          6.321829   0.000000
    229          6.347690   0.000000
    230          6.530489   0.000000
    231          6.699794   0.000000
    232          6.754525   0.000000
    233          6.786490   0.000000
    234          6.846047   0.000000
    235          6.937209   0.000000
    236          7.060709   0.000000
    237          7.266462   0.000000
    238          7.476563   0.000000
    239          7.568459   0.000000
    240          7.610873   0.000000
 
  0.2000000E+00  0.2000000E+00  0.1276756E-14  0.8000000E-01
      1         -8.757437   1.000000
      2         -7.729273   1.000000
      3         -7.090087   1.000000
      4         -6.907807   1.000000
      5         -6.559124   1.000000
      6         -6.546521   1.000000
      7         -6.360772   1.000000
      8         -6.272571   1.000000
      9         -6.213064   1.000000
     10         -6.210726   1.000000
     11         -6.126738   1.000000
     12         -5.999514   1.000000
     13         -5.931543   1.000000
     14         -5.844941   1.000000
     15         -5.840018   1.000000
     16         -5.831663   1.000000
     17         -5.765573   1.000000
     18         -5.530149   1.000000
     19         -5.417081   1.000000
     20         -5.415098   1.000000
     21         -5.412395   1.000000
     22         -5.366266   1.000000
     23         -5.336132   1.000000
     24         -5.307901   1.000000
     25         -5.275245   1.000000
     26         -5.247247   1.000000
     27         -5.220352   1.000000
     28         -5.213830   1.000000
     29         -5.133033   1.000000
     30         -5.112157   1.000000
     31         -5.106174   1.000000
     32         -5.038959   1.000000
     33         -5.019089   1.000000
     34         -5.009377   1.000000
     35         -5.008532   1.000000
     36         -4.853383   1.000000
     37         -4.815007   1.000000
     38         -4.775773   1.000000
     39         -4.775269   1.000000
     40         -4.750704   1.000000
     41         -4.572945   1.000000
     42         -4.493573   1.000000
     43         -4.489031   1.000000
     44         -4.442922   1.000000
     45         -4.416000   1.000000
     46         -4.405985   1.000000
     47         -4.391802   1.000000
     48         -4.297311   1.000000
     49         -4.212812   1.000000
     50         -4.149410   1.000000
     51         -4.125106   1.000000
     52         -4.114982   1.000000
     53         -4.066811   1.000000
     54         -4.048146   1.000000
     55         -3.979468   1.000000
     56         -3.822363   1.000000
     57         -3.735248   1.000000
     58         -3.729881   1.000000
     59         -3.673901   1.000000
     60         -3.666444   1.000000
     61         -3.635993   1.000000
     62         -3.577851   1.000000
     63         -3.576505   1.000000
     64         -3.562407   1.000000
     65         -3.530184   1.000000
     66         -3.527295   1.000000
     67         -3.460371   1.000000
     68         -3.438790   1.000000
     69         -3.388782   1.000000
     70         -3.372787   1.000000
     71         -3.363601   1.000000
     72         -3.322986   1.000000
     73         -3.286008   1.000000
     74         -3.275526   1.000000
     75         -3.266190   1.000000
     76         -3.180307   1.000000
     77         -3.169180   1.000000
     78         -3.158194   1.000000
     79         -3.132201   1.000000
     80         -3.087141   1.000000
     81         -3.065023   1.000000
     82         -3.064177   1.000000
     83         -3.040938   1.000000
     84         -3.011843   1.000000
     85         -2.965719   1.000000
     86         -2.952816   1.000000
     87         -2.934991   1.000000
     88         -2.933738   1.000000
     89         -2.913779   1.000000
     90         -2.913325   1.000000
     91         -2.858402   1.000000
     92         -2.833974   1.000000
     93         -2.801640   1.000000
     94         -2.787729   1.000000
     95         -2.772084   1.000000
     96         -2.767620   1.000000
     97         -2.762957   1.000000
     98         -2.735019   1.000000
     99         -2.702467   1.000000
    100         -2.688523   1.000000
    101         -2.616413   1.000000
    102         -2.562874   1.000000
    103         -2.550490   1.000000
    104         -2.530346   1.000000
    105         -2.519326   1.000000
    106         -2.504234   1.000000
    107         -2.497962   1.000000
    108         -2.491648   1.000000
    109         -2.447531   1.000000
    110         -2.433656   1.000000
    111         -2.431082   1.000000
    112         -2.422996   1.000000
    113         -2.175224   1.000000
    114         -2.072371   1.000000
    115         -2.034971   1.000000
    116         -2.006868   1.000000
    117         -2.000795   1.000000
    118         -1.993379   1.000000
    119         -1.983275   1.000000
    120         -1.946154   1.000000
    121         -1.937131   1.000000
    122         -1.905662   1.000000
    123         -1.813949   1.000000
    124         -1.785270   1.000000
    125         -1.710419   1.000000
    126         -1.659197   1.000000
    127         -1.655565   1.000000
    128         -1.600253   1.000000
    129         -1.595735   1.000000
    130         -1.574608   1.000000
    131         -1.548326   1.000000
    132         -1.535430   1.000000
    133         -1.533586   1.000000
    134         -1.448114   1.000000
    135         -1.398359   1.000000
    136         -1.394179   1.000000
    137         -1.379459   1.000000
    138         -1.378208   1.000000
    139         -1.213208   1.000000
    140         -1.203262   1.000000
    141         -1.177086   1.000000
    142         -1.156176   1.000000
    143         -1.151840   1.000000
    144         -1.145113   1.000000
    145         -1.126049   1.000000
    146         -1.052778   1.000000
    147         -1.036854   1.000000
    148         -1.011718   1.000000
    149         -0.992065   1.000000
    150         -0.976918   1.000000
    151         -0.934955   1.000000
    152         -0.922022   1.000000
    153         -0.907060   1.000000
    154         -0.903952   1.000000
    155         -0.818844   1.000000
    156         -0.799710   1.000000
    157         -0.766091   1.000000
    158         -0.762248   1.000000
    159         -0.720506   1.000000
    160         -0.672065   1.000000
    161         -0.664544   1.000000
    162         -0.617152   1.000000
    163         -0.608373   1.000000
    164         -0.604301   1.000000
    165         -0.568988   1.000000
    166         -0.545019   1.000000
    167         -0.484268   1.000000
    168         -0.475620   1.000000
    169         -0.408235   1.000013
    170         -0.407944   1.000014
    171         -0.391500   1.000037
    172         -0.378879   1.000077
    173         -0.359017   1.000228
    174         -0.349867   1.000365
    175         -0.349095   1.000379
    176         -0.338378   1.000640
    177         -0.326390   1.001114
    178         -0.278219   1.007320
    179         -0.274930   1.008149
    180         -0.130381   0.895605
    181         -0.129122   0.889218
    182         -0.098895   0.691923
    183         -0.083582   0.567955
    184         -0.067159   0.429487
    185         -0.064929   0.410899
    186         -0.036452   0.195670
    187         -0.014596   0.075870
    188         -0.001214   0.025976
    189          0.008682  -0.000037
    190          0.089438  -0.020791
    191          0.100399  -0.016047
    192          0.126613  -0.007457
    193          0.187111  -0.000646
    194          0.292238  -0.000001
    195          0.305813  -0.000000
    196          0.311472  -0.000000
    197          0.350058  -0.000000
    198          0.710736  -0.000000
    199          0.747222  -0.000000
    200          1.265528  -0.000000
    201          1.454168  -0.000000
    202          1.476629  -0.000000
    203          1.596671  -0.000000
    204          2.385131  -0.000000
    205          2.856461   0.000000
    206          2.905970   0.000000
    207          3.552743   0.000000
    208          3.650268   0.000000
    209          3.677703   0.000000
    210          3.733705   0.000000
    211          3.957462   0.000000
    212          4.436952   0.000000
    213          4.604541   0.000000
    214          4.738072   0.000000
    215          4.972874   0.000000
    216          4.992880   0.000000
    217          5.004562   0.000000
    218          5.223270   0.000000
    219          5.344360   0.000000
    220          5.460196   0.000000
    221          5.612717   0.000000
    222          5.699209   0.000000
    223          5.865590   0.000000
    224          5.888014   0.000000
    225          6.071323   0.000000
    226          6.238070   0.000000
    227          6.283966   0.000000
    228          6.326939   0.000000
    229          6.354309   0.000000
    230          6.580479   0.000000
    231          6.696487   0.000000
    232          6.747336   0.000000
    233          6.782086   0.000000
    234          6.791875   0.000000
    235          6.938169   0.000000
    236          7.050889   0.000000
    237          7.234992   0.000000
    238          7.462013   0.000000
    239          7.594541   0.000000
    240          7.612157   0.000000
 
  0.1276756E-14  0.2000000E+00  0.1276756E-14  0.8000000E-01
      1         -8.756708   1.000000
      2         -7.723378   1.000000
      3         -7.073245   1.000000
      4         -6.923180   1.000000
      5         -6.561348   1.000000
      6         -6.547098   1.000000
      7         -6.360148   1.000000
      8         -6.263436   1.000000
      9         -6.223467   1.000000
     10         -6.211528   1.000000
     11         -6.110616   1.000000
     12         -6.000634   1.000000
     13         -5.964277   1.000000
     14         -5.844177   1.000000
     15         -5.838668   1.000000
     16         -5.826736   1.000000
     17         -5.745218   1.000000
     18         -5.535778   1.000000
     19         -5.420849   1.000000
     20         -5.417555   1.000000
     21         -5.409790   1.000000
     22         -5.379424   1.000000
     23         -5.337356   1.000000
     24         -5.304079   1.000000
     25         -5.278248   1.000000
     26         -5.235912   1.000000
     27         -5.219282   1.000000
     28         -5.208561   1.000000
     29         -5.149063   1.000000
     30         -5.115902   1.000000
     31         -5.108423   1.000000
     32         -5.035877   1.000000
     33         -5.020665   1.000000
     34         -5.011474   1.000000
     35         -5.008096   1.000000
     36         -4.862810   1.000000
     37         -4.815280   1.000000
     38         -4.781640   1.000000
     39         -4.768045   1.000000
     40         -4.753346   1.000000
     41         -4.578202   1.000000
     42         -4.498525   1.000000
     43         -4.492807   1.000000
     44         -4.443275   1.000000
     45         -4.414664   1.000000
     46         -4.401042   1.000000
     47         -4.388198   1.000000
     48         -4.291772   1.000000
     49         -4.213736   1.000000
     50         -4.149133   1.000000
     51         -4.126798   1.000000
     52         -4.112505   1.000000
     53         -4.068507   1.000000
     54         -4.047478   1.000000
     55         -3.988512   1.000000
     56         -3.832799   1.000000
     57         -3.735384   1.000000
     58         -3.727664   1.000000
     59         -3.686976   1.000000
     60         -3.672245   1.000000
     61         -3.641079   1.000000
     62         -3.587541   1.000000
     63         -3.561997   1.000000
     64         -3.556839   1.000000
     65         -3.527890   1.000000
     66         -3.524377   1.000000
     67         -3.452530   1.000000
     68         -3.438953   1.000000
     69         -3.406693   1.000000
     70         -3.375603   1.000000
     71         -3.363498   1.000000
     72         -3.317481   1.000000
     73         -3.267860   1.000000
     74         -3.258979   1.000000
     75         -3.253741   1.000000
     76         -3.179978   1.000000
     77         -3.177401   1.000000
     78         -3.158797   1.000000