       N       E                     dE             d eps       ncg     rms          rms(c)
DAV:   1    -0.104599892144E+03   -0.10460E+03   -0.90774E-02  7008   0.504E-01    0.120E+00
RMM:   2    -0.105577248799E+03   -0.97736E+00   -0.18621E-01  6736   0.651E-01    0.112E+01
RMM:   3    -0.104615162204E+03    0.96209E+00   -0.10910E-01  6762   0.567E-01    0.152E+00
RMM:   4    -0.104588265008E+03    0.26897E-01   -0.14780E-02  6772   0.203E-01    0.296E-01
RMM:   5    -0.104588020626E+03    0.24438E-03   -0.22669E-03  6954   0.746E-02    0.200E-01
RMM:   6    -0.104587689891E+03    0.33074E-03   -0.54043E-04  7024   0.366E-02    0.808E-02
RMM:   7    -0.104587691378E+03   -0.14874E-05   -0.15742E-04  7014   0.189E-02    0.749E-02
RMM:   8    -0.104587671579E+03    0.19799E-04   -0.57769E-05  6090   0.122E-02    0.491E-02
RMM:   9    -0.104587649060E+03    0.22519E-04   -0.24166E-05  4832   0.783E-03    0.218E-02
RMM:  10    -0.104587640860E+03    0.82000E-05   -0.81053E-06  4175   0.447E-03
   1 F= -.10458764E+03 E0= -.10455524E+03  d E =-.971978E-01
