 vasp.6.4.2 20Jul23 (build Mar 01 2024 16:46:03) complex                        
  
 executed on             LinuxIFC date 2025.01.15  10:58:53
 running   48 mpi-ranks, on    1 nodes
 distrk:  each k-point on   48 cores,    1 groups
 distr:  one band on NCORE=   1 cores,   48 groups


--------------------------------------------------------------------------------------------------------


 INCAR:
   ENCUT = 680.290000
   SIGMA = 0.100000
   ZAB_VDW = -1.886700
   EDIFF = 1.00e-05
   ALGO = Fast
   GGA = BF
   IBRION = -1
   ISMEAR = 1
   ISPIN = 1
   ISYM = 0
   LUSE_VDW = .TRUE.
   LREAL = Auto

 POTCAR:    PAW_PBE Pt 04Feb2005                  
 POTCAR:    PAW_PBE H 15Jun2001                   
 -----------------------------------------------------------------------------
|                                                                             |
|           W    W    AA    RRRRR   N    N  II  N    N   GGGG   !!!           |
|           W    W   A  A   R    R  NN   N  II  NN   N  G    G  !!!           |
|           W    W  A    A  R    R  N N  N  II  N N  N  G       !!!           |
|           W WW W  AAAAAA  RRRRR   N  N N  II  N  N N  G  GGG   !            |
|           WW  WW  A    A  R   R   N   NN  II  N   NN  G    G                |
|           W    W  A    A  R    R  N    N  II  N    N   GGGG   !!!           |
|                                                                             |
|     For optimal performance we recommend to set                             |
|       NCORE = 2 up to number-of-cores-per-socket                            |
|     NCORE specifies how many cores store one orbital (NPAR=cpu/NCORE).      |
|     This setting can greatly improve the performance of VASP for DFT.       |
|     The default, NCORE=1 might be grossly inefficient on modern             |
|     multi-core architectures or massively parallel machines. Do your        |
|     own testing! More info at https://www.vasp.at/wiki/index.php/NCORE      |
|     Unfortunately you need to use the default for GW and RPA                |
|     calculations (for HF NCORE is supported but not extensively tested      |
|     yet).                                                                   |
|                                                                             |
 -----------------------------------------------------------------------------

 -----------------------------------------------------------------------------
|                                                                             |
|               ----> ADVICE to this user running VASP <----                  |
|                                                                             |
|     You have switched on vdW-DFT.                                           |
|     This routine was written and supplied by Jiri Klimes. We recommend      |
|     that you carefully read and cite the following publications:            |
|       J. Klimes, D.R. Bowler, A. Michelides                                 |
|          J. Phys.: Cond Matt. 22 022201 (2010)                              |
|       J. Klimes, D.R. Bowler, A. Michelides                                 |
|          Phys. Rev. B. 83, 195131 (2011)                                    |
|     and references therein.                                                 |
|                                                                             |
 -----------------------------------------------------------------------------

 POTCAR:    PAW_PBE Pt 04Feb2005                  
   SHA256 =  3ed90460adef76debcff1cfb73ee1349b515b1a3db03439735b44de3a8db7dc8 Pt/POTCAR             
   COPYR  = (c) Copyright 04Feb2005 Georg Kresse                                                    
   COPYR  = This file is part of the software VASP. Any use, copying, and all other rights are regul
   COPYR  = If you do not have a valid VASP license, you may not use, copy or distribute this file. 
   VRHFIN =Pt: s1d9                                                                                 
   LEXCH  = PE                                                                                      
   EATOM  =   729.1176 eV,   53.5886 Ry                                                             
                                                                                                    
   TITEL  = PAW_PBE Pt 04Feb2005                                                                    
   LULTRA =        F    use ultrasoft PP ?                                                          
   IUNSCR =        1    unscreen: 0-lin 1-nonlin 2-no                                               
   RPACOR =    2.330    partial core radius                                                         
   POMASS =  195.080; ZVAL   =   10.000    mass and valenz                                          
   RCORE  =    2.600    outmost cutoff radius                                                       
   RWIGS  =    2.750; RWIGS  =    1.455    wigner-seitz radius (au A)                               
   ENMAX  =  230.283; ENMIN  =  172.712 eV                                                          
   ICORE  =        3    local potential                                                             
   LCOR   =        T    correct aug charges                                                         
   LPAW   =        T    paw PP                                                                      
   EAUG   =  358.966                                                                                
   DEXC   =    0.000                                                                                
   RMAX   =    2.658    core radius for proj-oper                                                   
   RAUG   =    1.300    factor for augmentation sphere                                              
   RDEP   =    2.761    radius for radial grids                                                     
   RDEPT  =    2.203    core radius for aug-charge                                                  
                                                                                                    
   Atomic configuration                                                                             
   16 entries                                                                                       
     n  l   j            E        occ.                                                              
     1  0  0.50    -78401.1885   2.0000                                                             
     2  0  0.50    -13770.7750   2.0000                                                             
     2  1  1.50    -11931.0468   6.0000                                                             
     3  0  0.50     -3234.7234   2.0000                                                             
     3  1  1.50     -2699.2216   6.0000                                                             
     3  2  2.50     -2119.5714  10.0000                                                             
     4  0  0.50      -695.1528   2.0000                                                             
     4  1  1.50      -519.6034   6.0000                                                             
     4  2  2.50      -306.6786  10.0000                                                             
     4  3  3.50       -70.1041  14.0000                                                             
     5  0  0.50      -101.7747   2.0000                                                             
     5  1  1.50       -55.9873   6.0000                                                             
     5  2  2.50        -6.1423   9.0000                                                             
     6  0  0.50        -5.6573   1.0000                                                             
     6  1  1.50        -6.8029   0.0000                                                             
     5  3  2.50        -1.3606   0.0000                                                             
   Description                                                                                      
     l       E           TYP  RCUT    TYP  RCUT                                                     
     2     -6.1423404     23  2.500                                                                 
     2     -7.5029230     23  2.500                                                                 
     0     -5.6573207     23  2.500                                                                 
     0      0.7416693     23  2.500                                                                 
     1     -2.7211652     23  2.600                                                                 
     1     20.4087390     23  2.600                                                                 
     3     -1.3605826     23  2.500                                                                 
  local pseudopotential read in
  partial core-charges read in
  partial kinetic energy density read in
  atomic valenz-charges read in
  non local Contribution for L=           2  read in
    real space projection operators read in
  non local Contribution for L=           2  read in
    real space projection operators read in
  non local Contribution for L=           0  read in
    real space projection operators read in
  non local Contribution for L=           0  read in
    real space projection operators read in
  non local Contribution for L=           1  read in
    real space projection operators read in
  non local Contribution for L=           1  read in
    real space projection operators read in
    PAW grid and wavefunctions read in
 
   number of l-projection  operators is LMAX  =           6
   number of lm-projection operators is LMMAX =          18
 
 POTCAR:    PAW_PBE H 15Jun2001                   
   SHA256 =  030f79b5d3ab3cf0e668861823c8fb652ff669f3e15e46930bd03bfd63a607b6 H/POTCAR              
   COPYR  = (c) Copyright 15Jun2001 Georg Kresse                                                    
   COPYR  = This file is part of the software VASP. Any use, copying, and all other rights are regul
   COPYR  = If you do not have a valid VASP license, you may not use, copy or distribute this file. 
   VRHFIN =H: ultrasoft test                                                                        
   LEXCH  = PE                                                                                      
   EATOM  =    12.4884 eV,    0.9179 Ry                                                             
                                                                                                    
   TITEL  = PAW_PBE H 15Jun2001                                                                     
   LULTRA =        F    use ultrasoft PP ?                                                          
   IUNSCR =        0    unscreen: 0-lin 1-nonlin 2-no                                               
   RPACOR =    0.000    partial core radius                                                         
   POMASS =    1.000; ZVAL   =    1.000    mass and valenz                                          
   RCORE  =    1.100    outmost cutoff radius                                                       
   RWIGS  =    0.700; RWIGS  =    0.370    wigner-seitz radius (au A)                               
   ENMAX  =  250.000; ENMIN  =  200.000 eV                                                          
   RCLOC  =    0.701    cutoff for local pot                                                        
   LCOR   =        T    correct aug charges                                                         
   LPAW   =        T    paw PP                                                                      
   EAUG   =  400.000                                                                                
   RMAX   =    1.123    core radius for proj-oper                                                   
   RAUG   =    1.200    factor for augmentation sphere                                              
   RDEP   =    1.112    radius for radial grids                                                     
   RDEPT  =    0.926    core radius for aug-charge                                                  
                                                                                                    
   Atomic configuration                                                                             
    2 entries                                                                                       
     n  l   j            E        occ.                                                              
     1  0  0.50        -6.4927   1.0000                                                             
     2  1  0.50        -3.4015   0.0000                                                             
   Description                                                                                      
     l       E           TYP  RCUT    TYP  RCUT                                                     
     0     -6.4927494     23  1.100                                                                 
     0      6.8029130     23  1.100                                                                 
     1     -4.0817478     23  1.100                                                                 
  local pseudopotential read in
  atomic valenz-charges read in
  non local Contribution for L=           0  read in
    real space projection operators read in
  non local Contribution for L=           0  read in
    real space projection operators read in
  non local Contribution for L=           1  read in
    real space projection operators read in
    PAW grid and wavefunctions read in
 
   number of l-projection  operators is LMAX  =           3
   number of lm-projection operators is LMMAX =           5
 
 Optimization of the real space projectors (new method)

 maximal supplied QI-value         = 14.36
 optimisation between [QCUT,QGAM] = [ 13.36, 26.71] = [ 49.96,199.83] Ry 
 Optimized for a Real-space Cutoff    1.42 Angstroem

   l    n(q)    QCUT    max X(q) W(low)/X(q) W(high)/X(q)  e(spline) 
   2     11    13.357    66.195    0.16E-03    0.81E-04    0.36E-06
   2     11    13.357    64.643    0.16E-03    0.82E-04    0.36E-06
   0     11    13.357    95.520    0.60E-04    0.72E-05    0.55E-06
   0     11    13.357    63.403    0.58E-04    0.70E-05    0.53E-06
   1     11    13.357    19.961    0.21E-03    0.56E-03    0.21E-05
   1     11    13.357    13.289    0.17E-03    0.46E-03    0.17E-05
 Optimization of the real space projectors (new method)

 maximal supplied QI-value         = 34.20
 optimisation between [QCUT,QGAM] = [ 13.34, 26.68] = [ 49.83,199.32] Ry 
 Optimized for a Real-space Cutoff    0.91 Angstroem

   l    n(q)    QCUT    max X(q) W(low)/X(q) W(high)/X(q)  e(spline) 
   0      7    13.340    19.460    0.48E-03    0.16E-03    0.16E-06
   0      7    13.340    12.209    0.46E-03    0.14E-03    0.15E-06
   1      7    13.340     4.655    0.46E-03    0.87E-03    0.11E-06
 -----------------------------------------------------------------------------
|                                                                             |
|               ----> ADVICE to this user running VASP <----                  |
|                                                                             |
|     You enforced a specific xc type in the INCAR file but a different       |
|     type was found in the POTCAR file.                                      |
|     I HOPE YOU KNOW WHAT YOU ARE DOING!                                     |
|                                                                             |
 -----------------------------------------------------------------------------

  PAW_PBE Pt 04Feb2005                  :
 energy of atom  1       EATOM= -729.1176
 kinetic energy error for atom=    0.0010 (will be added to EATOM!!)
  PAW_PBE H 15Jun2001                   :
 energy of atom  2       EATOM=  -12.4884
 kinetic energy error for atom=    0.0002 (will be added to EATOM!!)
 
 
 POSCAR: Pt H
  positions in cartesian coordinates
  No initial velocities read in
 exchange correlation table for  LEXCH =       17
   RHO(1)=    0.500       N(1)  =     2000
   RHO(2)=  100.500       N(2)  =     4000
 


--------------------------------------------------------------------------------------------------------


 ion  position               nearest neighbor table
   1  0.000  0.000  0.340-   3 2.81   7 2.81   6 2.82   8 2.82  12 2.82  16 2.82   2 2.83   4 2.83
                            10 2.83
   2  0.334  0.000  0.340-   8 2.81   9 2.82  17 2.82   1 2.83   3 2.83   4 2.83   5 2.83  10 2.83
                            11 2.83
   3  0.668  0.000  0.340-   7 2.81   1 2.81   9 2.81  18 2.82   5 2.83   2 2.83   6 2.83  11 2.83
                            12 2.83
   4  0.000  0.334  0.340-   6 2.81   9 2.82  15 2.82   5 2.83   2 2.83   1 2.83   7 2.83  10 2.83
                            13 2.83
   5  0.334  0.334  0.340-   3 2.83   4 2.83   6 2.83   7 2.83   2 2.83   8 2.83  11 2.83  13 2.83
                            14 2.83
   6  0.668  0.334  0.340-   4 2.81   1 2.82   5 2.83   8 2.83   3 2.83   9 2.83  12 2.83  14 2.83
                            15 2.83
   7  0.000  0.668  0.340-   3 2.81   1 2.81   9 2.81  18 2.82   5 2.83   8 2.83   4 2.83  13 2.83
                            16 2.83
   8  0.334  0.668  0.340-   2 2.81   1 2.82   6 2.83   7 2.83   9 2.83   5 2.83  14 2.83  16 2.83
                            17 2.83
   9  0.668  0.668  0.340-   3 2.81   7 2.81   4 2.82   2 2.82   8 2.83   6 2.83  15 2.83  17 2.83
                            18 2.83
  10  0.111  0.111  0.433-  12 2.81  16 2.81  26 2.81  19 2.81  15 2.82  17 2.82  11 2.83  13 2.83
                             2 2.83   4 2.83   1 2.83  20 2.83
  11  0.445  0.111  0.433-  27 2.81  17 2.81  21 2.81  18 2.82  20 2.82  13 2.83  10 2.83  12 2.83
                            14 2.83   5 2.83   3 2.83   2 2.83
  12  0.779  0.111  0.433-  21 2.80  25 2.80  16 2.81  10 2.81  18 2.81   1 2.82  11 2.83  14 2.83
                            15 2.83   6 2.83   3 2.83  19 2.83
  13  0.111  0.445  0.433-  22 2.81  15 2.81  23 2.81  18 2.82  20 2.82  14 2.83  11 2.83  10 2.83
                            16 2.83   7 2.83   5 2.83   4 2.83
  14  0.445  0.445  0.433-  21 2.80  23 2.80  24 2.81  16 2.83  12 2.83  13 2.83  15 2.83  17 2.83
                            11 2.83   8 2.83   6 2.83   5 2.83
  15  0.779  0.445  0.433-  24 2.80  13 2.81  19 2.82  22 2.82  10 2.82   4 2.82  17 2.83  14 2.83
                            18 2.83  12 2.83   9 2.83   6 2.83
  16  0.111  0.779  0.433-  23 2.80  25 2.80  12 2.81  10 2.81  18 2.81   1 2.82  17 2.83  14 2.83
                            13 2.83   8 2.83   7 2.83  26 2.83
  17  0.445  0.779  0.433-  24 2.80  11 2.81  26 2.82  27 2.82  10 2.82   2 2.82  15 2.83  16 2.83
                            18 2.83  14 2.83   9 2.83   8 2.83
  18  0.779  0.779  0.433-  12 2.81  16 2.81  25 2.82  22 2.82  27 2.82  11 2.82  13 2.82   7 2.82
                             3 2.82  17 2.83  15 2.83   9 2.83
  19  0.891  0.224  0.525-  10 2.81  20 2.81  22 2.81  15 2.82  26 2.82  25 2.82  24 2.83  21 2.83
                            33 2.83  12 2.83  28 2.86  31 2.89
  20  0.224  0.224  0.525-  26 2.81  19 2.81  27 2.82  22 2.82  13 2.82  11 2.82  21 2.83  23 2.83
                            10 2.83  32 2.84  29 2.88  31 2.88
  21  0.558  0.224  0.524-  14 2.80  12 2.80  11 2.81  25 2.82  27 2.82  24 2.83  19 2.83  23 2.83
                            20 2.83  32 2.83  30 2.85  33 2.85
  22  0.891  0.556  0.525-  13 2.81  19 2.81  20 2.82  18 2.82  15 2.82  24 2.82  23 2.82  25 2.83
                            36 2.83  27 2.84  34 2.85  31 2.85
  23  0.224  0.558  0.524-  14 2.80  16 2.80  13 2.81  25 2.82  22 2.82  24 2.83  26 2.83  21 2.83
                            20 2.83  32 2.83  34 2.85  35 2.85
  24  0.558  0.558  0.524-  17 2.80  15 2.80  14 2.81  27 2.82  22 2.82  23 2.83  26 2.83  21 2.83
                            19 2.83  33 2.84  35 2.84  36 2.85
  25  0.891  0.891  0.525-  12 2.80  16 2.80  18 2.82  23 2.82  26 2.82  19 2.82  21 2.82  22 2.83
                            27 2.83  34 2.84  30 2.84  28 2.85
  26  0.224  0.891  0.525-  10 2.81  27 2.81  20 2.81  19 2.82  17 2.82  25 2.82  24 2.83  23 2.83
                            35 2.83  16 2.83  28 2.86  29 2.89
  27  0.556  0.891  0.525-  11 2.81  26 2.81  20 2.82  18 2.82  17 2.82  24 2.82  21 2.82  25 2.83
                            36 2.83  22 2.84  30 2.85  29 2.85
  28  0.000  0.000  0.619-  37 2.06  34 2.79  30 2.79  35 2.83  33 2.83  25 2.85  19 2.86  26 2.86
                            29 2.89  31 2.89
  29  0.341  0.000  0.620-  37 1.81  36 2.79  30 2.79  35 2.83  32 2.84  27 2.85  20 2.88  28 2.89
                            26 2.89  31 2.89
  30  0.669  0.003  0.618-  28 2.79  29 2.79  33 2.82  32 2.82  34 2.82  36 2.83  25 2.84  21 2.85
                            27 2.85
  31  1.000  0.341  0.620-  37 1.81  36 2.79  34 2.79  33 2.83  32 2.84  22 2.85  20 2.88  28 2.89
                            19 2.89  29 2.89
  32  0.337  0.338  0.617-  33 2.79  35 2.79  34 2.82  30 2.82  23 2.83  21 2.83  20 2.84  31 2.84
                            29 2.84
  33  0.668  0.337  0.618-  32 2.79  35 2.80  30 2.82  36 2.82  19 2.83  31 2.83  28 2.83  24 2.84
                            21 2.85
  34  0.003  0.670  0.618-  28 2.79  31 2.79  35 2.82  32 2.82  30 2.82  36 2.83  25 2.84  23 2.85
                            22 2.85
  35  0.337  0.668  0.618-  32 2.79  33 2.80  34 2.82  36 2.82  26 2.83  29 2.83  28 2.83  24 2.84
                            23 2.85
  36  0.669  0.669  0.618-  31 2.79  29 2.79  33 2.82  35 2.82  34 2.83  30 2.83  27 2.83  22 2.83
                            24 2.85
  37  0.126  0.127  0.655-  29 1.81  31 1.81  28 2.06
 

IMPORTANT INFORMATION: All symmetrisations will be switched off!
NOSYMM: (Re-)initialisation of all symmetry stuff for point group C_1.


----------------------------------------------------------------------------------------

                                     Primitive cell                                     

  volume of cell :    1550.4837

  direct lattice vectors                    reciprocal lattice vectors
     8.468310000  0.000000000  0.000000000     0.118087316 -0.068177744  0.000000000
     4.234155000  7.333771587  0.000000000     0.000000000  0.136355488  0.000000000
     0.000000000  0.000000000 24.965661990     0.000000000  0.000000000  0.040055016

  length of vectors
     8.468310000  8.468310000 24.965661990     0.136355488  0.136355488  0.040055016

  position of ions in fractional coordinates (direct lattice)
     0.000000000  0.000000000  0.340467639
     0.334001368  0.000000000  0.340467639
     0.668002736  0.000000000  0.340467639
     1.000000000  0.334001368  0.340467639
     0.334001368  0.334001368  0.340467639
     0.668002736  0.334001368  0.340467639
     1.000000000  0.668002736  0.340467639
     0.334001368  0.668002736  0.340467639
     0.668002736  0.668002736  0.340467639
     0.111333789  0.111333789  0.432970737
     0.445335157  0.111333789  0.432970737
     0.779336525  0.111333789  0.432970737
     0.111333789  0.445335157  0.432970737
     0.445335157  0.445335157  0.432970737
     0.779336525  0.445335157  0.432970737
     0.111333789  0.779336525  0.432970737
     0.445335157  0.779336525  0.432970737
     0.779336525  0.779336525  0.432970737
     0.891313293  0.224099645  0.525236722
     0.223766648  0.223814262  0.525319738
     0.557653711  0.223880721  0.524179034
     0.891269597  0.556445338  0.524952200
     0.223814868  0.557744216  0.524185228
     0.557528618  0.557591578  0.524220207
     0.891087315  0.891131413  0.524786541
     0.224046702  0.891366808  0.525232903
     0.556375092  0.891315565  0.524940031
     0.000192201  0.000344130  0.619230427
     0.341091817  0.000021014  0.620062644
     0.669389170  0.003042084  0.617936745
     0.999878272  0.341256281  0.620071657
     0.337366017  0.337524390  0.617445798
     0.667501168  0.336885599  0.617578565
     0.002908831  0.669538301  0.617949279
     0.336710897  0.667680484  0.617584134
     0.669226538  0.669333696  0.617852564
     0.126472279  0.126567225  0.655414385

  ion indices of the primitive-cell ions
   primitive index   ion index
                 1           1
                 2           2
                 3           3
                 4           4
                 5           5
                 6           6
                 7           7
                 8           8
                 9           9
                10          10
                11          11
                12          12
                13          13
                14          14
                15          15
                16          16
                17          17
                18          18
                19          19
                20          20
                21          21
                22          22
                23          23
                24          24
                25          25
                26          26
                27          27
                28          28
                29          29
                30          30
                31          31
                32          32
                33          33
                34          34
                35          35
                36          36
                37          37

----------------------------------------------------------------------------------------

 
 
 KPOINTS: KPOINTS created by Atomic Simulation Env

Automatic generation of k-mesh.
 Grid dimensions read from file:
 generate k-points for:    5    5    1

 Generating k-lattice:

  Cartesian coordinates                     Fractional coordinates (reciprocal lattice)
     0.023617463 -0.013635549  0.000000000     0.200000000 -0.000000000  0.000000000
     0.000000000  0.027271098  0.000000000     0.000000000  0.200000000  0.000000000
     0.000000000  0.000000000  0.040055016     0.000000000  0.000000000  1.000000000

  Length of vectors
     0.027271098  0.027271098  0.040055016

  Shift w.r.t. Gamma in fractional coordinates (k-lattice)
     0.000000000  0.000000000  0.000000000

 
 Subroutine IBZKPT returns following result:
 ===========================================
 
 Found     13 irreducible k-points:
 
 Following reciprocal coordinates:
            Coordinates               Weight
  0.000000  0.000000  0.000000      1.000000
  0.200000  0.000000  0.000000      2.000000
  0.200000  0.200000  0.000000      2.000000
  0.000000  0.200000  0.000000      2.000000
  0.400000  0.000000  0.000000      2.000000
  0.400000  0.400000  0.000000      2.000000
  0.000000  0.400000  0.000000      2.000000
  0.400000  0.200000  0.000000      2.000000
  0.200000  0.400000  0.000000      2.000000
 -0.200000  0.200000  0.000000      2.000000
 -0.400000  0.200000  0.000000      2.000000
  0.400000 -0.400000  0.000000      2.000000
 -0.200000  0.400000  0.000000      2.000000
 
 Following cartesian coordinates:
            Coordinates               Weight
  0.000000  0.000000  0.000000      1.000000
  0.023617 -0.013636  0.000000      2.000000
  0.023617  0.013636  0.000000      2.000000
  0.000000  0.027271  0.000000      2.000000
  0.047235 -0.027271  0.000000      2.000000
  0.047235  0.027271  0.000000      2.000000
  0.000000  0.054542  0.000000      2.000000
  0.047235  0.000000  0.000000      2.000000
  0.023617  0.040907  0.000000      2.000000
 -0.023617  0.040907  0.000000      2.000000
 -0.047235  0.054542  0.000000      2.000000
  0.047235 -0.081813  0.000000      2.000000
 -0.023617  0.068178  0.000000      2.000000
 


--------------------------------------------------------------------------------------------------------




 Dimension of arrays:
   k-points           NKPTS =     13   k-points in BZ     NKDIM =     13   number of bands    NBANDS=    240
   number of dos      NEDOS =    301   number of ions     NIONS =     37
   non local maximal  LDIM  =      6   non local SUM 2l+1 LMDIM =     18
   total plane-waves  NPLWV = 466560
   max r-space proj   IRMAX =   3679   max aug-charges    IRDMAX=  18423
   dimension x,y,z NGX =    54 NGY =   54 NGZ =  160
   dimension x,y,z NGXF=   108 NGYF=  108 NGZF=  320
   support grid    NGXF=   108 NGYF=  108 NGZF=  320
   ions per type =              36   1
   NGX,Y,Z   is equivalent  to a cutoff of  10.60, 10.60, 10.65 a.u.
   NGXF,Y,Z  is equivalent  to a cutoff of  21.20, 21.20, 21.31 a.u.

 SYSTEM =  unknown system                          
 POSCAR =  Pt H                                    

 Startparameter for this run:
   NWRITE =      2    write-flag & timer
   PREC   = normal    normal or accurate (medium, high low for compatibility)
   ISTART =      1    job   : 0-new  1-cont  2-samecut
   ICHARG =      0    charge: 1-file 2-atom 10-const
   ISPIN  =      1    spin polarized calculation?
   LNONCOLLINEAR =      F non collinear calculations
   LSORBIT =      F    spin-orbit coupling
   INIWAV =      1    electr: 0-lowe 1-rand  2-diag
   LASPH  =      F    aspherical Exc in radial PAW
 Electronic Relaxation 1
   ENCUT  =  680.3 eV  50.00 Ry    7.07 a.u.  18.01 18.01 53.09*2*pi/ulx,y,z
   ENINI  =  680.3     initial cutoff
   ENAUG  =  400.0 eV  augmentation charge cutoff
   NELM   =     60;   NELMIN=  2; NELMDL=  0     # of ELM steps 
   EDIFF  = 0.1E-04   stopping-criterion for ELM
   LREAL  =      T    real-space projection
   NLSPLINE    = F    spline interpolate recip. space projectors
   LCOMPAT=      F    compatible to vasp.4.4
   GGA_COMPAT  = T    GGA compatible to vasp.4.4-vasp.4.6
   LMAXPAW     = -100 max onsite density
   LMAXMIX     =    2 max onsite mixed and CHGCAR
   VOSKOWN=      0    Vosko Wilk Nusair interpolation
   ROPT   =   -0.00050  -0.00050
 Ionic relaxation
   EDIFFG = 0.1E-03   stopping-criterion for IOM
   NSW    =      0    number of steps for IOM
   NBLOCK =      1;   KBLOCK =      1    inner block; outer block 
   IBRION =     -1    ionic relax: 0-MD 1-quasi-New 2-CG
   NFREE  =      0    steps in history (QN), initial steepest desc. (CG)
   ISIF   =      2    stress and relaxation
   IWAVPR =     10    prediction:  0-non 1-charg 2-wave 3-comb
   ISYM   =      0    0-nonsym 1-usesym 2-fastsym
   LCORR  =      T    Harris-Foulkes like correction to forces

   POTIM  = 0.5000    time-step for ionic-motion
   TEIN   =    0.0    initial temperature
   TEBEG  =    0.0;   TEEND  =   0.0 temperature during run
   SMASS  =  -3.00    Nose mass-parameter (am)
   estimated Nose-frequenzy (Omega)   =  0.10E-29 period in steps = 0.13E+47 mass=  -0.164E-26a.u.
   SCALEE = 1.0000    scale energy and forces
   NPACO  =    256;   APACO  = 10.0  distance and # of slots for P.C.
   PSTRESS=    0.0 pullay stress

  Mass of Ions in am
   POMASS = 195.08  1.00
  Ionic Valenz
   ZVAL   =  10.00  1.00
  Atomic Wigner-Seitz radii
   RWIGS  =  -1.00 -1.00
  virtual crystal weights 
   VCA    =   1.00  1.00
   NELECT =     361.0000    total number of electrons
   NUPDOWN=      -1.0000    fix difference up-down

 DOS related values:
   EMIN   =  10.00;   EMAX   =-10.00  energy-range for DOS
   EFERMI =   0.00;   METHOD = LEGACY      
   ISMEAR =     1;   SIGMA  =   0.10  broadening in eV -4-tet -1-fermi 0-gaus

 Electronic relaxation 2 (details)
   IALGO  =     68    algorithm
   LDIAG  =      T    sub-space diagonalisation (order eigenvalues)
   LSUBROT=      F    optimize rotation matrix (better conditioning)
   TURBO    =      0    0=normal 1=particle mesh
   IRESTART =      0    0=no restart 2=restart with 2 vectors
   NREBOOT  =      0    no. of reboots
   NMIN     =      0    reboot dimension
   EREF     =   0.00    reference energy to select bands
   IMIX   =      4    mixing-type and parameters
     AMIX     =   0.40;   BMIX     =  1.00
     AMIX_MAG =   1.60;   BMIX_MAG =  1.00
     AMIN     =   0.10
     WC   =   100.;   INIMIX=   1;  MIXPRE=   1;  MAXMIX= -45

 Intra band minimization:
   WEIMIN = 0.0000     energy-eigenvalue tresh-hold
   EBREAK =  0.10E-07  absolut break condition
   DEPER  =   0.30     relativ break condition  

   TIME   =   0.40     timestep for ELM

  volume/ion in A,a.u.               =      41.90       282.79
  Fermi-wavevector in a.u.,A,eV,Ry     =   1.007136  1.903211 13.800704  1.014323
  Thomas-Fermi vector in A             =   2.139922
 
 Write flags
   LWAVE        =      T    write WAVECAR
   LDOWNSAMPLE  =      F    k-point downsampling of WAVECAR
   LCHARG       =      T    write CHGCAR
   LVTOT        =      F    write LOCPOT, total local potential
   LVHAR        =      F    write LOCPOT, Hartree potential only
   LELF         =      F    write electronic localiz. function (ELF)
   LORBIT       =      0    0 simple, 1 ext, 2 COOP (PROOUT), +10 PAW based schemes


 Dipole corrections
   LMONO  =      F    monopole corrections only (constant potential shift)
   LDIPOL =      F    correct potential (dipole corrections)
   IDIPOL =      0    1-x, 2-y, 3-z, 4-all directions 
   EPSILON=  1.0000000 bulk dielectric constant

 Exchange correlation treatment:
   GGA     =    BF    GGA type
   LEXCH   =    17    internal setting for exchange type
   LIBXC   =     F    Libxc                    
   VOSKOWN =     0    Vosko Wilk Nusair interpolation
   LHFCALC =     F    Hartree Fock is set to
   LHFONE  =     F    Hartree Fock one center treatment
   AEXX    =    0.0000 exact exchange contribution

 vdW DFT:
   LUSE_VDW   =     T    switch on vdW DFT
   IVDW_NL    =     1    kernel type
   LSPIN_VDW  =     F    use spin-polarized vdW DFT
   Zab_VDW    =******    correlation parameter
   PARAM1     =0.1234
   PARAM2     =1.0000
   PARAM3     =0.0000
   -- rVV10 --
   BPARAM     = 6.3000
   CPARAM     = 0.0093

 Linear response parameters
   LEPSILON=     F    determine dielectric tensor
   LRPA    =     F    only Hartree local field effects (RPA)
   LNABLA  =     F    use nabla operator in PAW spheres
   LVEL    =     F    velocity operator in full k-point grid
   CSHIFT  =0.1000    complex shift for real part using Kramers Kronig
   OMEGAMAX=  -1.0    maximum frequency
   DEG_THRESHOLD= 0.2000000E-02 threshold for treating states as degnerate
   RTIME   =   -0.100 relaxation time in fs
  (WPLASMAI=    0.000 imaginary part of plasma frequency in eV, 0.658/RTIME)
   DFIELD  = 0.0000000 0.0000000 0.0000000 field for delta impulse in time
 
  Optional k-point grid parameters
   LKPOINTS_OPT  =     F    use optional k-point grid
   KPOINTS_OPT_MODE=     1    mode for optional k-point grid
 
 Orbital magnetization related:
   ORBITALMAG=     F  switch on orbital magnetization
   LCHIMAG   =     F  perturbation theory with respect to B field
   DQ        =  0.001000  dq finite difference perturbation B field
   LLRAUG    =     F  two centre corrections for induced B field
   LBONE     =     F  B-component reconstruction in AE one-centre
   LVGVCALC  =     T  calculate vGv susceptibility
   LVGVAPPL  =     F  apply vGv susceptibility instead of pGv for G=0

 Random number generation:
   RANDOM_GENERATOR = DEFAULT
   PCG_SEED         = not used


--------------------------------------------------------------------------------------------------------


 Static calculation
 charge density and potential will be updated during run
 non-spin polarized calculation
 RMM-DIIS sequential band-by-band and
  variant of blocked Davidson during initial phase
 perform sub-space diagonalisation
    before iterative eigenvector-optimisation
 modified Broyden-mixing scheme, WC =      100.0
 initial mixing is a Kerker type mixing with AMIX =  0.4000 and BMIX =      1.0000
 Hartree-type preconditioning will be used
 using additional bands           59
 real space projection scheme for non local part
 use partial core corrections
 calculate Harris-corrections to forces 
   (improved forces if not selfconsistent)
 use gradient corrections 
 use of overlap-Matrix (Vanderbilt PP)
 Methfessel and Paxton  Order N= 1 SIGMA  =   0.10


--------------------------------------------------------------------------------------------------------


  energy-cutoff  :      680.29
  volume of cell :     1550.48
      direct lattice vectors                 reciprocal lattice vectors
     8.468310000  0.000000000  0.000000000     0.118087316 -0.068177744  0.000000000
     4.234155000  7.333771587  0.000000000     0.000000000  0.136355488  0.000000000
     0.000000000  0.000000000 24.965661990     0.000000000  0.000000000  0.040055016

  length of vectors
     8.468310000  8.468310000 24.965661990     0.136355488  0.136355488  0.040055016


 
 old parameters found on file WAVECAR:
  energy-cutoff  :      680.29
  volume of cell :     1550.48
      direct lattice vectors                 reciprocal lattice vectors
     8.468310000  0.000000000  0.000000000     0.118087316 -0.068177744  0.000000000
     4.234155000  7.333771587  0.000000000     0.000000000  0.136355488  0.000000000
     0.000000000  0.000000000 24.965661990     0.000000000  0.000000000  0.040055016

  length of vectors

 
 k-points in units of 2pi/SCALE and weight: KPOINTS created by Atomic Simulation Env
   0.00000000  0.00000000  0.00000000       0.040
   0.02361746 -0.01363555  0.00000000       0.080
   0.02361746  0.01363555  0.00000000       0.080
   0.00000000  0.02727110  0.00000000       0.080
   0.04723493 -0.02727110  0.00000000       0.080
   0.04723493  0.02727110  0.00000000       0.080
   0.00000000  0.05454220  0.00000000       0.080
   0.04723493  0.00000000  0.00000000       0.080
   0.02361746  0.04090665  0.00000000       0.080
  -0.02361746  0.04090665  0.00000000       0.080
  -0.04723493  0.05454220  0.00000000       0.080
   0.04723493 -0.08181329  0.00000000       0.080
  -0.02361746  0.06817774  0.00000000       0.080
 
 k-points in reciprocal lattice and weights: KPOINTS created by Atomic Simulation Env
   0.00000000  0.00000000  0.00000000       0.040
   0.20000000  0.00000000  0.00000000       0.080
   0.20000000  0.20000000  0.00000000       0.080
   0.00000000  0.20000000  0.00000000       0.080
   0.40000000  0.00000000  0.00000000       0.080
   0.40000000  0.40000000  0.00000000       0.080
   0.00000000  0.40000000  0.00000000       0.080
   0.40000000  0.20000000  0.00000000       0.080
   0.20000000  0.40000000  0.00000000       0.080
  -0.20000000  0.20000000  0.00000000       0.080
  -0.40000000  0.20000000  0.00000000       0.080
   0.40000000 -0.40000000  0.00000000       0.080
  -0.20000000  0.40000000  0.00000000       0.080
 
 position of ions in fractional coordinates (direct lattice) 
   0.00000000  0.00000000  0.34046764
   0.33400137  0.00000000  0.34046764
   0.66800274  0.00000000  0.34046764
   0.00000000  0.33400137  0.34046764
   0.33400137  0.33400137  0.34046764
   0.66800274  0.33400137  0.34046764
   0.00000000  0.66800274  0.34046764
   0.33400137  0.66800274  0.34046764
   0.66800274  0.66800274  0.34046764
   0.11133379  0.11133379  0.43297074
   0.44533516  0.11133379  0.43297074
   0.77933653  0.11133379  0.43297074
   0.11133379  0.44533516  0.43297074
   0.44533516  0.44533516  0.43297074
   0.77933653  0.44533516  0.43297074
   0.11133379  0.77933653  0.43297074
   0.44533516  0.77933653  0.43297074
   0.77933653  0.77933653  0.43297074
   0.89131329  0.22409965  0.52523672
   0.22376665  0.22381426  0.52531974
   0.55765371  0.22388072  0.52417903
   0.89126960  0.55644534  0.52495220
   0.22381487  0.55774422  0.52418523
   0.55752862  0.55759158  0.52422021
   0.89108732  0.89113141  0.52478654
   0.22404670  0.89136681  0.52523290
   0.55637509  0.89131557  0.52494003
   0.00019220  0.00034413  0.61923043
   0.34109182  0.00002101  0.62006264
   0.66938917  0.00304208  0.61793675
   0.99987827  0.34125628  0.62007166
   0.33736602  0.33752439  0.61744580
   0.66750117  0.33688560  0.61757857
   0.00290883  0.66953830  0.61794928
   0.33671090  0.66768048  0.61758413
   0.66922654  0.66933370  0.61785256
   0.12647228  0.12656722  0.65541438
 
 position of ions in cartesian coordinates  (Angst):
   0.00000000  0.00000000  8.50000000
   2.82842712  0.00000000  8.50000000
   5.65685425  0.00000000  8.50000000
   1.41421356  2.44948974  8.50000000
   4.24264069  2.44948974  8.50000000
   7.07106781  2.44948974  8.50000000
   2.82842712  4.89897949  8.50000000
   5.65685425  4.89897949  8.50000000
   8.48528137  4.89897949  8.50000000
   1.41421356  0.81649658 10.80940108
   4.24264069  0.81649658 10.80940108
   7.07106781  0.81649658 10.80940108
   2.82842712  3.26598632 10.80940108
   5.65685425  3.26598632 10.80940108
   8.48528137  3.26598632 10.80940108
   4.24264069  5.71547607 10.80940108
   7.07106781  5.71547607 10.80940108
   9.89949494  5.71547607 10.80940108
   8.49678990  1.64349561 13.11288246
   2.84258962  1.64140268 13.11495501
   5.67033017  1.64189007 13.08647658
   9.90362305  4.08084301 13.10577920
   4.25690915  4.09036869 13.08663123
   7.08225434  4.08924927 13.08750449
  11.31919215  6.53535423 13.10164340
   5.67148215  6.53708057 13.11278713
   8.48552501  6.53670477 13.10547538
   0.00308472  0.00252377 15.45949754
   2.88856022  0.00015412 15.48027439
   5.68147565  0.02230995 15.42719991
   9.91221116  2.50269562 15.48049939
   4.28605060  2.47532678 15.41494309
   7.07903266  2.47064203 15.41825771
   2.85956183  4.91024097 15.42751283
   5.67843491  4.89661616 15.41839673
   8.50128040  4.90874044 15.42509827
   1.60691171  0.92821512 16.36285399
 


--------------------------------------------------------------------------------------------------------


 k-point   1 :   0.0000 0.0000 0.0000  plane waves:   62399
 k-point   2 :   0.2000 0.0000 0.0000  plane waves:   62407
 k-point   3 :   0.2000 0.2000 0.0000  plane waves:   62407
 k-point   4 :   0.0000 0.2000 0.0000  plane waves:   62407
 k-point   5 :   0.4000 0.0000 0.0000  plane waves:   62451
 k-point   6 :   0.4000 0.4000 0.0000  plane waves:   62451
 k-point   7 :   0.0000 0.4000 0.0000  plane waves:   62451
 k-point   8 :   0.4000 0.2000 0.0000  plane waves:   62510
 k-point   9 :   0.2000 0.4000 0.0000  plane waves:   62510
 k-point  10 :  -0.2000 0.2000 0.0000  plane waves:   62510
 k-point  11 :  -0.4000 0.2000 0.0000  plane waves:   62498
 k-point  12 :   0.4000-0.4000 0.0000  plane waves:   62498
 k-point  13 :  -0.2000 0.4000 0.0000  plane waves:   62498

 maximum and minimum number of plane-waves per node :     62510    62399

 maximum number of plane-waves:     62510
 maximum index in each direction: 
   IXMAX=   18   IYMAX=   18   IZMAX=   53
   IXMIN=  -18   IYMIN=  -18   IZMIN=  -53


 serial   3D FFT for wavefunctions
 parallel 3D FFT for charge:
    minimum data exchange during FFTs selected (reduces bandwidth)


 total amount of memory used by VASP MPI-rank0   148542. kBytes
=======================================================================

   base      :      30000. kBytes
   nonlr-proj:      22469. kBytes
   fftplans  :       5213. kBytes
   grid      :      24541. kBytes
   one-center:        575. kBytes
   wavefun   :      65744. kBytes
 
     INWAV:  cpu time      7.3471: real time     12.5754
 Broyden mixing: mesh for mixing (old mesh)
   NGX = 37   NGY = 37   NGZ =107
  (NGX  =108   NGY  =108   NGZ  =320)
  gives a total of 146483 points

 charge density for first step will be calculated from the start-wavefunctions


--------------------------------------------------------------------------------------------------------


 Maximum index for non-local projection operator         3550
 Maximum index for augmentation-charges         1172 (set IRDMAX)


--------------------------------------------------------------------------------------------------------


 initial charge from wavefunction
 First call to EWALD:  gamma=   0.153
 Maximum number of real-space cells 4x 4x 2
 Maximum number of reciprocal cells 2x 2x 5

    FEWALD:  cpu time      0.0046: real time      0.0046


--------------------------------------- Ionic step        1  -------------------------------------------




--------------------------------------- Iteration      1(   1)  ---------------------------------------


vdW kernel read from vdw_kernel.bindat
  0.0000  0.2424  0.5071  0.7962  1.1119  1.4567  1.8333  2.2446  2.6937  3.1842
  3.7199  4.3049  4.9438  5.6415  6.4036  7.2358  8.1446  9.1372 10.2212 11.4050
 12.6979 14.1099 15.6519 17.3360 19.1751 21.1837 23.3773 25.7729 28.3892 31.2465
 34.3669 37.7748 41.4965 45.5611 50.0000
 
    POTLOK:  cpu time      2.8305: real time      2.8562
    SETDIJ:  cpu time      0.0056: real time      0.0056
     EDDAV:  cpu time     19.6589: real time     20.0430
       DOS:  cpu time      0.0087: real time      0.0087
    CHARGE:  cpu time      0.7523: real time      0.7580
    MIXING:  cpu time      0.0033: real time      0.0033
    --------------------------------------------
      LOOP:  cpu time     23.2592: real time     23.6750

 eigenvalue-minimisations  :  7008
 total energy-change (2. order) :-0.1045999E+03  (-0.9077360E-02)
 number of electron     360.9999959 magnetization 
 augmentation part      114.1988037 magnetization 

 Broyden mixing:
  rms(total) = 0.11991E+00    rms(broyden)= 0.11991E+00
  rms(prec ) = 0.16565E+00
  weight for this iteration     100.00

 Free energy of the ion-electron system (eV)
  ---------------------------------------------------
  alpha Z        PSCENC =       797.33612757
  Ewald energy   TEWEN  =    132202.65303394
  -Hartree energ DENC   =   -159597.58400513
  -exchange      EXHF   =         0.00000000
  -V(xc)+E(xc)   XCENC  =        89.67324168
  PAW double counting   =     32172.78170993   -31174.82363120
  entropy T*S    EENTRO =        -0.09733768
  eigenvalues    EBANDS =     -1091.34219027
  atomic energy  EATOM  =     26496.80315902
  Solvation  Ediel_sol  =         0.00000000
  ---------------------------------------------------
  free energy    TOTEN  =      -104.59989214 eV

  energy without entropy =     -104.50255447  energy(sigma->0) =     -104.56744625


--------------------------------------------------------------------------------------------------------




--------------------------------------- Iteration      1(   2)  ---------------------------------------


    POTLOK:  cpu time      2.3324: real time      2.3603
    SETDIJ:  cpu time      0.0055: real time      0.0056
    EDDIAG:  cpu time      2.6983: real time      2.7173
  RMM-DIIS:  cpu time      8.4991: real time      8.5591
    ORTHCH:  cpu time      0.6602: real time      0.6663
       DOS:  cpu time      0.0013: real time      0.0013
    CHARGE:  cpu time      0.7482: real time      0.7554
    MIXING:  cpu time      0.0027: real time      0.0028
    --------------------------------------------
      LOOP:  cpu time     14.9478: real time     15.0680

 eigenvalue-minimisations  :  6736
 total energy-change (2. order) :-0.9773567E+00  (-0.1862137E-01)
 number of electron     360.9999954 magnetization 
 augmentation part      114.1888565 magnetization 

 Broyden mixing:
  rms(total) = 0.11205E+01    rms(broyden)= 0.11205E+01
  rms(prec ) = 0.15920E+01
  weight for this iteration     100.00

 eigenvalues of (default mixing * dielectric matrix)
  average eigenvalue GAMMA=   0.0919
  0.0919

 Free energy of the ion-electron system (eV)
  ---------------------------------------------------
  alpha Z        PSCENC =       797.33612757
  Ewald energy   TEWEN  =    132202.65303394
  -Hartree energ DENC   =   -159606.50070306
  -exchange      EXHF   =         0.00000000
  -V(xc)+E(xc)   XCENC  =        89.65625453
  PAW double counting   =     32177.21100459   -31179.24107925
  entropy T*S    EENTRO =        -0.05691840
  eigenvalues    EBANDS =     -1083.43812773
  atomic energy  EATOM  =     26496.80315902
  Solvation  Ediel_sol  =         0.00000000
  ---------------------------------------------------
  free energy    TOTEN  =      -105.57724880 eV

  energy without entropy =     -105.52033040  energy(sigma->0) =     -105.55827600


--------------------------------------------------------------------------------------------------------




--------------------------------------- Iteration      1(   3)  ---------------------------------------


    POTLOK:  cpu time      2.9398: real time      2.9738
    SETDIJ:  cpu time      0.1422: real time      0.1429
    EDDIAG:  cpu time      6.2885: real time      6.3251
  RMM-DIIS:  cpu time      8.7074: real time      8.7650
    ORTHCH:  cpu time      0.4886: real time      0.4926
       DOS:  cpu time      0.0012: real time      0.0012
    CHARGE:  cpu time      0.7537: real time      0.7596
    MIXING:  cpu time      0.0024: real time      0.0024
    --------------------------------------------
      LOOP:  cpu time     19.3238: real time     19.4627

 eigenvalue-minimisations  :  6762
 total energy-change (2. order) : 0.9620866E+00  (-0.1091034E-01)
 number of electron     360.9999959 magnetization 
 augmentation part      114.1697011 magnetization 

 Broyden mixing:
  rms(total) = 0.15163E+00    rms(broyden)= 0.15163E+00
  rms(prec ) = 0.17892E+00
  weight for this iteration     100.00

 eigenvalues of (default mixing * dielectric matrix)
  average eigenvalue GAMMA=   0.1418
  0.1945  0.0891

 Free energy of the ion-electron system (eV)
  ---------------------------------------------------
  alpha Z        PSCENC =       797.33612757
  Ewald energy   TEWEN  =    132202.65303394
  -Hartree energ DENC   =   -159604.58194828
  -exchange      EXHF   =         0.00000000
  -V(xc)+E(xc)   XCENC  =        89.66079512
  PAW double counting   =     32177.86989114   -31179.90645215
  entropy T*S    EENTRO =        -0.09463761
  eigenvalues    EBANDS =     -1084.35513095
  atomic energy  EATOM  =     26496.80315902
  Solvation  Ediel_sol  =         0.00000000
  ---------------------------------------------------
  free energy    TOTEN  =      -104.61516220 eV

  energy without entropy =     -104.52052459  energy(sigma->0) =     -104.58361633


--------------------------------------------------------------------------------------------------------




--------------------------------------- Iteration      1(   4)  ---------------------------------------


    POTLOK:  cpu time      2.3585: real time      2.3880
    SETDIJ:  cpu time      0.0044: real time      0.0044
    EDDIAG:  cpu time      2.8649: real time      2.8875
  RMM-DIIS:  cpu time      8.2657: real time      8.5290
    ORTHCH:  cpu time      3.7767: real time      3.8415
       DOS:  cpu time      0.0011: real time      0.0011
    CHARGE:  cpu time      0.9059: real time      0.9130
    MIXING:  cpu time      0.0024: real time      0.0024
    --------------------------------------------
      LOOP:  cpu time     18.1796: real time     18.5671

 eigenvalue-minimisations  :  6772
 total energy-change (2. order) : 0.2689720E-01  (-0.1477986E-02)
 number of electron     360.9999959 magnetization 
 augmentation part      114.1847390 magnetization 

 Broyden mixing:
  rms(total) = 0.29587E-01    rms(broyden)= 0.29587E-01
  rms(prec ) = 0.35629E-01
  weight for this iteration     100.00

 eigenvalues of (default mixing * dielectric matrix)
  average eigenvalue GAMMA=   0.2417
  0.4174  0.2215  0.0862

 Free energy of the ion-electron system (eV)
  ---------------------------------------------------
  alpha Z        PSCENC =       797.33612757
  Ewald energy   TEWEN  =    132202.65303394
  -Hartree energ DENC   =   -159600.85026920
  -exchange      EXHF   =         0.00000000
  -V(xc)+E(xc)   XCENC  =        89.67188589
  PAW double counting   =     32176.58842420   -31178.63183775
  entropy T*S    EENTRO =        -0.09693408
  eigenvalues    EBANDS =     -1088.06185459
  atomic energy  EATOM  =     26496.80315902
  Solvation  Ediel_sol  =         0.00000000
  ---------------------------------------------------
  free energy    TOTEN  =      -104.58826501 eV

  energy without entropy =     -104.49133093  energy(sigma->0) =     -104.55595365


--------------------------------------------------------------------------------------------------------




--------------------------------------- Iteration      1(   5)  ---------------------------------------


    POTLOK:  cpu time      2.4413: real time      2.5027
    SETDIJ:  cpu time      0.0047: real time      0.0047
    EDDIAG:  cpu time      2.7227: real time      2.7573
  RMM-DIIS:  cpu time      8.5979: real time      8.6560
    ORTHCH:  cpu time      0.6825: real time      0.6892
       DOS:  cpu time      0.0009: real time      0.0009
    CHARGE:  cpu time      0.7531: real time      0.7585
    MIXING:  cpu time      0.0023: real time      0.0023
    --------------------------------------------
      LOOP:  cpu time     15.2052: real time     15.3717

 eigenvalue-minimisations  :  6954
 total energy-change (2. order) : 0.2443816E-03  (-0.2266926E-03)
 number of electron     360.9999959 magnetization 
 augmentation part      114.1848370 magnetization 

 Broyden mixing:
  rms(total) = 0.20036E-01    rms(broyden)= 0.20036E-01
  rms(prec ) = 0.26038E-01
  weight for this iteration     100.00

 eigenvalues of (default mixing * dielectric matrix)
  average eigenvalue GAMMA=   0.2535
  0.3695  0.3695  0.0868  0.1883

 Free energy of the ion-electron system (eV)
  ---------------------------------------------------
  alpha Z        PSCENC =       797.33612757
  Ewald energy   TEWEN  =    132202.65303394
  -Hartree energ DENC   =   -159601.01003236
  -exchange      EXHF   =         0.00000000
  -V(xc)+E(xc)   XCENC  =        89.67195129
  PAW double counting   =     32175.71067099   -31177.75302192
  entropy T*S    EENTRO =        -0.09700239
  eigenvalues    EBANDS =     -1087.90290676
  atomic energy  EATOM  =     26496.80315902
  Solvation  Ediel_sol  =         0.00000000
  ---------------------------------------------------
  free energy    TOTEN  =      -104.58802063 eV

  energy without entropy =     -104.49101823  energy(sigma->0) =     -104.55568650


--------------------------------------------------------------------------------------------------------




--------------------------------------- Iteration      1(   6)  ---------------------------------------


    POTLOK:  cpu time      2.4937: real time      2.5308
    SETDIJ:  cpu time      0.0052: real time      0.0052
    EDDIAG:  cpu time      2.8691: real time      2.8913
  RMM-DIIS:  cpu time      8.4240: real time      8.9859
    ORTHCH:  cpu time      0.9326: real time      0.9454
       DOS:  cpu time      0.0010: real time      0.0010
    CHARGE:  cpu time      0.7653: real time      0.7717
    MIXING:  cpu time      0.0045: real time      0.0045
    --------------------------------------------
      LOOP:  cpu time     15.4953: real time     16.1358

 eigenvalue-minimisations  :  7024
 total energy-change (2. order) : 0.3307359E-03  (-0.5404278E-04)
 number of electron     360.9999959 magnetization 
 augmentation part      114.1856610 magnetization 

 Broyden mixing:
  rms(total) = 0.80787E-02    rms(broyden)= 0.80787E-02
  rms(prec ) = 0.88452E-02
  weight for this iteration     100.00

 eigenvalues of (default mixing * dielectric matrix)
  average eigenvalue GAMMA=   0.2827
  0.4443  0.4443  0.0867  0.2192  0.2192

 Free energy of the ion-electron system (eV)
  ---------------------------------------------------
  alpha Z        PSCENC =       797.33612757
  Ewald energy   TEWEN  =    132202.65303394
  -Hartree energ DENC   =   -159600.92625485
  -exchange      EXHF   =         0.00000000
  -V(xc)+E(xc)   XCENC  =        89.67266465
  PAW double counting   =     32175.20206021   -31177.24588728
  entropy T*S    EENTRO =        -0.09709916
  eigenvalues    EBANDS =     -1087.98549397
  atomic energy  EATOM  =     26496.80315902
  Solvation  Ediel_sol  =         0.00000000
  ---------------------------------------------------
  free energy    TOTEN  =      -104.58768989 eV

  energy without entropy =     -104.49059073  energy(sigma->0) =     -104.55532350


--------------------------------------------------------------------------------------------------------




--------------------------------------- Iteration      1(   7)  ---------------------------------------


    POTLOK:  cpu time      2.4841: real time      2.5424
    SETDIJ:  cpu time      0.0044: real time      0.0044
    EDDIAG:  cpu time      2.8456: real time      2.8675
  RMM-DIIS:  cpu time      8.9196: real time      8.9756
    ORTHCH:  cpu time      0.6825: real time      0.6891
       DOS:  cpu time      0.0010: real time      0.0010
    CHARGE:  cpu time      0.7588: real time      0.7646
    MIXING:  cpu time      0.0098: real time      0.0098
    --------------------------------------------
      LOOP:  cpu time     15.7058: real time     15.8544

 eigenvalue-minimisations  :  7014
 total energy-change (2. order) :-0.1487395E-05  (-0.1574173E-04)
 number of electron     360.9999959 magnetization 
 augmentation part      114.1864340 magnetization 

 Broyden mixing:
  rms(total) = 0.74884E-02    rms(broyden)= 0.74884E-02
  rms(prec ) = 0.82278E-02
  weight for this iteration     100.00

 eigenvalues of (default mixing * dielectric matrix)
  average eigenvalue GAMMA=   0.4047
  0.7871  0.7871  0.0867  0.1983  0.2846  0.2846

 Free energy of the ion-electron system (eV)
  ---------------------------------------------------
  alpha Z        PSCENC =       797.33612757
  Ewald energy   TEWEN  =    132202.65303394
  -Hartree energ DENC   =   -159600.86251806
  -exchange      EXHF   =         0.00000000
  -V(xc)+E(xc)   XCENC  =        89.67360208
  PAW double counting   =     32174.66381318   -31176.70792669
  entropy T*S    EENTRO =        -0.09718308
  eigenvalues    EBANDS =     -1088.04979933
  atomic energy  EATOM  =     26496.80315902
  Solvation  Ediel_sol  =         0.00000000
  ---------------------------------------------------
  free energy    TOTEN  =      -104.58769138 eV

  energy without entropy =     -104.49050829  energy(sigma->0) =     -104.55529702


--------------------------------------------------------------------------------------------------------




--------------------------------------- Iteration      1(   8)  ---------------------------------------


    POTLOK:  cpu time      2.4450: real time      2.4875
    SETDIJ:  cpu time      0.0043: real time      0.0044
    EDDIAG:  cpu time      2.9106: real time      2.9313
  RMM-DIIS:  cpu time      8.0084: real time      8.2032
    ORTHCH:  cpu time      0.5767: real time      0.5816
       DOS:  cpu time      0.0010: real time      0.0011
    CHARGE:  cpu time      0.8098: real time      0.8161
    MIXING:  cpu time      0.0037: real time      0.0037
    --------------------------------------------
      LOOP:  cpu time     14.7595: real time     15.0288

 eigenvalue-minimisations  :  6090
 total energy-change (2. order) : 0.1979929E-04  (-0.5776911E-05)
 number of electron     360.9999959 magnetization 
 augmentation part      114.1861492 magnetization 

 Broyden mixing:
  rms(total) = 0.49140E-02    rms(broyden)= 0.49140E-02
  rms(prec ) = 0.55392E-02
  weight for this iteration     100.00

 eigenvalues of (default mixing * dielectric matrix)
  average eigenvalue GAMMA=   0.4442
  0.9846  0.9846  0.0867  0.3297  0.3297  0.1970  0.1970

 Free energy of the ion-electron system (eV)
  ---------------------------------------------------
  alpha Z        PSCENC =       797.33612757
  Ewald energy   TEWEN  =    132202.65303394
  -Hartree energ DENC   =   -159601.06589069
  -exchange      EXHF   =         0.00000000
  -V(xc)+E(xc)   XCENC  =        89.67388257
  PAW double counting   =     32174.19407728   -31176.23808985
  entropy T*S    EENTRO =        -0.09715645
  eigenvalues    EBANDS =     -1087.84681496
  atomic energy  EATOM  =     26496.80315902
  Solvation  Ediel_sol  =         0.00000000
  ---------------------------------------------------
  free energy    TOTEN  =      -104.58767158 eV

  energy without entropy =     -104.49051513  energy(sigma->0) =     -104.55528609


--------------------------------------------------------------------------------------------------------




--------------------------------------- Iteration      1(   9)  ---------------------------------------


    POTLOK:  cpu time      2.4025: real time      2.4543
    SETDIJ:  cpu time      0.0111: real time      0.0112
    EDDIAG:  cpu time      2.8583: real time      2.8780
  RMM-DIIS:  cpu time      7.0488: real time      7.0911
    ORTHCH:  cpu time      0.6076: real time      0.6123
       DOS:  cpu time      0.0010: real time      0.0010
    CHARGE:  cpu time      0.7546: real time      0.7602
    MIXING:  cpu time      0.0029: real time      0.0029
    --------------------------------------------
      LOOP:  cpu time     13.6866: real time     13.8110

 eigenvalue-minimisations  :  4832
 total energy-change (2. order) : 0.2251852E-04  (-0.2416625E-05)
 number of electron     360.9999959 magnetization 
 augmentation part      114.1865210 magnetization 

 Broyden mixing:
  rms(total) = 0.21836E-02    rms(broyden)= 0.21836E-02
  rms(prec ) = 0.23657E-02
  weight for this iteration     100.00

 eigenvalues of (default mixing * dielectric matrix)
  average eigenvalue GAMMA=   0.5798
  1.4132  1.4132  0.6881  0.0867  0.3673  0.2675  0.2064  0.1955

 Free energy of the ion-electron system (eV)
  ---------------------------------------------------
  alpha Z        PSCENC =       797.33612757
  Ewald energy   TEWEN  =    132202.65303394
  -Hartree energ DENC   =   -159601.01625861
  -exchange      EXHF   =         0.00000000
  -V(xc)+E(xc)   XCENC  =        89.67448924
  PAW double counting   =     32173.92462578   -31175.96859483
  entropy T*S    EENTRO =        -0.09720203
  eigenvalues    EBANDS =     -1087.89702912
  atomic energy  EATOM  =     26496.80315902
  Solvation  Ediel_sol  =         0.00000000
  ---------------------------------------------------
  free energy    TOTEN  =      -104.58764906 eV

  energy without entropy =     -104.49044703  energy(sigma->0) =     -104.55524838


--------------------------------------------------------------------------------------------------------




--------------------------------------- Iteration      1(  10)  ---------------------------------------


    POTLOK:  cpu time      2.4481: real time      2.4632
    SETDIJ:  cpu time      0.0044: real time      0.0045
    EDDIAG:  cpu time      2.7917: real time      2.8133
  RMM-DIIS:  cpu time      6.2814: real time      6.5265
    ORTHCH:  cpu time      1.6007: real time      1.6108
       DOS:  cpu time      0.0010: real time      0.0010
    --------------------------------------------
      LOOP:  cpu time     13.1274: real time     13.4192

 eigenvalue-minimisations  :  4175
 total energy-change (2. order) : 0.8199997E-05  (-0.8105285E-06)
 number of electron     360.9999959 magnetization 
 augmentation part      114.1865210 magnetization 

 Free energy of the ion-electron system (eV)
  ---------------------------------------------------
  alpha Z        PSCENC =       797.33612757
  Ewald energy   TEWEN  =    132202.65303394
  -Hartree energ DENC   =   -159601.04863549
  -exchange      EXHF   =         0.00000000
  -V(xc)+E(xc)   XCENC  =        89.67513873
  PAW double counting   =     32173.54570787   -31175.58913304
  entropy T*S    EENTRO =        -0.09719782
  eigenvalues    EBANDS =     -1087.86584163
  atomic energy  EATOM  =     26496.80315902
  Solvation  Ediel_sol  =         0.00000000
  ---------------------------------------------------
  free energy    TOTEN  =      -104.58764086 eV

  energy without entropy =     -104.49044304  energy(sigma->0) =     -104.55524159


--------------------------------------------------------------------------------------------------------




 average (electrostatic) potential at core
  the test charge radii are     1.2059  0.5201
  (the norm of the test charge is              1.0000)
       1 -73.5504       2 -73.5385       3 -73.5393       4 -73.5383       5 -73.5242
       6 -73.5335       7 -73.5392       8 -73.5336       9 -73.5403      10 -73.9752
      11 -73.9764      12 -73.9881      13 -73.9764      14 -73.9904      15 -73.9847
      16 -73.9882      17 -73.9848      18 -73.9330      19 -73.9332      20 -73.9256
      21 -73.9736      22 -73.9485      23 -73.9736      24 -73.9756      25 -73.9692
      26 -73.9335      27 -73.9488      28 -73.5461      29 -73.6154      30 -73.5548
      31 -73.6148      32 -73.5306      33 -73.5375      34 -73.5544      35 -73.5376
      36 -73.5592      37 -38.4502
 
 
 
 E-fermi :  -0.0755     XC(G=0):  -5.8750     alpha+bet : -5.8354

 Fermi energy:        -0.0755233601

 k-point     1 :       0.0000    0.0000    0.0000
  band No.  band energies     occupation 
      1      -8.9045      2.00000
      2      -7.8399      2.00000
      3      -7.1244      2.00000
      4      -6.5029      2.00000
      5      -6.4696      2.00000
      6      -6.4567      2.00000
      7      -6.4530      2.00000
      8      -6.4376      2.00000
      9      -6.4331      2.00000
     10      -6.4261      2.00000
     11      -6.1353      2.00000
     12      -5.9161      2.00000
     13      -5.9122      2.00000
     14      -5.9088      2.00000
     15      -5.9072      2.00000
     16      -5.8988      2.00000
     17      -5.8218      2.00000
     18      -5.4733      2.00000
     19      -5.4687      2.00000
     20      -5.4504      2.00000
     21      -5.4496      2.00000
     22      -5.4393      2.00000
     23      -5.3515      2.00000
     24      -5.2293      2.00000
     25      -5.2253      2.00000
     26      -5.2245      2.00000
     27      -5.2192      2.00000
     28      -5.2184      2.00000
     29      -5.1223      2.00000
     30      -5.0384      2.00000
     31      -5.0344      2.00000
     32      -5.0227      2.00000
     33      -5.0226      2.00000
     34      -5.0099      2.00000
     35      -4.9700      2.00000
     36      -4.9567      2.00000
     37      -4.9520      2.00000
     38      -4.9490      2.00000
     39      -4.9133      2.00000
     40      -4.9100      2.00000
     41      -4.5744      2.00000
     42      -4.3806      2.00000
     43      -4.3803      2.00000
     44      -4.3483      2.00000
     45      -4.3363      2.00000
     46      -4.3239      2.00000
     47      -4.3162      2.00000
     48      -4.2935      2.00000
     49      -4.2919      2.00000
     50      -4.2864      2.00000
     51      -4.1342      2.00000
     52      -4.1335      2.00000
     53      -4.0517      2.00000
     54      -4.0322      2.00000
     55      -4.0320      2.00000
     56      -3.5863      2.00000
     57      -3.5817      2.00000
     58      -3.5722      2.00000
     59      -3.5622      2.00000
     60      -3.5548      2.00000
     61      -3.5039      2.00000
     62      -3.4718      2.00000
     63      -3.3918      2.00000
     64      -3.3752      2.00000
     65      -3.3717      2.00000
     66      -3.3706      2.00000
     67      -3.3636      2.00000
     68      -3.3568      2.00000
     69      -3.3510      2.00000
     70      -3.3124      2.00000
     71      -3.3122      2.00000
     72      -3.3055      2.00000
     73      -3.3019      2.00000
     74      -3.2992      2.00000
     75      -3.2642      2.00000
     76      -3.2571      2.00000
     77      -3.2561      2.00000
     78      -3.1561      2.00000
     79      -3.1526      2.00000
     80      -3.1502      2.00000
     81      -3.1431      2.00000
     82      -3.1413      2.00000
     83      -3.1298      2.00000
     84      -2.9444      2.00000
     85      -2.9352      2.00000
     86      -2.9319      2.00000
     87      -2.9160      2.00000
     88      -2.9108      2.00000
     89      -2.9081      2.00000
     90      -2.8940      2.00000
     91      -2.8862      2.00000
     92      -2.8386      2.00000
     93      -2.8333      2.00000
     94      -2.7716      2.00000
     95      -2.7585      2.00000
     96      -2.7502      2.00000
     97      -2.7276      2.00000
     98      -2.7215      2.00000
     99      -2.6952      2.00000
    100      -2.6901      2.00000
    101      -2.6302      2.00000
    102      -2.5265      2.00000
    103      -2.5193      2.00000
    104      -2.5150      2.00000
    105      -2.5057      2.00000
    106      -2.5013      2.00000
    107      -2.4926      2.00000
    108      -2.2726      2.00000
    109      -2.0212      2.00000
    110      -2.0056      2.00000
    111      -1.9986      2.00000
    112      -1.9882      2.00000
    113      -1.9867      2.00000
    114      -1.9826      2.00000
    115      -1.9754      2.00000
    116      -1.9748      2.00000
    117      -1.9599      2.00000
    118      -1.9553      2.00000
    119      -1.9493      2.00000
    120      -1.8704      2.00000
    121      -1.8653      2.00000
    122      -1.8078      2.00000
    123      -1.7378      2.00000
    124      -1.7325      2.00000
    125      -1.7263      2.00000
    126      -1.7209      2.00000
    127      -1.7112      2.00000
    128      -1.5998      2.00000
    129      -1.5911      2.00000
    130      -1.5397      2.00000
    131      -1.5378      2.00000
    132      -1.5255      2.00000
    133      -1.4874      2.00000
    134      -1.2906      2.00000
    135      -1.2764      2.00000
    136      -1.2751      2.00000
    137      -1.2550      2.00000
    138      -1.2500      2.00000
    139      -1.2479      2.00000
    140      -1.1838      2.00000
    141      -1.1756      2.00000
    142      -1.0489      2.00000
    143      -1.0469      2.00000
    144      -1.0294      2.00000
    145      -1.0273      2.00000
    146      -1.0240      2.00000
    147      -1.0226      2.00000
    148      -0.8998      2.00000
    149      -0.8868      2.00000
    150      -0.8633      2.00000
    151      -0.8490      2.00000
    152      -0.8308      2.00000
    153      -0.8281      2.00000
    154      -0.8216      2.00000
    155      -0.8158      2.00000
    156      -0.8087      2.00000
    157      -0.8069      2.00000
    158      -0.8020      2.00000
    159      -0.7950      2.00000
    160      -0.7309      2.00000
    161      -0.7249      2.00000
    162      -0.7018      2.00000
    163      -0.6771      2.00000
    164      -0.6691      2.00000
    165      -0.6556      2.00000
    166      -0.6461      2.00000
    167      -0.6447      2.00000
    168      -0.6055      2.00000
    169      -0.5912      2.00000
    170      -0.5896      2.00000
    171      -0.5534      2.00000
    172      -0.5501      2.00000
    173      -0.5476      2.00000
    174      -0.5388      2.00000
    175      -0.5361      2.00000
    176      -0.4580      2.00000
    177      -0.4459      2.00000
    178      -0.4452      2.00000
    179      -0.4392      2.00000
    180      -0.4339      2.00000
    181      -0.4313      2.00001
    182      -0.3820      2.00013
    183      -0.3474      2.00083
    184      -0.3391      2.00124
    185      -0.3230      2.00259
    186      -0.3199      2.00297
    187      -0.3133      2.00393
    188      -0.3064      2.00522
    189      -0.1199      1.67492
    190      -0.1043      1.46543
    191      -0.0180      0.18263
    192      -0.0154      0.15922
    193      -0.0150      0.15508
    194       0.0044      0.02053
    195       0.0064      0.01017
    196       0.0094     -0.00320
    197       0.5474     -0.00000
    198       0.8187     -0.00000
    199       0.8500     -0.00000
    200       0.8599     -0.00000
    201       0.8918     -0.00000
    202       0.8996     -0.00000
    203       0.9012     -0.00000
    204       2.8881      0.00000
    205       3.1321      0.00000
    206       3.1416      0.00000
    207       3.2022      0.00000
    208       3.2128      0.00000
    209       3.2145      0.00000
    210       4.6771      0.00000
    211       4.7133      0.00000
    212       4.7748      0.00000
    213       4.8113      0.00000
    214       4.8174      0.00000
    215       4.8260      0.00000
    216       4.9046      0.00000
    217       5.0918      0.00000
    218       5.2576      0.00000
    219       5.4334      0.00000
    220       5.4776      0.00000
    221       5.7939      0.00000
    222       5.7948      0.00000
    223       5.8426      0.00000
    224       5.8590      0.00000
    225       5.8699      0.00000
    226       6.1652      0.00000
    227       6.3734      0.00000
    228       6.5976      0.00000
    229       6.6047      0.00000
    230       6.6227      0.00000
    231       6.8420      0.00000
    232       7.0413      0.00000
    233       7.1292      0.00000
    234       7.1340      0.00000
    235       7.1522      0.00000
    236       7.1581      0.00000
    237       7.1632      0.00000
    238       7.2355      0.00000
    239       7.2624      0.00000
    240       7.3910      0.00000

 k-point     2 :       0.2000    0.0000    0.0000
  band No.  band energies     occupation 
      1      -8.7567      2.00000
      2      -7.7234      2.00000
      3      -7.0733      2.00000
      4      -6.9233      2.00000
      5      -6.5612      2.00000
      6      -6.5471      2.00000
      7      -6.3602      2.00000
      8      -6.2636      2.00000
      9      -6.2235      2.00000
     10      -6.2114      2.00000
     11      -6.1106      2.00000
     12      -6.0006      2.00000
     13      -5.9643      2.00000
     14      -5.8442      2.00000
     15      -5.8387      2.00000
     16      -5.8268      2.00000
     17      -5.7452      2.00000
     18      -5.5357      2.00000
     19      -5.4208      2.00000
     20      -5.4176      2.00000
     21      -5.4098      2.00000
     22      -5.3795      2.00000
     23      -5.3373      2.00000
     24      -5.3041      2.00000
     25      -5.2783      2.00000
     26      -5.2359      2.00000
     27      -5.2194      2.00000
     28      -5.2085      2.00000
     29      -5.1491      2.00000
     30      -5.1158      2.00000
     31      -5.1083      2.00000
     32      -5.0360      2.00000
     33      -5.0206      2.00000
     34      -5.0115      2.00000
     35      -5.0081      2.00000
     36      -4.8628      2.00000
     37      -4.8153      2.00000
     38      -4.7817      2.00000
     39      -4.7680      2.00000
     40      -4.7532      2.00000
     41      -4.5782      2.00000
     42      -4.4985      2.00000
     43      -4.4928      2.00000
     44      -4.4433      2.00000
     45      -4.4147      2.00000
     46      -4.4011      2.00000
     47      -4.3882      2.00000
     48      -4.2918      2.00000
     49      -4.2137      2.00000
     50      -4.1491      2.00000
     51      -4.1268      2.00000
     52      -4.1124      2.00000
     53      -4.0686      2.00000
     54      -4.0475      2.00000
     55      -3.9885      2.00000
     56      -3.8326      2.00000
     57      -3.7354      2.00000
     58      -3.7277      2.00000
     59      -3.6868      2.00000
     60      -3.6720      2.00000
     61      -3.6409      2.00000
     62      -3.5872      2.00000
     63      -3.5623      2.00000
     64      -3.5570      2.00000
     65      -3.5279      2.00000
     66      -3.5246      2.00000
     67      -3.4526      2.00000
     68      -3.4389      2.00000
     69      -3.4065      2.00000
     70      -3.3756      2.00000
     71      -3.3634      2.00000
     72      -3.3174      2.00000
     73      -3.2680      2.00000
     74      -3.2594      2.00000
     75      -3.2542      2.00000
     76      -3.1800      2.00000
     77      -3.1773      2.00000
     78      -3.1587      2.00000
     79      -3.1295      2.00000
     80      -3.0953      2.00000
     81      -3.0871      2.00000
     82      -3.0652      2.00000
     83      -3.0244      2.00000
     84      -3.0131      2.00000
     85      -2.9637      2.00000
     86      -2.9506      2.00000
     87      -2.9395      2.00000
     88      -2.9369      2.00000
     89      -2.9187      2.00000
     90      -2.9082      2.00000
     91      -2.8621      2.00000
     92      -2.8326      2.00000
     93      -2.8032      2.00000
     94      -2.7797      2.00000
     95      -2.7739      2.00000
     96      -2.7678      2.00000
     97      -2.7551      2.00000
     98      -2.7315      2.00000
     99      -2.6978      2.00000
    100      -2.6878      2.00000
    101      -2.6135      2.00000
    102      -2.5657      2.00000
    103      -2.5545      2.00000
    104      -2.5224      2.00000
    105      -2.5094      2.00000
    106      -2.5029      2.00000
    107      -2.4960      2.00000
    108      -2.4880      2.00000
    109      -2.4477      2.00000
    110      -2.4399      2.00000
    111      -2.4284      2.00000
    112      -2.4167      2.00000
    113      -2.1913      2.00000
    114      -2.0761      2.00000
    115      -2.0265      2.00000
    116      -2.0114      2.00000
    117      -1.9940      2.00000
    118      -1.9870      2.00000
    119      -1.9846      2.00000
    120      -1.9424      2.00000
    121      -1.9382      2.00000
    122      -1.8858      2.00000
    123      -1.8047      2.00000
    124      -1.7783      2.00000
    125      -1.7062      2.00000
    126      -1.6566      2.00000
    127      -1.6492      2.00000
    128      -1.6069      2.00000
    129      -1.5903      2.00000
    130      -1.5685      2.00000
    131      -1.5415      2.00000
    132      -1.5308      2.00000
    133      -1.5288      2.00000
    134      -1.4466      2.00000
    135      -1.4049      2.00000
    136      -1.3958      2.00000
    137      -1.3867      2.00000
    138      -1.3778      2.00000
    139      -1.2485      2.00000
    140      -1.2006      2.00000
    141      -1.1740      2.00000
    142      -1.1608      2.00000
    143      -1.1509      2.00000
    144      -1.1452      2.00000
    145      -1.1248      2.00000
    146      -1.0623      2.00000
    147      -1.0342      2.00000
    148      -1.0046      2.00000
    149      -0.9909      2.00000
    150      -0.9836      2.00000
    151      -0.9321      2.00000
    152      -0.9219      2.00000
    153      -0.9096      2.00000
    154      -0.8979      2.00000
    155      -0.8145      2.00000
    156      -0.7951      2.00000
    157      -0.7744      2.00000
    158      -0.7630      2.00000
    159      -0.7249      2.00000
    160      -0.6733      2.00000
    161      -0.6490      2.00000
    162      -0.6141      2.00000
    163      -0.6061      2.00000
    164      -0.5898      2.00000
    165      -0.5637      2.00000
    166      -0.5442      2.00000
    167      -0.4821      2.00000
    168      -0.4772      2.00000
    169      -0.4181      2.00001
    170      -0.4068      2.00003
    171      -0.3927      2.00007
    172      -0.3850      2.00011
    173      -0.3615      2.00040
    174      -0.3517      2.00066
    175      -0.3469      2.00085
    176      -0.3368      2.00138
    177      -0.3303      2.00186
    178      -0.2714      2.01825
    179      -0.2684      2.01997
    180      -0.1306      1.79306
    181      -0.1226      1.70726
    182      -0.1052      1.47917
    183      -0.0879      1.20734
    184      -0.0755      0.99935
    185      -0.0689      0.88801
    186      -0.0404      0.44379
    187      -0.0227      0.22938
    188      -0.0089      0.10502
    189       0.0020      0.03317
    190       0.0779     -0.05219
    191       0.1023     -0.03060
    192       0.1283     -0.01409
    193       0.1849     -0.00143
    194       0.2924     -0.00000
    195       0.2998     -0.00000
    196       0.3130     -0.00000
[...]
    148      -1.1078      2.00000
    149      -1.0977      2.00000
    150      -1.0767      2.00000
    151      -1.0654      2.00000
    152      -1.0367      2.00000
    153      -1.0268      2.00000
    154      -0.8957      2.00000
    155      -0.8530      2.00000
    156      -0.7981      2.00000
    157      -0.7379      2.00000
    158      -0.7113      2.00000
    159      -0.6301      2.00000
    160      -0.6202      2.00000
    161      -0.5862      2.00000
    162      -0.5136      2.00000
    163      -0.5063      2.00000
    164      -0.4948      2.00000
    165      -0.4021      2.00004
    166      -0.3960      2.00006
    167      -0.3118      2.00418
    168      -0.3035      2.00584
    169      -0.2839      2.01208
    170      -0.2729      2.01736
    171      -0.2662      2.02137
    172      -0.2370      2.04477
    173      -0.2184      2.06138
    174      -0.1781      2.05516
    175      -0.1157      1.62317
    176      -0.1093      1.53735
    177      -0.0826      1.11938
    178      -0.0645      0.81501
    179      -0.0595      0.73206
    180      -0.0512      0.60201
    181      -0.0422      0.46911
    182       0.0240     -0.04935
    183       0.1131     -0.02269
    184       0.1506     -0.00629
    185       0.1613     -0.00408
    186       0.1626     -0.00386
    187       0.1745     -0.00231
    188       0.2263     -0.00017
    189       0.2734     -0.00001
    190       0.3575     -0.00000
    191       0.4518     -0.00000
    192       1.2143     -0.00000
    193       1.3357     -0.00000
    194       1.3590     -0.00000
    195       1.5085     -0.00000
    196       1.5666     -0.00000
    197       1.6464     -0.00000
    198       1.6967     -0.00000
    199       1.7201     -0.00000
    200       2.0595     -0.00000
    201       2.3022     -0.00000
    202       2.3380     -0.00000
    203       2.5236     -0.00000
    204       2.7794      0.00000
    205       2.7983      0.00000
    206       2.8890      0.00000
    207       2.9234      0.00000
    208       3.0696      0.00000
    209       3.1932      0.00000
    210       3.2571      0.00000
    211       3.3001      0.00000
    212       3.5740      0.00000
    213       3.6953      0.00000
    214       3.7561      0.00000
    215       4.1986      0.00000
    216       4.3954      0.00000
    217       4.4314      0.00000
    218       4.6764      0.00000
    219       4.7219      0.00000
    220       5.4394      0.00000
    221       5.5175      0.00000
    222       5.5576      0.00000
    223       5.6030      0.00000
    224       5.7178      0.00000
    225       5.7882      0.00000
    226       5.9295      0.00000
    227       5.9688      0.00000
    228       5.9937      0.00000
    229       6.0033      0.00000
    230       6.0208      0.00000
    231       6.3064      0.00000
    232       6.4621      0.00000
    233       6.5933      0.00000
    234       6.7205      0.00000
    235       6.7999      0.00000
    236       6.9636      0.00000
    237       6.9780      0.00000
    238       7.1203      0.00000
    239       7.2222      0.00000
    240       7.3340      0.00000


--------------------------------------------------------------------------------------------------------


 soft charge-density along one line, spin component           1
         0         1         2         3         4         5         6         7         8         9
 total charge-density along one line
 
 pseudopotential strength for first ion, spin component:           1
 -6.582   0.001   0.000  -0.009  -0.000  -6.676   0.001   0.000
  0.001  -6.468   0.001   0.000  -0.011   0.001  -6.566   0.001
  0.000   0.001  -6.456   0.001   0.000   0.000   0.001  -6.554
 -0.009   0.000   0.001  -6.467   0.001  -0.009   0.000   0.001
 -0.000  -0.011   0.000   0.001  -6.581  -0.000  -0.011   0.000
 -6.676   0.001   0.000  -0.009  -0.000  -6.755   0.001   0.000
  0.001  -6.566   0.001   0.000  -0.011   0.001  -6.647   0.001
  0.000   0.001  -6.554   0.001   0.000   0.000   0.001  -6.636
 -0.009   0.000   0.001  -6.565   0.001  -0.009   0.000   0.001
 -0.000  -0.011   0.000   0.001  -6.676  -0.000  -0.010   0.000
 -0.000  -0.000  -0.035  -0.001  -0.000  -0.000  -0.000  -0.034
 -0.000  -0.001  -0.052  -0.001  -0.000  -0.000  -0.001  -0.051
  0.000  -0.004  -0.000   0.000   0.000   0.000  -0.004  -0.000
  0.000   0.000  -0.008   0.000   0.000   0.000   0.000  -0.008
  0.000   0.000  -0.000  -0.004   0.000   0.000   0.000  -0.000
  0.000  -0.003   0.000   0.000   0.000   0.000  -0.003   0.000
  0.000   0.000  -0.008   0.000   0.000   0.000   0.000  -0.008
  0.001   0.000   0.000  -0.003   0.000   0.001   0.000   0.000
 total augmentation occupancy for first ion, spin component:           1
  3.235   0.005   0.009  -0.262  -0.019  -1.902  -0.003  -0.005   0.082   0.012   0.002  -0.001   0.005  -0.000  -0.041  -0.000
  0.005   4.215   0.014   0.011  -0.268  -0.003  -2.166  -0.008  -0.005   0.095   0.007  -0.003  -0.244   0.000   0.001   0.014
  0.009   0.014   4.383   0.023   0.005  -0.005  -0.008  -2.564  -0.014  -0.003   0.848  -0.184  -0.003  -0.281  -0.006   0.000
 -0.262   0.011   0.023   4.229   0.005   0.091  -0.005  -0.014  -2.173  -0.003   0.013  -0.005   0.001   0.001  -0.243  -0.000
 -0.019  -0.268   0.005   0.005   3.257   0.012   0.086  -0.003  -0.003  -1.916   0.001  -0.000  -0.047  -0.000   0.005   0.004
 -1.902  -0.003  -0.005   0.091   0.012   2.218   0.002   0.003   0.038  -0.007  -0.003   0.001  -0.006  -0.000   0.041   0.000
 -0.003  -2.166  -0.008  -0.005   0.086   0.002   1.966   0.004   0.001   0.036  -0.005   0.001   0.235  -0.001  -0.001  -0.019
 -0.005  -0.008  -2.564  -0.014  -0.003   0.003   0.004   2.532   0.007   0.001  -0.711   0.126   0.003   0.337   0.006  -0.000
  0.082  -0.005  -0.014  -2.173  -0.003   0.038   0.001   0.007   1.967   0.002  -0.008   0.002  -0.001  -0.002   0.234   0.000
  0.012   0.095  -0.003  -0.003  -1.916  -0.007   0.036   0.001   0.002   2.227  -0.001   0.000   0.048  -0.000  -0.006  -0.004
  0.002   0.007   0.848   0.013   0.001  -0.003  -0.005  -0.711  -0.008  -0.001   2.506  -0.574  -0.003   0.191  -0.006   0.000
 -0.001  -0.003  -0.184  -0.005  -0.000   0.001   0.001   0.126   0.002   0.000  -0.574   0.148   0.001  -0.068   0.001  -0.000
  0.005  -0.244  -0.003   0.001  -0.047  -0.006   0.235   0.003  -0.001   0.048  -0.003   0.001   0.254   0.000  -0.000  -0.018
 -0.000   0.000  -0.281   0.001  -0.000  -0.000  -0.001   0.337  -0.002  -0.000   0.191  -0.068   0.000   0.142   0.000   0.000
 -0.041   0.001  -0.006  -0.243   0.005   0.041  -0.001   0.006   0.234  -0.006  -0.006   0.001  -0.000   0.000   0.254   0.000
 -0.000   0.014   0.000  -0.000   0.004   0.000  -0.019  -0.000   0.000  -0.004   0.000  -0.000  -0.018   0.000   0.000   0.001
 -0.000   0.000   0.008   0.000  -0.000   0.000   0.000  -0.023   0.000   0.000  -0.021   0.007   0.000  -0.011   0.000  -0.000
  0.004  -0.000   0.000   0.014  -0.000  -0.003   0.000  -0.000  -0.019   0.000   0.000  -0.000   0.000   0.000  -0.018  -0.000


------------------------ aborting loop because EDIFF is reached ----------------------------------------


    CHARGE:  cpu time      0.8078: real time      0.8150
    FORLOC:  cpu time      0.0172: real time      0.0173
    FORNL :  cpu time      2.6301: real time      2.6519
    STRESS:  cpu time      7.7137: real time      7.7700
    FORCOR:  cpu time      2.4185: real time      2.4316
    FORHAR:  cpu time      0.0157: real time      0.0158
    MIXING:  cpu time      0.0042: real time      0.0042
    OFIELD:  cpu time      0.0000: real time      0.0000

  FORCE on cell =-STRESS in cart. coord.  units (eV):
  Direction    XX          YY          ZZ          XY          YZ          ZX
  --------------------------------------------------------------------------------------
  Alpha Z   797.33613   797.33613   797.33613
  Ewald  151929.17577151947.70919************   -15.70892    -6.18378   -10.38720
  Hartree157886.65537157891.97852************    -4.49342    -1.42581    -2.39011
  E(xc)   -1657.74596 -1657.53705 -1666.90738    -0.17768    -0.06741    -0.11249
  Local  ************************321310.73421    17.06465     6.01055    10.10372
  n-local   108.33988   109.11525    85.75647    -0.64761    -0.55733    -0.94641
  augment  1891.80277  1890.52852  1954.97903     1.07657     0.66694     1.11539
  Kinetic  5211.17699  5207.69897  5371.42215     2.95826     1.48019     2.48191
  Fock        0.00000     0.00000     0.00000     0.00000     0.00000     0.00000
  -------------------------------------------------------------------------------------
  Total     -33.00539   -33.08241     1.99822     0.07184    -0.07664    -0.13517
  in kB     -34.10580   -34.18539     2.06484     0.07424    -0.07919    -0.13968
  external pressure =      -22.08 kB  Pullay stress =        0.00 kB


 VOLUME and BASIS-vectors are now :
 -----------------------------------------------------------------------------
  energy-cutoff  :      680.29
  volume of cell :     1550.48
      direct lattice vectors                 reciprocal lattice vectors
     8.468310000  0.000000000  0.000000000     0.118087316 -0.068177744  0.000000000
     4.234155000  7.333771587  0.000000000     0.000000000  0.136355488  0.000000000
     0.000000000  0.000000000 24.965661990     0.000000000  0.000000000  0.040055016

  length of vectors
     8.468310000  8.468310000 24.965661990     0.136355488  0.136355488  0.040055016


 FORCES acting on ions
    electron-ion (+dipol)            ewald-force                    non-local-force                 convergence-correction
 -----------------------------------------------------------------------------------------------
   -.378E+01 -.219E+01 0.248E+04   0.371E+01 0.215E+01 -.248E+04   0.117E+00 0.678E-01 -.128E+01   -.367E-02 -.331E-02 0.128E-01
   -.339E+00 -.382E+01 0.248E+04   0.323E+00 0.378E+01 -.247E+04   0.237E-01 0.986E-01 -.128E+01   0.960E-02 -.880E-02 0.140E-01
   0.351E+01 -.554E+01 0.248E+04   -.351E+01 0.553E+01 -.247E+04   -.399E-01 0.104E+00 -.129E+01   -.605E-02 -.161E-01 0.148E-01
   -.348E+01 0.161E+01 0.248E+04   0.343E+01 -.161E+01 -.247E+04   0.972E-01 -.286E-01 -.128E+01   -.177E-02 0.147E-01 0.117E-01
   -.113E-01 -.118E-01 0.247E+04   0.626E-02 0.595E-02 -.247E+04   0.376E-02 0.235E-02 -.132E+01   -.427E-02 0.773E-04 0.109E-01
   0.326E+01 -.210E+01 0.247E+04   -.326E+01 0.208E+01 -.247E+04   -.669E-01 0.214E-01 -.130E+01   0.607E-02 0.801E-02 0.950E-02
   -.304E+01 0.582E+01 0.248E+04   0.304E+01 -.581E+01 -.247E+04   0.696E-01 -.862E-01 -.129E+01   -.160E-01 0.841E-03 0.135E-01
   -.179E+00 0.388E+01 0.247E+04   0.168E+00 -.386E+01 -.247E+04   -.151E-01 -.685E-01 -.130E+01   0.778E-02 0.114E-02 0.103E-01
   0.361E+01 0.209E+01 0.247E+04   -.360E+01 -.208E+01 -.247E+04   -.935E-01 -.539E-01 -.128E+01   0.809E-02 0.329E-02 0.133E-01
   -.427E+01 -.250E+01 0.833E+03   0.424E+01 0.248E+01 -.832E+03   0.113E+00 0.659E-01 -.277E+00   0.371E-02 0.738E-03 0.813E-01
   0.243E+01 -.360E+01 0.835E+03   -.243E+01 0.355E+01 -.835E+03   -.104E-01 0.112E+00 -.296E+00   0.972E-05 -.104E-01 0.783E-01
   0.736E+00 -.526E+01 0.834E+03   -.771E+00 0.522E+01 -.834E+03   0.468E-02 0.138E+00 -.293E+00   -.376E-02 -.903E-02 0.802E-01
   -.187E+01 0.389E+01 0.835E+03   0.183E+01 -.386E+01 -.835E+03   0.916E-01 -.640E-01 -.295E+00   -.787E-02 0.534E-02 0.765E-01
   0.262E+00 0.147E+00 0.839E+03   -.280E+00 -.159E+00 -.839E+03   0.258E-01 0.159E-01 -.391E+00   -.128E-02 0.313E-04 0.736E-01
   0.123E+01 -.166E+00 0.834E+03   -.121E+01 0.181E+00 -.834E+03   -.666E-01 -.571E-02 -.287E+00   0.916E-02 0.905E-02 0.678E-01
   -.416E+01 0.327E+01 0.834E+03   0.411E+01 -.328E+01 -.834E+03   0.122E+00 -.642E-01 -.294E+00   -.852E-02 0.118E-02 0.785E-01
   0.479E+00 0.117E+01 0.835E+03   -.455E+00 -.117E+01 -.834E+03   -.391E-01 -.540E-01 -.288E+00   0.116E-01 0.433E-02 0.678E-01
   0.386E+01 0.225E+01 0.831E+03   -.382E+01 -.223E+01 -.831E+03   -.101E+00 -.580E-01 -.248E+00   -.328E-02 -.141E-02 0.697E-01
   -.316E+01 0.746E+00 -.831E+03   0.322E+01 -.743E+00 0.831E+03   -.588E-01 -.471E-03 0.459E+00   0.267E-02 -.430E-02 0.811E-01
   0.249E+01 0.139E+01 -.832E+03   -.252E+01 -.140E+01 0.831E+03   0.280E-01 0.168E-01 0.501E+00   0.231E-02 0.293E-02 0.812E-01
   0.999E+00 0.746E+00 -.810E+03   -.995E+00 -.756E+00 0.809E+03   0.320E-02 0.230E-01 0.511E+00   -.466E-02 -.116E-01 0.896E-01
   0.371E-01 -.480E+00 -.822E+03   -.551E-01 0.303E+00 0.822E+03   0.109E-01 0.170E+00 0.277E+00   0.767E-02 0.941E-02 0.905E-01
   0.117E+01 0.574E+00 -.810E+03   -.118E+01 -.565E+00 0.809E+03   0.212E-01 -.114E-01 0.511E+00   -.146E-01 0.234E-02 0.930E-01
   -.975E+00 -.516E+00 -.811E+03   0.999E+00 0.531E+00 0.810E+03   -.283E-01 -.157E-01 0.520E+00   0.712E-02 0.346E-02 0.879E-01
   0.113E+01 0.597E+00 -.821E+03   -.105E+01 -.550E+00 0.821E+03   -.687E-01 -.386E-01 0.398E+00   -.781E-02 -.645E-02 0.900E-01
   -.908E+00 -.316E+01 -.831E+03   0.941E+00 0.321E+01 0.831E+03   -.281E-01 -.492E-01 0.458E+00   -.381E-02 0.446E-02 0.785E-01
   -.470E+00 0.279E+00 -.822E+03   0.307E+00 -.205E+00 0.822E+03   0.153E+00 -.746E-01 0.279E+00   0.118E-01 0.243E-03 0.844E-01
   0.548E+01 0.309E+01 -.246E+04   -.653E+01 -.370E+01 0.246E+04   0.107E+01 0.621E+00 0.117E+01   -.168E-01 -.104E-01 0.241E-01
   -.120E+02 0.933E+01 -.246E+04   0.123E+02 -.948E+01 0.246E+04   -.227E+00 0.148E+00 0.239E+00   0.142E-01 -.319E-02 0.242E-01
   0.139E+00 -.390E+00 -.246E+04   -.135E+00 0.441E+00 0.245E+04   -.546E-02 -.352E-01 0.115E+01   0.276E-02 -.136E-01 0.277E-01
   0.210E+01 -.150E+02 -.246E+04   -.212E+01 0.152E+02 0.246E+04   0.158E-01 -.277E+00 0.241E+00   0.477E-02 0.200E-01 0.241E-01
   0.204E+01 0.124E+01 -.245E+04   -.173E+01 -.107E+01 0.245E+04   -.310E+00 -.180E+00 0.126E+01   -.123E-02 0.516E-02 0.290E-01
   -.148E+01 0.638E+00 -.245E+04   0.135E+01 -.548E+00 0.245E+04   0.141E+00 -.874E-01 0.121E+01   -.366E-02 -.516E-03 0.322E-01
   -.238E+00 0.278E+00 -.246E+04   0.284E+00 -.293E+00 0.245E+04   -.346E-01 0.116E-01 0.115E+01   -.103E-01 0.335E-02 0.288E-01
   -.279E+00 -.155E+01 -.245E+04   0.293E+00 0.139E+01 0.245E+04   -.352E-02 0.163E+00 0.121E+01   -.752E-02 -.549E-02 0.325E-01
   0.814E+00 0.399E+00 -.245E+04   -.809E+00 -.391E+00 0.245E+04   -.245E-01 -.131E-01 0.118E+01   0.177E-01 0.427E-02 0.331E-01
   0.364E+01 0.209E+01 -.308E+03   -.405E+01 -.233E+01 0.309E+03   0.341E+00 0.196E+00 -.142E+01   -.110E-03 0.459E-03 0.916E-03
 -----------------------------------------------------------------------------------------------
   -.126E+01 -.724E+00 0.124E+01   0.639E-13 0.159E-12 -.151E-10   0.124E+01 0.709E+00 -.299E+01   0.667E-04 0.142E-03 0.182E+01
 
 
 POSITION                                       TOTAL-FORCE (eV/Angst)
 -----------------------------------------------------------------------------------
      0.00000      0.00000      8.50000         0.043711      0.025065     -0.122098
      2.82843      0.00000      8.50000         0.018167      0.045525     -0.081818
      5.65685      0.00000      8.50000        -0.039181      0.084727     -0.139537
      1.41421      2.44949      8.50000         0.048617     -0.007330     -0.081744
      4.24264      2.44949      8.50000        -0.004890     -0.002992     -0.076470
      7.07107      2.44949      8.50000        -0.053193      0.009658     -0.088332
      2.82843      4.89898      8.50000         0.053899     -0.076611     -0.139286
      5.65685      4.89898      8.50000        -0.018002     -0.051266     -0.088063
      8.48528      4.89898      8.50000        -0.075278     -0.043690     -0.097606
      1.41421      0.81650     10.80940         0.086394      0.050266      0.203603
      4.24264      0.81650     10.80940        -0.002000      0.048591      0.100993
      7.07107      0.81650     10.80940        -0.033489      0.084778      0.105892
      2.82843      3.26599     10.80940         0.040845     -0.025513      0.102207
      5.65685      3.26599     10.80940         0.007059      0.004480      0.028012
      8.48528      3.26599     10.80940        -0.037290      0.018796      0.125658
      4.24264      5.71548     10.80940         0.056368     -0.071161      0.105697
      7.07107      5.71548     10.80940        -0.002743     -0.041854      0.124718
      9.89949      5.71548     10.80940        -0.061665     -0.035777      0.060991
      8.49679      1.64350     13.11288         0.001914     -0.001119     -0.000537
      2.84259      1.64140     13.11496         0.002278      0.001936     -0.000011
      5.67033      1.64189     13.08648         0.003550      0.001016      0.000684
      9.90362      4.08084     13.10578         0.001201      0.003086     -0.001689
      4.25691      4.09037     13.08663         0.002222      0.000572      0.000829
      7.08225      4.08925     13.08750         0.003487      0.002605      0.000292
     11.31919      6.53535     13.10164         0.002592      0.002129      0.001397
      5.67148      6.53708     13.11279         0.001709      0.003756     -0.001375
      8.48553      6.53670     13.10548         0.003023      0.000435     -0.000161
      0.00308      0.00252     15.45950         0.001640      0.001543      0.008436
      2.88856      0.00015     15.48027         0.006159     -0.002007     -0.005844
      5.68148      0.02231     15.42720         0.002442      0.002407     -0.001315
      9.91221      2.50270     15.48050         0.002199      0.003917     -0.006200
      4.28605      2.47533     15.41494         0.000195      0.000492      0.000215
      7.07903      2.47064     15.41826         0.002472      0.002932     -0.001161
      2.85956      4.91024     15.42751         0.001317      0.000636     -0.001831
      5.67843      4.89662     15.41840         0.003847     -0.000154     -0.001301
      8.50128      4.90874     15.42510        -0.000649     -0.000433      0.000509
      1.60691      0.92822     16.36285        -0.068927     -0.039442     -0.033754
 -----------------------------------------------------------------------------------
    total drift:                               -0.026017     -0.014414      0.063432


--------------------------------------------------------------------------------------------------------



  FREE ENERGIE OF THE ION-ELECTRON SYSTEM (eV)
  ---------------------------------------------------
  free  energy   TOTEN  =      -104.58764086 eV

  energy  without entropy=     -104.49044304  energy(sigma->0) =     -104.55524159
 


--------------------------------------------------------------------------------------------------------


    POTLOK:  cpu time      2.3427: real time      2.3690


--------------------------------------------------------------------------------------------------------


 writing wavefunctions
     LOOP+:  cpu time    195.2287: real time    198.9281
    4ORBIT:  cpu time      0.0000: real time      0.0000

 total amount of memory used by VASP MPI-rank0   148542. kBytes
=======================================================================

   base      :      30000. kBytes
   nonlr-proj:      22469. kBytes
   fftplans  :       5213. kBytes
   grid      :      24541. kBytes
   one-center:        575. kBytes
   wavefun   :      65744. kBytes
 
  
  
 General timing and accounting informations for this job:
 ========================================================
  
                  Total CPU time used (sec):      210.282
                            User time (sec):      206.629
                          System time (sec):        3.653
                         Elapsed time (sec):      220.227
  
                   Maximum memory used (kb):      632780.
                   Average memory used (kb):          N/A
  
                          Minor page faults:       339158
                          Major page faults:          639
                 Voluntary context switches:         5003
