unknown system                          
           1
     8.468310    0.000000    0.000000
     4.234155    7.333772    0.000000
     0.000000    0.000000   24.965662
   Pt   H 
    36     1
Direct configuration=     1
   0.00000000  0.00000000  0.34046764
   0.33400137  0.00000000  0.34046764
   0.66800274  0.00000000  0.34046764
   0.00000000  0.33400137  0.34046764
   0.33400137  0.33400137  0.34046764
   0.66800274  0.33400137  0.34046764
   0.00000000  0.66800274  0.34046764
   0.33400137  0.66800274  0.34046764
   0.66800274  0.66800274  0.34046764
   0.11133379  0.11133379  0.43297074
   0.44533516  0.11133379  0.43297074
   0.77933653  0.11133379  0.43297074
   0.11133379  0.44533516  0.43297074
   0.44533516  0.44533516  0.43297074
   0.77933653  0.44533516  0.43297074
   0.11133379  0.77933653  0.43297074
   0.44533516  0.77933653  0.43297074
   0.77933653  0.77933653  0.43297074
   0.89131329  0.22409965  0.52523672
   0.22376665  0.22381426  0.52531974
   0.55765371  0.22388072  0.52417903
   0.89126960  0.55644534  0.52495220
   0.22381487  0.55774422  0.52418523
   0.55752862  0.55759158  0.52422021
   0.89108732  0.89113141  0.52478654
   0.22404670  0.89136681  0.52523290
   0.55637509  0.89131557  0.52494003
   0.00019220  0.00034413  0.61923043
   0.34109182  0.00002101  0.62006264
   0.66938917  0.00304208  0.61793675
   0.99987827  0.34125628  0.62007166
   0.33736602  0.33752439  0.61744580
   0.66750117  0.33688560  0.61757857
   0.00290883  0.66953830  0.61794928
   0.33671090  0.66768048  0.61758413
   0.66922654  0.66933370  0.61785256
   0.12647228  0.12656722  0.65541438
