  37  37   0   0
  0.4190497E+02  0.8468310E-09  0.8468310E-09  0.2496566E-08  0.5000000E-15
  1.000000000000000E-004
  CAR 
 unknown system                          
      8.62347800     -9.89670418  301     -0.07613971      1.00000000
     -9.897  0.0000E+00  0.0000E+00
     -9.835  0.0000E+00  0.0000E+00
     -9.773  0.0000E+00  0.0000E+00
     -9.712 -0.4379E-28 -0.2703E-29
     -9.650 -0.6467E-24 -0.3992E-25
     -9.588 -0.4426E-20 -0.2733E-21
     -9.526 -0.1402E-16 -0.8659E-18
     -9.465 -0.1988E-13 -0.1228E-14
     -9.403 -0.1332E-10 -0.8234E-12
     -9.341 -0.4079E-08 -0.2526E-09
     -9.279 -0.5670E-06 -0.3526E-07
     -9.218 -0.3524E-04 -0.2211E-05
     -9.156 -0.9502E-03 -0.6087E-04
     -9.094 -0.1030E-01 -0.6966E-03
     -9.032 -0.3354E-01 -0.2767E-02
     -8.971  0.5076E-01  0.3670E-03
     -8.909  0.3292E+00  0.2069E-01
     -8.847  0.6083E+00  0.5824E-01
     -8.785  0.2049E+01  0.1848E+00
     -8.724  0.3811E+01  0.4200E+00
     -8.662  0.2252E+01  0.5591E+00
     -8.600 -0.2096E-01  0.5578E+00
     -8.539  0.2026E+00  0.5703E+00
     -8.477  0.2585E+01  0.7299E+00
     -8.415  0.3819E+01  0.9657E+00
     -8.353  0.3585E+01  0.1187E+01
     -8.292  0.3740E+01  0.1418E+01
     -8.230  0.1825E+01  0.1531E+01
     -8.168 -0.2461E-01  0.1529E+01
     -8.106 -0.3831E+00  0.1505E+01
     -8.045 -0.1091E+00  0.1499E+01
     -7.983  0.2549E+01  0.1656E+01
     -7.921  0.6546E+01  0.2060E+01
     -7.859  0.5616E+01  0.2407E+01
     -7.798  0.2045E+01  0.2533E+01
     -7.736  0.3742E+01  0.2764E+01
     -7.674  0.7341E+01  0.3217E+01
     -7.613  0.4758E+01  0.3511E+01
     -7.551  0.2220E+01  0.3648E+01
     -7.489  0.3274E+01  0.3850E+01
     -7.427  0.4739E+01  0.4143E+01
     -7.366  0.7109E+01  0.4582E+01
     -7.304  0.5163E+01  0.4900E+01
     -7.242  0.4677E+01  0.5189E+01
     -7.180  0.1003E+02  0.5808E+01
     -7.119  0.9487E+01  0.6394E+01
     -7.057  0.5330E+01  0.6723E+01
     -6.995  0.3084E+01  0.6913E+01
     -6.933  0.2970E+01  0.7097E+01
     -6.872  0.7029E+01  0.7531E+01
     -6.810  0.9160E+01  0.8096E+01
     -6.748  0.5209E+01  0.8418E+01
     -6.687  0.2901E+01  0.8597E+01
     -6.625  0.6405E+01  0.8992E+01
     -6.563  0.1360E+02  0.9832E+01
     -6.501  0.1528E+02  0.1078E+02
     -6.440  0.1216E+02  0.1153E+02
     -6.378  0.1092E+02  0.1220E+02
     -6.316  0.8076E+01  0.1270E+02
     -6.254  0.9111E+01  0.1326E+02
     -6.193  0.1902E+02  0.1443E+02
     -6.131  0.3250E+02  0.1644E+02
     -6.069  0.3675E+02  0.1871E+02
     -6.007  0.3040E+02  0.2059E+02
     -5.946  0.2914E+02  0.2239E+02
     -5.884  0.3219E+02  0.2437E+02
     -5.822  0.3605E+02  0.2660E+02
     -5.761  0.3131E+02  0.2853E+02
     -5.699  0.2610E+02  0.3014E+02
     -5.637  0.3222E+02  0.3213E+02
     -5.575  0.3954E+02  0.3457E+02
     -5.514  0.4241E+02  0.3719E+02
     -5.452  0.5055E+02  0.4031E+02
     -5.390  0.6255E+02  0.4417E+02
     -5.328  0.6302E+02  0.4806E+02
     -5.267  0.5551E+02  0.5149E+02
     -5.205  0.4857E+02  0.5449E+02
     -5.143  0.4363E+02  0.5718E+02
     -5.081  0.4849E+02  0.6018E+02
     -5.020  0.6753E+02  0.6434E+02
     -4.958  0.6277E+02  0.6822E+02
     -4.896  0.3414E+02  0.7033E+02
     -4.835  0.2437E+02  0.7183E+02
     -4.773  0.3881E+02  0.7423E+02
     -4.711  0.3874E+02  0.7662E+02
     -4.649  0.2195E+02  0.7797E+02
     -4.588  0.2381E+02  0.7944E+02
     -4.526  0.4359E+02  0.8213E+02
     -4.464  0.5973E+02  0.8582E+02
     -4.402  0.6179E+02  0.8964E+02
     -4.341  0.5407E+02  0.9297E+02
     -4.279  0.4714E+02  0.9588E+02
     -4.217  0.4492E+02  0.9866E+02
     -4.155  0.4588E+02  0.1015E+03
     -4.094  0.5537E+02  0.1049E+03
     -4.032  0.5808E+02  0.1085E+03
     -3.970  0.4779E+02  0.1114E+03
     -3.909  0.4227E+02  0.1141E+03
     -3.847  0.3938E+02  0.1165E+03
     -3.785  0.3647E+02  0.1187E+03
     -3.723  0.4185E+02  0.1213E+03
     -3.662  0.5875E+02  0.1249E+03
     -3.600  0.6461E+02  0.1289E+03
     -3.538  0.5806E+02  0.1325E+03
     -3.476  0.5720E+02  0.1361E+03
     -3.415  0.6892E+02  0.1403E+03
     -3.353  0.7769E+02  0.1451E+03
     -3.291  0.7354E+02  0.1496E+03
     -3.229  0.6758E+02  0.1538E+03
     -3.168  0.7279E+02  0.1583E+03
     -3.106  0.8659E+02  0.1637E+03
     -3.044  0.8337E+02  0.1688E+03
     -2.983  0.7468E+02  0.1734E+03
     -2.921  0.7777E+02  0.1782E+03
     -2.859  0.7739E+02  0.1830E+03
     -2.797  0.8482E+02  0.1882E+03
     -2.736  0.1026E+03  0.1946E+03
     -2.674  0.1055E+03  0.2011E+03
     -2.612  0.8246E+02  0.2062E+03
     -2.550  0.6105E+02  0.2099E+03
     -2.489  0.6385E+02  0.2139E+03
     -2.427  0.5990E+02  0.2176E+03
     -2.365  0.4282E+02  0.2202E+03
     -2.303  0.2990E+02  0.2221E+03
     -2.242  0.2422E+02  0.2236E+03
     -2.180  0.2940E+02  0.2254E+03
     -2.118  0.4498E+02  0.2281E+03
     -2.056  0.6677E+02  0.2323E+03
     -1.995  0.8862E+02  0.2377E+03
     -1.933  0.9185E+02  0.2434E+03
     -1.871  0.7916E+02  0.2483E+03
     -1.810  0.6015E+02  0.2520E+03
     -1.748  0.4419E+02  0.2547E+03
     -1.686  0.4196E+02  0.2573E+03
     -1.624  0.4872E+02  0.2603E+03
     -1.563  0.5878E+02  0.2640E+03
     -1.501  0.5823E+02  0.2676E+03
     -1.439  0.5393E+02  0.2709E+03
     -1.377  0.5932E+02  0.2745E+03
     -1.316  0.5839E+02  0.2782E+03
     -1.254  0.5080E+02  0.2813E+03
     -1.192  0.5750E+02  0.2848E+03
     -1.130  0.7559E+02  0.2895E+03
     -1.069  0.8496E+02  0.2948E+03
     -1.007  0.8467E+02  0.3000E+03
     -0.945  0.6887E+02  0.3042E+03
     -0.884  0.5704E+02  0.3078E+03
     -0.822  0.5857E+02  0.3114E+03
     -0.760  0.5073E+02  0.3145E+03
     -0.698  0.4168E+02  0.3171E+03
     -0.637  0.5272E+02  0.3203E+03
     -0.575  0.6309E+02  0.3242E+03
     -0.513  0.5915E+02  0.3279E+03
     -0.451  0.5998E+02  0.3316E+03
     -0.390  0.7066E+02  0.3359E+03
     -0.328  0.8910E+02  0.3414E+03
     -0.266  0.9403E+02  0.3472E+03
     -0.204  0.6950E+02  0.3515E+03
     -0.143  0.5740E+02  0.3551E+03
     -0.081  0.8791E+02  0.3605E+03
     -0.019  0.9474E+02  0.3664E+03
      0.042  0.5283E+02  0.3696E+03
      0.104  0.3226E+02  0.3716E+03
      0.166  0.5203E+02  0.3748E+03
      0.228  0.5674E+02  0.3783E+03
      0.289  0.4395E+02  0.3810E+03
      0.351  0.3705E+02  0.3833E+03
      0.413  0.2554E+02  0.3849E+03
      0.475  0.1240E+02  0.3857E+03
      0.536  0.4917E+01  0.3860E+03
      0.598  0.3103E+01  0.3862E+03
      0.660  0.4415E+01  0.3864E+03
      0.722  0.1133E+02  0.3871E+03
      0.783  0.1635E+02  0.3881E+03
      0.845  0.1107E+02  0.3888E+03
      0.907  0.7168E+01  0.3893E+03
      0.968  0.1053E+02  0.3899E+03
      1.030  0.9242E+01  0.3905E+03
      1.092  0.2873E+01  0.3907E+03
      1.154  0.4097E+01  0.3909E+03
      1.215  0.1140E+02  0.3916E+03
      1.277  0.1359E+02  0.3925E+03
      1.339  0.1204E+02  0.3932E+03
      1.401  0.1035E+02  0.3938E+03
      1.462  0.1487E+02  0.3948E+03
      1.524  0.2665E+02  0.3964E+03
      1.586  0.2590E+02  0.3980E+03
      1.648  0.1816E+02  0.3991E+03
      1.709  0.1551E+02  0.4001E+03
      1.771  0.9467E+01  0.4007E+03
      1.833  0.1786E+01  0.4008E+03
      1.894  0.1762E+01  0.4009E+03
      1.956  0.4988E+01  0.4012E+03
      2.018  0.6924E+01  0.4016E+03
      2.080  0.5858E+01  0.4020E+03
      2.141  0.4235E+01  0.4022E+03
      2.203  0.9048E+01  0.4028E+03
      2.265  0.1213E+02  0.4035E+03
      2.327  0.1065E+02  0.4042E+03
      2.388  0.1473E+02  0.4051E+03
      2.450  0.2167E+02  0.4065E+03
      2.512  0.2032E+02  0.4077E+03
      2.574  0.1116E+02  0.4084E+03
      2.635  0.6512E+01  0.4088E+03
      2.697  0.6526E+01  0.4092E+03
      2.759  0.1162E+02  0.4099E+03
      2.820  0.1968E+02  0.4111E+03
      2.882  0.1820E+02  0.4123E+03
      2.944  0.1167E+02  0.4130E+03
      3.006  0.7621E+01  0.4134E+03
      3.067  0.1110E+02  0.4141E+03
      3.129  0.1452E+02  0.4150E+03
      3.191  0.1175E+02  0.4158E+03
      3.253  0.1013E+02  0.4164E+03
      3.314  0.7872E+01  0.4169E+03
      3.376  0.2616E+01  0.4170E+03
      3.438  0.1092E+00  0.4170E+03
      3.500  0.4291E+01  0.4173E+03
      3.561  0.1281E+02  0.4181E+03
      3.623  0.2120E+02  0.4194E+03
      3.685  0.2537E+02  0.4210E+03
      3.746  0.2060E+02  0.4222E+03
      3.808  0.1034E+02  0.4229E+03
      3.870  0.4452E+01  0.4232E+03
      3.932  0.3634E+01  0.4234E+03
      3.993  0.3956E+01  0.4236E+03
      4.055  0.5209E+01  0.4239E+03
      4.117  0.7691E+01  0.4244E+03
      4.179  0.7910E+01  0.4249E+03
      4.240  0.6366E+01  0.4253E+03
      4.302  0.5250E+01  0.4256E+03
      4.364  0.1346E+02  0.4265E+03
      4.426  0.2591E+02  0.4281E+03
      4.487  0.1989E+02  0.4293E+03
      4.549  0.6858E+01  0.4297E+03
      4.611  0.7268E+01  0.4302E+03
      4.673  0.1315E+02  0.4310E+03
      4.734  0.1592E+02  0.4319E+03
      4.796  0.1273E+02  0.4327E+03
      4.858  0.7204E+01  0.4332E+03
      4.919  0.5186E+01  0.4335E+03
      4.981  0.8967E+01  0.4341E+03
      5.043  0.9685E+01  0.4347E+03
      5.105  0.4701E+01  0.4349E+03
      5.166  0.5992E+01  0.4353E+03
      5.228  0.1261E+02  0.4361E+03
      5.290  0.1586E+02  0.4371E+03
      5.352  0.1080E+02  0.4377E+03
      5.413  0.4705E+01  0.4380E+03
      5.475  0.1169E+02  0.4387E+03
      5.537  0.2280E+02  0.4402E+03
      5.599  0.2562E+02  0.4417E+03
      5.660  0.2677E+02  0.4434E+03
      5.722  0.2705E+02  0.4451E+03
      5.784  0.2356E+02  0.4465E+03
      5.845  0.1843E+02  0.4477E+03
      5.907  0.1591E+02  0.4486E+03
      5.969  0.2324E+02  0.4501E+03
      6.031  0.3183E+02  0.4520E+03
      6.092  0.2490E+02  0.4536E+03
      6.154  0.1292E+02  0.4544E+03
      6.216  0.1413E+02  0.4552E+03
      6.278  0.2555E+02  0.4568E+03
      6.339  0.3327E+02  0.4589E+03
      6.401  0.2559E+02  0.4604E+03
      6.463  0.1257E+02  0.4612E+03
      6.525  0.1450E+02  0.4621E+03
      6.586  0.2643E+02  0.4638E+03
      6.648  0.3044E+02  0.4656E+03
      6.710  0.2588E+02  0.4672E+03
      6.771  0.2162E+02  0.4686E+03
      6.833  0.1548E+02  0.4695E+03
      6.895  0.1094E+02  0.4702E+03
      6.957  0.1556E+02  0.4712E+03
      7.018  0.1796E+02  0.4723E+03
      7.080  0.1717E+02  0.4733E+03
      7.142  0.2292E+02  0.4747E+03
      7.204  0.2550E+02  0.4763E+03
      7.265  0.2003E+02  0.4775E+03
      7.327  0.1120E+02  0.4782E+03
      7.389  0.4117E+01  0.4785E+03
      7.451  0.3929E+01  0.4787E+03
      7.512  0.7060E+01  0.4792E+03
      7.574  0.6443E+01  0.4796E+03
      7.636  0.4597E+01  0.4799E+03
      7.697  0.2377E+01  0.4800E+03
      7.759  0.2293E+00  0.4800E+03
      7.821 -0.2006E+00  0.4800E+03
      7.883 -0.5367E-01  0.4800E+03
      7.944 -0.4588E-02  0.4800E+03
      8.006 -0.1601E-03  0.4800E+03
      8.068 -0.2440E-05  0.4800E+03
      8.130 -0.1670E-07  0.4800E+03
      8.191 -0.5201E-10  0.4800E+03
      8.253 -0.7424E-13  0.4800E+03
      8.315  0.0000E+00  0.4800E+03
      8.377  0.0000E+00  0.4800E+03
      8.438  0.0000E+00  0.4800E+03
      8.500  0.0000E+00  0.4800E+03
      8.562  0.0000E+00  0.4800E+03
      8.623  0.0000E+00  0.4800E+03
