   37   37    1    1
  0.4190497E+02  0.8468310E-09  0.8468310E-09  0.2496566E-08  0.5000000E-15
  1.000000000000000E-004
  CAR 
 unknown system                          
    361     13    240
 
  0.1276756E-14  0.1276756E-14  0.1276756E-14  0.4000000E-01
      1         -8.896704   1.000000
      2         -7.809468   1.000000
      3         -7.089845   1.000000
      4         -6.500254   1.000000
      5         -6.470132   1.000000
      6         -6.450019   1.000000
      7         -6.443944   1.000000
      8         -6.438332   1.000000
      9         -6.431014   1.000000
     10         -6.419294   1.000000
     11         -6.156790   1.000000
     12         -5.917073   1.000000
     13         -5.913281   1.000000
     14         -5.894951   1.000000
     15         -5.892888   1.000000
     16         -5.886751   1.000000
     17         -5.834698   1.000000
     18         -5.458971   1.000000
     19         -5.457124   1.000000
     20         -5.454415   1.000000
     21         -5.446185   1.000000
     22         -5.444832   1.000000
     23         -5.328447   1.000000
     24         -5.225174   1.000000
     25         -5.220894   1.000000
     26         -5.217918   1.000000
     27         -5.214528   1.000000
     28         -5.210162   1.000000
     29         -5.131683   1.000000
     30         -5.029332   1.000000
     31         -5.024198   1.000000
     32         -5.021478   1.000000
     33         -5.016815   1.000000
     34         -5.014237   1.000000
     35         -4.957679   1.000000
     36         -4.955240   1.000000
     37         -4.949775   1.000000
     38         -4.942204   1.000000
     39         -4.908028   1.000000
     40         -4.905536   1.000000
     41         -4.512895   1.000000
     42         -4.376523   1.000000
     43         -4.374069   1.000000
     44         -4.345368   1.000000
     45         -4.335581   1.000000
     46         -4.319009   1.000000
     47         -4.315525   1.000000
     48         -4.296691   1.000000
     49         -4.279448   1.000000
     50         -4.274772   1.000000
     51         -4.181042   1.000000
     52         -4.132518   1.000000
     53         -4.131276   1.000000
     54         -4.030234   1.000000
     55         -4.027985   1.000000
     56         -3.584099   1.000000
     57         -3.579265   1.000000
     58         -3.562674   1.000000
     59         -3.556077   1.000000
     60         -3.554674   1.000000
     61         -3.496165   1.000000
     62         -3.466490   1.000000
     63         -3.387348   1.000000
     64         -3.376341   1.000000
     65         -3.371470   1.000000
     66         -3.370605   1.000000
     67         -3.364048   1.000000
     68         -3.363202   1.000000
     69         -3.345818   1.000000
     70         -3.314691   1.000000
     71         -3.308457   1.000000
     72         -3.294027   1.000000
     73         -3.290822   1.000000
     74         -3.288003   1.000000
     75         -3.265487   1.000000
     76         -3.257505   1.000000
     77         -3.253474   1.000000
     78         -3.156216   1.000000
     79         -3.156027   1.000000
     80         -3.139125   1.000000
     81         -3.133835   1.000000
     82         -3.129798   1.000000
     83         -3.101893   1.000000
     84         -2.940131   1.000000
     85         -2.929822   1.000000
     86         -2.928885   1.000000
     87         -2.925162   1.000000
     88         -2.914801   1.000000
     89         -2.891624   1.000000
     90         -2.885646   1.000000
     91         -2.875982   1.000000
     92         -2.839209   1.000000
     93         -2.826256   1.000000
     94         -2.784774   1.000000
     95         -2.779580   1.000000
     96         -2.744602   1.000000
     97         -2.740106   1.000000
     98         -2.694134   1.000000
     99         -2.691134   1.000000
    100         -2.690132   1.000000
    101         -2.605066   1.000000
    102         -2.532886   1.000000
    103         -2.524902   1.000000
    104         -2.514826   1.000000
    105         -2.504075   1.000000
    106         -2.497281   1.000000
    107         -2.491794   1.000000
    108         -2.279048   1.000000
    109         -2.019437   1.000000
    110         -1.999998   1.000000
    111         -1.997902   1.000000
    112         -1.989961   1.000000
    113         -1.983931   1.000000
    114         -1.974354   1.000000
    115         -1.968740   1.000000
    116         -1.967528   1.000000
    117         -1.959654   1.000000
    118         -1.955176   1.000000
    119         -1.951106   1.000000
    120         -1.872461   1.000000
    121         -1.867868   1.000000
    122         -1.818162   1.000000
    123         -1.736492   1.000000
    124         -1.722891   1.000000
    125         -1.720779   1.000000
    126         -1.717411   1.000000
    127         -1.710941   1.000000
    128         -1.618776   1.000000
    129         -1.595380   1.000000
    130         -1.537594   1.000000
    131         -1.537300   1.000000
    132         -1.518619   1.000000
    133         -1.494243   1.000000
    134         -1.295019   1.000000
    135         -1.278720   1.000000
    136         -1.263329   1.000000
    137         -1.256887   1.000000
    138         -1.251203   1.000000
    139         -1.247103   1.000000
    140         -1.184270   1.000000
    141         -1.181263   1.000000
    142         -1.056794   1.000000
    143         -1.039529   1.000000
    144         -1.038891   1.000000
    145         -1.034131   1.000000
    146         -1.027480   1.000000
    147         -1.017217   1.000000
    148         -0.872744   1.000000
    149         -0.856760   1.000000
    150         -0.853853   1.000000
    151         -0.849839   1.000000
    152         -0.834520   1.000000
    153         -0.826957   1.000000
    154         -0.820267   1.000000
    155         -0.819030   1.000000
    156         -0.813703   1.000000
    157         -0.805151   1.000000
    158         -0.801961   1.000000
    159         -0.801670   1.000000
    160         -0.724592   1.000000
    161         -0.709703   1.000000
    162         -0.697097   1.000000
    163         -0.694350   1.000000
    164         -0.676245   1.000000
    165         -0.654742   1.000000
    166         -0.647543   1.000000
    167         -0.640819   1.000000
    168         -0.602627   1.000000
    169         -0.594464   1.000000
    170         -0.583740   1.000000
    171         -0.565209   1.000000
    172         -0.556795   1.000000
    173         -0.547202   1.000000
    174         -0.542956   1.000000
    175         -0.536455   1.000000
    176         -0.462498   1.000000
    177         -0.457841   1.000000
    178         -0.447336   1.000001
    179         -0.437018   1.000002
    180         -0.432874   1.000003
    181         -0.431431   1.000003
    182         -0.392341   1.000037
    183         -0.348641   1.000400
    184         -0.340919   1.000583
    185         -0.325380   1.001198
    186         -0.320673   1.001473
    187         -0.311417   1.002179
    188         -0.310377   1.002274
    189         -0.120328   0.836528
    190         -0.104382   0.728769
    191         -0.018430   0.090529
    192         -0.016429   0.081290
    193         -0.007695   0.045672
    194          0.000216   0.019873
    195          0.001918   0.015090
    196          0.011461  -0.007019
    197          0.522171  -0.000000
    198          0.821382  -0.000000
    199          0.838485  -0.000000
    200          0.854107  -0.000000
    201          0.889528  -0.000000
    202          0.899670  -0.000000
    203          0.904799  -0.000000
    204          2.805526   0.000000
    205          3.125596   0.000000
    206          3.151059   0.000000
    207          3.201532   0.000000
    208          3.202901   0.000000
    209          3.215020   0.000000
    210          4.630108   0.000000
    211          4.730881   0.000000
    212          4.744534   0.000000
    213          4.815297   0.000000
    214          4.824196   0.000000
    215          4.828569   0.000000
    216          4.922452   0.000000
    217          5.115230   0.000000
    218          5.246930   0.000000
    219          5.445675   0.000000
    220          5.469747   0.000000
    221          5.781315   0.000000
    222          5.802829   0.000000
    223          5.853542   0.000000
    224          5.854221   0.000000
    225          5.866858   0.000000
    226          6.157005   0.000000
    227          6.332379   0.000000
    228          6.612322   0.000000
    229          6.618388   0.000000
    230          6.624362   0.000000
    231          6.851959   0.000000
    232          7.019590   0.000000
    233          7.131154   0.000000
    234          7.138135   0.000000
    235          7.165232   0.000000
    236          7.167703   0.000000
    237          7.168828   0.000000
    238          7.239070   0.000000
    239          7.274066   0.000000
    240          7.537383   0.000000
 
  0.2000000E+00  0.1278043E-14  0.1276756E-14  0.8000000E-01
      1         -8.748746   1.000000
      2         -7.687958   1.000000
      3         -7.046791   1.000000
      4         -6.919940   1.000000
      5         -6.551070   1.000000
      6         -6.543535   1.000000
      7         -6.358664   1.000000
      8         -6.260450   1.000000
      9         -6.212536   1.000000
     10         -6.206184   1.000000
     11         -6.120682   1.000000
     12         -6.002637   1.000000
     13         -5.970502   1.000000
     14         -5.843271   1.000000
     15         -5.826113   1.000000
     16         -5.818355   1.000000
     17         -5.746455   1.000000
     18         -5.529128   1.000000
     19         -5.420975   1.000000
     20         -5.408966   1.000000
     21         -5.401819   1.000000
     22         -5.384303   1.000000
     23         -5.328709   1.000000
     24         -5.296041   1.000000
     25         -5.272133   1.000000
     26         -5.231399   1.000000
     27         -5.212981   1.000000
     28         -5.204999   1.000000
     29         -5.146097   1.000000
     30         -5.105965   1.000000
     31         -5.101356   1.000000
     32         -5.037233   1.000000
     33         -5.017522   1.000000
     34         -5.005539   1.000000
     35         -5.004920   1.000000
     36         -4.867229   1.000000
     37         -4.809071   1.000000
     38         -4.773139   1.000000
     39         -4.764559   1.000000
     40         -4.743296   1.000000
     41         -4.553166   1.000000
     42         -4.490762   1.000000
     43         -4.488810   1.000000
     44         -4.454708   1.000000
     45         -4.407747   1.000000
     46         -4.390054   1.000000
     47         -4.380106   1.000000
     48         -4.311418   1.000000
     49         -4.205215   1.000000
     50         -4.176485   1.000000
     51         -4.116398   1.000000
     52         -4.107676   1.000000
     53         -4.061472   1.000000
     54         -4.045047   1.000000
     55         -4.028765   1.000000
     56         -3.822545   1.000000
     57         -3.733388   1.000000
     58         -3.727386   1.000000
     59         -3.672767   1.000000
     60         -3.654557   1.000000
     61         -3.614942   1.000000
     62         -3.574591   1.000000
     63         -3.565761   1.000000
     64         -3.554894   1.000000
     65         -3.531457   1.000000
     66         -3.526678   1.000000
     67         -3.470749   1.000000
     68         -3.447352   1.000000
     69         -3.402401   1.000000
     70         -3.367082   1.000000
     71         -3.358833   1.000000
     72         -3.324819   1.000000
     73         -3.277294   1.000000
     74         -3.264165   1.000000
     75         -3.255408   1.000000
     76         -3.175722   1.000000
     77         -3.164009   1.000000
     78         -3.157180   1.000000
     79         -3.128230   1.000000
     80         -3.096820   1.000000
     81         -3.072459   1.000000
     82         -3.064674   1.000000
     83         -3.030199   1.000000
     84         -3.000417   1.000000
     85         -2.959327   1.000000
     86         -2.956098   1.000000
     87         -2.937274   1.000000
     88         -2.927123   1.000000
     89         -2.903878   1.000000
     90         -2.897170   1.000000
     91         -2.867044   1.000000
     92         -2.833827   1.000000
     93         -2.796106   1.000000
     94         -2.786970   1.000000
     95         -2.768301   1.000000
     96         -2.754947   1.000000
     97         -2.732166   1.000000
     98         -2.728800   1.000000
     99         -2.698511   1.000000
    100         -2.680349   1.000000
    101         -2.614688   1.000000
    102         -2.565913   1.000000
    103         -2.551188   1.000000
    104         -2.518492   1.000000
    105         -2.507079   1.000000
    106         -2.502986   1.000000
    107         -2.495814   1.000000
    108         -2.492939   1.000000
    109         -2.444920   1.000000
    110         -2.431632   1.000000
    111         -2.429175   1.000000
    112         -2.418778   1.000000
    113         -2.185736   1.000000
    114         -2.067640   1.000000
    115         -2.024575   1.000000
    116         -2.017718   1.000000
    117         -2.004586   1.000000
    118         -1.991649   1.000000
    119         -1.977946   1.000000
    120         -1.955362   1.000000
    121         -1.935176   1.000000
    122         -1.865642   1.000000
    123         -1.796980   1.000000
    124         -1.779401   1.000000
    125         -1.716200   1.000000
    126         -1.658611   1.000000
    127         -1.650014   1.000000
    128         -1.605290   1.000000
    129         -1.590967   1.000000
    130         -1.580138   1.000000
    131         -1.545889   1.000000
    132         -1.541193   1.000000
    133         -1.522145   1.000000
    134         -1.440435   1.000000
    135         -1.417520   1.000000
    136         -1.392516   1.000000
    137         -1.385945   1.000000
    138         -1.374912   1.000000
    139         -1.255221   1.000000
    140         -1.203097   1.000000
    141         -1.172171   1.000000
    142         -1.166672   1.000000
    143         -1.147741   1.000000
    144         -1.143034   1.000000
    145         -1.122204   1.000000
    146         -1.053784   1.000000
    147         -1.036655   1.000000
    148         -0.999045   1.000000
    149         -0.992445   1.000000
    150         -0.989362   1.000000
    151         -0.936977   1.000000
    152         -0.919419   1.000000
    153         -0.909077   1.000000
    154         -0.892878   1.000000
    155         -0.819768   1.000000
    156         -0.790369   1.000000
    157         -0.775680   1.000000
    158         -0.762014   1.000000
    159         -0.731238   1.000000
    160         -0.665031   1.000000
    161         -0.644061   1.000000
    162         -0.631316   1.000000
    163         -0.604510   1.000000
    164         -0.589857   1.000000
    165         -0.567184   1.000000
    166         -0.545134   1.000000
    167         -0.488523   1.000000
    168         -0.472787   1.000000
    169         -0.412728   1.000010
    170         -0.405209   1.000017
    171         -0.398423   1.000025
    172         -0.387484   1.000049
    173         -0.360765   1.000215
    174         -0.356360   1.000270
    175         -0.347806   1.000417
    176         -0.341706   1.000562
    177         -0.328078   1.001061
    178         -0.277202   1.007724
    179         -0.272043   1.009105
    180         -0.128370   0.882100
    181         -0.127247   0.876118
    182         -0.099809   0.694222
    183         -0.086084   0.583696
    184         -0.071670   0.462212
    185         -0.068113   0.432311
    186         -0.031818   0.162665
    187         -0.020081   0.098459
    188         -0.005858   0.039145
    189          0.008450  -0.000875
    190          0.052501  -0.034920
    191          0.104767  -0.014085
    192          0.130239  -0.006470
    193          0.191745  -0.000502
    194          0.293976  -0.000001
    195          0.297040  -0.000001
    196          0.313390  -0.000000
    197          0.348184  -0.000000
    198          0.687187  -0.000000
    199          0.752542  -0.000000
    200          1.236680  -0.000000
    201          1.460369  -0.000000
    202          1.479913  -0.000000
    203          1.596231  -0.000000
    204          2.381112  -0.000000
    205          2.797804   0.000000
    206          2.907780   0.000000
    207          3.552217   0.000000
    208          3.646016   0.000000
    209          3.654313   0.000000
    210          3.737037   0.000000
    211          3.973256   0.000000
    212          4.419420   0.000000
    213          4.605602   0.000000
    214          4.745198   0.000000
    215          4.961843   0.000000
    216          4.991252   0.000000
    217          5.016938   0.000000
    218          5.223064   0.000000
    219          5.288151   0.000000
    220          5.464904   0.000000
    221          5.661677   0.000000
    222          5.708460   0.000000
    223          5.745241   0.000000
    224          5.908587   0.000000
    225          6.121761   0.000000
    226          6.256764   0.000000
    227          6.276690   0.000000
    228          6.332358   0.000000
    229          6.347679   0.000000
    230          6.641373   0.000000
    231          6.670882   0.000000
    232          6.752168   0.000000
    233          6.792897   0.000000
    234          6.879356   0.000000
    235          6.943101   0.000000
    236          7.057544   0.000000
    237          7.276351   0.000000
    238          7.452335   0.000000
    239          7.481301   0.000000
    240          7.623478   0.000000
 
  0.2000000E+00  0.2000000E+00  0.1276756E-14  0.8000000E-01
      1         -8.749106   1.000000
      2         -7.691959   1.000000
      3         -7.059308   1.000000
      4         -6.903675   1.000000
      5         -6.554410   1.000000
      6         -6.544886   1.000000
      7         -6.358849   1.000000
      8         -6.258962   1.000000
      9         -6.212317   1.000000
     10         -6.207747   1.000000
     11         -6.133079   1.000000
     12         -5.998662   1.000000
     13         -5.943732   1.000000
     14         -5.846868   1.000000
     15         -5.824654   1.000000
     16         -5.817539   1.000000
     17         -5.761591   1.000000
     18         -5.529315   1.000000
     19         -5.420741   1.000000
     20         -5.408110   1.000000
     21         -5.401746   1.000000
     22         -5.372948   1.000000
     23         -5.330005   1.000000
     24         -5.292017   1.000000
     25         -5.272067   1.000000
     26         -5.242237   1.000000
     27         -5.212178   1.000000
     28         -5.203852   1.000000
     29         -5.141559   1.000000
     30         -5.105249   1.000000
     31         -5.102112   1.000000
     32         -5.033927   1.000000
     33         -5.014802   1.000000
     34         -5.007447   1.000000
     35         -5.002641   1.000000
     36         -4.860536   1.000000
     37         -4.808552   1.000000
     38         -4.773262   1.000000
     39         -4.766896   1.000000
     40         -4.747895   1.000000
     41         -4.545688   1.000000
     42         -4.491618   1.000000
     43         -4.484770   1.000000
     44         -4.455853   1.000000
     45         -4.412294   1.000000
     46         -4.390243   1.000000
     47         -4.379722   1.000000
     48         -4.320857   1.000000
     49         -4.205477   1.000000
     50         -4.170724   1.000000
     51         -4.119605   1.000000
     52         -4.104142   1.000000
     53         -4.059660   1.000000
     54         -4.043929   1.000000
     55         -4.029353   1.000000
     56         -3.825287   1.000000
     57         -3.732842   1.000000
     58         -3.727004   1.000000
     59         -3.676950   1.000000
     60         -3.656861   1.000000
     61         -3.616439   1.000000
     62         -3.578066   1.000000
     63         -3.565482   1.000000
     64         -3.547419   1.000000
     65         -3.527978   1.000000
     66         -3.525053   1.000000
     67         -3.476019   1.000000
     68         -3.445329   1.000000
     69         -3.400526   1.000000
     70         -3.369477   1.000000
     71         -3.359884   1.000000
     72         -3.338234   1.000000
     73         -3.272867   1.000000
     74         -3.263204   1.000000
     75         -3.246283   1.000000
     76         -3.177239   1.000000
     77         -3.164667   1.000000
     78         -3.155830   1.000000
     79         -3.128579   1.000000
     80         -3.097409   1.000000
     81         -3.076564   1.000000
     82         -3.066379   1.000000
     83         -3.026086   1.000000
     84         -3.006240   1.000000
     85         -2.959842   1.000000
     86         -2.955926   1.000000
     87         -2.933521   1.000000
     88         -2.925940   1.000000
     89         -2.906188   1.000000
     90         -2.899812   1.000000
     91         -2.868408   1.000000
     92         -2.830883   1.000000
     93         -2.800103   1.000000
     94         -2.782034   1.000000
     95         -2.768581   1.000000
     96         -2.753779   1.000000
     97         -2.731172   1.000000
     98         -2.725834   1.000000
     99         -2.701463   1.000000
    100         -2.682016   1.000000
    101         -2.616679   1.000000
    102         -2.565984   1.000000
    103         -2.550174   1.000000
    104         -2.520675   1.000000
    105         -2.509498   1.000000
    106         -2.503017   1.000000
    107         -2.496614   1.000000
    108         -2.490652   1.000000
    109         -2.447368   1.000000
    110         -2.434189   1.000000
    111         -2.430364   1.000000
    112         -2.420572   1.000000
    113         -2.177183   1.000000
    114         -2.073363   1.000000
    115         -2.038042   1.000000
    116         -2.010125   1.000000
    117         -2.001687   1.000000
    118         -1.992882   1.000000
    119         -1.978945   1.000000
    120         -1.945118   1.000000
    121         -1.936274   1.000000
    122         -1.881011   1.000000
    123         -1.805676   1.000000
    124         -1.780270   1.000000
    125         -1.710448   1.000000
    126         -1.657984   1.000000
    127         -1.650344   1.000000
    128         -1.606468   1.000000
    129         -1.597709   1.000000
    130         -1.575943   1.000000
    131         -1.549985   1.000000
    132         -1.535997   1.000000
    133         -1.528748   1.000000
    134         -1.442842   1.000000
    135         -1.402926   1.000000
    136         -1.396148   1.000000
    137         -1.387550   1.000000
    138         -1.375688   1.000000
    139         -1.238584   1.000000
    140         -1.203611   1.000000
    141         -1.175609   1.000000
    142         -1.164522   1.000000
    143         -1.153253   1.000000
    144         -1.145743   1.000000
    145         -1.118031   1.000000
    146         -1.057027   1.000000
    147         -1.037738   1.000000
    148         -1.005826   1.000000
    149         -0.991690   1.000000
    150         -0.986356   1.000000
    151         -0.930074   1.000000
    152         -0.922722   1.000000
    153         -0.909397   1.000000
    154         -0.898257   1.000000
    155         -0.810862   1.000000
    156         -0.795931   1.000000
    157         -0.774336   1.000000
    158         -0.764529   1.000000
    159         -0.720801   1.000000
    160         -0.666872   1.000000
    161         -0.652456   1.000000
    162         -0.623913   1.000000
    163         -0.609194   1.000000
    164         -0.596759   1.000000
    165         -0.565820   1.000000
    166         -0.545111   1.000000
    167         -0.484364   1.000000
    168         -0.477082   1.000000
    169         -0.413039   1.000010
    170         -0.407923   1.000014
    171         -0.390971   1.000040
    172         -0.387629   1.000048
    173         -0.360386   1.000219
    174         -0.354452   1.000298
    175         -0.350036   1.000373
    176         -0.339792   1.000616
    177         -0.328785   1.001028
    178         -0.274377   1.008460
    179         -0.272357   1.009017
    180         -0.131980   0.900476
    181         -0.123618   0.855936
    182         -0.104327   0.728355
    183         -0.086199   0.584650
    184         -0.071495   0.460740
    185         -0.067428   0.426583
    186         -0.034976   0.182215
    187         -0.021350   0.104740
    188         -0.005243   0.037036
    189          0.005751   0.005273
    190          0.067355  -0.030427
    191          0.104793  -0.014076
    192          0.128544  -0.006852
    193          0.197323  -0.000381
    194          0.292215  -0.000001
    195          0.296007  -0.000001
    196          0.312788  -0.000000
    197          0.350670  -0.000000
    198          0.693537  -0.000000
    199          0.744945  -0.000000
    200          1.243533  -0.000000
    201          1.455576  -0.000000
    202          1.481685  -0.000000
    203          1.597969  -0.000000
    204          2.376343  -0.000000
    205          2.814253   0.000000
    206          2.899095   0.000000
    207          3.547676   0.000000
    208          3.651397   0.000000
    209          3.657622   0.000000
    210          3.731303   0.000000
    211          3.962583   0.000000
    212          4.421051   0.000000
    213          4.603478   0.000000
    214          4.745900   0.000000
    215          4.966536   0.000000
    216          4.990923   0.000000
    217          5.017125   0.000000
    218          5.234404   0.000000
    219          5.305009   0.000000
    220          5.454133   0.000000
    221          5.642919   0.000000
    222          5.705093   0.000000
    223          5.792268   0.000000
    224          5.899682   0.000000
    225          6.118913   0.000000
    226          6.249196   0.000000
    227          6.275399   0.000000
    228          6.332197   0.000000
    229          6.344131   0.000000
    230          6.599645   0.000000
    231          6.682535   0.000000
    232          6.753491   0.000000
    233          6.791738   0.000000
    234          6.863443   0.000000
    235          6.947738   0.000000
    236          7.060004   0.000000
    237          7.260811   0.000000
    238          7.470334   0.000000
    239          7.507799   0.000000
    240          7.615240   0.000000
 
  0.1276756E-14  0.2000000E+00  0.1276756E-14  0.8000000E-01
      1         -8.749134   1.000000
      2         -7.693028   1.000000
      3         -7.060409   1.000000
      4         -6.899733   1.000000
      5         -6.555271   1.000000
      6         -6.548377   1.000000
      7         -6.358625   1.000000
      8         -6.254701   1.000000
      9         -6.213136   1.000000
     10         -6.210577   1.000000
     11         -6.136683   1.000000
     12         -5.998232   1.000000
     13         -5.937979   1.000000
     14         -5.844324   1.000000
     15         -5.822705   1.000000
     16         -5.818378   1.000000
     17         -5.765485   1.000000
     18         -5.530824   1.000000
     19         -5.418100   1.000000
     20         -5.408250   1.000000
     21         -5.399494   1.000000
     22         -5.371849   1.000000
     23         -5.330091   1.000000
     24         -5.294680   1.000000
     25         -5.272389   1.000000
     26         -5.244434   1.000000
     27         -5.208930   1.000000
     28         -5.206284   1.000000
     29         -5.137544   1.000000
     30         -5.107922   1.000000
     31         -5.100319   1.000000
     32         -5.029771   1.000000
     33         -5.014040   1.000000
     34         -5.006802   1.000000
     35         -5.003244   1.000000
     36         -4.860766   1.000000
     37         -4.807886   1.000000
     38         -4.772556   1.000000
     39         -4.768020   1.000000
     40         -4.751712   1.000000
     41         -4.543415   1.000000
     42         -4.494737   1.000000
     43         -4.487342   1.000000
     44         -4.453830   1.000000
     45         -4.409344   1.000000
     46         -4.389478   1.000000
     47         -4.381253   1.000000
     48         -4.323750   1.000000
     49         -4.207064   1.000000
     50         -4.172521   1.000000
     51         -4.119321   1.000000
     52         -4.105097   1.000000
     53         -4.057089   1.000000
     54         -4.042931   1.000000
     55         -4.028698   1.000000
     56         -3.830145   1.000000
     57         -3.731027   1.000000
     58         -3.727549   1.000000
     59         -3.682008   1.000000
     60         -3.660658   1.000000
     61         -3.618465   1.000000
     62         -3.584386   1.000000
     63         -3.559391   1.000000
     64         -3.546315   1.000000
     65         -3.526649   1.000000
     66         -3.521681   1.000000
     67         -3.476772   1.000000
     68         -3.444658   1.000000
     69         -3.403175   1.000000
     70         -3.368825   1.000000
     71         -3.360960   1.000000
     72         -3.343582   1.000000
     73         -3.266969   1.000000
     74         -3.256851   1.000000
     75         -3.231195   1.000000
     76         -3.178169   1.000000
     77         -3.167596   1.000000
     78         -3.157489   1.000000