<?xml version="1.0" encoding="ISO-8859-1"?>
<modeling>
 <generator>
  <i name="program" type="string">vasp </i>
  <i name="version" type="string">6.4.2  </i>
  <i name="subversion" type="string">20Jul23 (build Mar 01 2024 16:46:03) complex                          parallel </i>
  <i name="platform" type="string">LinuxIFC </i>
  <i name="date" type="string">2025 01 15 </i>
  <i name="time" type="string">04:56:20 </i>
 </generator>
 <incar>
  <i type="string" name="ALGO">Fast</i>
  <i type="int" name="ISPIN">     1</i>
  <i type="int" name="IBRION">    -1</i>
  <i name="EDIFF">      0.00001000</i>
  <i type="int" name="ISYM">     0</i>
  <i name="ENCUT">    680.29000000</i>
  <i type="string" name="LREAL">Auto</i>
  <i type="int" name="ISMEAR">     1</i>
  <i name="SIGMA">      0.10000000</i>
  <i type="string" name="GGA">BF</i>
  <i type="logical" name="LUSE_VDW"> T  </i>
  <i name="Zab_VDW">     -1.88670000</i>
 </incar>
 <primitive_cell>
  <structure name="primitive_cell" >
   <crystal>
    <varray name="basis" >
     <v>       8.46831000       0.00000000       0.00000000 </v>
     <v>       4.23415500       7.33377159       0.00000000 </v>
     <v>       0.00000000       0.00000000      24.96566199 </v>
    </varray>
    <i name="volume">   1550.48373159 </i>
    <varray name="rec_basis" >
     <v>       0.11808732      -0.06817774       0.00000000 </v>
     <v>       0.00000000       0.13635549       0.00000000 </v>
     <v>       0.00000000       0.00000000       0.04005502 </v>
    </varray>
   </crystal>
   <varray name="positions" >
    <v>       0.00000000       0.00000000       0.34046764 </v>
    <v>       0.33400137       0.00000000       0.34046764 </v>
    <v>       0.66800274       0.00000000       0.34046764 </v>
    <v>       1.00000000       0.33400137       0.34046764 </v>
    <v>       0.33400137       0.33400137       0.34046764 </v>
    <v>       0.66800274       0.33400137       0.34046764 </v>
    <v>       1.00000000       0.66800274       0.34046764 </v>
    <v>       0.33400137       0.66800274       0.34046764 </v>
    <v>       0.66800274       0.66800274       0.34046764 </v>
    <v>       0.11133379       0.11133379       0.43297074 </v>
    <v>       0.44533516       0.11133379       0.43297074 </v>
    <v>       0.77933653       0.11133379       0.43297074 </v>
    <v>       0.11133379       0.44533516       0.43297074 </v>
    <v>       0.44533516       0.44533516       0.43297074 </v>
    <v>       0.77933653       0.44533516       0.43297074 </v>
    <v>       0.11133379       0.77933653       0.43297074 </v>
    <v>       0.44533516       0.77933653       0.43297074 </v>
    <v>       0.77933653       0.77933653       0.43297074 </v>
    <v>       0.88905816       0.22536108       0.52508189 </v>
    <v>       0.22184269       0.22447597       0.52584097 </v>
    <v>       0.55462928       0.22483912       0.52472308 </v>
    <v>       0.88932515       0.55673537       0.52508043 </v>
    <v>       0.22246475       0.55694775       0.52476803 </v>
    <v>       0.55525777       0.55788996       0.52433872 </v>
    <v>       0.88878791       0.89116458       0.52410794 </v>
    <v>       0.22232780       0.89170488       0.52486828 </v>
    <v>       0.55484980       0.89134629       0.52478109 </v>
    <v>       0.99802409       0.00209913       0.61748786 </v>
    <v>       0.33449066       0.00005548       0.62019666 </v>
    <v>       0.66674062       0.00247039       0.61759671 </v>
    <v>       0.99532659       0.33795302       0.62124816 </v>
    <v>       0.33421234       0.33683325       0.62025872 </v>
    <v>       0.66501501       0.33647990       0.61775065 </v>
    <v>       0.99810363       0.67160713       0.61753910 </v>
    <v>       0.33198321       0.66984557       0.61762643 </v>
    <v>       0.66503649       0.67024769       0.61776839 </v>
    <v>       0.19514501       0.24176695       0.65863514 </v>
   </varray>
  </structure>
  <varray name="primitive_index" >
   <v type="int" >        1 </v>
   <v type="int" >        2 </v>
   <v type="int" >        3 </v>
   <v type="int" >        4 </v>
   <v type="int" >        5 </v>
   <v type="int" >        6 </v>
   <v type="int" >        7 </v>
   <v type="int" >        8 </v>
   <v type="int" >        9 </v>
   <v type="int" >       10 </v>
   <v type="int" >       11 </v>
   <v type="int" >       12 </v>
   <v type="int" >       13 </v>
   <v type="int" >       14 </v>
   <v type="int" >       15 </v>
   <v type="int" >       16 </v>
   <v type="int" >       17 </v>
   <v type="int" >       18 </v>
   <v type="int" >       19 </v>
   <v type="int" >       20 </v>
   <v type="int" >       21 </v>
   <v type="int" >       22 </v>
   <v type="int" >       23 </v>
   <v type="int" >       24 </v>
   <v type="int" >       25 </v>
   <v type="int" >       26 </v>
   <v type="int" >       27 </v>
   <v type="int" >       28 </v>
   <v type="int" >       29 </v>
   <v type="int" >       30 </v>
   <v type="int" >       31 </v>
   <v type="int" >       32 </v>
   <v type="int" >       33 </v>
   <v type="int" >       34 </v>
   <v type="int" >       35 </v>
   <v type="int" >       36 </v>
   <v type="int" >       37 </v>
  </varray>
 </primitive_cell>
 <kpoints>
  <generation param="Monkhorst-Pack">
   <v type="int" name="divisions">       5        5        1 </v>
   <v name="usershift">      0.00000000       0.00000000       0.00000000 </v>
   <v name="genvec1">      0.20000000      -0.00000000       0.00000000 </v>
   <v name="genvec2">      0.00000000       0.20000000       0.00000000 </v>
   <v name="genvec3">      0.00000000       0.00000000       1.00000000 </v>
   <v name="shift">      0.00000000       0.00000000       0.00000000 </v>
  </generation>
  <varray name="kpointlist" >
   <v>       0.00000000       0.00000000       0.00000000 </v>
   <v>       0.20000000       0.00000000       0.00000000 </v>
   <v>       0.20000000       0.20000000       0.00000000 </v>
   <v>       0.00000000       0.20000000       0.00000000 </v>
   <v>       0.40000000       0.00000000       0.00000000 </v>
   <v>       0.40000000       0.40000000       0.00000000 </v>
   <v>       0.00000000       0.40000000       0.00000000 </v>
   <v>       0.40000000       0.20000000       0.00000000 </v>
   <v>       0.20000000       0.40000000       0.00000000 </v>
   <v>      -0.20000000       0.20000000       0.00000000 </v>
   <v>      -0.40000000       0.20000000       0.00000000 </v>
   <v>       0.40000000      -0.40000000       0.00000000 </v>
   <v>      -0.20000000       0.40000000       0.00000000 </v>
  </varray>
  <varray name="weights" >
   <v>       0.04000000 </v>
   <v>       0.08000000 </v>
   <v>       0.08000000 </v>
   <v>       0.08000000 </v>
   <v>       0.08000000 </v>
   <v>       0.08000000 </v>
   <v>       0.08000000 </v>
   <v>       0.08000000 </v>
   <v>       0.08000000 </v>
   <v>       0.08000000 </v>
   <v>       0.08000000 </v>
   <v>       0.08000000 </v>
   <v>       0.08000000 </v>
  </varray>
 </kpoints>
 <parameters>
  <separator name="general" >
   <i type="string" name="SYSTEM">unknown system</i>
   <i type="logical" name="LCOMPAT"> F  </i>
  </separator>
  <separator name="electronic" >
   <i type="string" name="PREC">normal</i>
   <i name="ENMAX">    680.29000000</i>
   <i name="ENAUG">    400.00000000</i>
   <i name="EDIFF">      0.00001000</i>
   <i type="int" name="IALGO">    68</i>
   <i type="int" name="IWAVPR">    10</i>
   <i type="int" name="NBANDS">   240</i>
   <i type="int" name="NBANDSLOW">    -1</i>
   <i type="int" name="NBANDSHIGH">    -1</i>
   <i name="NELECT">    361.00000000</i>
   <i type="int" name="TURBO">     0</i>
   <i type="int" name="IRESTART">     0</i>
   <i type="int" name="NREBOOT">     0</i>
   <i type="int" name="NMIN">     0</i>
   <i name="EREF">      0.00000000</i>
   <separator name="electronic smearing" >
    <i type="int" name="ISMEAR">     1</i>
    <i name="SIGMA">      0.10000000</i>
    <i name="KSPACING">      0.50000000</i>
    <i type="logical" name="KGAMMA"> T  </i>
    <i type="logical" name="KBLOWUP"> T  </i>
   </separator>
   <separator name="electronic projectors" >
    <i type="logical" name="LREAL"> T  </i>
    <v name="ROPT">     -0.00050000     -0.00050000</v>
    <i type="int" name="LMAXPAW">  -100</i>
    <i type="int" name="LMAXMIX">     2</i>
    <i type="logical" name="NLSPLINE"> F  </i>
   </separator>
   <separator name="electronic startup" >
    <i type="int" name="ISTART">     1</i>
    <i type="int" name="ICHARG">     0</i>
    <i type="int" name="INIWAV">     1</i>
   </separator>
   <separator name="electronic spin" >
    <i type="int" name="ISPIN">     1</i>
    <i type="logical" name="LNONCOLLINEAR"> F  </i>
    <v name="MAGMOM">      1.00000000      1.00000000      1.00000000      1.00000000      1.00000000      1.00000000      1.00000000      1.00000000      1.00000000      1.00000000      1.00000000      1.00000000      1.00000000      1.00000000      1.00000000      1.00000000      1.00000000      1.00000000      1.00000000      1.00000000
      1.00000000      1.00000000      1.00000000      1.00000000      1.00000000      1.00000000      1.00000000      1.00000000      1.00000000      1.00000000      1.00000000      1.00000000      1.00000000      1.00000000      1.00000000      1.00000000      1.00000000</v>
    <i name="NUPDOWN">     -1.00000000</i>
    <i type="logical" name="LSORBIT"> F  </i>
    <v name="SAXIS">      0.00000000      0.00000000      1.00000000</v>
    <i type="logical" name="LSPIRAL"> F  </i>
    <v name="QSPIRAL">      0.00000000      0.00000000      0.00000000</v>
    <i type="logical" name="LZEROZ"> F  </i>
   </separator>
   <separator name="electronic exchange-correlation" >
    <i type="logical" name="LASPH"> F  </i>
    <i type="logical" name="LMETAGGA"> F  </i>
   </separator>
   <separator name="electronic convergence" >
    <i type="int" name="NELM">    60</i>
    <i type="int" name="NELMDL">     0</i>
    <i type="int" name="NELMIN">     2</i>
    <i name="ENINI">    680.29000000</i>
    <separator name="electronic convergence detail" >
     <i type="logical" name="LDIAG"> T  </i>
     <i type="logical" name="LSUBROT"> F  </i>
     <i name="WEIMIN">      0.00000000</i>
     <i name="EBREAK">      0.00000001</i>
     <i name="DEPER">      0.30000000</i>
     <i type="int" name="NRMM">     4</i>
     <i name="TIME">      0.40000000</i>
    </separator>
   </separator>
   <separator name="electronic mixer" >
    <i name="AMIX">      0.40000000</i>
    <i name="BMIX">      1.00000000</i>
    <i name="AMIN">      0.10000000</i>
    <i name="AMIX_MAG">      1.60000000</i>
    <i name="BMIX_MAG">      1.00000000</i>
    <separator name="electronic mixer details" >
     <i type="int" name="IMIX">     4</i>
     <i type="logical" name="MIXFIRST"> F  </i>
     <i type="int" name="MAXMIX">   -45</i>
     <i name="WC">    100.00000000</i>
     <i type="int" name="INIMIX">     1</i>
     <i type="int" name="MIXPRE">     1</i>
     <i type="int" name="MREMOVE">     5</i>
    </separator>
   </separator>
   <separator name="electronic dipolcorrection" >
    <i type="logical" name="LDIPOL"> F  </i>
    <i type="logical" name="LMONO"> F  </i>
    <i type="int" name="IDIPOL">     0</i>
    <i name="EPSILON">      1.00000000</i>
    <v name="DIPOL">   -100.00000000   -100.00000000   -100.00000000</v>
    <i name="EFIELD">      0.00000000</i>
   </separator>
  </separator>
  <separator name="grids" >
   <i type="int" name="NGX">    54</i>
   <i type="int" name="NGY">    54</i>
   <i type="int" name="NGZ">   160</i>
   <i type="int" name="NGXF">   108</i>
   <i type="int" name="NGYF">   108</i>
   <i type="int" name="NGZF">   320</i>
   <i type="logical" name="ADDGRID"> F  </i>
  </separator>
  <separator name="ionic" >
   <i type="int" name="NSW">     0</i>
   <i type="int" name="IBRION">    -1</i>
   <i type="int" name="MDALGO">     0</i>
   <i type="int" name="ISIF">     2</i>
   <i name="PSTRESS">      0.00000000</i>
   <i name="EDIFFG">      0.00010000</i>
   <i type="int" name="NFREE">     0</i>
   <i name="POTIM">      0.50000000</i>
   <i name="SMASS">     -3.00000000</i>
   <i name="SCALEE">      1.00000000</i>
  </separator>
  <separator name="ionic md" >
   <i name="TEBEG">      0.00010000</i>
   <i name="TEEND">      0.00010000</i>
   <i type="int" name="NBLOCK">     1</i>
   <i type="int" name="KBLOCK">     1</i>
   <i type="int" name="NPACO">   256</i>
   <i name="APACO">     10.00000000</i>
  </separator>
  <separator name="symmetry" >
   <i type="int" name="ISYM">     0</i>
   <i name="SYMPREC">      0.00001000</i>
  </separator>
  <separator name="dos" >
   <i type="int" name="LORBIT">     0</i>
   <v name="RWIGS">     -1.00000000     -1.00000000</v>
   <i type="int" name="NEDOS">   301</i>
   <i name="EMIN">     10.00000000</i>
   <i name="EMAX">    -10.00000000</i>
   <i name="EFERMI">      0.00000000</i>
  </separator>
  <separator name="writing" >
   <i type="int" name="NWRITE">     2</i>
   <i type="logical" name="LWAVE"> T  </i>
   <i type="logical" name="LDOWNSAMPLE"> F  </i>
   <i type="logical" name="LCHARG"> T  </i>
   <i type="logical" name="LPARD"> F  </i>
   <i type="logical" name="LVTOT"> F  </i>
   <i type="logical" name="LVHAR"> F  </i>
   <i type="logical" name="LELF"> F  </i>
   <i type="logical" name="LOPTICS"> F  </i>
   <v name="STM">      0.00000000      0.00000000      0.00000000      0.00000000      0.00000000      0.00000000      0.00000000</v>
  </separator>
  <separator name="performance" >
   <i type="int" name="NPAR">    48</i>
   <i type="int" name="NSIM">     4</i>
   <i type="int" name="NBLK">    -1</i>
   <i type="logical" name="LPLANE"> T  </i>
   <i type="logical" name="LSCALAPACK"> T  </i>
   <i type="logical" name="LSCAAWARE"> F  </i>
   <i type="logical" name="LSCALU"> F  </i>
   <i type="logical" name="LASYNC"> F  </i>
   <i type="logical" name="LORBITALREAL"> F  </i>
  </separator>
  <separator name="miscellaneous" >
   <i type="int" name="IDIOT">     3</i>
   <i type="int" name="PHON_NSTRUCT">    -1</i>
   <i type="logical" name="LMUSIC"> F  </i>
   <v name="POMASS">    195.08000000      1.00000000</v>
   <v name="DARWINR">      0.00000000      0.00000000</v>
   <v name="DARWINV">      1.00000000      1.00000000</v>
   <i type="logical" name="LCORR"> T  </i>
  </separator>
  <i type="logical" name="GGA_COMPAT"> T  </i>
  <i type="logical" name="LBERRY"> F  </i>
  <i type="int" name="ICORELEVEL">     0</i>
  <i type="logical" name="LDAU"> F  </i>
  <i type="int" name="I_CONSTRAINED_M">     0</i>
  <separator name="electronic exchange-correlation" >
   <i type="string" name="GGA">BF</i>
   <i type="int" name="VOSKOWN">     0</i>
   <i type="logical" name="LHFCALC"> F  </i>
   <i type="string" name="PRECFOCK"></i>
   <i type="logical" name="LSYMGRAD"> F  </i>
   <i type="logical" name="LHFONE"> F  </i>
   <i type="logical" name="LRHFCALC"> F  </i>
   <i type="logical" name="LTHOMAS"> F  </i>
   <i type="logical" name="LMODELHF"> F  </i>
   <i type="logical" name="LFOCKACE"> F  </i>
   <i name="ENCUT4O">     -1.00000000</i>
   <i type="int" name="EXXOEP">     0</i>
   <i type="int" name="FOURORBIT">     0</i>
   <i name="AEXX">      0.00000000</i>
   <i name="HFALPHA">      0.00000000</i>
   <i name="MCALPHA">      0.00000000</i>
   <i name="ALDAX">      1.00000000</i>
   <i name="AGGAX">      1.00000000</i>
   <i name="ALDAC">      1.00000000</i>
   <i name="AGGAC">      1.00000000</i>
   <i type="int" name="NKREDX">     1</i>
   <i type="int" name="NKREDY">     1</i>
   <i type="int" name="NKREDZ">     1</i>
   <i type="logical" name="SHIFTRED"> F  </i>
   <i type="logical" name="ODDONLY"> F  </i>
   <i type="logical" name="EVENONLY"> F  </i>
   <i type="int" name="LMAXFOCK">     0</i>
   <i type="int" name="NMAXFOCKAE">     0</i>
   <i type="logical" name="LFOCKAEDFT"> F  </i>
   <i name="HFSCREEN">      0.00000000</i>
   <i name="HFSCREENC">      0.00000000</i>
   <i type="int" name="NBANDSGWLOW">     0</i>
  </separator>
  <separator name="vdW DFT" >
   <i type="logical" name="LUSE_VDW"> T  </i>
   <i type="int" name="IVDW_NL">     1</i>
   <i type="logical" name="LSPIN_VDW"> F  </i>
   <i name="Zab_VDW">     -1.88670000</i>
   <i name="PARAM1">      0.12340000</i>
   <i name="PARAM2">      1.00000000</i>
   <i name="PARAM3">      0.00000000</i>
  </separator>
  <separator name="model GW" >
   <i type="int" name="MODEL_GW">     0</i>
   <i name="MODEL_EPS0">     25.14297943</i>
   <i name="MODEL_ALPHA">      1.00000000</i>
  </separator>
  <separator name="linear response parameters" >
   <i type="logical" name="LEPSILON"> F  </i>
   <i type="logical" name="LRPA"> F  </i>
   <i type="logical" name="LNABLA"> F  </i>
   <i type="logical" name="LVEL"> F  </i>
   <i name="CSHIFT">      0.10000000</i>
   <i name="OMEGAMAX">     -1.00000000</i>
   <i name="DEG_THRESHOLD">      0.00200000</i>
   <i name="RTIME">     -0.10000000</i>
   <i name="WPLASMAI">      0.00000000</i>
   <v name="DFIELD">      0.00000000      0.00000000      0.00000000</v>
   <v name="WPLASMA">      0.00000000      0.00000000      0.00000000      0.00000000      0.00000000      0.00000000      0.00000000      0.00000000      0.00000000</v>
  </separator>
  <separator name="orbital magnetization" >
   <i type="logical" name="NUCIND"> F  </i>
   <v name="MAGPOS">      0.00000000      0.00000000      0.00000000</v>
   <i type="logical" name="LNICSALL"> T  </i>
   <i type="logical" name="ORBITALMAG"> F  </i>
   <i type="logical" name="LMAGBLOCH"> F  </i>
   <i type="logical" name="LCHIMAG"> F  </i>
   <i type="logical" name="LGAUGE"> T  </i>
   <i type="int" name="MAGATOM">     0</i>
   <v name="MAGDIPOL">      0.00000000      0.00000000      0.00000000</v>
   <v name="AVECCONST">      0.00000000      0.00000000      0.00000000</v>
  </separator>
  <separator name="response functions" >
   <i type="logical" name="LALL_IN_ONE"> F  </i>
   <i type="int" name="IALL_IN_ONE">    -1</i>
   <i type="int" name="NBANDS_WAVE">    -1</i>
   <i type="logical" name="LFINITE_TEMPERATURE"> F  </i>
   <i type="logical" name="LADDER"> F  </i>
   <i type="logical" name="LRPAFORCE"> F  </i>
   <i type="logical" name="LFXC"> F  </i>
   <i type="logical" name="LHARTREE"> T  </i>
   <i type="int" name="IBSE">     0</i>
   <v type="int" name="KPOINT">    -1     0     0     0</v>
   <i type="logical" name="LTCTC"> F  </i>
   <i type="logical" name="LTCTE"> F  </i>
   <i type="logical" name="LTETE"> F  </i>
   <i type="logical" name="LTRIPLET"> F  </i>
   <i type="logical" name="LFXCEPS"> F  </i>
   <i type="logical" name="LFXHEG"> F  </i>
   <i type="int" name="NATURALO">     2</i>
   <i type="logical" name="LHOLEGF"> F  </i>
   <i type="logical" name="L2ORDER"> F  </i>
   <i type="logical" name="LDMP1"> F  </i>
   <i type="logical" name="LMP2LT"> F  </i>
   <i type="logical" name="LSMP2LT"> F  </i>
   <i type="logical" name="LGWLF"> F  </i>
   <i name="ENCUTGW">     -1.60000002</i>
   <i name="ENCUTGWSOFT">     -1.60000002</i>
   <i name="ENCUTLF">     -1.00000000</i>
   <i type="logical" name="LESF_SPLINES"> F  </i>
   <i type="int" name="LMAXMP2">    -1</i>
   <i name="SCISSOR">      0.00000000</i>
   <i type="int" name="NOMEGA">     0</i>
   <i type="int" name="NOMEGAR">     0</i>
   <i type="int" name="NBANDSGW">    -1</i>
   <i type="int" name="NBANDSO">    -1</i>
   <i type="int" name="NBANDSV">    -1</i>
   <i type="int" name="NELMGW">     1</i>
   <i type="int" name="NELMHF">     1</i>
   <i type="int" name="DIM">     3</i>
   <i type="int" name="IESPILON">     4</i>
   <i type="int" name="ANTIRES">     0</i>
   <i name="OMEGAMAX">    -30.00000000</i>
   <i name="OMEGAMIN">    -30.00000000</i>
   <i name="OMEGATL">   -200.00000000</i>
   <i type="int" name="OMEGAGRID">     0</i>
   <i name="CSHIFT">     -0.10000000</i>
   <i type="logical" name="LSELFENERGY"> F  </i>
   <i type="logical" name="LSPECTRAL"> F  </i>
   <i type="logical" name="LSPECTRALGW"> F  </i>
   <i type="logical" name="LSINGLES"> F  </i>
   <i type="logical" name="LFERMIGW"> F  </i>
   <i type="logical" name="ODDONLYGW"> F  </i>
   <i type="logical" name="EVENONLYGW"> F  </i>
   <i type="int" name="NKREDLFX">     1</i>
   <i type="int" name="NKREDLFY">     1</i>
   <i type="int" name="NKREDLFZ">     1</i>
   <i type="int" name="MAXMEM">  2800</i>
   <i type="int" name="TELESCOPE">     0</i>
   <i type="int" name="NTAUPAR">    -1</i>
   <i type="int" name="NOMEGAPAR">    -1</i>
   <i name="DAMP_NEWTON">      0.80000001</i>
   <i name="LAMBDA">      1.00000000</i>
  </separator>
  <separator name="External order field" >
   <i name="OFIELD_KAPPA">      0.00000000</i>
   <v name="OFIELD_K">      0.00000000      0.00000000      0.00000000</v>
   <i name="OFIELD_Q6_NEAR">      0.00000000</i>
   <i name="OFIELD_Q6_FAR">      0.00000000</i>
   <i name="OFIELD_A">      0.00000000</i>
  </separator>
  <separator name="optional k-points parameters" >
   <i type="int" name="KPOINTS_OPT_MODE">     1</i>
   <i type="logical" name="LKPOINTS_OPT"> F  </i>
  </separator>
 </parameters>
 <atominfo>
  <atoms>      37 </atoms>
  <types>       2 </types>
  <array name="atoms" >
   <dimension dim="1">ion</dimension>
   <field type="string">element</field>
   <field type="int">atomtype</field>
   <set>
    <rc><c>Pt</c><c>   1</c></rc>
    <rc><c>Pt</c><c>   1</c></rc>
    <rc><c>Pt</c><c>   1</c></rc>
    <rc><c>Pt</c><c>   1</c></rc>
    <rc><c>Pt</c><c>   1</c></rc>
    <rc><c>Pt</c><c>   1</c></rc>
    <rc><c>Pt</c><c>   1</c></rc>
    <rc><c>Pt</c><c>   1</c></rc>
    <rc><c>Pt</c><c>   1</c></rc>
    <rc><c>Pt</c><c>   1</c></rc>
    <rc><c>Pt</c><c>   1</c></rc>
    <rc><c>Pt</c><c>   1</c></rc>
    <rc><c>Pt</c><c>   1</c></rc>
    <rc><c>Pt</c><c>   1</c></rc>
    <rc><c>Pt</c><c>   1</c></rc>
    <rc><c>Pt</c><c>   1</c></rc>
    <rc><c>Pt</c><c>   1</c></rc>
    <rc><c>Pt</c><c>   1</c></rc>
    <rc><c>Pt</c><c>   1</c></rc>
    <rc><c>Pt</c><c>   1</c></rc>
    <rc><c>Pt</c><c>   1</c></rc>
    <rc><c>Pt</c><c>   1</c></rc>
    <rc><c>Pt</c><c>   1</c></rc>
    <rc><c>Pt</c><c>   1</c></rc>
    <rc><c>Pt</c><c>   1</c></rc>
    <rc><c>Pt</c><c>   1</c></rc>
    <rc><c>Pt</c><c>   1</c></rc>
    <rc><c>Pt</c><c>   1</c></rc>
    <rc><c>Pt</c><c>   1</c></rc>
    <rc><c>Pt</c><c>   1</c></rc>
    <rc><c>Pt</c><c>   1</c></rc>
    <rc><c>Pt</c><c>   1</c></rc>
    <rc><c>Pt</c><c>   1</c></rc>
    <rc><c>Pt</c><c>   1</c></rc>
    <rc><c>Pt</c><c>   1</c></rc>
    <rc><c>Pt</c><c>   1</c></rc>
    <rc><c>H </c><c>   2</c></rc>
   </set>
  </array>
  <array name="atomtypes" >
   <dimension dim="1">type</dimension>
   <field type="int">atomspertype</field>
   <field type="string">element</field>
   <field>mass</field>
   <field>valence</field>
   <field type="string">pseudopotential</field>
   <set>
    <rc><c>  36</c><c>Pt</c><c>    195.08000000</c><c>     10.00000000</c><c>  PAW_PBE Pt 04Feb2005                  </c></rc>
    <rc><c>   1</c><c>H </c><c>      1.00000000</c><c>      1.00000000</c><c>  PAW_PBE H 15Jun2001                   </c></rc>
   </set>
  </array>
 </atominfo>
 <structure name="initialpos" >
  <crystal>
   <varray name="basis" >
    <v>       8.46831000       0.00000000       0.00000000 </v>
    <v>       4.23415500       7.33377159       0.00000000 </v>
    <v>       0.00000000       0.00000000      24.96566199 </v>
   </varray>
   <i name="volume">   1550.48373159 </i>
   <varray name="rec_basis" >
    <v>       0.11808732      -0.06817774       0.00000000 </v>
    <v>       0.00000000       0.13635549       0.00000000 </v>
    <v>       0.00000000       0.00000000       0.04005502 </v>
   </varray>
  </crystal>
  <varray name="positions" >
   <v>       0.00000000       0.00000000       0.34046764 </v>
   <v>       0.33400137       0.00000000       0.34046764 </v>
   <v>       0.66800274       0.00000000       0.34046764 </v>
   <v>       0.00000000       0.33400137       0.34046764 </v>
   <v>       0.33400137       0.33400137       0.34046764 </v>
   <v>       0.66800274       0.33400137       0.34046764 </v>
   <v>       0.00000000       0.66800274       0.34046764 </v>
   <v>       0.33400137       0.66800274       0.34046764 </v>
   <v>       0.66800274       0.66800274       0.34046764 </v>
   <v>       0.11133379       0.11133379       0.43297074 </v>
   <v>       0.44533516       0.11133379       0.43297074 </v>
   <v>       0.77933653       0.11133379       0.43297074 </v>
   <v>       0.11133379       0.44533516       0.43297074 </v>
   <v>       0.44533516       0.44533516       0.43297074 </v>
   <v>       0.77933653       0.44533516       0.43297074 </v>
   <v>       0.11133379       0.77933653       0.43297074 </v>
   <v>       0.44533516       0.77933653       0.43297074 </v>
   <v>       0.77933653       0.77933653       0.43297074 </v>
   <v>       0.88905816       0.22536108       0.52508189 </v>
   <v>       0.22184269       0.22447597       0.52584097 </v>
   <v>       0.55462928       0.22483912       0.52472308 </v>
   <v>       0.88932515       0.55673537       0.52508043 </v>
   <v>       0.22246475       0.55694775       0.52476803 </v>
   <v>       0.55525777       0.55788996       0.52433872 </v>
   <v>       0.88878791       0.89116458       0.52410794 </v>
   <v>       0.22232780       0.89170488       0.52486828 </v>
   <v>       0.55484980       0.89134629       0.52478109 </v>
   <v>       0.99802409       0.00209913       0.61748786 </v>
   <v>       0.33449066       0.00005548       0.62019666 </v>
   <v>       0.66674062       0.00247039       0.61759671 </v>
   <v>       0.99532659       0.33795302       0.62124816 </v>
   <v>       0.33421234       0.33683325       0.62025872 </v>
   <v>       0.66501501       0.33647990       0.61775065 </v>
   <v>       0.99810363       0.67160713       0.61753910 </v>
   <v>       0.33198321       0.66984557       0.61762643 </v>
   <v>       0.66503649       0.67024769       0.61776839 </v>
   <v>       0.19514501       0.24176695       0.65863514 </v>
  </varray>
  <varray name="selective"  type="logical" >
   <v type="logical" >  F  F  F </v>
   <v type="logical" >  F  F  F </v>
   <v type="logical" >  F  F  F </v>
   <v type="logical" >  F  F  F </v>
   <v type="logical" >  F  F  F </v>
   <v type="logical" >  F  F  F </v>
   <v type="logical" >  F  F  F </v>
   <v type="logical" >  F  F  F </v>
   <v type="logical" >  F  F  F </v>
   <v type="logical" >  F  F  F </v>
   <v type="logical" >  F  F  F </v>
   <v type="logical" >  F  F  F </v>
   <v type="logical" >  F  F  F </v>
   <v type="logical" >  F  F  F </v>
   <v type="logical" >  F  F  F </v>
   <v type="logical" >  F  F  F </v>
   <v type="logical" >  F  F  F </v>
   <v type="logical" >  F  F  F </v>
   <v type="logical" >  T  T  T </v>
   <v type="logical" >  T  T  T </v>
   <v type="logical" >  T  T  T </v>
   <v type="logical" >  T  T  T </v>
   <v type="logical" >  T  T  T </v>
   <v type="logical" >  T  T  T </v>
   <v type="logical" >  T  T  T </v>
   <v type="logical" >  T  T  T </v>
   <v type="logical" >  T  T  T </v>
   <v type="logical" >  T  T  T </v>
   <v type="logical" >  T  T  T </v>
   <v type="logical" >  T  T  T </v>
   <v type="logical" >  T  T  T </v>
   <v type="logical" >  T  T  T </v>
   <v type="logical" >  T  T  T </v>
   <v type="logical" >  T  T  T </v>
   <v type="logical" >  T  T  T </v>
   <v type="logical" >  T  T  T </v>
   <v type="logical" >  T  T  T </v>
  </varray>
  <nose>
   <v>      -3.00000000       0.00000000       0.00010000       0.00010000 </v>
  </nose>
 </structure>
 <calculation>
  <scstep>
   <time name="dav">   15.86   15.98</time>
   <time name="total">   19.51   19.67</time>
   <energy>
    <i name="alphaZ">    797.33612757 </i>
    <i name="ewald"> 132059.55928561 </i>
    <i name="hartreedc">-159459.47358915 </i>
    <i name="XCdc">     89.52600329 </i>
    <i name="pawpsdc">  32156.54270083 </i>
    <i name="pawaedc"> -31158.45446289 </i>
    <i name="eentropy">     -0.09484589 </i>
    <i name="bandstr">  -1086.25918772 </i>
    <i name="atom">  26496.80315902 </i>
    <i name="e_fr_energy">   -104.51480935 </i>
    <i name="e_wo_entrp">   -104.41996346 </i>
    <i name="e_0_energy">   -104.48319406 </i>
   </energy>
  </scstep>
  <scstep>
   <time name="diag">    2.99    3.01</time>
   <time name="diis">    8.11    8.16</time>
   <time name="orth">    0.63    0.64</time>
   <time name="total">   15.02   15.12</time>
   <energy>
    <i name="e_fr_energy">   -104.52961763 </i>
    <i name="e_wo_entrp">   -104.43482861 </i>
    <i name="e_0_energy">   -104.49802129 </i>
   </energy>
  </scstep>
  <scstep>
   <time name="diag">    2.77    2.79</time>
   <time name="diis">    8.16    8.47</time>
   <time name="orth">    0.65    0.66</time>
   <time name="total">   14.93   15.34</time>
   <energy>
    <i name="e_fr_energy">   -104.51554175 </i>
    <i name="e_wo_entrp">   -104.42029258 </i>
    <i name="e_0_energy">   -104.48379203 </i>
   </energy>
  </scstep>
  <scstep>
   <time name="diag">    2.92    2.94</time>
   <time name="diis">    8.23    8.29</time>
   <time name="orth">    0.65    0.65</time>
   <time name="total">   15.05   15.19</time>
   <energy>
    <i name="e_fr_energy">   -104.51428535 </i>
    <i name="e_wo_entrp">   -104.41928911 </i>
    <i name="e_0_energy">   -104.48261994 </i>
   </energy>
  </scstep>
  <scstep>
   <time name="diag">    2.78    2.81</time>
   <time name="diis">    8.63    8.69</time>
   <time name="orth">    0.80    0.81</time>
   <time name="total">   15.42   15.57</time>
   <energy>
    <i name="e_fr_energy">   -104.51426935 </i>
    <i name="e_wo_entrp">   -104.41924978 </i>
    <i name="e_0_energy">   -104.48259616 </i>
   </energy>
  </scstep>
  <scstep>
   <time name="diag">    2.86    2.89</time>
   <time name="diis">    8.28    8.33</time>
   <time name="orth">    0.66    0.67</time>
   <time name="total">   15.03   15.15</time>
   <energy>
    <i name="e_fr_energy">   -104.51423949 </i>
    <i name="e_wo_entrp">   -104.41921334 </i>
    <i name="e_0_energy">   -104.48256411 </i>
   </energy>
  </scstep>
  <scstep>
   <time name="diag">    2.79    2.82</time>
   <time name="diis">    6.85    6.90</time>
   <time name="orth">    0.52    0.52</time>
   <time name="total">   12.56   12.69</time>
   <energy>
    <i name="alphaZ">    797.33612757 </i>
    <i name="ewald"> 132059.55928561 </i>
    <i name="hartreedc">-159458.59596641 </i>
    <i name="XCdc">     89.52547660 </i>
    <i name="pawpsdc">  32156.36129837 </i>
    <i name="pawaedc"> -31158.27168978 </i>
    <i name="eentropy">     -0.09502301 </i>
    <i name="bandstr">  -1087.13691094 </i>
    <i name="atom">  26496.80315902 </i>
    <i name="e_fr_energy">   -104.51424297 </i>
    <i name="e_wo_entrp">   -104.41921996 </i>
    <i name="e_0_energy">   -104.48256864 </i>
   </energy>
  </scstep>
  <structure>
   <crystal>
    <varray name="basis" >
     <v>       8.46831000       0.00000000       0.00000000 </v>
     <v>       4.23415500       7.33377159       0.00000000 </v>
     <v>       0.00000000       0.00000000      24.96566199 </v>
    </varray>
    <i name="volume">   1550.48373159 </i>
    <varray name="rec_basis" >
     <v>       0.11808732      -0.06817774       0.00000000 </v>
     <v>       0.00000000       0.13635549       0.00000000 </v>
     <v>       0.00000000       0.00000000       0.04005502 </v>
    </varray>
   </crystal>
   <varray name="positions" >
    <v>       0.00000000       0.00000000       0.34046764 </v>
    <v>       0.33400137       0.00000000       0.34046764 </v>
    <v>       0.66800274       0.00000000       0.34046764 </v>
    <v>       0.00000000       0.33400137       0.34046764 </v>
    <v>       0.33400137       0.33400137       0.34046764 </v>
    <v>       0.66800274       0.33400137       0.34046764 </v>
    <v>       0.00000000       0.66800274       0.34046764 </v>
    <v>       0.33400137       0.66800274       0.34046764 </v>
    <v>       0.66800274       0.66800274       0.34046764 </v>
    <v>       0.11133379       0.11133379       0.43297074 </v>
    <v>       0.44533516       0.11133379       0.43297074 </v>
    <v>       0.77933653       0.11133379       0.43297074 </v>
    <v>       0.11133379       0.44533516       0.43297074 </v>
    <v>       0.44533516       0.44533516       0.43297074 </v>
    <v>       0.77933653       0.44533516       0.43297074 </v>
    <v>       0.11133379       0.77933653       0.43297074 </v>
    <v>       0.44533516       0.77933653       0.43297074 </v>
    <v>       0.77933653       0.77933653       0.43297074 </v>
    <v>       0.88905816       0.22536108       0.52508189 </v>
    <v>       0.22184269       0.22447597       0.52584097 </v>
    <v>       0.55462928       0.22483912       0.52472308 </v>
    <v>       0.88932515       0.55673537       0.52508043 </v>
    <v>       0.22246475       0.55694775       0.52476803 </v>
    <v>       0.55525777       0.55788996       0.52433872 </v>
    <v>       0.88878791       0.89116458       0.52410794 </v>
    <v>       0.22232780       0.89170488       0.52486828 </v>
    <v>       0.55484980       0.89134629       0.52478109 </v>
    <v>       0.99802409       0.00209913       0.61748786 </v>
    <v>       0.33449066       0.00005548       0.62019666 </v>
    <v>       0.66674062       0.00247039       0.61759671 </v>
    <v>       0.99532659       0.33795302       0.62124816 </v>
    <v>       0.33421234       0.33683325       0.62025872 </v>
    <v>       0.66501501       0.33647990       0.61775065 </v>
    <v>       0.99810363       0.67160713       0.61753910 </v>
    <v>       0.33198321       0.66984557       0.61762643 </v>
    <v>       0.66503649       0.67024769       0.61776839 </v>
    <v>       0.19514501       0.24176695       0.65863514 </v>
   </varray>
  </structure>
  <varray name="forces" >
   <v>       0.06477902       0.03344303      -0.14221236 </v>
   <v>       0.01793956       0.04798277      -0.08625056 </v>
   <v>      -0.04026226       0.07165058      -0.14836983 </v>
   <v>       0.05564501      -0.02109176      -0.08003000 </v>
   <v>       0.00666506      -0.00574718      -0.05968366 </v>
   <v>      -0.04236623       0.00082763      -0.08189566 </v>
   <v>       0.04496741      -0.06866935      -0.13131064 </v>
   <v>      -0.01217401      -0.04796861      -0.08454143 </v>
   <v>      -0.05496525      -0.03905654      -0.09614925 </v>
   <v>       0.07129958       0.06438438       0.17928064 </v>
   <v>      -0.00382362       0.08030178       0.14386269 </v>
   <v>      -0.06909982       0.10986236       0.03877077 </v>
   <v>       0.04911814      -0.03044628       0.17569179 </v>
   <v>      -0.02203773       0.00181103       0.09091084 </v>
   <v>      -0.06111095       0.02265566       0.15849170 </v>
   <v>       0.05854420      -0.09654000       0.05294072 </v>
   <v>      -0.02850661      -0.05305746       0.12407477 </v>
   <v>      -0.09707896      -0.04073814       0.06744205 </v>
   <v>       0.00003656      -0.00065306      -0.00624559 </v>
   <v>      -0.00825641       0.00154325      -0.01014351 </v>
   <v>      -0.01162631       0.00025003       0.01097571 </v>
   <v>       0.00283799       0.00509886      -0.00306896 </v>
   <v>       0.00519155      -0.00432538      -0.00136180 </v>
   <v>       0.00855103      -0.00575723      -0.00487778 </v>
   <v>       0.00428719      -0.00343812      -0.00576014 </v>
   <v>       0.01089514      -0.00821083      -0.00181144 </v>
   <v>      -0.00705760       0.01009980       0.01086754 </v>
   <v>      -0.00222241       0.00227756       0.00422287 </v>
   <v>      -0.02332664       0.00517250       0.01940363 </v>
   <v>       0.00628584      -0.00046328       0.00505115 </v>
   <v>      -0.02443167       0.01089711      -0.02270459 </v>
   <v>      -0.00368870       0.01177710       0.01760049 </v>
   <v>      -0.00766945      -0.00384510      -0.00916833 </v>
   <v>      -0.01197110      -0.00164002      -0.00417001 </v>
   <v>      -0.00122444       0.00054466       0.00871001 </v>
   <v>       0.00292891       0.00589520      -0.00702157 </v>
   <v>       0.12292798      -0.05482696      -0.12152025 </v>
  </varray>
  <varray name="stress" >
   <v>     -34.78272137      -0.01467472       0.23023747 </v>
   <v>      -0.01467445     -34.75536818      -0.11027178 </v>
   <v>       0.23023715      -0.11027174       1.61749944 </v>
  </varray>
  <energy>
   <i name="e_fr_energy">   -104.51424297 </i>
   <i name="e_wo_entrp">   -104.41921996 </i>
   <i name="e_0_energy">   -104.48256864 </i>
  </energy>
  <time name="totalsc">  135.35  137.51</time>
  <eigenvalues>
   <array>
    <dimension dim="1">band</dimension>
    <dimension dim="2">kpoint</dimension>
    <dimension dim="3">spin</dimension>
    <field>eigene</field>
    <field>occ</field>
    <set>
     <set comment="spin 1">
      <set comment="kpoint 1">
       <r>   -8.8967    1.0000 </r>
       <r>   -7.8095    1.0000 </r>
       <r>   -7.0898    1.0000 </r>
       <r>   -6.5003    1.0000 </r>
       <r>   -6.4701    1.0000 </r>
       <r>   -6.4500    1.0000 </r>
       <r>   -6.4439    1.0000 </r>
       <r>   -6.4383    1.0000 </r>
       <r>   -6.4310    1.0000 </r>
       <r>   -6.4193    1.0000 </r>
       <r>   -6.1568    1.0000 </r>
       <r>   -5.9171    1.0000 </r>
       <r>   -5.9133    1.0000 </r>
       <r>   -5.8950    1.0000 </r>
       <r>   -5.8929    1.0000 </r>
       <r>   -5.8868    1.0000 </r>
       <r>   -5.8347    1.0000 </r>
       <r>   -5.4590    1.0000 </r>
       <r>   -5.4571    1.0000 </r>
       <r>   -5.4544    1.0000 </r>
       <r>   -5.4462    1.0000 </r>
       <r>   -5.4448    1.0000 </r>
       <r>   -5.3284    1.0000 </r>
       <r>   -5.2252    1.0000 </r>
       <r>   -5.2209    1.0000 </r>
       <r>   -5.2179    1.0000 </r>
       <r>   -5.2145    1.0000 </r>
       <r>   -5.2102    1.0000 </r>
       <r>   -5.1317    1.0000 </r>
       <r>   -5.0293    1.0000 </r>
       <r>   -5.0242    1.0000 </r>
       <r>   -5.0215    1.0000 </r>
       <r>   -5.0168    1.0000 </r>
       <r>   -5.0142    1.0000 </r>
       <r>   -4.9577    1.0000 </r>
       <r>   -4.9552    1.0000 </r>
       <r>   -4.9498    1.0000 </r>
       <r>   -4.9422    1.0000 </r>
       <r>   -4.9080    1.0000 </r>
       <r>   -4.9055    1.0000 </r>
       <r>   -4.5129    1.0000 </r>
       <r>   -4.3765    1.0000 </r>
       <r>   -4.3741    1.0000 </r>
       <r>   -4.3454    1.0000 </r>
       <r>   -4.3356    1.0000 </r>
       <r>   -4.3190    1.0000 </r>
       <r>   -4.3155    1.0000 </r>
       <r>   -4.2967    1.0000 </r>
       <r>   -4.2794    1.0000 </r>
       <r>   -4.2748    1.0000 </r>
       <r>   -4.1810    1.0000 </r>
       <r>   -4.1325    1.0000 </r>
       <r>   -4.1313    1.0000 </r>
       <r>   -4.0302    1.0000 </r>
       <r>   -4.0280    1.0000 </r>
       <r>   -3.5841    1.0000 </r>
       <r>   -3.5793    1.0000 </r>
       <r>   -3.5627    1.0000 </r>
       <r>   -3.5561    1.0000 </r>
       <r>   -3.5547    1.0000 </r>
       <r>   -3.4962    1.0000 </r>
       <r>   -3.4665    1.0000 </r>
       <r>   -3.3873    1.0000 </r>
       <r>   -3.3763    1.0000 </r>
       <r>   -3.3715    1.0000 </r>
       <r>   -3.3706    1.0000 </r>
       <r>   -3.3640    1.0000 </r>
       <r>   -3.3632    1.0000 </r>
       <r>   -3.3458    1.0000 </r>
       <r>   -3.3147    1.0000 </r>
       <r>   -3.3085    1.0000 </r>
       <r>   -3.2940    1.0000 </r>
       <r>   -3.2908    1.0000 </r>
       <r>   -3.2880    1.0000 </r>
       <r>   -3.2655    1.0000 </r>
       <r>   -3.2575    1.0000 </r>
       <r>   -3.2535    1.0000 </r>
       <r>   -3.1562    1.0000 </r>
       <r>   -3.1560    1.0000 </r>
       <r>   -3.1391    1.0000 </r>
       <r>   -3.1338    1.0000 </r>
       <r>   -3.1298    1.0000 </r>
       <r>   -3.1019    1.0000 </r>
       <r>   -2.9401    1.0000 </r>
       <r>   -2.9298    1.0000 </r>
       <r>   -2.9289    1.0000 </r>
       <r>   -2.9252    1.0000 </r>
       <r>   -2.9148    1.0000 </r>
       <r>   -2.8916    1.0000 </r>
       <r>   -2.8856    1.0000 </r>
       <r>   -2.8760    1.0000 </r>
       <r>   -2.8392    1.0000 </r>
       <r>   -2.8263    1.0000 </r>
       <r>   -2.7848    1.0000 </r>
       <r>   -2.7796    1.0000 </r>
       <r>   -2.7446    1.0000 </r>
       <r>   -2.7401    1.0000 </r>
       <r>   -2.6941    1.0000 </r>
       <r>   -2.6911    1.0000 </r>
       <r>   -2.6901    1.0000 </r>
       <r>   -2.6051    1.0000 </r>
       <r>   -2.5329    1.0000 </r>
       <r>   -2.5249    1.0000 </r>
       <r>   -2.5148    1.0000 </r>
       <r>   -2.5041    1.0000 </r>
       <r>   -2.4973    1.0000 </r>
       <r>   -2.4918    1.0000 </r>
       <r>   -2.2790    1.0000 </r>
       <r>   -2.0194    1.0000 </r>
       <r>   -2.0000    1.0000 </r>
       <r>   -1.9979    1.0000 </r>
       <r>   -1.9900    1.0000 </r>
       <r>   -1.9839    1.0000 </r>
       <r>   -1.9744    1.0000 </r>
       <r>   -1.9687    1.0000 </r>
       <r>   -1.9675    1.0000 </r>
       <r>   -1.9597    1.0000 </r>
       <r>   -1.9552    1.0000 </r>
       <r>   -1.9511    1.0000 </r>
       <r>   -1.8725    1.0000 </r>
       <r>   -1.8679    1.0000 </r>
       <r>   -1.8182    1.0000 </r>
       <r>   -1.7365    1.0000 </r>
       <r>   -1.7229    1.0000 </r>
       <r>   -1.7208    1.0000 </r>
       <r>   -1.7174    1.0000 </r>
       <r>   -1.7109    1.0000 </r>
       <r>   -1.6188    1.0000 </r>
       <r>   -1.5954    1.0000 </r>
       <r>   -1.5376    1.0000 </r>
       <r>   -1.5373    1.0000 </r>
       <r>   -1.5186    1.0000 </r>
       <r>   -1.4942    1.0000 </r>
       <r>   -1.2950    1.0000 </r>
       <r>   -1.2787    1.0000 </r>
       <r>   -1.2633    1.0000 </r>
       <r>   -1.2569    1.0000 </r>
       <r>   -1.2512    1.0000 </r>
       <r>   -1.2471    1.0000 </r>
       <r>   -1.1843    1.0000 </r>
       <r>   -1.1813    1.0000 </r>
       <r>   -1.0568    1.0000 </r>
       <r>   -1.0395    1.0000 </r>
       <r>   -1.0389    1.0000 </r>
       <r>   -1.0341    1.0000 </r>
       <r>   -1.0275    1.0000 </r>
       <r>   -1.0172    1.0000 </r>
       <r>   -0.8727    1.0000 </r>
       <r>   -0.8568    1.0000 </r>
       <r>   -0.8539    1.0000 </r>
       <r>   -0.8498    1.0000 </r>
       <r>   -0.8345    1.0000 </r>
       <r>   -0.8270    1.0000 </r>
       <r>   -0.8203    1.0000 </r>
       <r>   -0.8190    1.0000 </r>
       <r>   -0.8137    1.0000 </r>
       <r>   -0.8052    1.0000 </r>
       <r>   -0.8020    1.0000 </r>
       <r>   -0.8017    1.0000 </r>
       <r>   -0.7246    1.0000 </r>
       <r>   -0.7097    1.0000 </r>
       <r>   -0.6971    1.0000 </r>
       <r>   -0.6943    1.0000 </r>
       <r>   -0.6762    1.0000 </r>
       <r>   -0.6547    1.0000 </r>
       <r>   -0.6475    1.0000 </r>
       <r>   -0.6408    1.0000 </r>
       <r>   -0.6026    1.0000 </r>
       <r>   -0.5945    1.0000 </r>
       <r>   -0.5837    1.0000 </r>
       <r>   -0.5652    1.0000 </r>
       <r>   -0.5568    1.0000 </r>
       <r>   -0.5472    1.0000 </r>
       <r>   -0.5430    1.0000 </r>
       <r>   -0.5365    1.0000 </r>
       <r>   -0.4625    1.0000 </r>
       <r>   -0.4578    1.0000 </r>
       <r>   -0.4473    1.0000 </r>
       <r>   -0.4370    1.0000 </r>
       <r>   -0.4329    1.0000 </r>
       <r>   -0.4314    1.0000 </r>
       <r>   -0.3923    1.0000 </r>
       <r>   -0.3486    1.0004 </r>
       <r>   -0.3409    1.0006 </r>
       <r>   -0.3254    1.0012 </r>
       <r>   -0.3207    1.0015 </r>
       <r>   -0.3114    1.0022 </r>
       <r>   -0.3104    1.0023 </r>
       <r>   -0.1203    0.8365 </r>
       <r>   -0.1044    0.7288 </r>
       <r>   -0.0184    0.0905 </r>
       <r>   -0.0164    0.0813 </r>
       <r>   -0.0077    0.0457 </r>
       <r>    0.0002    0.0199 </r>
       <r>    0.0019    0.0151 </r>
       <r>    0.0115   -0.0070 </r>
       <r>    0.5222   -0.0000 </r>
       <r>    0.8214   -0.0000 </r>
       <r>    0.8385   -0.0000 </r>
       <r>    0.8541   -0.0000 </r>
       <r>    0.8895   -0.0000 </r>
       <r>    0.8997   -0.0000 </r>
       <r>    0.9048   -0.0000 </r>
       <r>    2.8055    0.0000 </r>
       <r>    3.1256    0.0000 </r>
       <r>    3.1511    0.0000 </r>
       <r>    3.2015    0.0000 </r>
       <r>    3.2029    0.0000 </r>
       <r>    3.2150    0.0000 </r>
       <r>    4.6301    0.0000 </r>
       <r>    4.7309    0.0000 </r>
       <r>    4.7445    0.0000 </r>
       <r>    4.8153    0.0000 </r>
       <r>    4.8242    0.0000 </r>
       <r>    4.8286    0.0000 </r>
       <r>    4.9225    0.0000 </r>
       <r>    5.1152    0.0000 </r>
       <r>    5.2469    0.0000 </r>
       <r>    5.4457    0.0000 </r>
       <r>    5.4697    0.0000 </r>
       <r>    5.7813    0.0000 </r>
       <r>    5.8028    0.0000 </r>
       <r>    5.8535    0.0000 </r>
       <r>    5.8542    0.0000 </r>
       <r>    5.8669    0.0000 </r>
       <r>    6.1570    0.0000 </r>
       <r>    6.3324    0.0000 </r>
       <r>    6.6123    0.0000 </r>
       <r>    6.6184    0.0000 </r>
       <r>    6.6244    0.0000 </r>
       <r>    6.8520    0.0000 </r>
       <r>    7.0196    0.0000 </r>
       <r>    7.1312    0.0000 </r>
       <r>    7.1381    0.0000 </r>
       <r>    7.1652    0.0000 </r>
       <r>    7.1677    0.0000 </r>
       <r>    7.1688    0.0000 </r>
       <r>    7.2391    0.0000 </r>
       <r>    7.2741    0.0000 </r>
       <r>    7.5374    0.0000 </r>
      </set>
      <set comment="kpoint 2">
       <r>   -8.7487    1.0000 </r>
       <r>   -7.6880    1.0000 </r>
       <r>   -7.0468    1.0000 </r>
       <r>   -6.9199    1.0000 </r>
       <r>   -6.5511    1.0000 </r>
       <r>   -6.5435    1.0000 </r>
       <r>   -6.3587    1.0000 </r>
       <r>   -6.2604    1.0000 </r>
       <r>   -6.2125    1.0000 </r>
       <r>   -6.2062    1.0000 </r>
       <r>   -6.1207    1.0000 </r>
       <r>   -6.0026    1.0000 </r>
       <r>   -5.9705    1.0000 </r>
       <r>   -5.8433    1.0000 </r>
       <r>   -5.8261    1.0000 </r>
       <r>   -5.8184    1.0000 </r>
       <r>   -5.7465    1.0000 </r>
       <r>   -5.5291    1.0000 </r>
       <r>   -5.4210    1.0000 </r>
       <r>   -5.4090    1.0000 </r>
       <r>   -5.4018    1.0000 </r>
       <r>   -5.3843    1.0000 </r>
       <r>   -5.3287    1.0000 </r>
       <r>   -5.2960    1.0000 </r>
       <r>   -5.2721    1.0000 </r>
       <r>   -5.2314    1.0000 </r>
       <r>   -5.2130    1.0000 </r>
       <r>   -5.2050    1.0000 </r>
       <r>   -5.1461    1.0000 </r>
       <r>   -5.1060    1.0000 </r>
       <r>   -5.1014    1.0000 </r>
       <r>   -5.0372    1.0000 </r>
       <r>   -5.0175    1.0000 </r>
       <r>   -5.0055    1.0000 </r>
       <r>   -5.0049    1.0000 </r>
       <r>   -4.8672    1.0000 </r>
       <r>   -4.8091    1.0000 </r>
       <r>   -4.7731    1.0000 </r>
       <r>   -4.7646    1.0000 </r>
       <r>   -4.7433    1.0000 </r>
       <r>   -4.5532    1.0000 </r>
       <r>   -4.4908    1.0000 </r>
       <r>   -4.4888    1.0000 </r>
       <r>   -4.4547    1.0000 </r>
       <r>   -4.4077    1.0000 </r>
       <r>   -4.3901    1.0000 </r>
       <r>   -4.3801    1.0000 </r>
       <r>   -4.3114    1.0000 </r>
       <r>   -4.2052    1.0000 </r>
       <r>   -4.1765    1.0000 </r>
       <r>   -4.1164    1.0000 </r>
       <r>   -4.1077    1.0000 </r>
       <r>   -4.0615    1.0000 </r>
       <r>   -4.0450    1.0000 </r>
       <r>   -4.0288    1.0000 </r>
       <r>   -3.8225    1.0000 </r>
       <r>   -3.7334    1.0000 </r>
       <r>   -3.7274    1.0000 </r>
       <r>   -3.6728    1.0000 </r>
       <r>   -3.6546    1.0000 </r>
       <r>   -3.6149    1.0000 </r>
       <r>   -3.5746    1.0000 </r>
       <r>   -3.5658    1.0000 </r>
       <r>   -3.5549    1.0000 </r>
       <r>   -3.5315    1.0000 </r>
       <r>   -3.5267    1.0000 </r>
       <r>   -3.4707    1.0000 </r>
       <r>   -3.4474    1.0000 </r>
       <r>   -3.4024    1.0000 </r>
       <r>   -3.3671    1.0000 </r>
       <r>   -3.3588    1.0000 </r>
       <r>   -3.3248    1.0000 </r>
       <r>   -3.2773    1.0000 </r>
       <r>   -3.2642    1.0000 </r>
       <r>   -3.2554    1.0000 </r>
       <r>   -3.1757    1.0000 </r>
       <r>   -3.1640    1.0000 </r>
       <r>   -3.1572    1.0000 </r>
       <r>   -3.1282    1.0000 </r>
       <r>   -3.0968    1.0000 </r>
       <r>   -3.0725    1.0000 </r>
       <r>   -3.0647    1.0000 </r>
       <r>   -3.0302    1.0000 </r>
       <r>   -3.0004    1.0000 </r>
       <r>   -2.9593    1.0000 </r>
       <r>   -2.9561    1.0000 </r>
       <r>   -2.9373    1.0000 </r>
       <r>   -2.9271    1.0000 </r>
       <r>   -2.9039    1.0000 </r>
       <r>   -2.8972    1.0000 </r>
       <r>   -2.8670    1.0000 </r>
       <r>   -2.8338    1.0000 </r>
       <r>   -2.7961    1.0000 </r>
       <r>   -2.7870    1.0000 </r>
       <r>   -2.7683    1.0000 </r>
       <r>   -2.7549    1.0000 </r>
       <r>   -2.7322    1.0000 </r>
       <r>   -2.7288    1.0000 </r>
       <r>   -2.6985    1.0000 </r>
       <r>   -2.6803    1.0000 </r>
       <r>   -2.6147    1.0000 </r>
       <r>   -2.5659    1.0000 </r>
       <r>   -2.5512    1.0000 </r>
       <r>   -2.5185    1.0000 </r>
       <r>   -2.5071    1.0000 </r>
       <r>   -2.5030    1.0000 </r>
       <r>   -2.4958    1.0000 </r>
       <r>   -2.4929    1.0000 </r>
       <r>   -2.4449    1.0000 </r>
       <r>   -2.4316    1.0000 </r>
       <r>   -2.4292    1.0000 </r>
       <r>   -2.4188    1.0000 </r>
       <r>   -2.1857    1.0000 </r>
       <r>   -2.0676    1.0000 </r>
       <r>   -2.0246    1.0000 </r>
       <r>   -2.0177    1.0000 </r>
       <r>   -2.0046    1.0000 </r>
       <r>   -1.9916    1.0000 </r>
       <r>   -1.9779    1.0000 </r>
       <r>   -1.9554    1.0000 </r>
       <r>   -1.9352    1.0000 </r>
       <r>   -1.8656    1.0000 </r>
       <r>   -1.7970    1.0000 </r>
       <r>   -1.7794    1.0000 </r>
       <r>   -1.7162    1.0000 </r>
       <r>   -1.6586    1.0000 </r>
       <r>   -1.6500    1.0000 </r>
       <r>   -1.6053    1.0000 </r>
       <r>   -1.5910    1.0000 </r>
       <r>   -1.5801    1.0000 </r>
       <r>   -1.5459    1.0000 </r>
       <r>   -1.5412    1.0000 </r>
       <r>   -1.5221    1.0000 </r>
       <r>   -1.4404    1.0000 </r>
       <r>   -1.4175    1.0000 </r>
       <r>   -1.3925    1.0000 </r>
       <r>   -1.3859    1.0000 </r>
       <r>   -1.3749    1.0000 </r>
       <r>   -1.2552    1.0000 </r>
       <r>   -1.2031    1.0000 </r>
       <r>   -1.1722    1.0000 </r>
       <r>   -1.1667    1.0000 </r>
       <r>   -1.1477    1.0000 </r>
       <r>   -1.1430    1.0000 </r>
       <r>   -1.1222    1.0000 </r>
       <r>   -1.0538    1.0000 </r>
       <r>   -1.0367    1.0000 </r>
       <r>   -0.9990    1.0000 </r>
       <r>   -0.9924    1.0000 </r>
       <r>   -0.9894    1.0000 </r>
       <r>   -0.9370    1.0000 </r>
       <r>   -0.9194    1.0000 </r>
       <r>   -0.9091    1.0000 </r>
       <r>   -0.8929    1.0000 </r>
       <r>   -0.8198    1.0000 </r>
       <r>   -0.7904    1.0000 </r>
       <r>   -0.7757    1.0000 </r>
       <r>   -0.7620    1.0000 </r>
       <r>   -0.7312    1.0000 </r>
       <r>   -0.6650    1.0000 </r>
       <r>   -0.6441    1.0000 </r>
       <r>   -0.6313    1.0000 </r>
       <r>   -0.6045    1.0000 </r>
       <r>   -0.5899    1.0000 </r>
       <r>   -0.5672    1.0000 </r>
       <r>   -0.5451    1.0000 </r>
       <r>   -0.4885    1.0000 </r>
       <r>   -0.4728    1.0000 </r>
       <r>   -0.4127    1.0000 </r>
       <r>   -0.4052    1.0000 </r>
       <r>   -0.3984    1.0000 </r>
       <r>   -0.3875    1.0000 </r>
       <r>   -0.3608    1.0002 </r>
       <r>   -0.3564    1.0003 </r>
       <r>   -0.3478    1.0004 </r>
       <r>   -0.3417    1.0006 </r>
       <r>   -0.3281    1.0011 </r>
       <r>   -0.2772    1.0077 </r>
       <r>   -0.2720    1.0091 </r>
       <r>   -0.1284    0.8821 </r>
       <r>   -0.1272    0.8761 </r>
       <r>   -0.0998    0.6942 </r>
       <r>   -0.0861    0.5837 </r>
       <r>   -0.0717    0.4622 </r>
       <r>   -0.0681    0.4323 </r>
       <r>   -0.0318    0.1627 </r>
       <r>   -0.0201    0.0985 </r>
       <r>   -0.0059    0.0391 </r>
       <r>    0.0084   -0.0009 </r>
       <r>    0.0525   -0.0349 </r>
       <r>    0.1048   -0.0141 </r>
       <r>    0.1302   -0.0065 </r>
       <r>    0.1917   -0.0005 </r>
       <r>    0.2940   -0.0000 </r>
       <r>    0.2970   -0.0000 </r>
       <r>    0.3134   -0.0000 </r>
       <r>    0.3482   -0.0000 </r>
       <r>    0.6872   -0.0000 </r>
       <r>    0.7525   -0.0000 </r>
       <r>    1.2367   -0.0000 </r>
       <r>    1.4604   -0.0000 </r>
       <r>    1.4799   -0.0000 </r>
       <r>    1.5962   -0.0000 </r>
       <r>    2.3811   -0.0000 </r>
       <r>    2.7978    0.0000 </r>
       <r>    2.9078    0.0000 </r>
       <r>    3.5522    0.0000 </r>
       <r>    3.6460    0.0000 </r>
       <r>    3.6543    0.0000 </r>
       <r>    3.7370    0.0000 </r>
       <r>    3.9733    0.0000 </r>
       <r>    4.4194    0.0000 </r>
       <r>    4.6056    0.0000 </r>
       <r>    4.7452    0.0000 </r>
       <r>    4.9618    0.0000 </r>
       <r>    4.9913    0.0000 </r>
       <r>    5.0169    0.0000 </r>
       <r>    5.2231    0.0000 </r>
       <r>    5.2882    0.0000 </r>
       <r>    5.4649    0.0000 </r>
       <r>    5.6617    0.0000 </r>
       <r>    5.7085    0.0000 </r>
       <r>    5.7452    0.0000 </r>
       <r>    5.9086    0.0000 </r>
       <r>    6.1218    0.0000 </r>
       <r>    6.2568    0.0000 </r>
       <r>    6.2767    0.0000 </r>
       <r>    6.3324    0.0000 </r>
       <r>    6.3477    0.0000 </r>
       <r>    6.6414    0.0000 </r>
       <r>    6.6709    0.0000 </r>
       <r>    6.7522    0.0000 </r>
       <r>    6.7929    0.0000 </r>
       <r>    6.8794    0.0000 </r>
       <r>    6.9431    0.0000 </r>
       <r>    7.0575    0.0000 </r>
       <r>    7.2764    0.0000 </r>
       <r>    7.4523    0.0000 </r>
       <r>    7.4813    0.0000 </r>
       <r>    7.6235    0.0000 </r>
      </set>
      <set comment="kpoint 3">
       <r>   -8.7491    1.0000 </r>
       <r>   -7.6920    1.0000 </r>
       <r>   -7.0593    1.0000 </r>
       <r>   -6.9037    1.0000 </r>
       <r>   -6.5544    1.0000 </r>
       <r>   -6.5449    1.0000 </r>
       <r>   -6.3588    1.0000 </r>
       <r>   -6.2590    1.0000 </r>
       <r>   -6.2123    1.0000 </r>
       <r>   -6.2077    1.0000 </r>
       <r>   -6.1331    1.0000 </r>
       <r>   -5.9987    1.0000 </r>
       <r>   -5.9437    1.0000 </r>
       <r>   -5.8469    1.0000 </r>
       <r>   -5.8247    1.0000 </r>
       <r>   -5.8175    1.0000 </r>
       <r>   -5.7616    1.0000 </r>
       <r>   -5.5293    1.0000 </r>
       <r>   -5.4207    1.0000 </r>
       <r>   -5.4081    1.0000 </r>
       <r>   -5.4017    1.0000 </r>
       <r>   -5.3729    1.0000 </r>
       <r>   -5.3300    1.0000 </r>
       <r>   -5.2920    1.0000 </r>
       <r>   -5.2721    1.0000 </r>
       <r>   -5.2422    1.0000 </r>
       <r>   -5.2122    1.0000 </r>
       <r>   -5.2039    1.0000 </r>
       <r>   -5.1416    1.0000 </r>
       <r>   -5.1052    1.0000 </r>
       <r>   -5.1021    1.0000 </r>
       <r>   -5.0339    1.0000 </r>
       <r>   -5.0148    1.0000 </r>
       <r>   -5.0074    1.0000 </r>
       <r>   -5.0026    1.0000 </r>
       <r>   -4.8605    1.0000 </r>
       <r>   -4.8086    1.0000 </r>
       <r>   -4.7733    1.0000 </r>
       <r>   -4.7669    1.0000 </r>
       <r>   -4.7479    1.0000 </r>
       <r>   -4.5457    1.0000 </r>
       <r>   -4.4916    1.0000 </r>
       <r>   -4.4848    1.0000 </r>
       <r>   -4.4559    1.0000 </r>
       <r>   -4.4123    1.0000 </r>
       <r>   -4.3902    1.0000 </r>
       <r>   -4.3797    1.0000 </r>
       <r>   -4.3209    1.0000 </r>
       <r>   -4.2055    1.0000 </r>
       <r>   -4.1707    1.0000 </r>
       <r>   -4.1196    1.0000 </r>
       <r>   -4.1041    1.0000 </r>
       <r>   -4.0597    1.0000 </r>
       <r>   -4.0439    1.0000 </r>
       <r>   -4.0294    1.0000 </r>
       <r>   -3.8253    1.0000 </r>
       <r>   -3.7328    1.0000 </r>
       <r>   -3.7270    1.0000 </r>
       <r>   -3.6770    1.0000 </r>
       <r>   -3.6569    1.0000 </r>
       <r>   -3.6164    1.0000 </r>
       <r>   -3.5781    1.0000 </r>
       <r>   -3.5655    1.0000 </r>
       <r>   -3.5474    1.0000 </r>
       <r>   -3.5280    1.0000 </r>
       <r>   -3.5251    1.0000 </r>
       <r>   -3.4760    1.0000 </r>
       <r>   -3.4453    1.0000 </r>
       <r>   -3.4005    1.0000 </r>
       <r>   -3.3695    1.0000 </r>
       <r>   -3.3599    1.0000 </r>
       <r>   -3.3382    1.0000 </r>
       <r>   -3.2729    1.0000 </r>
       <r>   -3.2632    1.0000 </r>
       <r>   -3.2463    1.0000 </r>
       <r>   -3.1772    1.0000 </r>
       <r>   -3.1647    1.0000 </r>
       <r>   -3.1558    1.0000 </r>
       <r>   -3.1286    1.0000 </r>
       <r>   -3.0974    1.0000 </r>
       <r>   -3.0766    1.0000 </r>
       <r>   -3.0664    1.0000 </r>
       <r>   -3.0261    1.0000 </r>
       <r>   -3.0062    1.0000 </r>
       <r>   -2.9598    1.0000 </r>
       <r>   -2.9559    1.0000 </r>
       <r>   -2.9335    1.0000 </r>
       <r>   -2.9259    1.0000 </r>
       <r>   -2.9062    1.0000 </r>
       <r>   -2.8998    1.0000 </r>
       <r>   -2.8684    1.0000 </r>
       <r>   -2.8309    1.0000 </r>
       <r>   -2.8001    1.0000 </r>
       <r>   -2.7820    1.0000 </r>
       <r>   -2.7686    1.0000 </r>
       <r>   -2.7538    1.0000 </r>
       <r>   -2.7312    1.0000 </r>
       <r>   -2.7258    1.0000 </r>
       <r>   -2.7015    1.0000 </r>
       <r>   -2.6820    1.0000 </r>
       <r>   -2.6167    1.0000 </r>
       <r>   -2.5660    1.0000 </r>
       <r>   -2.5502    1.0000 </r>
       <r>   -2.5207    1.0000 </r>
       <r>   -2.5095    1.0000 </r>
       <r>   -2.5030    1.0000 </r>
       <r>   -2.4966    1.0000 </r>
       <r>   -2.4907    1.0000 </r>
       <r>   -2.4474    1.0000 </r>
       <r>   -2.4342    1.0000 </r>
       <r>   -2.4304    1.0000 </r>
       <r>   -2.4206    1.0000 </r>
       <r>   -2.1772    1.0000 </r>
       <r>   -2.0734    1.0000 </r>
       <r>   -2.0380    1.0000 </r>
       <r>   -2.0101    1.0000 </r>
       <r>   -2.0017    1.0000 </r>
       <r>   -1.9929    1.0000 </r>
       <r>   -1.9789    1.0000 </r>
       <r>   -1.9451    1.0000 </r>
       <r>   -1.9363    1.0000 </r>
       <r>   -1.8810    1.0000 </r>
       <r>   -1.8057    1.0000 </r>
       <r>   -1.7803    1.0000 </r>
       <r>   -1.7104    1.0000 </r>
       <r>   -1.6580    1.0000 </r>
       <r>   -1.6503    1.0000 </r>
       <r>   -1.6065    1.0000 </r>
       <r>   -1.5977    1.0000 </r>
       <r>   -1.5759    1.0000 </r>
       <r>   -1.5500    1.0000 </r>
       <r>   -1.5360    1.0000 </r>
       <r>   -1.5287    1.0000 </r>
       <r>   -1.4428    1.0000 </r>
       <r>   -1.4029    1.0000 </r>
       <r>   -1.3961    1.0000 </r>
       <r>   -1.3876    1.0000 </r>
       <r>   -1.3757    1.0000 </r>
       <r>   -1.2386    1.0000 </r>
       <r>   -1.2036    1.0000 </r>
       <r>   -1.1756    1.0000 </r>
       <r>   -1.1645    1.0000 </r>
       <r>   -1.1533    1.0000 </r>
       <r>   -1.1457    1.0000 </r>
       <r>   -1.1180    1.0000 </r>
       <r>   -1.0570    1.0000 </r>
       <r>   -1.0377    1.0000 </r>
       <r>   -1.0058    1.0000 </r>
       <r>   -0.9917    1.0000 </r>
       <r>   -0.9864    1.0000 </r>
       <r>   -0.9301    1.0000 </r>
       <r>   -0.9227    1.0000 </r>
       <r>   -0.9094    1.0000 </r>
       <r>   -0.8983    1.0000 </r>
       <r>   -0.8109    1.0000 </r>
       <r>   -0.7959    1.0000 </r>
       <r>   -0.7743    1.0000 </r>
       <r>   -0.7645    1.0000 </r>
       <r>   -0.7208    1.0000 </r>
       <r>   -0.6669    1.0000 </r>
       <r>   -0.6525    1.0000 </r>
       <r>   -0.6239    1.0000 </r>
       <r>   -0.6092    1.0000 </r>
       <r>   -0.5968    1.0000 </r>
       <r>   -0.5658    1.0000 </r>
       <r>   -0.5451    1.0000 </r>
       <r>   -0.4844    1.0000 </r>
       <r>   -0.4771    1.0000 </r>
       <r>   -0.4130    1.0000 </r>
       <r>   -0.4079    1.0000 </r>
       <r>   -0.3910    1.0000 </r>
       <r>   -0.3876    1.0000 </r>
       <r>   -0.3604    1.0002 </r>
       <r>   -0.3545    1.0003 </r>
       <r>   -0.3500    1.0004 </r>
       <r>   -0.3398    1.0006 </r>
       <r>   -0.3288    1.0010 </r>
       <r>   -0.2744    1.0085 </r>
       <r>   -0.2724    1.0090 </r>
       <r>   -0.1320    0.9005 </r>
       <r>   -0.1236    0.8559 </r>
       <r>   -0.1043    0.7284 </r>
       <r>   -0.0862    0.5847 </r>
       <r>   -0.0715    0.4607 </r>
       <r>   -0.0674    0.4266 </r>
       <r>   -0.0350    0.1822 </r>
       <r>   -0.0214    0.1047 </r>
       <r>   -0.0052    0.0370 </r>
       <r>    0.0058    0.0053 </r>
       <r>    0.0674   -0.0304 </r>
       <r>    0.1048   -0.0141 </r>
       <r>    0.1285   -0.0069 </r>
       <r>    0.1973   -0.0004 </r>
       <r>    0.2922   -0.0000 </r>
       <r>    0.2960   -0.0000 </r>
       <r>    0.3128   -0.0000 </r>
       <r>    0.3507   -0.0000 </r>
       <r>    0.6935   -0.0000 </r>
       <r>    0.7449   -0.0000 </r>
       <r>    1.2435   -0.0000 </r>
       <r>    1.4556   -0.0000 </r>
       <r>    1.4817   -0.0000 </r>
       <r>    1.5980   -0.0000 </r>
       <r>    2.3763   -0.0000 </r>
       <r>    2.8143    0.0000 </r>
       <r>    2.8991    0.0000 </r>
       <r>    3.5477    0.0000 </r>
       <r>    3.6514    0.0000 </r>
       <r>    3.6576    0.0000 </r>
       <r>    3.7313    0.0000 </r>
       <r>    3.9626    0.0000 </r>
       <r>    4.4211    0.0000 </r>
       <r>    4.6035    0.0000 </r>
       <r>    4.7459    0.0000 </r>
       <r>    4.9665    0.0000 </r>
       <r>    4.9909    0.0000 </r>
       <r>    5.0171    0.0000 </r>
       <r>    5.2344    0.0000 </r>
       <r>    5.3050    0.0000 </r>
       <r>    5.4541    0.0000 </r>
       <r>    5.6429    0.0000 </r>
       <r>    5.7051    0.0000 </r>
       <r>    5.7923    0.0000 </r>
       <r>    5.8997    0.0000 </r>
       <r>    6.1189    0.0000 </r>
       <r>    6.2492    0.0000 </r>
       <r>    6.2754    0.0000 </r>
       <r>    6.3322    0.0000 </r>
       <r>    6.3441    0.0000 </r>
       <r>    6.5996    0.0000 </r>
       <r>    6.6825    0.0000 </r>
       <r>    6.7535    0.0000 </r>
       <r>    6.7917    0.0000 </r>
       <r>    6.8634    0.0000 </r>
       <r>    6.9477    0.0000 </r>
       <r>    7.0600    0.0000 </r>
       <r>    7.2608    0.0000 </r>
       <r>    7.4703    0.0000 </r>
       <r>    7.5078    0.0000 </r>
       <r>    7.6152    0.0000 </r>
      </set>
      <set comment="kpoint 4">
       <r>   -8.7491    1.0000 </r>
       <r>   -7.6930    1.0000 </r>
       <r>   -7.0604    1.0000 </r>
       <r>   -6.8997    1.0000 </r>
       <r>   -6.5553    1.0000 </r>
       <r>   -6.5484    1.0000 </r>
       <r>   -6.3586    1.0000 </r>
       <r>   -6.2547    1.0000 </r>
       <r>   -6.2131    1.0000 </r>
       <r>   -6.2106    1.0000 </r>
       <r>   -6.1367    1.0000 </r>
       <r>   -5.9982    1.0000 </r>
       <r>   -5.9380    1.0000 </r>
       <r>   -5.8443    1.0000 </r>
       <r>   -5.8227    1.0000 </r>
       <r>   -5.8184    1.0000 </r>
       <r>   -5.7655    1.0000 </r>
       <r>   -5.5308    1.0000 </r>
       <r>   -5.4181    1.0000 </r>
       <r>   -5.4083    1.0000 </r>
       <r>   -5.3995    1.0000 </r>
       <r>   -5.3718    1.0000 </r>
       <r>   -5.3301    1.0000 </r>
       <r>   -5.2947    1.0000 </r>
       <r>   -5.2724    1.0000 </r>
       <r>   -5.2444    1.0000 </r>
       <r>   -5.2089    1.0000 </r>
       <r>   -5.2063    1.0000 </r>
       <r>   -5.1375    1.0000 </r>
       <r>   -5.1079    1.0000 </r>
       <r>   -5.1003    1.0000 </r>
       <r>   -5.0298    1.0000 </r>
       <r>   -5.0140    1.0000 </r>
       <r>   -5.0068    1.0000 </r>
       <r>   -5.0032    1.0000 </r>
       <r>   -4.8608    1.0000 </r>
       <r>   -4.8079    1.0000 </r>
       <r>   -4.7726    1.0000 </r>
       <r>   -4.7680    1.0000 </r>
       <r>   -4.7517    1.0000 </r>
       <r>   -4.5434    1.0000 </r>
       <r>   -4.4947    1.0000 </r>
       <r>   -4.4873    1.0000 </r>
       <r>   -4.4538    1.0000 </r>
       <r>   -4.4093    1.0000 </r>
       <r>   -4.3895    1.0000 </r>
       <r>   -4.3813    1.0000 </r>
       <r>   -4.3238    1.0000 </r>
       <r>   -4.2071    1.0000 </r>
       <r>   -4.1725    1.0000 </r>
       <r>   -4.1193    1.0000 </r>
       <r>   -4.1051    1.0000 </r>
       <r>   -4.0571    1.0000 </r>
       <r>   -4.0429    1.0000 </r>
       <r>   -4.0287    1.0000 </r>
       <r>   -3.8301    1.0000 </r>
       <r>   -3.7310    1.0000 </r>
       <r>   -3.7275    1.0000 </r>
       <r>   -3.6820    1.0000 </r>
       <r>   -3.6607    1.0000 </r>
       <r>   -3.6185    1.0000 </r>
       <r>   -3.5844    1.0000 </r>
       <r>   -3.5594    1.0000 </r>
       <r>   -3.5463    1.0000 </r>
       <r>   -3.5266    1.0000 </r>
       <r>   -3.5217    1.0000 </r>
       <r>   -3.4768    1.0000 </r>
       <r>   -3.4447    1.0000 </r>
       <r>   -3.4032    1.0000 </r>
       <r>   -3.3688    1.0000 </r>
       <r>   -3.3610    1.0000 </r>
       <r>   -3.3436    1.0000 </r>
       <r>   -3.2670    1.0000 </r>
       <r>   -3.2569    1.0000 </r>
       <r>   -3.2312    1.0000 </r>
       <r>   -3.1782    1.0000 </r>
       <r>   -3.1676    1.0000 </r>
       <r>   -3.1575    1.0000 </r>
       <r>   -3.1280    1.0000 </r>
       <r>   -3.0989    1.0000 </r>
       <r>   -3.0815    1.0000 </r>
       <r>   -3.0785    1.0000 </r>
       <r>   -3.0206    1.0000 </r>
       <r>   -3.0062    1.0000 </r>
       <r>   -2.9564    1.0000 </r>
       <r>   -2.9547    1.0000 </r>
       <r>   -2.9366    1.0000 </r>
       <r>   -2.9262    1.0000 </r>
       <r>   -2.9034    1.0000 </r>
       <r>   -2.8997    1.0000 </r>
       <r>   -2.8707    1.0000 </r>
       <r>   -2.8300    1.0000 </r>
       <r>   -2.8056    1.0000 </r>
       <r>   -2.7772    1.0000 </r>
       <r>   -2.7732    1.0000 </r>
       <r>   -2.7524    1.0000 </r>
       <r>   -2.7301    1.0000 </r>
       <r>   -2.7248    1.0000 </r>
       <r>   -2.6962    1.0000 </r>
       <r>   -2.6828    1.0000 </r>
       <r>   -2.6166    1.0000 </r>
       <r>   -2.5666    1.0000 </r>
       <r>   -2.5496    1.0000 </r>
       <r>   -2.5235    1.0000 </r>
       <r>   -2.5092    1.0000 </r>
       <r>   -2.4995    1.0000 </r>
       <r>   -2.4970    1.0000 </r>
       <r>   -2.4908    1.0000 </r>
       <r>   -2.4471    1.0000 </r>
       <r>   -2.4355    1.0000 </r>
       <r>   -2.4321    1.0000 </r>
       <r>   -2.4200    1.0000 </r>
       <r>   -2.1807    1.0000 </r>
       <r>   -2.0759    1.0000 </r>
       <r>   -2.0395    1.0000 </r>
       <r>   -2.0116    1.0000 </r>
       <r>   -1.9946    1.0000 </r>
       <r>   -1.9922    1.0000 </r>
       <r>   -1.9805    1.0000 </r>
       <r>   -1.9465    1.0000 </r>
       <r>   -1.9348    1.0000 </r>
       <r>   -1.8842    1.0000 </r>
       <r>   -1.8054    1.0000 </r>
       <r>   -1.7783    1.0000 </r>
       <r>   -1.7069    1.0000 </r>
       <r>   -1.6570    1.0000 </r>
       <r>   -1.6495    1.0000 </r>
       <r>   -1.6106    1.0000 </r>
       <r>   -1.5950    1.0000 </r>
       <r>   -1.5766    1.0000 </r>
       <r>   -1.5483    1.0000 </r>
       <r>   -1.5327    1.0000 </r>
       <r>   -1.5277    1.0000 </r>
       <r>   -1.4410    1.0000 </r>
       <r>   -1.4040    1.0000 </r>
       <r>   -1.3972    1.0000 </r>
       <r>   -1.3869    1.0000 </r>
       <r>   -1.3768    1.0000 </r>
       <r>   -1.2323    1.0000 </r>
       <r>   -1.2030    1.0000 </r>
       <r>   -1.1757    1.0000 </r>
       <r>   -1.1654    1.0000 </r>
       <r>   -1.1544    1.0000 </r>
       <r>   -1.1480    1.0000 </r>
       <r>   -1.1180    1.0000 </r>
       <r>   -1.0575    1.0000 </r>
       <r>   -1.0405    1.0000 </r>
       <r>   -1.0080    1.0000 </r>
       <r>   -0.9926    1.0000 </r>
       <r>   -0.9877    1.0000 </r>
       <r>   -0.9332    1.0000 </r>
       <r>   -0.9219    1.0000 </r>
       <r>   -0.9102    1.0000 </r>
       <r>   -0.8974    1.0000 </r>
       <r>   -0.8090    1.0000 </r>
       <r>   -0.7974    1.0000 </r>
       <r>   -0.7743    1.0000 </r>
       <r>   -0.7673    1.0000 </r>
       <r>   -0.7153    1.0000 </r>
       <r>   -0.6666    1.0000 </r>
       <r>   -0.6555    1.0000 </r>
       <r>   -0.6211    1.0000 </r>
       <r>   -0.6092    1.0000 </r>
       <r>   -0.5951    1.0000 </r>
       <r>   -0.5605    1.0000 </r>
       <r>   -0.5433    1.0000 </r>
       <r>   -0.4836    1.0000 </r>
       <r>   -0.4787    1.0000 </r>
       <r>   -0.4140    1.0000 </r>
       <r>   -0.4094    1.0000 </r>
       <r>   -0.3884    1.0000 </r>
       <r>   -0.3851    1.0001 </r>
       <r>   -0.3619    1.0002 </r>
       <r>   -0.3570    1.0003 </r>
       <r>   -0.3487    1.0004 </r>
       <r>   -0.3385    1.0007 </r>
       <r>   -0.3308    1.0009 </r>
       <r>   -0.2701    1.0097 </r>
       <r>   -0.2689    1.0100 </r>
       <r>   -0.1304    0.8923 </r>
       <r>   -0.1206    0.8384 </r>
       <r>   -0.1082    0.7564 </r>
       <r>   -0.0880    0.5993 </r>
       <r>   -0.0721    0.4659 </r>
       <r>   -0.0700    0.4484 </r>
       <r>   -0.0383    0.2035 </r>
       <r>   -0.0211    0.1035 </r>
       <r>   -0.0092    0.0512 </r>
       <r>    0.0003    0.0196 </r>
       <r>    0.0703   -0.0292 </r>
       <r>    0.1050   -0.0140 </r>
       <r>    0.1288   -0.0068 </r>
       <r>    0.1978   -0.0004 </r>
       <r>    0.2903   -0.0000 </r>
       <r>    0.2945   -0.0000 </r>
       <r>    0.3118   -0.0000 </r>
       <r>    0.3563   -0.0000 </r>
       <r>    0.6893   -0.0000 </r>
       <r>    0.7389   -0.0000 </r>
       <r>    1.2455   -0.0000 </r>
       <r>    1.4561   -0.0000 </r>
       <r>    1.4837   -0.0000 </r>
       <r>    1.6004   -0.0000 </r>
       <r>    2.3782   -0.0000 </r>
       <r>    2.8162    0.0000 </r>
       <r>    2.8942    0.0000 </r>
       <r>    3.5452    0.0000 </r>
       <r>    3.6519    0.0000 </r>
       <r>    3.6584    0.0000 </r>
       <r>    3.7298    0.0000 </r>
       <r>    3.9611    0.0000 </r>
       <r>    4.4207    0.0000 </r>
       <r>    4.6046    0.0000 </r>
       <r>    4.7525    0.0000 </r>
       <r>    4.9691    0.0000 </r>
       <r>    4.9884    0.0000 </r>
       <r>    5.0170    0.0000 </r>
       <r>    5.2362    0.0000 </r>
       <r>    5.3076    0.0000 </r>
       <r>    5.4486    0.0000 </r>
       <r>    5.6390    0.0000 </r>
       <r>    5.7083    0.0000 </r>
       <r>    5.7984    0.0000 </r>
       <r>    5.8957    0.0000 </r>
       <r>    6.1246    0.0000 </r>
       <r>    6.2461    0.0000 </r>
       <r>    6.2752    0.0000 </r>
       <r>    6.3308    0.0000 </r>
       <r>    6.3376    0.0000 </r>
       <r>    6.6005    0.0000 </r>
       <r>    6.6773    0.0000 </r>
       <r>    6.7555    0.0000 </r>
       <r>    6.7933    0.0000 </r>
       <r>    6.8562    0.0000 </r>
       <r>    6.9488    0.0000 </r>
       <r>    7.0601    0.0000 </r>
       <r>    7.2585    0.0000 </r>
       <r>    7.4778    0.0000 </r>
       <r>    7.5203    0.0000 </r>
       <r>    7.6168    0.0000 </r>
      </set>
      <set comment="kpoint 5">
       <r>   -8.3241    1.0000 </r>
       <r>   -7.6987    1.0000 </r>
       <r>   -7.3728    1.0000 </r>
       <r>   -6.8414    1.0000 </r>
       <r>   -6.5808    1.0000 </r>
       <r>   -6.5680    1.0000 </r>
       <r>   -6.3918    1.0000 </r>
       <r>   -6.2354    1.0000 </r>
       <r>   -6.0831    1.0000 </r>
       <r>   -5.9724    1.0000 </r>
       <r>   -5.8701    1.0000 </r>
       <r>   -5.8647    1.0000 </r>
       <r>   -5.8400    1.0000 </r>
       <r>   -5.7072    1.0000 </r>
       <r>   -5.6652    1.0000 </r>
       <r>   -5.6492    1.0000 </r>
       <r>   -5.6436    1.0000 </r>
       <r>   -5.6372    1.0000 </r>
       <r>   -5.5131    1.0000 </r>
       <r>   -5.4750    1.0000 </r>
       <r>   -5.4741    1.0000 </r>
       <r>   -5.4300    1.0000 </r>
       <r>   -5.4277    1.0000 </r>
       <r>   -5.4220    1.0000 </r>
       <r>   -5.3484    1.0000 </r>
       <r>   -5.3077    1.0000 </r>
       <r>   -5.3019    1.0000 </r>
       <r>   -5.2431    1.0000 </r>
       <r>   -5.0574    1.0000 </r>
       <r>   -5.0466    1.0000 </r>
       <r>   -5.0349    1.0000 </r>
       <r>   -5.0275    1.0000 </r>
       <r>   -5.0167    1.0000 </r>
       <r>   -4.9254    1.0000 </r>
       <r>   -4.7980    1.0000 </r>
       <r>   -4.7861    1.0000 </r>
       <r>   -4.7788    1.0000 </r>
       <r>   -4.7493    1.0000 </r>
       <r>   -4.7283    1.0000 </r>
       <r>   -4.6444    1.0000 </r>
       <r>   -4.5554    1.0000 </r>
       <r>   -4.4741    1.0000 </r>
       <r>   -4.4649    1.0000 </r>
       <r>   -4.4547    1.0000 </r>
       <r>   -4.4038    1.0000 </r>
       <r>   -4.3903    1.0000 </r>
       <r>   -4.3530    1.0000 </r>
       <r>   -4.3127    1.0000 </r>
       <r>   -4.3087    1.0000 </r>
       <r>   -4.2767    1.0000 </r>
       <r>   -4.2539    1.0000 </r>
       <r>   -4.2116    1.0000 </r>
       <r>   -4.0839    1.0000 </r>
       <r>   -4.0826    1.0000 </r>
       <r>   -4.0649    1.0000 </r>
       <r>   -3.9874    1.0000 </r>
       <r>   -3.9366    1.0000 </r>
       <r>   -3.9011    1.0000 </r>
       <r>   -3.8632    1.0000 </r>
       <r>   -3.8589    1.0000 </r>
       <r>   -3.7867    1.0000 </r>
       <r>   -3.7157    1.0000 </r>
       <r>   -3.6635    1.0000 </r>
       <r>   -3.6598    1.0000 </r>
       <r>   -3.6507    1.0000 </r>
       <r>   -3.5967    1.0000 </r>
       <r>   -3.5509    1.0000 </r>
       <r>   -3.5435    1.0000 </r>
       <r>   -3.4795    1.0000 </r>
       <r>   -3.4342    1.0000 </r>
       <r>   -3.4139    1.0000 </r>
       <r>   -3.4008    1.0000 </r>
       <r>   -3.3718    1.0000 </r>
       <r>   -3.2978    1.0000 </r>
       <r>   -3.2944    1.0000 </r>
       <r>   -3.2530    1.0000 </r>
       <r>   -3.2464    1.0000 </r>
       <r>   -3.2425    1.0000 </r>
       <r>   -3.1939    1.0000 </r>
       <r>   -3.1658    1.0000 </r>
       <r>   -3.1544    1.0000 </r>
       <r>   -3.1482    1.0000 </r>
       <r>   -3.1248    1.0000 </r>
       <r>   -3.1146    1.0000 </r>
       <r>   -3.1018    1.0000 </r>
       <r>   -3.0971    1.0000 </r>
       <r>   -3.0510    1.0000 </r>
       <r>   -2.9887    1.0000 </r>
       <r>   -2.9729    1.0000 </r>
       <r>   -2.9688    1.0000 </r>
       <r>   -2.9513    1.0000 </r>
       <r>   -2.9397    1.0000 </r>
       <r>   -2.9293    1.0000 </r>
       <r>   -2.8381    1.0000 </r>
       <r>   -2.8005    1.0000 </r>
       <r>   -2.7828    1.0000 </r>
       <r>   -2.7472    1.0000 </r>
       <r>   -2.7324    1.0000 </r>
       <r>   -2.7147    1.0000 </r>
       <r>   -2.6972    1.0000 </r>
       <r>   -2.6575    1.0000 </r>
       <r>   -2.6463    1.0000 </r>
       <r>   -2.5533    1.0000 </r>
       <r>   -2.5362    1.0000 </r>
       <r>   -2.4941    1.0000 </r>
       <r>   -2.4803    1.0000 </r>
       <r>   -2.4576    1.0000 </r>
       <r>   -2.4282    1.0000 </r>
       <r>   -2.3879    1.0000 </r>
       <r>   -2.2807    1.0000 </r>
       <r>   -2.2596    1.0000 </r>
       <r>   -2.1815    1.0000 </r>
       <r>   -2.1726    1.0000 </r>
       <r>   -2.1174    1.0000 </r>
       <r>   -2.0997    1.0000 </r>
       <r>   -2.0604    1.0000 </r>
       <r>   -2.0528    1.0000 </r>
       <r>   -2.0469    1.0000 </r>
       <r>   -2.0429    1.0000 </r>
       <r>   -1.9929    1.0000 </r>
       <r>   -1.9896    1.0000 </r>
       <r>   -1.9600    1.0000 </r>
       <r>   -1.9447    1.0000 </r>
       <r>   -1.9416    1.0000 </r>
       <r>   -1.9031    1.0000 </r>
       <r>   -1.8997    1.0000 </r>
       <r>   -1.8780    1.0000 </r>
       <r>   -1.8568    1.0000 </r>
       <r>   -1.8204    1.0000 </r>
       <r>   -1.7272    1.0000 </r>
       <r>   -1.7118    1.0000 </r>
       <r>   -1.6936    1.0000 </r>
       <r>   -1.6392    1.0000 </r>
       <r>   -1.6177    1.0000 </r>
       <r>   -1.5158    1.0000 </r>
       <r>   -1.4948    1.0000 </r>
       <r>   -1.4247    1.0000 </r>
       <r>   -1.3950    1.0000 </r>
       <r>   -1.3432    1.0000 </r>
       <r>   -1.2946    1.0000 </r>
       <r>   -1.2408    1.0000 </r>
       <r>   -1.2230    1.0000 </r>
       <r>   -1.1721    1.0000 </r>
       <r>   -1.1668    1.0000 </r>
       <r>   -1.1385    1.0000 </r>
       <r>   -1.1199    1.0000 </r>
       <r>   -1.0824    1.0000 </r>
       <r>   -1.0638    1.0000 </r>
       <r>   -1.0312    1.0000 </r>
       <r>   -1.0226    1.0000 </r>
       <r>   -0.9572    1.0000 </r>
       <r>   -0.9335    1.0000 </r>
       <r>   -0.9100    1.0000 </r>
       <r>   -0.8692    1.0000 </r>
       <r>   -0.8498    1.0000 </r>
       <r>   -0.8471    1.0000 </r>
       <r>   -0.8403    1.0000 </r>
       <r>   -0.8064    1.0000 </r>
       <r>   -0.7023    1.0000 </r>
       <r>   -0.6575    1.0000 </r>
       <r>   -0.6024    1.0000 </r>
       <r>   -0.5982    1.0000 </r>
       <r>   -0.5614    1.0000 </r>
       <r>   -0.5493    1.0000 </r>
       <r>   -0.4939    1.0000 </r>
       <r>   -0.4625    1.0000 </r>
       <r>   -0.4488    1.0000 </r>
       <r>   -0.3750    1.0001 </r>
       <r>   -0.3595    1.0002 </r>
       <r>   -0.3576    1.0003 </r>
       <r>   -0.3411    1.0006 </r>
       <r>   -0.2808    1.0069 </r>
       <r>   -0.2643    1.0115 </r>
       <r>   -0.2606    1.0128 </r>
       <r>   -0.2276    1.0270 </r>
       <r>   -0.1241    0.8588 </r>
       <r>   -0.1163    0.8114 </r>
       <r>   -0.0956    0.6610 </r>
       <r>   -0.0940    0.6485 </r>
       <r>   -0.0879    0.5984 </r>
       <r>   -0.0774    0.5105 </r>
       <r>   -0.0510    0.2947 </r>
       <r>   -0.0371    0.1959 </r>
       <r>    0.1283   -0.0069 </r>
       <r>    0.1535   -0.0027 </r>
       <r>    0.1582   -0.0023 </r>
       <r>    0.1717   -0.0013 </r>
       <r>    0.1795   -0.0009 </r>
       <r>    0.3170   -0.0000 </r>
       <r>    0.3682   -0.0000 </r>
       <r>    0.5494   -0.0000 </r>
       <r>    0.7625   -0.0000 </r>
       <r>    0.7869   -0.0000 </r>
       <r>    0.9900   -0.0000 </r>
       <r>    1.2086   -0.0000 </r>
       <r>    1.2251   -0.0000 </r>
       <r>    1.4962   -0.0000 </r>
       <r>    1.5957   -0.0000 </r>
       <r>    1.6932   -0.0000 </r>
       <r>    1.9059   -0.0000 </r>
       <r>    2.1920   -0.0000 </r>
       <r>    2.4395   -0.0000 </r>
       <r>    2.4503   -0.0000 </r>
       <r>    2.5004   -0.0000 </r>
       <r>    2.6224   -0.0000 </r>
       <r>    2.6702    0.0000 </r>
       <r>    2.7660    0.0000 </r>
       <r>    2.8119    0.0000 </r>
       <r>    3.0266    0.0000 </r>
       <r>    3.0894    0.0000 </r>
       <r>    3.5954    0.0000 </r>
       <r>    3.7059    0.0000 </r>
       <r>    4.1089    0.0000 </r>
       <r>    4.2487    0.0000 </r>
       <r>    4.5788    0.0000 </r>
       <r>    4.7028    0.0000 </r>
       <r>    5.1604    0.0000 </r>
       <r>    5.2905    0.0000 </r>
       <r>    5.3067    0.0000 </r>
       <r>    5.5089    0.0000 </r>
       <r>    5.5486    0.0000 </r>
       <r>    5.6059    0.0000 </r>
       <r>    5.6293    0.0000 </r>
       <r>    5.7244    0.0000 </r>
       <r>    5.8311    0.0000 </r>
       <r>    5.9472    0.0000 </r>
       <r>    6.0350    0.0000 </r>
       <r>    6.2302    0.0000 </r>
[...]
       <r>    6.9584    0.0000 </r>
       <r>    6.9674    0.0000 </r>
       <r>    7.1124    0.0000 </r>
       <r>    7.2247    0.0000 </r>
       <r>    7.3292    0.0000 </r>
      </set>
     </set>
    </set>
   </array>
  </eigenvalues>
  <separator name="orbital magnetization" >
   <v name="MAGDIPOLOUT">      0.00000000      0.00000000      0.00000000</v>
  </separator>
  <dos>
   <i name="efermi">     -0.07613971 </i>
   <total>
    <array>
     <dimension dim="1">gridpoints</dimension>
     <dimension dim="2">spin</dimension>
     <field>energy</field>
     <field>total</field>
     <field>integrated</field>
     <set>
      <set comment="spin 1">
       <r>    -9.8967     0.0000     0.0000 </r>
       <r>    -9.8350     0.0000     0.0000 </r>
       <r>    -9.7732     0.0000     0.0000 </r>
       <r>    -9.7115    -0.0000    -0.0000 </r>
       <r>    -9.6498    -0.0000    -0.0000 </r>
       <r>    -9.5880    -0.0000    -0.0000 </r>
       <r>    -9.5263    -0.0000    -0.0000 </r>
       <r>    -9.4646    -0.0000    -0.0000 </r>
       <r>    -9.4028    -0.0000    -0.0000 </r>
       <r>    -9.3411    -0.0000    -0.0000 </r>
       <r>    -9.2794    -0.0000    -0.0000 </r>
       <r>    -9.2176    -0.0000    -0.0000 </r>
       <r>    -9.1559    -0.0010    -0.0001 </r>
       <r>    -9.0942    -0.0103    -0.0007 </r>
       <r>    -9.0324    -0.0335    -0.0028 </r>
       <r>    -8.9707     0.0508     0.0004 </r>
       <r>    -8.9090     0.3292     0.0207 </r>
       <r>    -8.8472     0.6083     0.0582 </r>
       <r>    -8.7855     2.0495     0.1848 </r>
       <r>    -8.7238     3.8109     0.4200 </r>
       <r>    -8.6620     2.2519     0.5591 </r>
       <r>    -8.6003    -0.0210     0.5578 </r>
       <r>    -8.5386     0.2026     0.5703 </r>
       <r>    -8.4768     2.5853     0.7299 </r>
       <r>    -8.4151     3.8194     0.9657 </r>
       <r>    -8.3534     3.5849     1.1870 </r>
       <r>    -8.2916     3.7402     1.4179 </r>
       <r>    -8.2299     1.8252     1.5305 </r>
       <r>    -8.1682    -0.0246     1.5290 </r>
       <r>    -8.1064    -0.3831     1.5054 </r>
       <r>    -8.0447    -0.1091     1.4986 </r>
       <r>    -7.9830     2.5485     1.6560 </r>
       <r>    -7.9212     6.5463     2.0601 </r>
       <r>    -7.8595     5.6165     2.4068 </r>
       <r>    -7.7978     2.0451     2.5331 </r>
       <r>    -7.7360     3.7416     2.7640 </r>
       <r>    -7.6743     7.3407     3.2172 </r>
       <r>    -7.6125     4.7577     3.5109 </r>
       <r>    -7.5508     2.2204     3.6480 </r>
       <r>    -7.4891     3.2736     3.8501 </r>
       <r>    -7.4273     4.7391     4.1427 </r>
       <r>    -7.3656     7.1086     4.5815 </r>
       <r>    -7.3039     5.1632     4.9003 </r>
       <r>    -7.2421     4.6775     5.1890 </r>
       <r>    -7.1804    10.0312     5.8083 </r>
       <r>    -7.1187     9.4873     6.3940 </r>
       <r>    -7.0569     5.3297     6.7230 </r>
       <r>    -6.9952     3.0838     6.9134 </r>
       <r>    -6.9335     2.9700     7.0967 </r>
       <r>    -6.8717     7.0292     7.5307 </r>
       <r>    -6.8100     9.1601     8.0961 </r>
       <r>    -6.7483     5.2089     8.4177 </r>
       <r>    -6.6865     2.9011     8.5968 </r>
       <r>    -6.6248     6.4052     8.9922 </r>
       <r>    -6.5631    13.5966     9.8316 </r>
       <r>    -6.5013    15.2848    10.7752 </r>
       <r>    -6.4396    12.1591    11.5258 </r>
       <r>    -6.3779    10.9153    12.1997 </r>
       <r>    -6.3161     8.0757    12.6982 </r>
       <r>    -6.2544     9.1110    13.2607 </r>
       <r>    -6.1927    19.0193    14.4348 </r>
       <r>    -6.1309    32.4961    16.4409 </r>
       <r>    -6.0692    36.7474    18.7095 </r>
       <r>    -6.0075    30.4014    20.5863 </r>
       <r>    -5.9457    29.1414    22.3853 </r>
       <r>    -5.8840    32.1906    24.3725 </r>
       <r>    -5.8223    36.0474    26.5979 </r>
       <r>    -5.7605    31.3145    28.5311 </r>
       <r>    -5.6988    26.1048    30.1426 </r>
       <r>    -5.6371    32.2156    32.1314 </r>
       <r>    -5.5753    39.5417    34.5725 </r>
       <r>    -5.5136    42.4068    37.1904 </r>
       <r>    -5.4519    50.5455    40.3108 </r>
       <r>    -5.3901    62.5513    44.1723 </r>
       <r>    -5.3284    63.0219    48.0629 </r>
       <r>    -5.2667    55.5113    51.4898 </r>
       <r>    -5.2049    48.5669    54.4881 </r>
       <r>    -5.1432    43.6311    57.1816 </r>
       <r>    -5.0815    48.4911    60.1751 </r>
       <r>    -5.0197    67.5308    64.3441 </r>
       <r>    -4.9580    62.7682    68.2190 </r>
       <r>    -4.8963    34.1400    70.3266 </r>
       <r>    -4.8345    24.3707    71.8311 </r>
       <r>    -4.7728    38.8119    74.2271 </r>
       <r>    -4.7111    38.7392    76.6186 </r>
       <r>    -4.6493    21.9467    77.9735 </r>
       <r>    -4.5876    23.8066    79.4432 </r>
       <r>    -4.5259    43.5941    82.1344 </r>
       <r>    -4.4641    59.7262    85.8215 </r>
       <r>    -4.4024    61.7889    89.6360 </r>
       <r>    -4.3406    54.0680    92.9738 </r>
       <r>    -4.2789    47.1425    95.8841 </r>
       <r>    -4.2172    44.9189    98.6571 </r>
       <r>    -4.1554    45.8842   101.4898 </r>
       <r>    -4.0937    55.3746   104.9082 </r>
       <r>    -4.0320    58.0798   108.4937 </r>
       <r>    -3.9702    47.7939   111.4443 </r>
       <r>    -3.9085    42.2671   114.0536 </r>
       <r>    -3.8468    39.3811   116.4847 </r>
       <r>    -3.7850    36.4707   118.7362 </r>
       <r>    -3.7233    41.8532   121.3200 </r>
       <r>    -3.6616    58.7506   124.9469 </r>
       <r>    -3.5998    64.6141   128.9357 </r>
       <r>    -3.5381    58.0613   132.5201 </r>
       <r>    -3.4764    57.2037   136.0515 </r>
       <r>    -3.4146    68.9227   140.3064 </r>
       <r>    -3.3529    77.6878   145.1023 </r>
       <r>    -3.2912    73.5445   149.6425 </r>
       <r>    -3.2294    67.5789   153.8144 </r>
       <r>    -3.1677    72.7930   158.3083 </r>
       <r>    -3.1060    86.5912   163.6539 </r>
       <r>    -3.0442    83.3740   168.8009 </r>
       <r>    -2.9825    74.6754   173.4109 </r>
       <r>    -2.9208    77.7747   178.2122 </r>
       <r>    -2.8590    77.3872   182.9896 </r>
       <r>    -2.7973    84.8228   188.2261 </r>
       <r>    -2.7356   102.5862   194.5591 </r>
       <r>    -2.6738   105.4560   201.0693 </r>
       <r>    -2.6121    82.4641   206.1602 </r>
       <r>    -2.5504    61.0473   209.9289 </r>
       <r>    -2.4886    63.8534   213.8708 </r>
       <r>    -2.4269    59.8975   217.5685 </r>
       <r>    -2.3652    42.8205   220.2120 </r>
       <r>    -2.3034    29.9028   222.0580 </r>
       <r>    -2.2417    24.2241   223.5534 </r>
       <r>    -2.1800    29.3995   225.3684 </r>
       <r>    -2.1182    44.9840   228.1454 </r>
       <r>    -2.0565    66.7702   232.2674 </r>
       <r>    -1.9948    88.6191   237.7382 </r>
       <r>    -1.9330    91.8481   243.4084 </r>
       <r>    -1.8713    79.1551   248.2949 </r>
       <r>    -1.8096    60.1507   252.0083 </r>
       <r>    -1.7478    44.1914   254.7364 </r>
       <r>    -1.6861    41.9575   257.3266 </r>
       <r>    -1.6244    48.7182   260.3341 </r>
       <r>    -1.5626    58.7753   263.9626 </r>
       <r>    -1.5009    58.2318   267.5574 </r>
       <r>    -1.4392    53.9277   270.8866 </r>
       <r>    -1.3774    59.3155   274.5484 </r>
       <r>    -1.3157    58.3928   278.1532 </r>
       <r>    -1.2540    50.7971   281.2891 </r>
       <r>    -1.1922    57.4987   284.8387 </r>
       <r>    -1.1305    75.5895   289.5052 </r>
       <r>    -1.0688    84.9608   294.7501 </r>
       <r>    -1.0070    84.6715   299.9772 </r>
       <r>    -0.9453    68.8710   304.2289 </r>
       <r>    -0.8835    57.0384   307.7501 </r>
       <r>    -0.8218    58.5656   311.3656 </r>
       <r>    -0.7601    50.7264   314.4971 </r>
       <r>    -0.6983    41.6832   317.0704 </r>
       <r>    -0.6366    52.7196   320.3250 </r>
       <r>    -0.5749    63.0855   324.2195 </r>
       <r>    -0.5131    59.1500   327.8711 </r>
       <r>    -0.4514    59.9752   331.5736 </r>
       <r>    -0.3897    70.6637   335.9359 </r>
       <r>    -0.3279    89.1037   341.4367 </r>
       <r>    -0.2662    94.0292   347.2415 </r>
       <r>    -0.2045    69.4990   351.5319 </r>
       <r>    -0.1427    57.3955   355.0752 </r>
       <r>    -0.0810    87.9115   360.5023 </r>
       <r>    -0.0193    94.7408   366.3510 </r>
       <r>     0.0425    52.8340   369.6127 </r>
       <r>     0.1042    32.2577   371.6040 </r>
       <r>     0.1659    52.0295   374.8160 </r>
       <r>     0.2277    56.7433   378.3190 </r>
       <r>     0.2894    43.9507   381.0323 </r>
       <r>     0.3511    37.0527   383.3197 </r>
       <r>     0.4129    25.5411   384.8964 </r>
       <r>     0.4746    12.3982   385.6618 </r>
       <r>     0.5363     4.9173   385.9654 </r>
       <r>     0.5981     3.1032   386.1570 </r>
       <r>     0.6598     4.4147   386.4295 </r>
       <r>     0.7215    11.3346   387.1292 </r>
       <r>     0.7833    16.3465   388.1384 </r>
       <r>     0.8450    11.0741   388.8220 </r>
       <r>     0.9067     7.1676   389.2645 </r>
       <r>     0.9685    10.5255   389.9143 </r>
       <r>     1.0302     9.2420   390.4848 </r>
       <r>     1.0919     2.8732   390.6622 </r>
       <r>     1.1537     4.0967   390.9151 </r>
       <r>     1.2154    11.3951   391.6186 </r>
       <r>     1.2771    13.5914   392.4576 </r>
       <r>     1.3389    12.0350   393.2006 </r>
       <r>     1.4006    10.3460   393.8393 </r>
       <r>     1.4623    14.8712   394.7573 </r>
       <r>     1.5241    26.6524   396.4027 </r>
       <r>     1.5858    25.9043   398.0019 </r>
       <r>     1.6475    18.1561   399.1227 </r>
       <r>     1.7093    15.5092   400.0802 </r>
       <r>     1.7710     9.4670   400.6646 </r>
       <r>     1.8327     1.7861   400.7749 </r>
       <r>     1.8945     1.7616   400.8836 </r>
       <r>     1.9562     4.9876   401.1915 </r>
       <r>     2.0179     6.9236   401.6189 </r>
       <r>     2.0797     5.8584   401.9806 </r>
       <r>     2.1414     4.2354   402.2421 </r>
       <r>     2.2031     9.0478   402.8006 </r>
       <r>     2.2649    12.1320   403.5496 </r>
       <r>     2.3266    10.6472   404.2069 </r>
       <r>     2.3883    14.7293   405.1162 </r>
       <r>     2.4501    21.6678   406.4538 </r>
       <r>     2.5118    20.3205   407.7083 </r>
       <r>     2.5736    11.1628   408.3974 </r>
       <r>     2.6353     6.5121   408.7994 </r>
       <r>     2.6970     6.5264   409.2023 </r>
       <r>     2.7588    11.6164   409.9194 </r>
       <r>     2.8205    19.6816   411.1345 </r>
       <r>     2.8822    18.2028   412.2582 </r>
       <r>     2.9440    11.6713   412.9787 </r>
       <r>     3.0057     7.6210   413.4492 </r>
       <r>     3.0674    11.1017   414.1345 </r>
       <r>     3.1292    14.5211   415.0310 </r>
       <r>     3.1909    11.7543   415.7566 </r>
       <r>     3.2526    10.1264   416.3818 </r>
       <r>     3.3144     7.8720   416.8677 </r>
       <r>     3.3761     2.6157   417.0292 </r>
       <r>     3.4378     0.1092   417.0360 </r>
       <r>     3.4996     4.2914   417.3009 </r>
       <r>     3.5613    12.8132   418.0919 </r>
       <r>     3.6230    21.2028   419.4008 </r>
       <r>     3.6848    25.3679   420.9669 </r>
       <r>     3.7465    20.6014   422.2387 </r>
       <r>     3.8082    10.3413   422.8771 </r>
       <r>     3.8700     4.4517   423.1519 </r>
       <r>     3.9317     3.6345   423.3763 </r>
       <r>     3.9934     3.9564   423.6205 </r>
       <r>     4.0552     5.2094   423.9421 </r>
       <r>     4.1169     7.6912   424.4169 </r>
       <r>     4.1786     7.9099   424.9053 </r>
       <r>     4.2404     6.3659   425.2982 </r>
       <r>     4.3021     5.2496   425.6223 </r>
       <r>     4.3638    13.4628   426.4534 </r>
       <r>     4.4256    25.9143   428.0532 </r>
       <r>     4.4873    19.8873   429.2810 </r>
       <r>     4.5490     6.8584   429.7043 </r>
       <r>     4.6108     7.2683   430.1530 </r>
       <r>     4.6725    13.1546   430.9651 </r>
       <r>     4.7342    15.9241   431.9482 </r>
       <r>     4.7960    12.7253   432.7338 </r>
       <r>     4.8577     7.2036   433.1785 </r>
       <r>     4.9194     5.1856   433.4986 </r>
       <r>     4.9812     8.9668   434.0522 </r>
       <r>     5.0429     9.6848   434.6501 </r>
       <r>     5.1046     4.7012   434.9403 </r>
       <r>     5.1664     5.9916   435.3102 </r>
       <r>     5.2281    12.6125   436.0888 </r>
       <r>     5.2898    15.8566   437.0677 </r>
       <r>     5.3516    10.8014   437.7345 </r>
       <r>     5.4133     4.7046   438.0249 </r>
       <r>     5.4750    11.6872   438.7464 </r>
       <r>     5.5368    22.7961   440.1537 </r>
       <r>     5.5985    25.6230   441.7355 </r>
       <r>     5.6602    26.7706   443.3882 </r>
       <r>     5.7220    27.0507   445.0581 </r>
       <r>     5.7837    23.5580   446.5124 </r>
       <r>     5.8455    18.4333   447.6504 </r>
       <r>     5.9072    15.9051   448.6323 </r>
       <r>     5.9689    23.2377   450.0668 </r>
       <r>     6.0307    31.8285   452.0317 </r>
       <r>     6.0924    24.8980   453.5688 </r>
       <r>     6.1541    12.9178   454.3662 </r>
       <r>     6.2159    14.1282   455.2384 </r>
       <r>     6.2776    25.5524   456.8159 </r>
       <r>     6.3393    33.2716   458.8699 </r>
       <r>     6.4011    25.5851   460.4493 </r>
       <r>     6.4628    12.5720   461.2255 </r>
       <r>     6.5245    14.5032   462.1208 </r>
       <r>     6.5863    26.4287   463.7524 </r>
       <r>     6.6480    30.4396   465.6315 </r>
       <r>     6.7097    25.8794   467.2291 </r>
       <r>     6.7715    21.6189   468.5638 </r>
       <r>     6.8332    15.4754   469.5191 </r>
       <r>     6.8949    10.9395   470.1945 </r>
       <r>     6.9567    15.5643   471.1553 </r>
       <r>     7.0184    17.9639   472.2643 </r>
       <r>     7.0801    17.1745   473.3245 </r>
       <r>     7.1419    22.9186   474.7394 </r>
       <r>     7.2036    25.4994   476.3136 </r>
       <r>     7.2653    20.0251   477.5498 </r>
       <r>     7.3271    11.1959   478.2410 </r>
       <r>     7.3888     4.1168   478.4951 </r>
       <r>     7.4505     3.9294   478.7377 </r>
       <r>     7.5123     7.0598   479.1735 </r>
       <r>     7.5740     6.4431   479.5713 </r>
       <r>     7.6357     4.5973   479.8551 </r>
       <r>     7.6975     2.3769   480.0018 </r>
       <r>     7.7592     0.2293   480.0160 </r>
       <r>     7.8209    -0.2006   480.0036 </r>
       <r>     7.8827    -0.0537   480.0003 </r>
       <r>     7.9444    -0.0046   480.0000 </r>
       <r>     8.0061    -0.0002   480.0000 </r>
       <r>     8.0679    -0.0000   480.0000 </r>
       <r>     8.1296    -0.0000   480.0000 </r>
       <r>     8.1913    -0.0000   480.0000 </r>
       <r>     8.2531    -0.0000   480.0000 </r>
       <r>     8.3148     0.0000   480.0000 </r>
       <r>     8.3765     0.0000   480.0000 </r>
       <r>     8.4383     0.0000   480.0000 </r>
       <r>     8.5000     0.0000   480.0000 </r>
       <r>     8.5617     0.0000   480.0000 </r>
       <r>     8.6235     0.0000   480.0000 </r>
      </set>
     </set>
    </array>
   </total>
  </dos>
 </calculation>
 <structure name="finalpos" >
  <crystal>
   <varray name="basis" >
    <v>       8.46831000       0.00000000       0.00000000 </v>
    <v>       4.23415500       7.33377159       0.00000000 </v>
    <v>       0.00000000       0.00000000      24.96566199 </v>
   </varray>
   <i name="volume">   1550.48373159 </i>
   <varray name="rec_basis" >
    <v>       0.11808732      -0.06817774       0.00000000 </v>
    <v>       0.00000000       0.13635549       0.00000000 </v>
    <v>       0.00000000       0.00000000       0.04005502 </v>
   </varray>
  </crystal>
  <varray name="positions" >
   <v>       0.00000000       0.00000000       0.34046764 </v>
   <v>       0.33400137       0.00000000       0.34046764 </v>
   <v>       0.66800274       0.00000000       0.34046764 </v>
   <v>       0.00000000       0.33400137       0.34046764 </v>
   <v>       0.33400137       0.33400137       0.34046764 </v>
   <v>       0.66800274       0.33400137       0.34046764 </v>
   <v>       0.00000000       0.66800274       0.34046764 </v>
   <v>       0.33400137       0.66800274       0.34046764 </v>
   <v>       0.66800274       0.66800274       0.34046764 </v>
   <v>       0.11133379       0.11133379       0.43297074 </v>
   <v>       0.44533516       0.11133379       0.43297074 </v>
   <v>       0.77933653       0.11133379       0.43297074 </v>
   <v>       0.11133379       0.44533516       0.43297074 </v>
   <v>       0.44533516       0.44533516       0.43297074 </v>
   <v>       0.77933653       0.44533516       0.43297074 </v>
   <v>       0.11133379       0.77933653       0.43297074 </v>
   <v>       0.44533516       0.77933653       0.43297074 </v>
   <v>       0.77933653       0.77933653       0.43297074 </v>
   <v>       0.88905816       0.22536108       0.52508189 </v>
   <v>       0.22184269       0.22447597       0.52584097 </v>
   <v>       0.55462928       0.22483912       0.52472308 </v>
   <v>       0.88932515       0.55673537       0.52508043 </v>
   <v>       0.22246475       0.55694775       0.52476803 </v>
   <v>       0.55525777       0.55788996       0.52433872 </v>
   <v>       0.88878791       0.89116458       0.52410794 </v>
   <v>       0.22232780       0.89170488       0.52486828 </v>
   <v>       0.55484980       0.89134629       0.52478109 </v>
   <v>       0.99802409       0.00209913       0.61748786 </v>
   <v>       0.33449066       0.00005548       0.62019666 </v>
   <v>       0.66674062       0.00247039       0.61759671 </v>
   <v>       0.99532659       0.33795302       0.62124816 </v>
   <v>       0.33421234       0.33683325       0.62025872 </v>
   <v>       0.66501501       0.33647990       0.61775065 </v>
   <v>       0.99810363       0.67160713       0.61753910 </v>
   <v>       0.33198321       0.66984557       0.61762643 </v>
   <v>       0.66503649       0.67024769       0.61776839 </v>
   <v>       0.19514501       0.24176695       0.65863514 </v>
  </varray>
  <varray name="selective"  type="logical" >
   <v type="logical" >  F  F  F </v>
   <v type="logical" >  F  F  F </v>
   <v type="logical" >  F  F  F </v>
   <v type="logical" >  F  F  F </v>
   <v type="logical" >  F  F  F </v>
   <v type="logical" >  F  F  F </v>
   <v type="logical" >  F  F  F </v>
   <v type="logical" >  F  F  F </v>
   <v type="logical" >  F  F  F </v>
   <v type="logical" >  F  F  F </v>
   <v type="logical" >  F  F  F </v>
   <v type="logical" >  F  F  F </v>
   <v type="logical" >  F  F  F </v>
   <v type="logical" >  F  F  F </v>
   <v type="logical" >  F  F  F </v>
   <v type="logical" >  F  F  F </v>
   <v type="logical" >  F  F  F </v>
   <v type="logical" >  F  F  F </v>
   <v type="logical" >  T  T  T </v>
   <v type="logical" >  T  T  T </v>
   <v type="logical" >  T  T  T </v>
   <v type="logical" >  T  T  T </v>
   <v type="logical" >  T  T  T </v>
   <v type="logical" >  T  T  T </v>
   <v type="logical" >  T  T  T </v>
   <v type="logical" >  T  T  T </v>
   <v type="logical" >  T  T  T </v>
   <v type="logical" >  T  T  T </v>
   <v type="logical" >  T  T  T </v>
   <v type="logical" >  T  T  T </v>
   <v type="logical" >  T  T  T </v>
   <v type="logical" >  T  T  T </v>
   <v type="logical" >  T  T  T </v>
   <v type="logical" >  T  T  T </v>
   <v type="logical" >  T  T  T </v>
   <v type="logical" >  T  T  T </v>
   <v type="logical" >  T  T  T </v>
  </varray>
  <nose>
   <v>      -3.00000000       0.00000000       0.00010000       0.00010000 </v>
  </nose>
 </structure>
</modeling>
