unknown system                          
           1
     8.468310    0.000000    0.000000
     4.234155    7.333772    0.000000
     0.000000    0.000000   24.965662
   Pt   H 
    36     1
Direct configuration=     1
   0.00000000  0.00000000  0.34046764
   0.33400137  0.00000000  0.34046764
   0.66800274  0.00000000  0.34046764
   0.00000000  0.33400137  0.34046764
   0.33400137  0.33400137  0.34046764
   0.66800274  0.33400137  0.34046764
   0.00000000  0.66800274  0.34046764
   0.33400137  0.66800274  0.34046764
   0.66800274  0.66800274  0.34046764
   0.11133379  0.11133379  0.43297074
   0.44533516  0.11133379  0.43297074
   0.77933653  0.11133379  0.43297074
   0.11133379  0.44533516  0.43297074
   0.44533516  0.44533516  0.43297074
   0.77933653  0.44533516  0.43297074
   0.11133379  0.77933653  0.43297074
   0.44533516  0.77933653  0.43297074
   0.77933653  0.77933653  0.43297074
   0.88905816  0.22536108  0.52508189
   0.22184269  0.22447597  0.52584097
   0.55462928  0.22483912  0.52472308
   0.88932515  0.55673537  0.52508043
   0.22246475  0.55694775  0.52476803
   0.55525777  0.55788996  0.52433872
   0.88878791  0.89116458  0.52410794
   0.22232780  0.89170488  0.52486828
   0.55484980  0.89134629  0.52478109
   0.99802409  0.00209913  0.61748786
   0.33449066  0.00005548  0.62019666
   0.66674062  0.00247039  0.61759671
   0.99532659  0.33795302  0.62124816
   0.33421234  0.33683325  0.62025872
   0.66501501  0.33647990  0.61775065
   0.99810363  0.67160713  0.61753910
   0.33198321  0.66984557  0.61762643
   0.66503649  0.67024769  0.61776839
   0.19514501  0.24176695  0.65863514
