
     Program PWSCF v.7.1 starts on 28Jan2025 at 19: 5:43 
        Git branch: heads/qe-7.1
        Last git commit: 48ba0178f8fede6d020eb786884699a9f063f55d-dirty
        Last git commit date: Fri Jan 27 14:22:33 2023 +0000
        Last git commit subject: Merge branch 'fix_hubbard' into 'develop'

     This program is part of the open-source Quantum ESPRESSO suite
     for quantum simulation of materials; please cite
         "P. Giannozzi et al., J. Phys.:Condens. Matter 21 395502 (2009);
         "P. Giannozzi et al., J. Phys.:Condens. Matter 29 465901 (2017);
         "P. Giannozzi et al., J. Chem. Phys. 152 154105 (2020);
          URL http://www.quantum-espresso.org", 
     in publications or presentations arising from this work. More details at
     http://www.quantum-espresso.org/quote

     Parallel version (MPI), running on    48 processors

     MPI processes distributed on     1 nodes
     262700 MiB available memory on the printing compute node when the environment starts

     Reading input from espresso.pwi
Warning: card &CELL ignored
Warning: card / ignored
Warning: card &FCP ignored
Warning: card / ignored
Warning: card &RISM ignored
Warning: card / ignored

     Current dimensions of program PWSCF are:
     Max number of different atomic species (ntypx) = 10
     Max number of k-points (npk) =  40000
     Max angular momentum in pseudopotentials (lmaxx) =  4
     file Pt.pbe-n-kjpaw_psl.1.0.0.UPF: wavefunction(s)  6S 5D renormalized
     file H.pbe-kjpaw_psl.1.0.0.UPF: wavefunction(s)  1S renormalized
     file C.pbe-n-kjpaw_psl.1.0.0.UPF: wavefunction(s)  2S 2P renormalized

     **************************************************************************
     Initializing libbeef V0.1.2 with the BEEF-vdW functional.
     Citation: Wellendorff et al., PRB 85, 235149 (2012).
     **************************************************************************


     IMPORTANT: XC functional enforced from input :
     Exchange-correlation= BEEF-VDW
                           (   1   4  43  14   2   0   0)
     Any further DFT definition will be discarded
     Please, verify this is what you really want


     R & G space division:  proc/nbgrp/npool/nimage =      48
     Subspace diagonalization in iterative solution of the eigenvalue problem:
     one sub-group per band group will be used
     custom distributed-memory algorithm (size of sub-group:  2*  2 procs)


     Parallelization info
     --------------------
     sticks:   dense  smooth     PW     G-vecs:    dense   smooth      PW
     Min         150      59     16                30552     7447    1068
     Max         151      60     17                30571     7456    1081
     Sum        7243    2839    769              1467143   357639   51591

     Using Slab Decomposition



     bravais-lattice index     =            0
     lattice parameter (alat)  =      16.0028  a.u.
     unit-cell volume          =   10463.1828 (a.u.)^3
     number of atoms/cell      =           38
     number of atomic types    =            3
     number of electrons       =       365.00
     number of Kohn-Sham states=          220
     kinetic-energy cutoff     =      40.0000  Ry
     charge density cutoff     =     410.0000  Ry
     scf convergence threshold =      1.0E-06
     mixing beta               =       0.7000
     number of iterations used =            8  local-TF  mixing
     Exchange-correlation= BEEF-VDW
                           (   1   4  43  14   2   0   0)

     celldm(1)=  16.002787  celldm(2)=   0.000000  celldm(3)=   0.000000
     celldm(4)=   0.000000  celldm(5)=   0.000000  celldm(6)=   0.000000

     crystal axes: (cart. coord. in units of alat)
               a(1) = (   1.000000   0.000000   0.000000 )  
               a(2) = (   0.500000   0.866025   0.000000 )  
               a(3) = (   0.000000   0.000000   2.948128 )  

     reciprocal axes: (cart. coord. in units 2 pi/alat)
               b(1) = (  1.000000 -0.577350  0.000000 )  
               b(2) = (  0.000000  1.154701  0.000000 )  
               b(3) = (  0.000000  0.000000  0.339198 )  


     PseudoPot. # 1 for Pt read from file:
     /users/kbadger1/espresso/pseudo/pslibrary.1.0.0/pbe/PSEUDOPOTENTIALS/Pt.pbe-n-kjpaw_psl.1.0.0.UPF
     MD5 check sum: 2e24a0b5bf98a4ed1a57fa81bca8c143
     Pseudo is Projector augmented-wave + core cor, Zval = 10.0
     Generated using 'atomic' code by A. Dal Corso  v.7.0
     Shape of augmentation charge: PSQ
     Using radial grid of 1277 points,  6 beta functions with: 
                l(1) =   0
                l(2) =   0
                l(3) =   1
                l(4) =   1
                l(5) =   2
                l(6) =   2
     Q(r) pseudized with 0 coefficients 


     PseudoPot. # 2 for H  read from file:
     /users/kbadger1/espresso/pseudo/pslibrary.1.0.0/pbe/PSEUDOPOTENTIALS/H.pbe-kjpaw_psl.1.0.0.UPF
     MD5 check sum: fe4c6fa958fa6d3815bf5d2419cbf1df
     Pseudo is Projector augmented-wave, Zval =  1.0
     Generated using 'atomic' code by A. Dal Corso  v.7.0
     Shape of augmentation charge: PSQ
     Using radial grid of  929 points,  2 beta functions with: 
                l(1) =   0
                l(2) =   0
     Q(r) pseudized with 0 coefficients 


     PseudoPot. # 3 for C  read from file:
     /users/kbadger1/espresso/pseudo/pslibrary.1.0.0/pbe/PSEUDOPOTENTIALS/C.pbe-n-kjpaw_psl.1.0.0.UPF
     MD5 check sum: 6408e75cdba28732cea38a4db8498ce4
     Pseudo is Projector augmented-wave + core cor, Zval =  4.0
     Generated using 'atomic' code by A. Dal Corso  v.7.0
     Shape of augmentation charge: PSQ
     Using radial grid of 1073 points,  4 beta functions with: 
                l(1) =   0
                l(2) =   0
                l(3) =   1
                l(4) =   1
     Q(r) pseudized with 0 coefficients 


     atomic species   valence    mass     pseudopotential
        Pt            10.00   195.08400     Pt( 1.00)
        H              1.00     1.00800     H ( 1.00)
        C              4.00    12.01100     C ( 1.00)

     No symmetry found



   Cartesian axes

     site n.     atom                  positions (alat units)
         1           Pt  tau(   1) = (   0.0000000   0.0000000   1.0037422  )
         2           Pt  tau(   2) = (   0.3340014   0.0000000   1.0037422  )
         3           Pt  tau(   3) = (   0.6680027   0.0000000   1.0037422  )
         4           Pt  tau(   4) = (   0.1670007   0.2892537   1.0037422  )
         5           Pt  tau(   5) = (   0.5010021   0.2892537   1.0037422  )
         6           Pt  tau(   6) = (   0.8350034   0.2892537   1.0037422  )
         7           Pt  tau(   7) = (   0.3340014   0.5785073   1.0037422  )
         8           Pt  tau(   8) = (   0.6680027   0.5785073   1.0037422  )
         9           Pt  tau(   9) = (   1.0020041   0.5785073   1.0037422  )
        10           Pt  tau(  10) = (   0.1670007   0.0964179   1.2764532  )
        11           Pt  tau(  11) = (   0.5010021   0.0964179   1.2764532  )
        12           Pt  tau(  12) = (   0.8350034   0.0964179   1.2764532  )
        13           Pt  tau(  13) = (   0.3340014   0.3856716   1.2764532  )
        14           Pt  tau(  14) = (   0.6680027   0.3856716   1.2764532  )
        15           Pt  tau(  15) = (   1.0020041   0.3856716   1.2764532  )
        16           Pt  tau(  16) = (   0.5010021   0.6749252   1.2764532  )
        17           Pt  tau(  17) = (   0.8350034   0.6749252   1.2764532  )
        18           Pt  tau(  18) = (   1.1690048   0.6749252   1.2764532  )
        19           Pt  tau(  19) = (   0.0022874   0.1942031   1.5501028  )
        20           Pt  tau(  20) = (   0.3335786   0.1941035   1.5497703  )
        21           Pt  tau(  21) = (   0.6679752   0.1946122   1.5451605  )
        22           Pt  tau(  22) = (   0.1680247   0.4813045   1.5515410  )
        23           Pt  tau(  23) = (   0.5007355   0.4835548   1.5452047  )
        24           Pt  tau(  24) = (   0.8352332   0.4835716   1.5451385  )
        25           Pt  tau(  25) = (   0.3362160   0.7733546   1.5497898  )
        26           Pt  tau(  26) = (   0.6679976   0.7730573   1.5490297  )
        27           Pt  tau(  27) = (   0.9999959   0.7732360   1.5494045  )
        28           Pt  tau(  28) = (  -0.0077100   0.0007298   1.8366088  )
        29           Pt  tau(  29) = (   0.3433026   0.0008251   1.8362745  )
        30           Pt  tau(  30) = (   0.6678035   0.0056754   1.8232008  )
        31           Pt  tau(  31) = (   0.1678776   0.3117689   1.8371393  )
        32           Pt  tau(  32) = (   0.5047278   0.2958322   1.8195298  )
        33           Pt  tau(  33) = (   0.8310305   0.2958556   1.8196268  )
        34           Pt  tau(  34) = (   0.3359011   0.5849419   1.8234438  )
        35           Pt  tau(  35) = (   0.6678951   0.5785807   1.8192943  )
        36           Pt  tau(  36) = (   0.9998175   0.5850005   1.8233590  )
        37           H   tau(  37) = (   0.1679587   0.2394114   2.0302416  )
        38           C   tau(  38) = (   0.1678399   0.1012242   1.9452661  )

     number of k points=    13  Marzari-Vanderbilt smearing, width (Ry)=  0.0200
                       cart. coord. in units 2pi/alat
        k(    1) = (   0.0000000   0.0000000   0.0000000), wk =   0.0800000
        k(    2) = (   0.0000000   0.2309401   0.0000000), wk =   0.1600000
        k(    3) = (   0.0000000   0.4618802   0.0000000), wk =   0.1600000
        k(    4) = (   0.2000000  -0.1154701   0.0000000), wk =   0.1600000
        k(    5) = (   0.2000000   0.1154701   0.0000000), wk =   0.1600000
        k(    6) = (   0.2000000   0.3464102   0.0000000), wk =   0.1600000
        k(    7) = (   0.2000000  -0.5773503   0.0000000), wk =   0.1600000
        k(    8) = (   0.2000000  -0.3464102   0.0000000), wk =   0.1600000
        k(    9) = (   0.4000000  -0.2309401   0.0000000), wk =   0.1600000
        k(   10) = (   0.4000000   0.0000000   0.0000000), wk =   0.1600000
        k(   11) = (   0.4000000   0.2309401   0.0000000), wk =   0.1600000
        k(   12) = (   0.4000000  -0.6928203   0.0000000), wk =   0.1600000
        k(   13) = (   0.4000000  -0.4618802   0.0000000), wk =   0.1600000

     Dense  grid:  1467143 G-vectors     FFT dimensions: ( 108, 108, 320)

     Smooth grid:   357639 G-vectors     FFT dimensions: (  72,  72, 192)

     Estimated max dynamical RAM per process >     214.57 MB

     Estimated total dynamical RAM >      10.06 GB

     Initial potential from superposition of free atoms

     starting charge     364.9938, renormalised to     365.0000

     negative rho (up, down):  3.543E-03 0.000E+00


     %%%%%%%%%%%%%%%%%%%%%%%%%%%%%%%%%%%%%%%%%%%%%%%%%%%%%%%%%%%%%%%%%%%%%%%%
     %                                                                      %
     % You are using vdW-DF, which was implemented by the Thonhauser group. %
     % Please cite the following two papers that made this development      %
     % possible and the two reviews that describe the various versions:     %
     %                                                                      %
     %   T. Thonhauser et al., PRL 115, 136402 (2015).                      %
     %   T. Thonhauser et al., PRB 76, 125112 (2007).                       %
     %   K. Berland et al., Rep. Prog. Phys. 78, 066501 (2015).             %
     %   D.C. Langreth et al., J. Phys.: Condens. Matter 21, 084203 (2009). %
     %                                                                      %
     % If you are calculating stress with vdW-DF, please also cite:         %
     %                                                                      %
     %   R. Sabatini et al., J. Phys.: Condens. Matter 24, 424209 (2012).   %
     %                                                                      %
     %%%%%%%%%%%%%%%%%%%%%%%%%%%%%%%%%%%%%%%%%%%%%%%%%%%%%%%%%%%%%%%%%%%%%%%%

     %%%%%%%%%%%%%%%%%%%%%%%%%%%%%%%%%%%%%%%%%%%%%%%%%%%%%%%%%%%%%%%%%%%%%%%%
     %                                                                      %
     %  vdW-DF NEWS:                                                        %
     %                                                                      %
     %  * vdW-DF3 is now available. DOI: 10.1021/acs.jctc.0c00471           %
     %    use with input_dft = 'vdW-DF3-opt1' or 'vdW-DF3-opt2'             %
     %                                                                      %
     %  * Unscreened and range-separated hybrid vdW-DF-cx functionals       %
     %    DOI: 10.1063/1.4986522 and 10.1088/1361-648X/ac2ad2               %
     %    use with input_dft = 'vdW-DF-cx0'    and 'vdW-DF-ahcx'            %
     %  * Unscreened and range-separated hybrid vdW-DF2-b86r functionals    %
     %    DOI: 10.1063/1.4986522 and DOI: 10.1103/PhysRevX.12.041003        %
     %    use with input_dft = 'vdW-DF2-br0' and 'vdW-DF2-ahbr'             %
     %                                                                      %
     %%%%%%%%%%%%%%%%%%%%%%%%%%%%%%%%%%%%%%%%%%%%%%%%%%%%%%%%%%%%%%%%%%%%%%%%


     Starting wfcs are  329 randomized atomic wfcs
     Checking if some PAW data can be deallocated... 

     total cpu time spent up to now is       15.0 secs

     per-process dynamical memory:   212.9 Mb

     Self-consistent Calculation

     iteration #  1     ecut=    40.00 Ry     beta= 0.70
     Davidson diagonalization with overlap
     ethr =  1.00E-02,  avg # of iterations =  2.0

     Threshold (ethr) on eigenvalues was too large:
     Diagonalizing with lowered threshold

     Davidson diagonalization with overlap
     ethr =  5.20E-04,  avg # of iterations =  3.8

     negative rho (up, down):  1.502E-02 0.000E+00

     total cpu time spent up to now is       64.1 secs

     total energy              =  -27774.04963013 Ry
     estimated scf accuracy    <       2.15088368 Ry

     iteration #  2     ecut=    40.00 Ry     beta= 0.70
     Davidson diagonalization with overlap
     ethr =  5.89E-04,  avg # of iterations =  2.6

     negative rho (up, down):  1.232E-02 0.000E+00

     total cpu time spent up to now is       87.9 secs

     total energy              =  -27774.27078058 Ry
     estimated scf accuracy    <       0.86220482 Ry

     iteration #  3     ecut=    40.00 Ry     beta= 0.70
     Davidson diagonalization with overlap
     ethr =  2.36E-04,  avg # of iterations =  2.0

     negative rho (up, down):  8.502E-03 0.000E+00

     total cpu time spent up to now is      100.9 secs

     total energy              =  -27774.33854441 Ry
     estimated scf accuracy    <       0.21801676 Ry

     iteration #  4     ecut=    40.00 Ry     beta= 0.70
     Davidson diagonalization with overlap
     ethr =  5.97E-05,  avg # of iterations =  9.0

     negative rho (up, down):  4.811E-03 0.000E+00

     total cpu time spent up to now is      145.4 secs

     total energy              =  -27774.37597140 Ry
     estimated scf accuracy    <       0.08786231 Ry

     iteration #  5     ecut=    40.00 Ry     beta= 0.70
     Davidson diagonalization with overlap
     ethr =  2.41E-05,  avg # of iterations =  4.4

     negative rho (up, down):  2.829E-03 0.000E+00

     total cpu time spent up to now is      166.8 secs

     total energy              =  -27774.38583155 Ry
     estimated scf accuracy    <       0.05839624 Ry

     iteration #  6     ecut=    40.00 Ry     beta= 0.70
     Davidson diagonalization with overlap
     ethr =  1.60E-05,  avg # of iterations =  2.0

     negative rho (up, down):  9.331E-04 0.000E+00

     total cpu time spent up to now is      186.7 secs

     total energy              =  -27774.38809633 Ry
     estimated scf accuracy    <       0.00605784 Ry

     iteration #  7     ecut=    40.00 Ry     beta= 0.70
     Davidson diagonalization with overlap
     c_bands:  1 eigenvalues not converged
     c_bands:  1 eigenvalues not converged
     c_bands:  1 eigenvalues not converged
     c_bands:  1 eigenvalues not converged
     c_bands:  1 eigenvalues not converged
     c_bands:  1 eigenvalues not converged
     c_bands:  1 eigenvalues not converged
     ethr =  1.66E-06,  avg # of iterations = 18.0

     negative rho (up, down):  5.606E-04 0.000E+00

     total cpu time spent up to now is      244.1 secs

     total energy              =  -27774.39092271 Ry
     estimated scf accuracy    <       0.00223399 Ry

     iteration #  8     ecut=    40.00 Ry     beta= 0.70
     Davidson diagonalization with overlap
     ethr =  6.12E-07,  avg # of iterations =  2.7

     negative rho (up, down):  3.722E-04 0.000E+00

     total cpu time spent up to now is      269.8 secs

     total energy              =  -27774.39118580 Ry
     estimated scf accuracy    <       0.00056499 Ry

     iteration #  9     ecut=    40.00 Ry     beta= 0.70
     Davidson diagonalization with overlap
     ethr =  1.55E-07,  avg # of iterations =  3.5

     negative rho (up, down):  3.107E-04 0.000E+00

     total cpu time spent up to now is      296.2 secs

     total energy              =  -27774.39124839 Ry
     estimated scf accuracy    <       0.00031360 Ry

     iteration # 10     ecut=    40.00 Ry     beta= 0.70
     Davidson diagonalization with overlap
     ethr =  8.59E-08,  avg # of iterations =  2.0

     negative rho (up, down):  3.374E-04 0.000E+00

     total cpu time spent up to now is      311.1 secs

     total energy              =  -27774.39128710 Ry
     estimated scf accuracy    <       0.00016025 Ry

     iteration # 11     ecut=    40.00 Ry     beta= 0.70
     Davidson diagonalization with overlap
     ethr =  4.39E-08,  avg # of iterations =  2.4

     negative rho (up, down):  5.159E-04 0.000E+00

     total cpu time spent up to now is      335.4 secs

     total energy              =  -27774.39132754 Ry
     estimated scf accuracy    <       0.00011008 Ry

     iteration # 12     ecut=    40.00 Ry     beta= 0.70
     Davidson diagonalization with overlap
     ethr =  3.02E-08,  avg # of iterations =  3.5

     negative rho (up, down):  8.284E-04 0.000E+00

     total cpu time spent up to now is      360.3 secs

     total energy              =  -27774.39135391 Ry
     estimated scf accuracy    <       0.00007705 Ry

     iteration # 13     ecut=    40.00 Ry     beta= 0.70
     Davidson diagonalization with overlap
     ethr =  2.11E-08,  avg # of iterations =  2.3

     negative rho (up, down):  1.731E-03 0.000E+00

     total cpu time spent up to now is      386.2 secs

     total energy              =  -27774.39137678 Ry
     estimated scf accuracy    <       0.00003712 Ry

     iteration # 14     ecut=    40.00 Ry     beta= 0.70
     Davidson diagonalization with overlap
     ethr =  1.02E-08,  avg # of iterations =  2.8

     negative rho (up, down):  1.865E-03 0.000E+00

     total cpu time spent up to now is      400.7 secs

     total energy              =  -27774.39139163 Ry
     estimated scf accuracy    <       0.00002548 Ry

     iteration # 15     ecut=    40.00 Ry     beta= 0.70
     Davidson diagonalization with overlap
     ethr =  6.98E-09,  avg # of iterations =  1.2

     negative rho (up, down):  2.694E-03 0.000E+00

     total cpu time spent up to now is      423.6 secs

     total energy              =  -27774.39139307 Ry
     estimated scf accuracy    <       0.00000760 Ry

     iteration # 16     ecut=    40.00 Ry     beta= 0.70
     Davidson diagonalization with overlap
     ethr =  2.08E-09,  avg # of iterations =  4.5

     negative rho (up, down):  3.149E-03 0.000E+00

     total cpu time spent up to now is      457.4 secs

     total energy              =  -27774.39139314 Ry
     estimated scf accuracy    <       0.00000408 Ry

     iteration # 17     ecut=    40.00 Ry     beta= 0.70
     Davidson diagonalization with overlap
     ethr =  1.12E-09,  avg # of iterations =  2.0

     negative rho (up, down):  3.363E-03 0.000E+00

     total cpu time spent up to now is      481.2 secs

     End of self-consistent calculation

          k = 0.0000 0.0000 0.0000 ( 44645 PWs)   bands (ev):

   -10.3643  -6.4494  -5.4030  -5.1108  -4.2757  -4.1319  -4.0847  -4.0571
    -4.0377  -4.0202  -4.0168  -3.9480  -3.8644  -3.5948  -3.5203  -3.5169
    -3.5152  -3.4332  -3.4054  -3.3345  -3.0807  -3.0797  -3.0416  -2.9348
    -2.8827  -2.8726  -2.8452  -2.8373  -2.8142  -2.7471  -2.7417  -2.7357
    -2.6701  -2.6634  -2.6043  -2.5682  -2.5616  -2.5495  -2.5298  -2.5052
    -2.5001  -2.3477  -2.1575  -2.0962  -2.0326  -1.9931  -1.9671  -1.9545
    -1.9421  -1.9404  -1.9082  -1.8784  -1.8375  -1.7296  -1.7246  -1.6637
    -1.6358  -1.5891  -1.3069  -1.2839  -1.2168  -1.1964  -1.1716  -1.1302
    -1.1045  -1.0457  -1.0360  -0.9900  -0.9780  -0.9643  -0.9611  -0.9395
    -0.9352  -0.9229  -0.8828  -0.8796  -0.8728  -0.8489  -0.8451  -0.8409
    -0.8131  -0.7895  -0.7792  -0.7531  -0.7513  -0.6287  -0.5733  -0.5676
    -0.5526  -0.5304  -0.5167  -0.5025  -0.4932  -0.4747  -0.4493  -0.4373
    -0.4364  -0.3325  -0.3273  -0.2983  -0.2786  -0.2776  -0.2517  -0.2450
    -0.1803  -0.1692  -0.1554  -0.1140  -0.0753  -0.0303   0.1875   0.2263
     0.2291   0.2664   0.3343   0.3372   0.3976   0.4017   0.4152   0.4620
     0.4995   0.5141   0.5576   0.5791   0.5916   0.6076   0.6094   0.6242
     0.7026   0.7578   0.8299   0.8398   0.8632   0.8967   0.9177   0.9328
     1.0018   1.0442   1.1243   1.1344   1.1413   1.1548   1.1883   1.2028
     1.2172   1.2490   1.2831   1.3517   1.3730   1.3913   1.4025   1.4471
     1.4907   1.5636   1.5665   1.5711   1.5754   1.5817   1.5951   1.6087
     1.6111   1.6176   1.6539   1.6747   1.6821   1.6981   1.7019   1.7096
     1.7795   1.7865   1.8037   1.8103   1.8140   1.8592   1.8671   1.8889
     1.9455   1.9495   1.9605   1.9654   1.9702   1.9997   2.0139   2.0345
     2.0469   2.0625   2.0943   2.0946   2.2110   2.2198   2.3366   2.3457
     2.3510   2.3897   2.3933   2.4099   2.4365   2.6787   2.9476   3.1083
     3.2516   3.2620   3.2886   3.6518   4.0839   4.3949   5.3848   5.5522
     5.5801   5.6146   5.9562   5.9981   6.6879   7.2205   7.2355   7.2521
     7.2584   7.2859   7.3953   7.4192

          k = 0.0000 0.2309 0.0000 ( 44694 PWs)   bands (ev):

   -10.3590  -6.3092  -5.4181  -4.9723  -4.5167  -4.2845  -4.1479  -3.9727
    -3.9637  -3.9320  -3.8313  -3.7964  -3.7414  -3.6267  -3.5587  -3.4816
    -3.4474  -3.4328  -3.3216  -3.2492  -3.1199  -3.0344  -2.9931  -2.9786
    -2.9180  -2.9139  -2.8845  -2.8154  -2.8135  -2.7743  -2.7450  -2.7131
    -2.7042  -2.6901  -2.6256  -2.6080  -2.5319  -2.5114  -2.4476  -2.3859
    -2.3513  -2.3152  -2.1803  -2.1644  -2.1192  -2.0819  -2.0665  -2.0463
    -1.9860  -1.9833  -1.8341  -1.8253  -1.8139  -1.7460  -1.7111  -1.6497
    -1.6476  -1.5883  -1.4150  -1.3557  -1.3502  -1.3239  -1.3195  -1.2612
    -1.2209  -1.2135  -1.1800  -1.1452  -1.1297  -1.0804  -1.0479  -1.0262
    -0.9997  -0.9734  -0.9595  -0.8851  -0.8508  -0.8457  -0.7976  -0.7943
    -0.7582  -0.7383  -0.7287  -0.7199  -0.6861  -0.6172  -0.5851  -0.5814
    -0.5599  -0.5495  -0.5363  -0.5299  -0.4992  -0.4733  -0.4596  -0.4329
    -0.3971  -0.3952  -0.3544  -0.3492  -0.3338  -0.2846  -0.2833  -0.2519
    -0.2244  -0.1454  -0.1324  -0.1041  -0.0911  -0.0708  -0.0304  -0.0288
    -0.0153   0.0650   0.0881   0.1739   0.2315   0.3353   0.3392   0.3865
     0.4022   0.4105   0.4401   0.4512   0.5777   0.6227   0.6674   0.6754
     0.7132   0.7234   0.7454   0.7775   0.8074   0.8139   0.8457   0.8935
     0.9771   0.9804   1.0128   1.0295   1.0597   1.1036   1.1427   1.1561
     1.1864   1.2340   1.2381   1.2917   1.3410   1.3600   1.3879   1.3939
     1.4138   1.4574   1.4914   1.5350   1.5514   1.5797   1.5861   1.6278
     1.6417   1.7160   1.7269   1.7560   1.7598   1.8132   1.8526   1.8863
     1.9071   1.9336   1.9409   1.9572   2.0151   2.0244   2.0351   2.0372
     2.0754   2.0790   2.1161   2.1171   2.1731   2.2159   2.2476   2.2707
     2.3015   2.3053   2.3313   2.3607   2.3695   2.3962   2.4519   2.4783
     2.5266   2.5307   2.6228   2.6778   2.7006   2.9202   2.9509   3.1077
     3.2844   3.6636   3.8956   3.9654   4.3157   4.4754   5.0723   5.3294
     5.5494   5.8423   6.0656   6.1955   6.3221   6.3491   6.8767   7.0617
     7.1748   7.3928   7.4600   7.5217

          k = 0.0000 0.4619 0.0000 ( 44748 PWs)   bands (ev):

   -10.3506  -5.9204  -5.4761  -5.1418  -4.5741  -4.2843  -4.1805  -4.0503
    -3.8248  -3.8194  -3.6745  -3.5828  -3.5449  -3.4586  -3.4462  -3.3490
    -3.2885  -3.2762  -3.2425  -3.1719  -3.1507  -3.0933  -3.0727  -3.0705
    -3.0152  -2.9974  -2.9893  -2.9625  -2.8840  -2.8782  -2.6975  -2.6915
    -2.6483  -2.6404  -2.6198  -2.5405  -2.5155  -2.4628  -2.4016  -2.3914
    -2.3522  -2.2923  -2.2372  -2.1748  -2.1255  -2.0895  -2.0532  -2.0280
    -1.9532  -1.9410  -1.9247  -1.8896  -1.8807  -1.8720  -1.7577  -1.7171
    -1.7013  -1.6126  -1.6028  -1.5461  -1.5192  -1.4867  -1.4832  -1.3921
    -1.3591  -1.3102  -1.2667  -1.2544  -1.1837  -1.1662  -1.1634  -1.1396
    -1.0783  -1.0036  -0.9965  -0.9919  -0.9392  -0.9307  -0.8659  -0.8507
    -0.8436  -0.8022  -0.7982  -0.7816  -0.7437  -0.7303  -0.7226  -0.6757
    -0.6737  -0.6156  -0.6140  -0.5676  -0.5464  -0.5409  -0.5212  -0.4955
    -0.4514  -0.4080  -0.3588  -0.3547  -0.3235  -0.2886  -0.2829  -0.2606
    -0.2317  -0.1764  -0.1426  -0.1101  -0.0945  -0.0592  -0.0442   0.0526
     0.0801   0.1006   0.1745   0.2022   0.2090   0.2575   0.2850   0.3043
     0.3090   0.3595   0.3636   0.4126   0.4316   0.4357   0.4612   0.4816
     0.5147   0.5830   0.6093   0.6322   0.6789   0.7007   0.7552   0.7577
     0.9123   0.9174   0.9422   0.9839   0.9988   1.0680   1.1014   1.1257
     1.2014   1.2414   1.2496   1.2612   1.2822   1.2948   1.3234   1.3532
     1.4062   1.4460   1.4614   1.4877   1.5386   1.5586   1.5930   1.5977
     1.6796   1.6973   1.7629   1.7879   1.8231   1.8446   1.9380   1.9422
     1.9684   1.9753   2.0138   2.0568   2.0776   2.1049   2.1450   2.1569
     2.2137   2.2496   2.2599   2.2713   2.2741   2.3220   2.3653   2.3800
     2.4545   2.5140   2.5347   2.5407   2.5426   2.6318   2.7883   2.8470
     2.9557   3.0920   3.2031   3.5433   3.5450   3.7152   3.8163   3.9128
     4.1857   4.3075   4.3776   4.5120   4.8395   4.8654   4.9772   5.0733
     5.1422   5.2423   5.3440   5.6534   5.8523   6.0033   6.2264   6.6485
     6.6987   7.1448   7.2181   7.3952

          k = 0.2000-0.1155 0.0000 ( 44694 PWs)   bands (ev):

   -10.3596  -6.3064  -5.3713  -4.9933  -4.5891  -4.2396  -4.1462  -4.0346
    -3.9540  -3.8915  -3.8401  -3.7936  -3.7572  -3.6163  -3.5907  -3.4590
    -3.4482  -3.3991  -3.3538  -3.2796  -3.1120  -3.0397  -2.9948  -2.9810
    -2.9240  -2.9039  -2.8723  -2.8258  -2.8115  -2.7707  -2.7426  -2.7152
    -2.6991  -2.6818  -2.6298  -2.6067  -2.5457  -2.5007  -2.4241  -2.3985
    -2.3627  -2.2869  -2.1796  -2.1356  -2.1267  -2.0762  -2.0570  -2.0324
    -1.9970  -1.9653  -1.9062  -1.8205  -1.7808  -1.7317  -1.7089  -1.6601
    -1.6486  -1.5794  -1.4117  -1.3701  -1.3326  -1.3181  -1.2951  -1.2542
    -1.2372  -1.2140  -1.1795  -1.1544  -1.1224  -1.0731  -1.0336  -1.0048
    -0.9961  -0.9694  -0.9372  -0.9171  -0.8846  -0.8529  -0.8004  -0.7719
    -0.7618  -0.7322  -0.7255  -0.7027  -0.6740  -0.6299  -0.6073  -0.5880
    -0.5693  -0.5422  -0.5364  -0.5284  -0.4957  -0.4785  -0.4497  -0.4162
    -0.4037  -0.3955  -0.3650  -0.3453  -0.3307  -0.3176  -0.2852  -0.2592
    -0.2272  -0.1717  -0.1385  -0.1054  -0.0917  -0.0740  -0.0342  -0.0271
    -0.0180   0.0646   0.0948   0.2220   0.2461   0.3122   0.3525   0.3728
     0.3869   0.4246   0.4484   0.4629   0.5657   0.6102   0.6437   0.6780
     0.7094   0.7220   0.7528   0.7750   0.8101   0.8184   0.8390   0.8582
     0.9561   0.9805   1.0089   1.0211   1.0349   1.0977   1.1371   1.1668
     1.1965   1.2030   1.2564   1.2816   1.3482   1.3699   1.3863   1.4067
     1.4176   1.4508   1.5016   1.5366   1.5645   1.5762   1.5988   1.6305
     1.6490   1.7069   1.7200   1.7592   1.7694   1.8224   1.8631   1.8821
     1.9064   1.9252   1.9408   1.9487   2.0100   2.0214   2.0328   2.0391
     2.0692   2.0798   2.1030   2.1155   2.1658   2.2037   2.2443   2.2696
     2.3037   2.3141   2.3384   2.3650   2.3823   2.4003   2.4661   2.4798
     2.5309   2.5737   2.6404   2.6747   2.7034   2.8290   2.9409   3.1713
     3.3965   3.5857   3.9069   3.9946   4.2395   4.4584   5.0617   5.3832
     5.5426   5.8825   6.0475   6.2272   6.2930   6.3703   6.8525   7.0405
     7.1444   7.3880   7.4363   7.4968

          k = 0.2000 0.1155 0.0000 ( 44694 PWs)   bands (ev):

   -10.3596  -6.3064  -5.3714  -4.9934  -4.5890  -4.2396  -4.1462  -4.0346
    -3.9540  -3.8914  -3.8410  -3.7939  -3.7568  -3.6147  -3.5900  -3.4611
    -3.4494  -3.3989  -3.3532  -3.2783  -3.1116  -3.0387  -2.9932  -2.9813
    -2.9243  -2.9066  -2.8732  -2.8266  -2.8121  -2.7719  -2.7425  -2.7168
    -2.6954  -2.6828  -2.6280  -2.6082  -2.5442  -2.5006  -2.4223  -2.4001
    -2.3630  -2.2874  -2.1790  -2.1372  -2.1259  -2.0760  -2.0568  -2.0304
    -1.9985  -1.9663  -1.9065  -1.8210  -1.7794  -1.7320  -1.7083  -1.6602
    -1.6484  -1.5804  -1.4114  -1.3683  -1.3340  -1.3196  -1.2927  -1.2538
    -1.2391  -1.2136  -1.1772  -1.1556  -1.1219  -1.0714  -1.0338  -1.0047
    -0.9965  -0.9696  -0.9361  -0.9170  -0.8858  -0.8529  -0.8002  -0.7725
    -0.7627  -0.7325  -0.7226  -0.7056  -0.6744  -0.6311  -0.6071  -0.5887
    -0.5674  -0.5423  -0.5347  -0.5273  -0.4964  -0.4772  -0.4511  -0.4192
    -0.4043  -0.3947  -0.3656  -0.3420  -0.3302  -0.3170  -0.2856  -0.2619
    -0.2278  -0.1727  -0.1377  -0.1038  -0.0902  -0.0716  -0.0355  -0.0306
    -0.0195   0.0647   0.0957   0.2225   0.2470   0.3121   0.3523   0.3733
     0.3880   0.4247   0.4472   0.4635   0.5632   0.6110   0.6444   0.6770
     0.7089   0.7234   0.7532   0.7734   0.8104   0.8178   0.8383   0.8583
     0.9572   0.9822   1.0098   1.0201   1.0353   1.0993   1.1346   1.1654
     1.1951   1.2045   1.2575   1.2835   1.3499   1.3690   1.3839   1.4048
     1.4178   1.4505   1.5045   1.5334   1.5637   1.5774   1.5972   1.6305
     1.6505   1.7067   1.7185   1.7573   1.7688   1.8232   1.8629   1.8827
     1.9068   1.9266   1.9395   1.9505   2.0096   2.0214   2.0326   2.0402
     2.0682   2.0798   2.1029   2.1144   2.1672   2.2036   2.2434   2.2700
     2.3054   2.3142   2.3379   2.3658   2.3827   2.4023   2.4676   2.4790
     2.5298   2.5729   2.6396   2.6749   2.7032   2.8295   2.9432   3.1699
     3.3956   3.5873   3.9055   3.9943   4.2398   4.4588   5.0611   5.3844
     5.5422   5.8826   6.0463   6.2254   6.2948   6.3714   6.8527   7.0403
     7.1434   7.3878   7.4359   7.4966

          k = 0.2000 0.3464 0.0000 ( 44714 PWs)   bands (ev):

   -10.3528  -6.0375  -5.3938  -4.8394  -4.7727  -4.6789  -4.0589  -3.8029
    -3.7415  -3.7311  -3.6881  -3.6805  -3.6375  -3.5957  -3.5719  -3.5106
    -3.4663  -3.2719  -3.1720  -3.1489  -3.1375  -3.1160  -3.0556  -3.0143
    -2.9570  -2.9464  -2.8900  -2.8476  -2.8201  -2.8097  -2.7740  -2.7386
    -2.7166  -2.6690  -2.6417  -2.6173  -2.5639  -2.5185  -2.4901  -2.3263
    -2.2887  -2.1939  -2.1843  -2.1496  -2.1277  -2.0949  -2.0757  -2.0174
    -1.9887  -1.9458  -1.9087  -1.8668  -1.8336  -1.7762  -1.7227  -1.6860
    -1.6598  -1.6374  -1.5861  -1.5190  -1.4707  -1.4480  -1.4131  -1.3689
    -1.3316  -1.2833  -1.2730  -1.2521  -1.2223  -1.1741  -1.1075  -1.0810
    -1.0587  -1.0422  -1.0245  -0.9995  -0.9323  -0.8980  -0.8582  -0.8382
    -0.7975  -0.7840  -0.7652  -0.7358  -0.7181  -0.6959  -0.6633  -0.6513
    -0.6260  -0.6064  -0.5910  -0.5646  -0.5111  -0.4944  -0.4840  -0.4439
    -0.4407  -0.3952  -0.3705  -0.3581  -0.3397  -0.3221  -0.3034  -0.2981
    -0.2757  -0.2450  -0.2226  -0.1873  -0.1351  -0.0952  -0.0588  -0.0177
     0.0005   0.0377   0.0714   0.1448   0.2100   0.2471   0.2664   0.3030
     0.3579   0.3949   0.4052   0.4291   0.4657   0.4993   0.5341   0.5556
     0.5697   0.6165   0.6474   0.7063   0.7345   0.7751   0.8014   0.8396
     0.9042   0.9411   0.9808   0.9873   1.0125   1.0203   1.0834   1.1106
     1.1547   1.1733   1.2231   1.2477   1.3044   1.3261   1.3413   1.3701
     1.3862   1.3928   1.4185   1.4411   1.4715   1.5467   1.5923   1.6530
     1.6793   1.7350   1.7929   1.8741   1.8869   1.9225   1.9332   1.9733
     2.0358   2.0567   2.0700   2.1015   2.1080   2.1270   2.1393   2.1606
     2.1748   2.1924   2.2516   2.2616   2.2832   2.2934   2.3517   2.3601
     2.3978   2.4641   2.5196   2.5480   2.5948   2.6199   2.6569   2.6900
     2.7823   2.8156   3.0565   3.2180   3.3569   3.4977   3.5830   3.8270
     3.8739   3.9654   4.3502   4.5358   4.7120   4.7892   4.8473   4.9672
     5.0922   5.6900   5.8918   6.0534   6.1268   6.3495   6.4986   6.7425
     6.8088   6.8604   6.9344   7.2247

          k = 0.2000-0.5774 0.0000 ( 44692 PWs)   bands (ev):

   -10.3485  -5.6547  -5.4785  -5.2147  -4.9011  -4.2833  -4.2211  -3.9579
    -3.7149  -3.6396  -3.5917  -3.5360  -3.4488  -3.4357  -3.4242  -3.3311
    -3.2996  -3.2230  -3.2108  -3.2034  -3.1630  -3.1391  -3.1049  -3.0709
    -3.0076  -3.0002  -2.9746  -2.9627  -2.9308  -2.8790  -2.7648  -2.7450
    -2.7103  -2.6627  -2.6137  -2.5937  -2.5498  -2.5328  -2.4395  -2.3947
    -2.3654  -2.2379  -2.1811  -2.1673  -2.1117  -2.0817  -2.0754  -2.0062
    -1.9382  -1.8793  -1.8435  -1.7842  -1.7762  -1.7352  -1.7156  -1.6922
    -1.6760  -1.6192  -1.6091  -1.5791  -1.5570  -1.5125  -1.4901  -1.4827
    -1.4259  -1.4044  -1.3686  -1.3039  -1.2587  -1.2379  -1.1903  -1.1573
    -1.1158  -1.0984  -1.0841  -1.0476  -1.0293  -1.0219  -0.9502  -0.9153
    -0.9013  -0.8593  -0.8480  -0.8354  -0.7529  -0.7175  -0.6987  -0.6857
    -0.6515  -0.6085  -0.5905  -0.5421  -0.5107  -0.4771  -0.4553  -0.4361
    -0.4107  -0.3972  -0.3758  -0.3551  -0.3460  -0.3280  -0.2943  -0.2652
    -0.2503  -0.2466  -0.2261  -0.2142  -0.1899  -0.1797  -0.1522  -0.0449
     0.0041   0.0712   0.1008   0.1718   0.2231   0.2319   0.2410   0.2915
     0.3095   0.3512   0.3585   0.3792   0.4159   0.4374   0.4696   0.4967
     0.5878   0.6136   0.6319   0.6403   0.6765   0.7566   0.7722   0.8257
     0.8774   0.9177   0.9539   0.9755   0.9983   1.0487   1.0521   1.0679
     1.0898   1.1488   1.1676   1.1835   1.1987   1.2661   1.2800   1.3251
     1.3602   1.3850   1.4552   1.4848   1.5668   1.6133   1.6388   1.7017
     1.7339   1.7583   1.8176   1.8271   1.8584   1.8985   1.9501   2.0106
     2.0420   2.0509   2.1046   2.1116   2.1321   2.1754   2.1861   2.2276
     2.2462   2.2568   2.2754   2.3244   2.3447   2.3984   2.4315   2.4492
     2.4797   2.5338   2.5543   2.5590   2.6154   2.6579   2.6970   2.8004
     3.0800   3.4651   3.6752   3.7288   3.8779   3.9872   4.0017   4.0641
     4.2194   4.3860   4.5080   4.7328   4.8230   4.8477   5.1851   5.2409
     5.3942   5.4335   5.5039   5.6226   5.7939   5.8956   6.0606   6.1260
     6.3809   6.7223   6.8157   6.8788

          k = 0.2000-0.3464 0.0000 ( 44714 PWs)   bands (ev):

   -10.3528  -6.0374  -5.3936  -4.8446  -4.7668  -4.6798  -4.0578  -3.8040
    -3.7421  -3.7322  -3.6860  -3.6817  -3.6388  -3.5949  -3.5723  -3.5091
    -3.4666  -3.2716  -3.1708  -3.1494  -3.1379  -3.1154  -3.0562  -3.0168
    -2.9566  -2.9478  -2.8899  -2.8449  -2.8180  -2.8118  -2.7746  -2.7424
    -2.7139  -2.6684  -2.6392  -2.6159  -2.5619  -2.5197  -2.4910  -2.3284
    -2.2871  -2.1938  -2.1848  -2.1479  -2.1276  -2.0943  -2.0776  -2.0191
    -1.9888  -1.9477  -1.9037  -1.8676  -1.8354  -1.7754  -1.7247  -1.6879
    -1.6568  -1.6380  -1.5853  -1.5184  -1.4694  -1.4507  -1.4128  -1.3692
    -1.3312  -1.2844  -1.2743  -1.2518  -1.2218  -1.1733  -1.1090  -1.0830
    -1.0589  -1.0421  -1.0254  -0.9961  -0.9306  -0.9016  -0.8597  -0.8392
    -0.7986  -0.7832  -0.7667  -0.7343  -0.7184  -0.6948  -0.6627  -0.6530
    -0.6258  -0.6074  -0.5889  -0.5652  -0.5092  -0.4918  -0.4832  -0.4434
    -0.4402  -0.3939  -0.3688  -0.3583  -0.3391  -0.3220  -0.3044  -0.2973
    -0.2785  -0.2451  -0.2210  -0.1897  -0.1345  -0.0947  -0.0583  -0.0164
     0.0012   0.0387   0.0691   0.1458   0.2101   0.2476   0.2629   0.3017
     0.3604   0.3937   0.4042   0.4307   0.4663   0.5004   0.5331   0.5551
     0.5700   0.6162   0.6473   0.7085   0.7337   0.7777   0.7980   0.8393
     0.9033   0.9388   0.9801   0.9919   1.0127   1.0208   1.0821   1.1104
     1.1551   1.1741   1.2217   1.2466   1.3035   1.3247   1.3421   1.3684
     1.3864   1.3960   1.4189   1.4399   1.4762   1.5438   1.5922   1.6539
     1.6803   1.7366   1.7937   1.8734   1.8866   1.9213   1.9337   1.9735
     2.0338   2.0576   2.0699   2.1010   2.1083   2.1279   2.1399   2.1600
     2.1755   2.1920   2.2526   2.2615   2.2827   2.2935   2.3511   2.3598
     2.3988   2.4641   2.5177   2.5482   2.5928   2.6193   2.6560   2.6879
     2.7839   2.8166   3.0584   3.2179   3.3573   3.4974   3.5829   3.8268
     3.8739   3.9651   4.3496   4.5351   4.7127   4.7884   4.8477   4.9689
     5.0923   5.6892   5.8892   6.0540   6.1274   6.3494   6.4996   6.7423
     6.8072   6.8602   6.9359   7.2233

          k = 0.4000-0.2309 0.0000 ( 44748 PWs)   bands (ev):

   -10.3521  -5.8977  -5.3596  -5.2198  -4.6549  -4.2832  -4.1692  -4.1149
    -3.8693  -3.7928  -3.6766  -3.5700  -3.5563  -3.4644  -3.4345  -3.3780
    -3.2886  -3.2667  -3.2408  -3.2083  -3.1659  -3.1265  -3.0696  -3.0598
    -3.0245  -3.0126  -2.9896  -2.9567  -2.8883  -2.8686  -2.6923  -2.6780
    -2.6378  -2.6229  -2.5684  -2.5351  -2.4534  -2.4124  -2.4008  -2.3934
    -2.3349  -2.3069  -2.2069  -2.1675  -2.1190  -2.0870  -2.0592  -2.0074
    -1.9695  -1.9447  -1.9087  -1.8877  -1.8812  -1.8671  -1.7678  -1.7180
    -1.6937  -1.6671  -1.5774  -1.5221  -1.5095  -1.4868  -1.4705  -1.3897
    -1.3407  -1.3005  -1.2821  -1.2370  -1.1985  -1.1815  -1.1532  -1.1261
    -1.0676  -1.0359  -0.9947  -0.9892  -0.9327  -0.9293  -0.8647  -0.8502
    -0.8208  -0.8021  -0.7859  -0.7808  -0.7418  -0.7346  -0.7080  -0.6870
    -0.6809  -0.6375  -0.6057  -0.5668  -0.5532  -0.5356  -0.5173  -0.4880
    -0.4404  -0.4071  -0.3713  -0.3534  -0.3405  -0.3237  -0.2768  -0.2654
    -0.2181  -0.1967  -0.1649  -0.1176  -0.1065  -0.0657  -0.0472   0.0014
     0.0498   0.1076   0.1417   0.1933   0.2350   0.2561   0.2916   0.2991
     0.3400   0.3633   0.4055   0.4202   0.4398   0.4466   0.4580   0.4623
     0.5063   0.5798   0.6215   0.6375   0.6632   0.6909   0.7197   0.7919
     0.8440   0.9183   0.9333   0.9700   1.0010   1.0579   1.0796   1.1550
     1.1903   1.2134   1.2487   1.2597   1.2809   1.2983   1.3272   1.3489
     1.4071   1.4456   1.4811   1.4967   1.5365   1.5471   1.5707   1.5957
     1.6908   1.7205   1.7697   1.7839   1.8338   1.8984   1.9314   1.9435
     1.9513   1.9791   2.0032   2.0543   2.0840   2.0938   2.1249   2.1412
     2.2098   2.2502   2.2533   2.2743   2.2845   2.3367   2.3721   2.3760
     2.4629   2.5200   2.5393   2.5452   2.5678   2.6272   2.7804   2.7966
     2.9424   3.1413   3.2856   3.5290   3.5648   3.7126   3.7915   3.9827
     4.1400   4.2333   4.4190   4.5842   4.8285   4.8944   4.9637   5.0373
     5.1278   5.2764   5.3425   5.7008   5.8180   6.0440   6.2207   6.5549
     6.6919   7.1253   7.2107   7.3055

          k = 0.4000 0.0000 0.0000 ( 44714 PWs)   bands (ev):

   -10.3537  -6.0260  -5.3330  -4.8776  -4.7856  -4.7098  -4.1008  -3.7609
    -3.7447  -3.7298  -3.7214  -3.6825  -3.6361  -3.5991  -3.5768  -3.5635
    -3.4165  -3.2835  -3.1820  -3.1522  -3.1445  -3.1165  -3.0498  -3.0464
    -2.9574  -2.9470  -2.8839  -2.8320  -2.8194  -2.7995  -2.7680  -2.7409
    -2.7071  -2.6714  -2.6602  -2.6134  -2.5583  -2.5081  -2.4434  -2.3039
    -2.2527  -2.2237  -2.1897  -2.1452  -2.1257  -2.1068  -2.0488  -1.9980
    -1.9815  -1.9268  -1.9058  -1.8699  -1.8248  -1.7808  -1.7274  -1.6855
    -1.6797  -1.6273  -1.6016  -1.5446  -1.4748  -1.4357  -1.3863  -1.3393
    -1.3086  -1.2819  -1.2703  -1.2415  -1.2124  -1.1890  -1.0919  -1.0730
    -1.0669  -1.0507  -1.0339  -0.9819  -0.9309  -0.8893  -0.8597  -0.8464
    -0.8011  -0.7647  -0.7557  -0.7440  -0.7274  -0.6935  -0.6738  -0.6589
    -0.6480  -0.6121  -0.5861  -0.5714  -0.5301  -0.5060  -0.4571  -0.4557
    -0.4453  -0.4048  -0.3879  -0.3673  -0.3401  -0.3224  -0.3071  -0.2968
    -0.2803  -0.2556  -0.2361  -0.1805  -0.1311  -0.0986  -0.0470  -0.0151
     0.0156   0.0534   0.0753   0.1231   0.1860   0.2304   0.2764   0.3021
     0.3364   0.3775   0.4045   0.4464   0.4685   0.5096   0.5359   0.5598
     0.5828   0.6224   0.6597   0.6688   0.7273   0.7765   0.7920   0.8347
     0.9018   0.9347   0.9542   0.9968   1.0117   1.0324   1.0562   1.0953
     1.1325   1.1654   1.2419   1.2643   1.3065   1.3251   1.3486   1.3733
     1.3851   1.3909   1.4263   1.4299   1.4860   1.5505   1.6039   1.6374
     1.7046   1.7435   1.7669   1.8769   1.8861   1.9284   1.9491   1.9618
     2.0306   2.0592   2.0732   2.0818   2.1111   2.1244   2.1292   2.1586
     2.1755   2.1926   2.2517   2.2728   2.2816   2.2887   2.3441   2.3676
     2.3989   2.4871   2.5331   2.5544   2.6000   2.6391   2.6727   2.6934
     2.7936   2.8038   3.0050   3.2725   3.3598   3.3827   3.6114   3.8693
     3.8859   4.0568   4.2851   4.5455   4.7413   4.7812   4.8666   4.8981
     5.1060   5.7511   5.8896   6.0480   6.1392   6.3459   6.5655   6.5823
     6.8062   6.8780   6.9452   7.1611

          k = 0.4000 0.2309 0.0000 ( 44748 PWs)   bands (ev):

   -10.3521  -5.8981  -5.3590  -5.2200  -4.6543  -4.2847  -4.1679  -4.1167
    -3.8676  -3.7919  -3.6768  -3.5706  -3.5567  -3.4643  -3.4342  -3.3784
    -3.2909  -3.2682  -3.2403  -3.2054  -3.1646  -3.1252  -3.0691  -3.0608
    -3.0251  -3.0134  -2.9898  -2.9567  -2.8881  -2.8685  -2.6902  -2.6803
    -2.6416  -2.6197  -2.5678  -2.5347  -2.4573  -2.4132  -2.3980  -2.3932
    -2.3381  -2.3050  -2.2069  -2.1685  -2.1200  -2.0864  -2.0573  -2.0058
    -1.9717  -1.9425  -1.9076  -1.8880  -1.8812  -1.8659  -1.7689  -1.7193
    -1.6935  -1.6666  -1.5773  -1.5233  -1.5095  -1.4877  -1.4698  -1.3867
    -1.3417  -1.2999  -1.2801  -1.2369  -1.1983  -1.1842  -1.1524  -1.1244
    -1.0687  -1.0336  -0.9948  -0.9888  -0.9349  -0.9322  -0.8640  -0.8476
    -0.8189  -0.8016  -0.7857  -0.7788  -0.7424  -0.7353  -0.7086  -0.6874
    -0.6793  -0.6361  -0.6027  -0.5660  -0.5546  -0.5360  -0.5194  -0.4901
    -0.4455  -0.4090  -0.3702  -0.3531  -0.3448  -0.3234  -0.2746  -0.2653
    -0.2190  -0.1940  -0.1677  -0.1147  -0.1037  -0.0673  -0.0476   0.0001
     0.0481   0.1100   0.1384   0.1934   0.2351   0.2560   0.2905   0.2984
     0.3415   0.3627   0.4064   0.4179   0.4417   0.4468   0.4597   0.4624
     0.5041   0.5795   0.6213   0.6372   0.6658   0.6926   0.7174   0.7937
     0.8435   0.9182   0.9334   0.9713   1.0002   1.0583   1.0808   1.1560
     1.1897   1.2126   1.2476   1.2600   1.2805   1.2986   1.3271   1.3480
     1.4053   1.4472   1.4806   1.4955   1.5354   1.5484   1.5695   1.5972
     1.6897   1.7182   1.7684   1.7831   1.8349   1.8980   1.9316   1.9441
     1.9524   1.9776   2.0038   2.0544   2.0840   2.0937   2.1246   2.1418
     2.2101   2.2507   2.2526   2.2752   2.2848   2.3381   2.3730   2.3768
     2.4631   2.5211   2.5405   2.5445   2.5679   2.6283   2.7804   2.7962
     2.9429   3.1412   3.2829   3.5288   3.5653   3.7117   3.7914   3.9819
     4.1406   4.2322   4.4211   4.5865   4.8286   4.8935   4.9629   5.0366
     5.1267   5.2779   5.3442   5.7007   5.8168   6.0463   6.2198   6.5545
     6.6920   7.1258   7.2105   7.3051

          k = 0.4000-0.6928 0.0000 ( 44692 PWs)   bands (ev):

   -10.3494  -5.5762  -5.4820  -5.2856  -4.8472  -4.4173  -4.2148  -3.8930
    -3.7264  -3.7055  -3.5981  -3.5217  -3.4556  -3.4365  -3.4083  -3.3331
    -3.2794  -3.2369  -3.2283  -3.1962  -3.1755  -3.1432  -3.1262  -3.0884
    -3.0085  -2.9996  -2.9920  -2.9678  -2.9211  -2.8663  -2.7473  -2.7247
    -2.7178  -2.6524  -2.5976  -2.5756  -2.5470  -2.4782  -2.4003  -2.3869
    -2.3762  -2.2324  -2.1858  -2.1696  -2.1200  -2.0771  -2.0634  -2.0047
    -1.9336  -1.8725  -1.8465  -1.8226  -1.7805  -1.7422  -1.6963  -1.6770
    -1.6633  -1.6249  -1.6037  -1.5792  -1.5241  -1.5202  -1.4911  -1.4685
    -1.4433  -1.4081  -1.3597  -1.2832  -1.2741  -1.2595  -1.1890  -1.1407
    -1.1217  -1.0909  -1.0818  -1.0556  -1.0319  -0.9917  -0.9447  -0.9323
    -0.9021  -0.8612  -0.8477  -0.8119  -0.7639  -0.7120  -0.6966  -0.6860
    -0.6612  -0.6197  -0.5670  -0.5363  -0.5162  -0.4943  -0.4723  -0.4369
    -0.4169  -0.4029  -0.3837  -0.3674  -0.3551  -0.3296  -0.3032  -0.2672
    -0.2614  -0.2451  -0.2310  -0.2135  -0.1913  -0.1773  -0.1446  -0.0422
     0.0242   0.0436   0.0934   0.1456   0.1915   0.2285   0.2429   0.2978
     0.3208   0.3463   0.3793   0.3917   0.4102   0.4369   0.4798   0.4995
     0.5803   0.6186   0.6322   0.6408   0.6795   0.7425   0.7841   0.8085
     0.8637   0.9182   0.9549   0.9705   1.0116   1.0373   1.0527   1.0703
     1.0910   1.1478   1.1725   1.1888   1.2146   1.2675   1.2797   1.3081
     1.3516   1.3837   1.4316   1.4671   1.5531   1.5995   1.6435   1.7120
     1.7408   1.7696   1.8005   1.8396   1.8918   1.9051   1.9491   1.9916
     2.0242   2.0514   2.1048   2.1128   2.1269   2.1804   2.2099   2.2200
     2.2485   2.2563   2.2794   2.3217   2.3363   2.3874   2.4301   2.4522
     2.4734   2.5440   2.5601   2.5806   2.6184   2.6599   2.7265   2.8319
     3.0645   3.3917   3.6899   3.7329   3.8916   3.9810   3.9957   4.0609
     4.2294   4.4043   4.5663   4.7579   4.8231   4.8711   5.1454   5.2306
     5.3675   5.4523   5.5618   5.6327   5.7747   5.8567   6.0795   6.1046
     6.3982   6.6725   6.7702   6.8718

          k = 0.4000-0.4619 0.0000 ( 44692 PWs)   bands (ev):

   -10.3495  -5.5739  -5.4844  -5.2861  -4.8466  -4.4181  -4.2125  -3.8960
    -3.7259  -3.7046  -3.5984  -3.5210  -3.4550  -3.4376  -3.4081  -3.3321
    -3.2798  -3.2422  -3.2173  -3.2018  -3.1778  -3.1418  -3.1251  -3.0893
    -3.0088  -2.9991  -2.9943  -2.9666  -2.9216  -2.8654  -2.7473  -2.7234
    -2.7172  -2.6541  -2.5974  -2.5757  -2.5460  -2.4788  -2.4000  -2.3880
    -2.3753  -2.2321  -2.1867  -2.1694  -2.1180  -2.0779  -2.0605  -2.0041
    -1.9337  -1.8769  -1.8478  -1.8240  -1.7801  -1.7405  -1.6959  -1.6786
    -1.6652  -1.6219  -1.6040  -1.5786  -1.5232  -1.5192  -1.4920  -1.4703
    -1.4432  -1.4048  -1.3594  -1.2842  -1.2752  -1.2610  -1.1879  -1.1400
    -1.1225  -1.0938  -1.0822  -1.0555  -1.0316  -0.9920  -0.9450  -0.9351
    -0.9025  -0.8583  -0.8491  -0.8119  -0.7654  -0.7111  -0.6962  -0.6862
    -0.6613  -0.6193  -0.5670  -0.5376  -0.5119  -0.4960  -0.4716  -0.4374
    -0.4151  -0.4015  -0.3823  -0.3669  -0.3547  -0.3299  -0.3022  -0.2666
    -0.2607  -0.2421  -0.2311  -0.2179  -0.1931  -0.1779  -0.1458  -0.0398
     0.0226   0.0446   0.0950   0.1436   0.1926   0.2333   0.2408   0.2994
     0.3227   0.3462   0.3775   0.3892   0.4098   0.4373   0.4798   0.4984
     0.5773   0.6182   0.6299   0.6435   0.6795   0.7447   0.7841   0.8099
     0.8638   0.9185   0.9587   0.9688   1.0066   1.0349   1.0511   1.0710
     1.0926   1.1477   1.1718   1.1885   1.2150   1.2666   1.2795   1.3096
     1.3521   1.3852   1.4324   1.4661   1.5542   1.6018   1.6438   1.7133
     1.7417   1.7683   1.7991   1.8397   1.8931   1.9046   1.9478   1.9912
     2.0239   2.0514   2.1049   2.1120   2.1281   2.1801   2.2091   2.2210
     2.2486   2.2565   2.2803   2.3205   2.3363   2.3883   2.4292   2.4505
     2.4728   2.5428   2.5594   2.5806   2.6183   2.6602   2.7262   2.8326
     3.0664   3.3903   3.6905   3.7328   3.8915   3.9790   3.9960   4.0627
     4.2306   4.4047   4.5670   4.7590   4.8215   4.8703   5.1425   5.2302
     5.3711   5.4524   5.5640   5.6257   5.7769   5.8562   6.0797   6.1045
     6.3980   6.6727   6.7709   6.8704

     the Fermi energy is     2.3362 ev

!    total energy              =  -27774.39139161 Ry
     total all-electron energy =  -1326718.920906 Ry
     estimated scf accuracy    <       0.00000096 Ry
     smearing contrib. (-TS)   =       0.00507266 Ry
     internal energy E=F+TS    =  -27774.39646427 Ry

     The total energy is F=E-TS. E is the sum of the following terms:
     one-electron contribution =  -22924.95190662 Ry
     hartree contribution      =   11768.24334392 Ry
     xc contribution           =    -895.61945057 Ry
     ewald contribution        =    9758.54750857 Ry
     one-center paw contrib.   =  -25480.61595957 Ry

     convergence has been achieved in  17 iterations

     negative rho (up, down):  3.363E-03 0.000E+00

     Forces acting on atoms (cartesian axes, Ry/au):

     atom    1 type  1   force =     0.00226608    0.00101983   -0.00592280
     atom    2 type  1   force =     0.00067558    0.00180759   -0.00454914
     atom    3 type  1   force =    -0.00155488    0.00175468   -0.00794647
     atom    4 type  1   force =     0.00215190   -0.00109181   -0.00451572
     atom    5 type  1   force =     0.00058920   -0.00014159   -0.00409569
     atom    6 type  1   force =    -0.00247034    0.00047380   -0.00466086
     atom    7 type  1   force =     0.00146031   -0.00261449   -0.00644020
     atom    8 type  1   force =    -0.00039939   -0.00275371   -0.00445240
     atom    9 type  1   force =    -0.00201281   -0.00112530   -0.00563841
     atom   10 type  1   force =     0.00296138    0.00325535    0.01120778
     atom   11 type  1   force =     0.00106617    0.00052804    0.00379593
     atom   12 type  1   force =    -0.00284111    0.00152437    0.00524044
     atom   13 type  1   force =     0.00025862    0.00001387    0.00544693
     atom   14 type  1   force =    -0.00005856    0.00085986   -0.00033521
     atom   15 type  1   force =    -0.00056649    0.00178714    0.00640533
     atom   16 type  1   force =    -0.00021642   -0.00291715    0.00479396
     atom   17 type  1   force =     0.00159149   -0.00201414    0.00431679
     atom   18 type  1   force =    -0.00311165   -0.00390075    0.00613404
     atom   19 type  1   force =    -0.00048729   -0.00029753   -0.00128636
     atom   20 type  1   force =     0.00047515   -0.00028507   -0.00126595
     atom   21 type  1   force =    -0.00000091   -0.00029744   -0.00012618
     atom   22 type  1   force =     0.00003296    0.00238719   -0.00228406
     atom   23 type  1   force =    -0.00000568    0.00012461    0.00017575
     atom   24 type  1   force =    -0.00000591    0.00011517    0.00016854
     atom   25 type  1   force =     0.00033085    0.00041576    0.00008114
     atom   26 type  1   force =    -0.00001932   -0.00001903    0.00016220
     atom   27 type  1   force =    -0.00030329    0.00042703    0.00008467
     atom   28 type  1   force =     0.00686358    0.00519080    0.00275444
     atom   29 type  1   force =    -0.00679165    0.00518829    0.00278732
     atom   30 type  1   force =     0.00003854    0.00029072    0.00035669
     atom   31 type  1   force =     0.00001145    0.00744119   -0.01823965
     atom   32 type  1   force =     0.00039080    0.00039308   -0.00002042
     atom   33 type  1   force =    -0.00038751    0.00037847    0.00000067
     atom   34 type  1   force =     0.00166212    0.00304917    0.00080946
     atom   35 type  1   force =    -0.00000755    0.00048121    0.00068334
     atom   36 type  1   force =    -0.00162163    0.00302623    0.00081459
     atom   37 type  2   force =    -0.00002956   -0.04516707   -0.00615001
     atom   38 type  3   force =     0.00006575    0.02069162    0.02170952
     The non-local contrib.  to forces
     atom    1 type  1   force =     0.00231812    0.00117530   -0.01844206
     atom    2 type  1   force =     0.00050759    0.00173376   -0.01909171
     atom    3 type  1   force =    -0.00090835    0.00193630   -0.01541665
     atom    4 type  1   force =     0.00188535    0.00027805   -0.01907173
     atom    5 type  1   force =     0.00048392    0.00060879   -0.01976080
     atom    6 type  1   force =    -0.00201810    0.00082812   -0.01887433
     atom    7 type  1   force =     0.00051121   -0.00201141   -0.01580690
     atom    8 type  1   force =    -0.00057574   -0.00170627   -0.01813576
     atom    9 type  1   force =    -0.00094694   -0.00120567   -0.01550209
     atom   10 type  1   force =     0.00172674    0.00203192    0.00272690
     atom   11 type  1   force =    -0.00128984    0.00351219    0.00075008
     atom   12 type  1   force =     0.00066232    0.00394952    0.00118013
     atom   13 type  1   force =     0.00186117   -0.00241840    0.00144253
     atom   14 type  1   force =     0.00003547    0.00099540   -0.00232377
     atom   15 type  1   force =    -0.00230229   -0.00188481    0.00192141
     atom   16 type  1   force =     0.00332129   -0.00045610    0.00091610
     atom   17 type  1   force =    -0.00299552   -0.00035321    0.00095396
     atom   18 type  1   force =    -0.00209076   -0.00040372    0.00466774
     atom   19 type  1   force =    -0.00359902    0.00042099    0.00764787
     atom   20 type  1   force =     0.00345038    0.00057720    0.00801575
     atom   21 type  1   force =     0.00003479    0.00316674    0.00675868
     atom   22 type  1   force =     0.00005079    0.01285979   -0.00689038
     atom   23 type  1   force =     0.00271982   -0.00084814    0.00676756
     atom   24 type  1   force =    -0.00287886   -0.00098574    0.00709997
     atom   25 type  1   force =    -0.00535661   -0.00377071   -0.00284957
     atom   26 type  1   force =    -0.00019346   -0.00243808    0.01093369
     atom   27 type  1   force =     0.00553729   -0.00379360   -0.00211966
     atom   28 type  1   force =     0.06611923    0.02859082   -0.02354610
     atom   29 type  1   force =    -0.06595279    0.02850068   -0.02352710
     atom   30 type  1   force =     0.00013003    0.00013503    0.01270084
     atom   31 type  1   force =     0.00002631   -0.13487022    0.03666191
     atom   32 type  1   force =    -0.01991227   -0.00744339    0.02259256
     atom   33 type  1   force =     0.01981034   -0.00745641    0.02267554
     atom   34 type  1   force =    -0.00204553   -0.00305676    0.01443715
     atom   35 type  1   force =    -0.00006141    0.02177136    0.02226756
     atom   36 type  1   force =     0.00215873   -0.00313461    0.01446721
     atom   37 type  2   force =    -0.00002750   -0.01698014   -0.03182050
     atom   38 type  3   force =     0.00068175    0.35859246   -0.13971907
     The ionic contribution  to forces
     atom    1 type  1   force =     0.13709785    0.08195823  -96.90891844
     atom    2 type  1   force =     0.01682155    0.14513665  -96.84734909
     atom    3 type  1   force =    -0.13351742    0.19879933  -96.86037308
     atom    4 type  1   force =     0.13167545   -0.05235861  -96.83610962
     atom    5 type  1   force =    -0.00823254   -0.00113737  -96.81538914
     atom    6 type  1   force =    -0.11638392    0.07709266  -96.82662280
     atom    7 type  1   force =     0.10239592   -0.22032180  -96.85324992
     atom    8 type  1   force =     0.00543941   -0.14395813  -96.83092962
     atom    9 type  1   force =    -0.12321709   -0.07817267  -96.80309712
     atom   10 type  1   force =     0.13984707    0.12859430  -33.46704217
     atom   11 type  1   force =    -0.10705768    0.07093314  -33.56835505
     atom   12 type  1   force =    -0.01517155    0.12928551  -33.49121774
     atom   13 type  1   force =    -0.05081071   -0.08964735  -33.52481287
     atom   14 type  1   force =    -0.01389231    0.00179753  -33.79101192
     atom   15 type  1   force =     0.05813789    0.04176430  -33.46922505
     atom   16 type  1   force =     0.05970137   -0.08542814  -33.50157336
     atom   17 type  1   force =     0.04699687   -0.00961752  -33.52328286
     atom   18 type  1   force =    -0.13099871   -0.13257965  -33.17103568
     atom   19 type  1   force =     0.18794915   -0.08086299   30.91084069
     atom   20 type  1   force =    -0.17160337   -0.10402199   30.79944810
     atom   21 type  1   force =    -0.01834015   -0.13316303   29.58361643
     atom   22 type  1   force =    -0.01087093    0.22119827   30.58847175
     atom   23 type  1   force =    -0.11108257    0.06947481   29.56081558
     atom   24 type  1   force =     0.11884584    0.09474567   29.54217454
     atom   25 type  1   force =    -0.13333439   -0.08014696   30.49090812
     atom   26 type  1   force =     0.02914006    0.18281093   30.75010539
     atom   27 type  1   force =     0.10811257   -0.07788553   30.36570613
     atom   28 type  1   force =    -2.53967948   -1.53951007   93.35870655
     atom   29 type  1   force =     2.55116549   -1.54012568   93.28513123
     atom   30 type  1   force =    -0.01256658    0.14553369   94.07433109
     atom   31 type  1   force =     0.00475695    2.67697605   92.39230161
     atom   32 type  1   force =     0.37050664    0.12116260   93.31837925
     atom   33 type  1   force =    -0.37929513    0.13106759   93.34146849
     atom   34 type  1   force =     0.22111034    0.08251049   94.04388937
     atom   35 type  1   force =     0.00451918   -0.23535348   93.38515528
     atom   36 type  1   force =    -0.22605430    0.09446971   94.02199132
     atom   37 type  2   force =     0.00172167    0.62484798   12.73557582
     atom   38 type  3   force =     0.00616755   -0.71586846   46.54057880
     The local contribution  to forces
     atom    1 type  1   force =    -0.13638502   -0.08162662   96.90448413
     atom    2 type  1   force =    -0.01683514   -0.14448066   96.84520077
     atom    3 type  1   force =     0.13239202   -0.19835899   96.85084579
     atom    4 type  1   force =    -0.13104314    0.05035104   96.83386777
     atom    5 type  1   force =     0.00810552   -0.00008543   96.81446447
     atom    6 type  1   force =     0.11582033   -0.07757729   96.82413540
     atom    7 type  1   force =    -0.10119293    0.21913247   96.84542045
     atom    8 type  1   force =    -0.00514495    0.14292904   96.82786464
     atom    9 type  1   force =     0.12167452    0.07808179   96.79585042
     atom   10 type  1   force =    -0.13805374   -0.12714528   33.47523321
     atom   11 type  1   force =     0.10892721   -0.07375215   33.57089689
     atom   12 type  1   force =     0.01169100   -0.13132798   33.49501549
     atom   13 type  1   force =     0.04893181    0.09149086   33.52851381
     atom   14 type  1   force =     0.01380258   -0.00208699   33.79188438
     atom   15 type  1   force =    -0.05617618   -0.03808935   33.47363158
     atom   16 type  1   force =    -0.06287429    0.08309905   33.50499851
     atom   17 type  1   force =    -0.04233596    0.00826313   33.52618418
     atom   18 type  1   force =     0.12937064    0.12876509   33.17359885
     atom   19 type  1   force =    -0.18391282    0.07987859  -30.91657425
     atom   20 type  1   force =     0.16771038    0.10269184  -30.80566926
     atom   21 type  1   force =     0.01828467    0.12945684  -29.58919973
     atom   22 type  1   force =     0.01065466   -0.23092462  -30.58385707
     atom   23 type  1   force =     0.10823895   -0.06847310  -29.56617281
     atom   24 type  1   force =    -0.11569303   -0.09351052  -29.54783622
     atom   25 type  1   force =     0.13880121    0.08451894  -30.48697657
     atom   26 type  1   force =    -0.02879091   -0.17943543  -30.75794537
     atom   27 type  1   force =    -0.11389723    0.08217288  -30.36259696
     atom   28 type  1   force =     2.46401923    1.50739910  -93.32907070
     atom   29 type  1   force =    -2.47554233    1.50806995  -93.25555606
     atom   30 type  1   force =     0.01240428   -0.14423173  -94.07089394
     atom   31 type  1   force =    -0.00477814   -2.51497014  -92.45809882
     atom   32 type  1   force =    -0.35204599   -0.11472834  -93.32516430
     atom   33 type  1   force =     0.36091401   -0.12452374  -93.34843034
     atom   34 type  1   force =    -0.21653199   -0.07671847  -94.04191589
     atom   35 type  1   force =    -0.00437753    0.21622283  -93.39096971
     atom   36 type  1   force =     0.22130131   -0.08860118  -94.02019120
     atom   37 type  2   force =    -0.00172496   -0.65305123  -12.70990246
     atom   38 type  3   force =    -0.00662661    0.38453402  -46.38264307
     The core correction contribution to forces
     atom    1 type  1   force =    -0.00044973   -0.00024564    0.01740698
     atom    2 type  1   force =     0.00001503   -0.00043254    0.01727465
     atom    3 type  1   force =     0.00032671   -0.00056505    0.01753310
     atom    4 type  1   force =    -0.00038056    0.00021358    0.01722011
     atom    5 type  1   force =     0.00001727    0.00009235    0.01709569
     atom    6 type  1   force =     0.00032977   -0.00006273    0.01709516
     atom    7 type  1   force =    -0.00034720    0.00064170    0.01762232
     atom    8 type  1   force =     0.00003903    0.00033352    0.01713759
     atom    9 type  1   force =     0.00040260    0.00029676    0.01748652
     atom   10 type  1   force =    -0.00038946   -0.00029542    0.00048492
     atom   11 type  1   force =     0.00023735   -0.00022136    0.00069890
     atom   12 type  1   force =     0.00005141   -0.00039438    0.00049874
     atom   13 type  1   force =     0.00011890    0.00012489    0.00057059
     atom   14 type  1   force =     0.00001096   -0.00005061    0.00149069
     atom   15 type  1   force =    -0.00009122   -0.00018882    0.00041114
     atom   16 type  1   force =    -0.00014438    0.00025899    0.00064576
     atom   17 type  1   force =    -0.00011529    0.00010255    0.00068744
     atom   18 type  1   force =     0.00041701    0.00049474   -0.00091055
     atom   19 type  1   force =    -0.00076666    0.00023421   -0.00356088
     atom   20 type  1   force =     0.00075815    0.00026053   -0.00351428
     atom   21 type  1   force =     0.00001032    0.00029904   -0.00161295
     atom   22 type  1   force =     0.00001727   -0.00116388   -0.00047361
     atom   23 type  1   force =     0.00029132   -0.00024527   -0.00154454
     atom   24 type  1   force =    -0.00028608   -0.00024989   -0.00157320
     atom   25 type  1   force =     0.00039717    0.00017391   -0.00145529
     atom   26 type  1   force =    -0.00003094   -0.00063558   -0.00336984
     atom   27 type  1   force =    -0.00038424    0.00018161   -0.00144507
     atom   28 type  1   force =     0.01637178    0.00885958   -0.00376305
     atom   29 type  1   force =    -0.01637402    0.00886044   -0.00370701
     atom   30 type  1   force =     0.00000254   -0.00063112   -0.01593677
     atom   31 type  1   force =     0.00000162   -0.01983052    0.01031010
     atom   32 type  1   force =     0.00201958    0.00118938   -0.01599865
     atom   33 type  1   force =    -0.00200667    0.00119804   -0.01601168
     atom   34 type  1   force =    -0.00068206    0.00019292   -0.01577603
     atom   35 type  1   force =     0.00001113   -0.00227721   -0.01600475
     atom   36 type  1   force =     0.00068011    0.00018827   -0.01575045
     atom   37 type  2   force =     0.00000000    0.00000000    0.00000000
     atom   38 type  3   force =    -0.00014498   -0.00660867    0.00342299
     The Hubbard contrib.    to forces
     atom    1 type  1   force =     0.00000000    0.00000000    0.00000000
     atom    2 type  1   force =     0.00000000    0.00000000    0.00000000
     atom    3 type  1   force =     0.00000000    0.00000000    0.00000000
     atom    4 type  1   force =     0.00000000    0.00000000    0.00000000
     atom    5 type  1   force =     0.00000000    0.00000000    0.00000000
     atom    6 type  1   force =     0.00000000    0.00000000    0.00000000
     atom    7 type  1   force =     0.00000000    0.00000000    0.00000000
     atom    8 type  1   force =     0.00000000    0.00000000    0.00000000
     atom    9 type  1   force =     0.00000000    0.00000000    0.00000000
     atom   10 type  1   force =     0.00000000    0.00000000    0.00000000
     atom   11 type  1   force =     0.00000000    0.00000000    0.00000000
     atom   12 type  1   force =     0.00000000    0.00000000    0.00000000
     atom   13 type  1   force =     0.00000000    0.00000000    0.00000000
     atom   14 type  1   force =     0.00000000    0.00000000    0.00000000
     atom   15 type  1   force =     0.00000000    0.00000000    0.00000000
     atom   16 type  1   force =     0.00000000    0.00000000    0.00000000
     atom   17 type  1   force =     0.00000000    0.00000000    0.00000000
     atom   18 type  1   force =     0.00000000    0.00000000    0.00000000
     atom   19 type  1   force =     0.00000000    0.00000000    0.00000000
     atom   20 type  1   force =     0.00000000    0.00000000    0.00000000
     atom   21 type  1   force =     0.00000000    0.00000000    0.00000000
     atom   22 type  1   force =     0.00000000    0.00000000    0.00000000
     atom   23 type  1   force =     0.00000000    0.00000000    0.00000000
     atom   24 type  1   force =     0.00000000    0.00000000    0.00000000
     atom   25 type  1   force =     0.00000000    0.00000000    0.00000000
     atom   26 type  1   force =     0.00000000    0.00000000    0.00000000
     atom   27 type  1   force =     0.00000000    0.00000000    0.00000000
     atom   28 type  1   force =     0.00000000    0.00000000    0.00000000
     atom   29 type  1   force =     0.00000000    0.00000000    0.00000000
     atom   30 type  1   force =     0.00000000    0.00000000    0.00000000
     atom   31 type  1   force =     0.00000000    0.00000000    0.00000000
     atom   32 type  1   force =     0.00000000    0.00000000    0.00000000
     atom   33 type  1   force =     0.00000000    0.00000000    0.00000000
     atom   34 type  1   force =     0.00000000    0.00000000    0.00000000
     atom   35 type  1   force =     0.00000000    0.00000000    0.00000000
     atom   36 type  1   force =     0.00000000    0.00000000    0.00000000
     atom   37 type  2   force =     0.00000000    0.00000000    0.00000000
     atom   38 type  3   force =     0.00000000    0.00000000    0.00000000
     The SCF correction term to forces
     atom    1 type  1   force =    -0.00000000   -0.00000000   -0.00000000
     atom    2 type  1   force =     0.00000000   -0.00000000   -0.00000000
     atom    3 type  1   force =     0.00000000   -0.00000000   -0.00000000
     atom    4 type  1   force =     0.00000000    0.00000000   -0.00000000
     atom    5 type  1   force =     0.00000000    0.00000000   -0.00000000
     atom    6 type  1   force =    -0.00000000    0.00000000   -0.00000000
     atom    7 type  1   force =     0.00000000   -0.00000000   -0.00000000
     atom    8 type  1   force =    -0.00000000   -0.00000000   -0.00000000
     atom    9 type  1   force =     0.00000000   -0.00000000   -0.00000000
     atom   10 type  1   force =    -0.00000000    0.00000000   -0.00000000
     atom   11 type  1   force =     0.00000000    0.00000000   -0.00000000
     atom   12 type  1   force =    -0.00000000    0.00000000   -0.00000000
     atom   13 type  1   force =     0.00000000    0.00000000   -0.00000000
     atom   14 type  1   force =    -0.00000000    0.00000000   -0.00000000
     atom   15 type  1   force =    -0.00000000    0.00000000   -0.00000000
     atom   16 type  1   force =    -0.00000000   -0.00000000   -0.00000000
     atom   17 type  1   force =     0.00000000   -0.00000000   -0.00000000
     atom   18 type  1   force =     0.00000000   -0.00000000   -0.00000000
     atom   19 type  1   force =    -0.00016113    0.00002929    0.00037137
     atom   20 type  1   force =     0.00015643    0.00020498    0.00046490
     atom   21 type  1   force =     0.00000629   -0.00005941    0.00032254
     atom   22 type  1   force =     0.00017799    0.00041526    0.00047641
     atom   23 type  1   force =    -0.00017638    0.00021394    0.00032112
     atom   24 type  1   force =     0.00000305    0.00011327    0.00031462
     atom   25 type  1   force =    -0.00017971   -0.00036180    0.00046562
     atom   26 type  1   force =    -0.00014725   -0.00032324    0.00044950
     atom   27 type  1   force =     0.00032513   -0.00025072    0.00055139
     atom   28 type  1   force =     0.00002964   -0.00015100    0.00043891
     atom   29 type  1   force =    -0.00009118   -0.00011949    0.00045742
     atom   30 type  1   force =     0.00006510   -0.00051754    0.00016663
     atom   31 type  1   force =     0.00000153    0.00013364    0.00059671
     atom   32 type  1   force =    -0.00018035    0.00021047    0.00018188
     atom   33 type  1   force =     0.00018675    0.00009061    0.00030981
     atom   34 type  1   force =    -0.00019182    0.00011862    0.00018602
     atom   35 type  1   force =    -0.00010210    0.00011533    0.00024612
     atom   36 type  1   force =     0.00028934    0.00010167    0.00030887
     atom   37 type  2   force =    -0.00000195    0.00001394    0.00000829
     atom   38 type  3   force =    -0.00001515    0.00003989    0.00008103

     Total force =     0.059751     Total SCF correction =     0.002049

     Writing all to output data dir ./pwscf.save/

     init_run     :     10.90s CPU     14.73s WALL (       1 calls)
     electrons    :    439.17s CPU    466.51s WALL (       1 calls)
     forces       :      3.86s CPU      4.51s WALL (       1 calls)

     Called by init_run:
     wfcinit      :      6.00s CPU      9.67s WALL (       1 calls)
     potinit      :      3.25s CPU      3.34s WALL (       1 calls)
     hinit0       :      1.04s CPU      1.05s WALL (       1 calls)

     Called by electrons:
     c_bands      :    391.02s CPU    408.74s WALL (      18 calls)
     sum_band     :     27.84s CPU     33.41s WALL (      18 calls)
     v_of_rho     :      8.12s CPU      9.97s WALL (      18 calls)
     newd         :      6.48s CPU      7.12s WALL (      18 calls)
     PAW_pot      :      3.93s CPU      5.22s WALL (      18 calls)
     mix_rho      :      3.84s CPU      3.91s WALL (      18 calls)
     vdW_kernel   :      1.71s CPU      1.72s WALL (       1 calls)

     Called by c_bands:
     init_us_2    :      2.67s CPU      2.88s WALL (     494 calls)
     init_us_2:cp :      2.66s CPU      2.88s WALL (     494 calls)
     cegterg      :    382.20s CPU    398.47s WALL (     234 calls)

     Called by *egterg:
     cdiaghg      :     77.23s CPU     81.00s WALL (    1139 calls)
     h_psi        :    204.54s CPU    216.04s WALL (    1165 calls)
     s_psi        :     14.39s CPU     14.65s WALL (    1165 calls)
     g_psi        :      0.42s CPU      0.43s WALL (     918 calls)

     Called by h_psi:
     h_psi:calbec :     26.38s CPU     27.90s WALL (    1165 calls)
     vloc_psi     :    162.67s CPU    172.38s WALL (    1165 calls)
     add_vuspsi   :     14.38s CPU     14.63s WALL (    1165 calls)

     General routines
     calbec       :     33.53s CPU     35.39s WALL (    1451 calls)
     fft          :      5.56s CPU      7.38s WALL (    1194 calls)
     ffts         :      2.25s CPU      2.28s WALL (    4626 calls)
     fftw         :    159.34s CPU    170.27s WALL (  301650 calls)
     interpolate  :      0.66s CPU      0.74s WALL (      18 calls)

     Parallel routines

     PWSCF        :   7m40.07s CPU   8m15.25s WALL


   This run was terminated on:  19:13:58  28Jan2025            

=------------------------------------------------------------------------------=
   JOB DONE.
=------------------------------------------------------------------------------=
