
     Program PWSCF v.7.1 starts on 23Feb2025 at 21:12:10 
        Git branch: heads/qe-7.1
        Last git commit: 48ba0178f8fede6d020eb786884699a9f063f55d-dirty
        Last git commit date: Fri Jan 27 14:22:33 2023 +0000
        Last git commit subject: Merge branch 'fix_hubbard' into 'develop'

     This program is part of the open-source Quantum ESPRESSO suite
     for quantum simulation of materials; please cite
         "P. Giannozzi et al., J. Phys.:Condens. Matter 21 395502 (2009);
         "P. Giannozzi et al., J. Phys.:Condens. Matter 29 465901 (2017);
         "P. Giannozzi et al., J. Chem. Phys. 152 154105 (2020);
          URL http://www.quantum-espresso.org", 
     in publications or presentations arising from this work. More details at
     http://www.quantum-espresso.org/quote

     Parallel version (MPI), running on    48 processors

     MPI processes distributed on     1 nodes
     39652 MiB available memory on the printing compute node when the environment starts

     Reading input from espresso.pwi
Warning: card &CELL ignored
Warning: card / ignored
Warning: card &FCP ignored
Warning: card / ignored
Warning: card &RISM ignored
Warning: card / ignored

     Current dimensions of program PWSCF are:
     Max number of different atomic species (ntypx) = 10
     Max number of k-points (npk) =  40000
     Max angular momentum in pseudopotentials (lmaxx) =  4
     file Pt.pbe-n-kjpaw_psl.1.0.0.UPF: wavefunction(s)  6S 5D renormalized
     file H.pbe-kjpaw_psl.1.0.0.UPF: wavefunction(s)  1S renormalized

     **************************************************************************
     Initializing libbeef V0.1.2 with the BEEF-vdW functional.
     Citation: Wellendorff et al., PRB 85, 235149 (2012).
     **************************************************************************


     IMPORTANT: XC functional enforced from input :
     Exchange-correlation= BEEF-VDW
                           (   1   4  43  14   2   0   0)
     Any further DFT definition will be discarded
     Please, verify this is what you really want


     R & G space division:  proc/nbgrp/npool/nimage =      48
     Subspace diagonalization in iterative solution of the eigenvalue problem:
     one sub-group per band group will be used
     custom distributed-memory algorithm (size of sub-group:  2*  2 procs)


     Parallelization info
     --------------------
     sticks:   dense  smooth     PW     G-vecs:    dense   smooth      PW
     Min         151      59     16                29407     7165    1028
     Max         152      60     17                29420     7176    1042
     Sum        7267    2839    769              1411785   344073   49691

     Using Slab Decomposition



     bravais-lattice index     =            0
     lattice parameter (alat)  =      16.0349  a.u.
     unit-cell volume          =   10068.6169 (a.u.)^3
     number of atoms/cell      =           37
     number of atomic types    =            2
     number of electrons       =       361.00
     number of Kohn-Sham states=          217
     kinetic-energy cutoff     =      40.0000  Ry
     charge density cutoff     =     410.0000  Ry
     scf convergence threshold =      1.0E-08
     mixing beta               =       0.7000
     number of iterations used =            8  local-TF  mixing
     Exchange-correlation= BEEF-VDW
                           (   1   4  43  14   2   0   0)

     celldm(1)=  16.034858  celldm(2)=   0.000000  celldm(3)=   0.000000
     celldm(4)=   0.000000  celldm(5)=   0.000000  celldm(6)=   0.000000

     crystal axes: (cart. coord. in units of alat)
               a(1) = (   1.000000   0.000000   0.000000 )  
               a(2) = (   0.500000   0.866025   0.000000 )  
               a(3) = (   0.000000   0.000000   2.819966 )  

     reciprocal axes: (cart. coord. in units 2 pi/alat)
               b(1) = (  1.000000 -0.577350  0.000000 )  
               b(2) = (  0.000000  1.154701  0.000000 )  
               b(3) = (  0.000000  0.000000  0.354614 )  


     PseudoPot. # 1 for Pt read from file:
     /users/kbadger1/espresso/pseudo/pslibrary.1.0.0/pbe/PSEUDOPOTENTIALS/Pt.pbe-n-kjpaw_psl.1.0.0.UPF
     MD5 check sum: 2e24a0b5bf98a4ed1a57fa81bca8c143
     Pseudo is Projector augmented-wave + core cor, Zval = 10.0
     Generated using 'atomic' code by A. Dal Corso  v.7.0
     Shape of augmentation charge: PSQ
     Using radial grid of 1277 points,  6 beta functions with: 
                l(1) =   0
                l(2) =   0
                l(3) =   1
                l(4) =   1
                l(5) =   2
                l(6) =   2
     Q(r) pseudized with 0 coefficients 


     PseudoPot. # 2 for H  read from file:
     /users/kbadger1/espresso/pseudo/pslibrary.1.0.0/pbe/PSEUDOPOTENTIALS/H.pbe-kjpaw_psl.1.0.0.UPF
     MD5 check sum: fe4c6fa958fa6d3815bf5d2419cbf1df
     Pseudo is Projector augmented-wave, Zval =  1.0
     Generated using 'atomic' code by A. Dal Corso  v.7.0
     Shape of augmentation charge: PSQ
     Using radial grid of  929 points,  2 beta functions with: 
                l(1) =   0
                l(2) =   0
     Q(r) pseudized with 0 coefficients 


     atomic species   valence    mass     pseudopotential
        Pt            10.00   195.08400     Pt( 1.00)
        H              1.00     1.00800     H ( 1.00)

     No symmetry found



   Cartesian axes

     site n.     atom                  positions (alat units)
         1           Pt  tau(   1) = (   0.0000000   0.0000000   1.0017346  )
         2           Pt  tau(   2) = (   0.3333333   0.0000000   1.0017346  )
         3           Pt  tau(   3) = (   0.6666667   0.0000000   1.0017346  )
         4           Pt  tau(   4) = (   0.1666667   0.2886751   1.0017346  )
         5           Pt  tau(   5) = (   0.5000000   0.2886751   1.0017346  )
         6           Pt  tau(   6) = (   0.8333333   0.2886751   1.0017346  )
         7           Pt  tau(   7) = (   0.3333333   0.5773503   1.0017346  )
         8           Pt  tau(   8) = (   0.6666667   0.5773503   1.0017346  )
         9           Pt  tau(   9) = (   1.0000000   0.5773503   1.0017346  )
        10           Pt  tau(  10) = (   0.1666667   0.0962250   1.2739001  )
        11           Pt  tau(  11) = (   0.5000000   0.0962250   1.2739001  )
        12           Pt  tau(  12) = (   0.8333333   0.0962250   1.2739001  )
        13           Pt  tau(  13) = (   0.3333333   0.3849002   1.2739001  )
        14           Pt  tau(  14) = (   0.6666667   0.3849002   1.2739001  )
        15           Pt  tau(  15) = (   1.0000000   0.3849002   1.2739001  )
        16           Pt  tau(  16) = (   0.5000000   0.6735753   1.2739001  )
        17           Pt  tau(  17) = (   0.8333333   0.6735753   1.2739001  )
        18           Pt  tau(  18) = (   1.1666667   0.6735753   1.2739001  )
        19           Pt  tau(  19) = (   0.0005319   0.1927769   1.5437211  )
        20           Pt  tau(  20) = (   0.3329493   0.1922596   1.5452218  )
        21           Pt  tau(  21) = (   0.6663441   0.1925825   1.5431180  )
        22           Pt  tau(  22) = (   0.1665205   0.4803045   1.5438783  )
        23           Pt  tau(  23) = (   0.4999294   0.4808189   1.5431068  )
        24           Pt  tau(  24) = (   0.8333080   0.4811323   1.5427978  )
        25           Pt  tau(  25) = (   0.3331665   0.7697344   1.5417532  )
        26           Pt  tau(  26) = (   0.6671911   0.7701448   1.5437079  )
        27           Pt  tau(  27) = (   0.9991994   0.7701292   1.5438709  )
        28           Pt  tau(  28) = (  -0.0017047  -0.0009268   1.8162134  )
        29           Pt  tau(  29) = (   0.3345760  -0.0027526   1.8250330  )
        30           Pt  tau(  30) = (   0.6678139  -0.0003686   1.8168929  )
        31           Pt  tau(  31) = (   0.1648416   0.2912324   1.8250319  )
        32           Pt  tau(  32) = (   0.5034956   0.2907612   1.8206381  )
        33           Pt  tau(  33) = (   0.8333682   0.2886541   1.8173719  )
        34           Pt  tau(  34) = (   0.3335418   0.5786167   1.8168943  )
        35           Pt  tau(  35) = (   0.6666100   0.5774883   1.8173798  )
        36           Pt  tau(  36) = (   1.0002276   0.5775520   1.8174387  )
        37           H   tau(  37) = (   0.3048682   0.1761061   1.9328459  )

     number of k points=    13  Marzari-Vanderbilt smearing, width (Ry)=  0.0200
                       cart. coord. in units 2pi/alat
        k(    1) = (   0.0000000   0.0000000   0.0000000), wk =   0.0800000
        k(    2) = (   0.0000000   0.2309401   0.0000000), wk =   0.1600000
        k(    3) = (   0.0000000   0.4618802   0.0000000), wk =   0.1600000
        k(    4) = (   0.2000000  -0.1154701   0.0000000), wk =   0.1600000
        k(    5) = (   0.2000000   0.1154701   0.0000000), wk =   0.1600000
        k(    6) = (   0.2000000   0.3464102   0.0000000), wk =   0.1600000
        k(    7) = (   0.2000000  -0.5773503   0.0000000), wk =   0.1600000
        k(    8) = (   0.2000000  -0.3464102   0.0000000), wk =   0.1600000
        k(    9) = (   0.4000000  -0.2309401   0.0000000), wk =   0.1600000
        k(   10) = (   0.4000000  -0.0000000   0.0000000), wk =   0.1600000
        k(   11) = (   0.4000000   0.2309401   0.0000000), wk =   0.1600000
        k(   12) = (   0.4000000  -0.6928203   0.0000000), wk =   0.1600000
        k(   13) = (   0.4000000  -0.4618802   0.0000000), wk =   0.1600000

     Dense  grid:  1411785 G-vectors     FFT dimensions: ( 108, 108, 300)

     Smooth grid:   344073 G-vectors     FFT dimensions: (  72,  72, 192)

     Estimated max dynamical RAM per process >     203.68 MB

     Estimated total dynamical RAM >       9.55 GB

     Initial potential from superposition of free atoms

     starting charge     360.9939, renormalised to     361.0000

     negative rho (up, down):  3.360E-03 0.000E+00


     %%%%%%%%%%%%%%%%%%%%%%%%%%%%%%%%%%%%%%%%%%%%%%%%%%%%%%%%%%%%%%%%%%%%%%%%
     %                                                                      %
     % You are using vdW-DF, which was implemented by the Thonhauser group. %
     % Please cite the following two papers that made this development      %
     % possible and the two reviews that describe the various versions:     %
     %                                                                      %
     %   T. Thonhauser et al., PRL 115, 136402 (2015).                      %
     %   T. Thonhauser et al., PRB 76, 125112 (2007).                       %
     %   K. Berland et al., Rep. Prog. Phys. 78, 066501 (2015).             %
     %   D.C. Langreth et al., J. Phys.: Condens. Matter 21, 084203 (2009). %
     %                                                                      %
     % If you are calculating stress with vdW-DF, please also cite:         %
     %                                                                      %
     %   R. Sabatini et al., J. Phys.: Condens. Matter 24, 424209 (2012).   %
     %                                                                      %
     %%%%%%%%%%%%%%%%%%%%%%%%%%%%%%%%%%%%%%%%%%%%%%%%%%%%%%%%%%%%%%%%%%%%%%%%

     %%%%%%%%%%%%%%%%%%%%%%%%%%%%%%%%%%%%%%%%%%%%%%%%%%%%%%%%%%%%%%%%%%%%%%%%
     %                                                                      %
     %  vdW-DF NEWS:                                                        %
     %                                                                      %
     %  * vdW-DF3 is now available. DOI: 10.1021/acs.jctc.0c00471           %
     %    use with input_dft = 'vdW-DF3-opt1' or 'vdW-DF3-opt2'             %
     %                                                                      %
     %  * Unscreened and range-separated hybrid vdW-DF-cx functionals       %
     %    DOI: 10.1063/1.4986522 and 10.1088/1361-648X/ac2ad2               %
     %    use with input_dft = 'vdW-DF-cx0'    and 'vdW-DF-ahcx'            %
     %  * Unscreened and range-separated hybrid vdW-DF2-b86r functionals    %
     %    DOI: 10.1063/1.4986522 and DOI: 10.1103/PhysRevX.12.041003        %
     %    use with input_dft = 'vdW-DF2-br0' and 'vdW-DF2-ahbr'             %
     %                                                                      %
     %%%%%%%%%%%%%%%%%%%%%%%%%%%%%%%%%%%%%%%%%%%%%%%%%%%%%%%%%%%%%%%%%%%%%%%%


     Starting wfcs are  325 randomized atomic wfcs
     Checking if some PAW data can be deallocated... 

     total cpu time spent up to now is       10.6 secs

     per-process dynamical memory:   207.6 Mb

     Self-consistent Calculation

     iteration #  1     ecut=    40.00 Ry     beta= 0.70
     Davidson diagonalization with overlap
     ethr =  1.00E-02,  avg # of iterations =  2.0

     Threshold (ethr) on eigenvalues was too large:
     Diagonalizing with lowered threshold

     Davidson diagonalization with overlap
     ethr =  3.69E-04,  avg # of iterations =  3.8

     negative rho (up, down):  1.781E-02 0.000E+00

     total cpu time spent up to now is       41.5 secs

     total energy              =  -27755.28270607 Ry
     estimated scf accuracy    <       1.53573157 Ry

     iteration #  2     ecut=    40.00 Ry     beta= 0.70
     Davidson diagonalization with overlap
     ethr =  4.25E-04,  avg # of iterations =  2.0

     negative rho (up, down):  1.596E-02 0.000E+00

     total cpu time spent up to now is       54.3 secs

     total energy              =  -27755.38109517 Ry
     estimated scf accuracy    <       0.80142400 Ry

     iteration #  3     ecut=    40.00 Ry     beta= 0.70
     Davidson diagonalization with overlap
     ethr =  2.22E-04,  avg # of iterations =  2.0

     negative rho (up, down):  1.057E-02 0.000E+00

     total cpu time spent up to now is       66.8 secs

     total energy              =  -27755.43231603 Ry
     estimated scf accuracy    <       0.09218430 Ry

     iteration #  4     ecut=    40.00 Ry     beta= 0.70
     Davidson diagonalization with overlap
     c_bands:  2 eigenvalues not converged
     c_bands:  1 eigenvalues not converged
     c_bands:  1 eigenvalues not converged
     c_bands:  1 eigenvalues not converged
     ethr =  2.55E-05,  avg # of iterations = 13.9

     negative rho (up, down):  7.785E-03 0.000E+00

     total cpu time spent up to now is       97.5 secs

     total energy              =  -27755.48143294 Ry
     estimated scf accuracy    <       0.08648710 Ry

     iteration #  5     ecut=    40.00 Ry     beta= 0.70
     Davidson diagonalization with overlap
     ethr =  2.40E-05,  avg # of iterations =  4.4

     negative rho (up, down):  3.442E-03 0.000E+00

     total cpu time spent up to now is      111.7 secs

     total energy              =  -27755.48118554 Ry
     estimated scf accuracy    <       0.03002756 Ry

     iteration #  6     ecut=    40.00 Ry     beta= 0.70
     Davidson diagonalization with overlap
     c_bands:  1 eigenvalues not converged
     c_bands:  1 eigenvalues not converged
     ethr =  8.32E-06,  avg # of iterations =  6.2

     negative rho (up, down):  1.666E-03 0.000E+00

     total cpu time spent up to now is      125.8 secs

     total energy              =  -27755.48337516 Ry
     estimated scf accuracy    <       0.00242344 Ry

     iteration #  7     ecut=    40.00 Ry     beta= 0.70
     Davidson diagonalization with overlap
     c_bands:  1 eigenvalues not converged
     c_bands:  1 eigenvalues not converged
     c_bands:  2 eigenvalues not converged
     c_bands:  2 eigenvalues not converged
     c_bands:  2 eigenvalues not converged
     ethr =  6.71E-07,  avg # of iterations = 14.8

     negative rho (up, down):  1.286E-03 0.000E+00

     total cpu time spent up to now is      156.1 secs

     total energy              =  -27755.48389441 Ry
     estimated scf accuracy    <       0.00188551 Ry

     iteration #  8     ecut=    40.00 Ry     beta= 0.70
     Davidson diagonalization with overlap
     ethr =  5.22E-07,  avg # of iterations =  4.2

     negative rho (up, down):  1.119E-03 0.000E+00

     total cpu time spent up to now is      170.1 secs

     total energy              =  -27755.48404128 Ry
     estimated scf accuracy    <       0.00020660 Ry

     iteration #  9     ecut=    40.00 Ry     beta= 0.70
     Davidson diagonalization with overlap
     ethr =  5.72E-08,  avg # of iterations =  5.2

     negative rho (up, down):  9.073E-04 0.000E+00

     total cpu time spent up to now is      193.9 secs

     total energy              =  -27755.48415178 Ry
     estimated scf accuracy    <       0.00008562 Ry

     iteration # 10     ecut=    40.00 Ry     beta= 0.70
     Davidson diagonalization with overlap
     ethr =  2.37E-08,  avg # of iterations =  4.8

     negative rho (up, down):  8.838E-04 0.000E+00

     total cpu time spent up to now is      216.0 secs

     total energy              =  -27755.48417103 Ry
     estimated scf accuracy    <       0.00008507 Ry

     iteration # 11     ecut=    40.00 Ry     beta= 0.70
     Davidson diagonalization with overlap
     ethr =  2.36E-08,  avg # of iterations =  1.3

     negative rho (up, down):  9.720E-04 0.000E+00

     total cpu time spent up to now is      228.3 secs

     total energy              =  -27755.48417617 Ry
     estimated scf accuracy    <       0.00005064 Ry

     iteration # 12     ecut=    40.00 Ry     beta= 0.70
     Davidson diagonalization with overlap
     ethr =  1.40E-08,  avg # of iterations =  1.6

     negative rho (up, down):  1.207E-03 0.000E+00

     total cpu time spent up to now is      239.9 secs

     total energy              =  -27755.48418213 Ry
     estimated scf accuracy    <       0.00001892 Ry

     iteration # 13     ecut=    40.00 Ry     beta= 0.70
     Davidson diagonalization with overlap
     ethr =  5.24E-09,  avg # of iterations =  2.0

     negative rho (up, down):  1.686E-03 0.000E+00

     total cpu time spent up to now is      251.9 secs

     total energy              =  -27755.48418710 Ry
     estimated scf accuracy    <       0.00001075 Ry

     iteration # 14     ecut=    40.00 Ry     beta= 0.70
     Davidson diagonalization with overlap
     ethr =  2.98E-09,  avg # of iterations =  2.3

     negative rho (up, down):  2.001E-03 0.000E+00

     total cpu time spent up to now is      265.6 secs

     total energy              =  -27755.48418990 Ry
     estimated scf accuracy    <       0.00000670 Ry

     iteration # 15     ecut=    40.00 Ry     beta= 0.70
     Davidson diagonalization with overlap
     ethr =  1.86E-09,  avg # of iterations =  2.0

     negative rho (up, down):  2.721E-03 0.000E+00

     total cpu time spent up to now is      277.3 secs

     total energy              =  -27755.48418737 Ry
     estimated scf accuracy    <       0.00000584 Ry

     iteration # 16     ecut=    40.00 Ry     beta= 0.70
     Davidson diagonalization with overlap
     ethr =  1.62E-09,  avg # of iterations =  1.2

     negative rho (up, down):  2.860E-03 0.000E+00

     total cpu time spent up to now is      289.3 secs

     total energy              =  -27755.48418718 Ry
     estimated scf accuracy    <       0.00000098 Ry

     iteration # 17     ecut=    40.00 Ry     beta= 0.70
     Davidson diagonalization with overlap
     ethr =  2.72E-10,  avg # of iterations =  4.2

     negative rho (up, down):  2.934E-03 0.000E+00

     total cpu time spent up to now is      310.0 secs

     total energy              =  -27755.48418729 Ry
     estimated scf accuracy    <       0.00000057 Ry

     iteration # 18     ecut=    40.00 Ry     beta= 0.70
     Davidson diagonalization with overlap
     ethr =  1.59E-10,  avg # of iterations =  2.2

     negative rho (up, down):  2.985E-03 0.000E+00

     total cpu time spent up to now is      324.5 secs

     total energy              =  -27755.48418708 Ry
     estimated scf accuracy    <       0.00000023 Ry

     iteration # 19     ecut=    40.00 Ry     beta= 0.70
     Davidson diagonalization with overlap
     ethr =  6.25E-11,  avg # of iterations =  2.2

     negative rho (up, down):  3.102E-03 0.000E+00

     total cpu time spent up to now is      336.8 secs

     total energy              =  -27755.48418642 Ry
     estimated scf accuracy    <       0.00000008 Ry

     iteration # 20     ecut=    40.00 Ry     beta= 0.70
     Davidson diagonalization with overlap
     ethr =  2.13E-11,  avg # of iterations =  3.2

     negative rho (up, down):  3.140E-03 0.000E+00

     total cpu time spent up to now is      352.5 secs

     total energy              =  -27755.48418622 Ry
     estimated scf accuracy    <       0.00000002 Ry

     iteration # 21     ecut=    40.00 Ry     beta= 0.70
     Davidson diagonalization with overlap
     ethr =  5.08E-12,  avg # of iterations =  4.5

     negative rho (up, down):  3.146E-03 0.000E+00

     total cpu time spent up to now is      372.1 secs

     End of self-consistent calculation

          k = 0.0000 0.0000 0.0000 ( 42913 PWs)   bands (ev):

    -6.3094  -5.2141  -4.4995  -3.8884  -3.8764  -3.8660  -3.8646  -3.8554
    -3.8517  -3.8443  -3.5535  -3.3194  -3.3185  -3.3032  -3.2991  -3.2977
    -3.2322  -2.8527  -2.8501  -2.8461  -2.8416  -2.8390  -2.7340  -2.6310
    -2.6276  -2.6200  -2.6185  -2.6141  -2.5215  -2.4074  -2.4029  -2.3993
    -2.3965  -2.3937  -2.3809  -2.3767  -2.3716  -2.3633  -2.3381  -2.3347
    -1.9014  -1.7839  -1.7810  -1.7539  -1.7409  -1.7133  -1.7097  -1.6962
    -1.6821  -1.6810  -1.5675  -1.5464  -1.5454  -1.4407  -1.4345  -0.9751
    -0.9718  -0.9561  -0.9558  -0.9496  -0.8950  -0.8592  -0.7840  -0.7837
    -0.7776  -0.7735  -0.7616  -0.7616  -0.7443  -0.7272  -0.7225  -0.7153
    -0.7098  -0.7091  -0.6816  -0.6742  -0.6715  -0.5546  -0.5459  -0.5433
    -0.5397  -0.5389  -0.5024  -0.3694  -0.3651  -0.3608  -0.3466  -0.3446
    -0.3378  -0.3065  -0.3003  -0.2239  -0.2126  -0.1759  -0.1676  -0.1283
    -0.1246  -0.0871  -0.0843  -0.0815   0.0039   0.0674   0.0713   0.0813
     0.0879   0.0922   0.0939   0.3303   0.5614   0.5820   0.5820   0.5934
     0.5941   0.6056   0.6247   0.6321   0.6401   0.6448   0.6529   0.7252
     0.7314   0.7823   0.8599   0.8771   0.8810   0.8820   0.8949   0.9754
     1.0019   1.0563   1.0574   1.0585   1.0588   1.2851   1.3024   1.3160
     1.3246   1.3273   1.3300   1.3862   1.3964   1.5410   1.5444   1.5597
     1.5630   1.5694   1.5728   1.7200   1.7287   1.7303   1.7430   1.7538
     1.7611   1.7627   1.7628   1.7766   1.7811   1.7819   1.7854   1.8652
     1.8805   1.8934   1.8979   1.9134   1.9269   1.9389   1.9447   1.9891
     1.9969   2.0092   2.0328   2.0338   2.0501   2.0585   2.0636   2.1263
     2.1305   2.1375   2.1517   2.1572   2.1585   2.2125   2.2368   2.2445
     2.2548   2.2598   2.2683   2.2701   2.4619   2.4660   2.5622   2.5651
     2.5728   2.5817   2.5835   2.5901   3.1250   3.4192   3.4269   3.4434
     3.4699   3.4798   3.4812   5.4158   5.7246   5.7515   5.7935   5.8058
     5.8068   7.2100   7.3129   7.3534   7.3997   7.4058   7.4069   7.5373
     7.6319

          k = 0.0000 0.2309 0.0000 ( 42996 PWs)   bands (ev):

    -6.1628  -5.0964  -4.4626  -4.3347  -3.9758  -3.9645  -3.7474  -3.6687
    -3.6284  -3.6245  -3.5209  -3.4050  -3.3706  -3.2499  -3.2347  -3.2276
    -3.1484  -2.9401  -2.8140  -2.8124  -2.7958  -2.7784  -2.7271  -2.6926
    -2.6670  -2.6334  -2.6291  -2.6100  -2.5444  -2.5278  -2.5197  -2.4323
    -2.4204  -2.3986  -2.3872  -2.2541  -2.1944  -2.1907  -2.1831  -2.1451
    -1.9457  -1.8995  -1.8956  -1.8530  -1.8140  -1.7895  -1.7814  -1.7107
    -1.6034  -1.5706  -1.5257  -1.5089  -1.4604  -1.4473  -1.4302  -1.2362
    -1.1437  -1.1398  -1.0766  -1.0543  -1.0151  -0.9850  -0.9601  -0.9463
    -0.9269  -0.9233  -0.8637  -0.8556  -0.7987  -0.7691  -0.7626  -0.7330
    -0.6790  -0.6694  -0.6514  -0.5930  -0.5882  -0.5741  -0.5329  -0.4949
    -0.4806  -0.4766  -0.4689  -0.3941  -0.3776  -0.3717  -0.3611  -0.3497
    -0.3071  -0.2892  -0.2621  -0.2331  -0.2097  -0.1995  -0.1851  -0.1541
    -0.1248  -0.1160  -0.1027  -0.0814  -0.0143   0.0465   0.0581   0.0858
     0.0880   0.0914   0.1037   0.1156   0.1592   0.1656   0.1803   0.1921
     0.3984   0.5062   0.5529   0.5797   0.5918   0.6022   0.6072   0.6324
     0.6433   0.7354   0.7993   0.8099   0.8882   0.9420   0.9471   0.9692
     0.9854   1.0083   1.0422   1.0573   1.0760   1.1584   1.1747   1.1939
     1.2042   1.2093   1.3344   1.3930   1.4160   1.4200   1.4318   1.4422
     1.4631   1.5270   1.5494   1.5795   1.5938   1.6036   1.6588   1.6691
     1.6847   1.6936   1.7719   1.7915   1.8119   1.8247   1.8589   1.9337
     1.9540   1.9594   1.9764   1.9918   2.0205   2.0342   2.0998   2.1107
     2.1638   2.1702   2.1802   2.1910   2.2224   2.2257   2.2324   2.2435
     2.2470   2.3054   2.3104   2.4503   2.4606   2.4746   2.4916   2.5069
     2.5095   2.5413   2.5658   2.5774   2.5909   2.6537   2.6926   2.7184
     2.7818   2.8781   2.8844   2.8983   2.9311   3.2690   3.3275   3.8371
     4.0439   4.0764   4.1849   4.9779   5.3928   5.4945   6.1429   6.2134
     6.2285   6.3366   6.5789   7.0075   7.1719   7.3527   7.5398   7.5745
     7.6325

          k = 0.0000 0.4619 0.0000 ( 43046 PWs)   bands (ev):

    -5.7422  -5.1213  -4.7912  -4.2456  -4.0095  -3.9925  -3.7947  -3.6415
    -3.4854  -3.3637  -3.2839  -3.2827  -3.2331  -3.1201  -3.0763  -3.0607
    -3.0569  -3.0434  -2.9079  -2.8964  -2.8948  -2.8462  -2.8428  -2.8053
    -2.7285  -2.7135  -2.7103  -2.6371  -2.4540  -2.4468  -2.4380  -2.4333
    -2.4241  -2.3281  -2.2007  -2.1897  -2.1717  -2.1471  -2.1327  -2.0392
    -1.9535  -1.8660  -1.8593  -1.8448  -1.7981  -1.7861  -1.7476  -1.7202
    -1.7073  -1.6708  -1.6454  -1.6059  -1.4970  -1.4890  -1.4599  -1.3807
    -1.3410  -1.3143  -1.2747  -1.2660  -1.1987  -1.1205  -1.0591  -1.0537
    -1.0451  -0.9925  -0.9506  -0.9407  -0.8780  -0.8190  -0.8080  -0.8037
    -0.7630  -0.6863  -0.6838  -0.6608  -0.6555  -0.6415  -0.5906  -0.5695
    -0.5603  -0.5546  -0.5378  -0.5328  -0.5268  -0.4933  -0.4607  -0.3988
    -0.3925  -0.3790  -0.3681  -0.3533  -0.3259  -0.2398  -0.2121  -0.1954
    -0.1460  -0.1301  -0.1150  -0.0901  -0.0629  -0.0542   0.0451   0.0697
     0.0886   0.1032   0.1417   0.1796   0.2270   0.3209   0.3408   0.4135
     0.4259   0.4873   0.5006   0.5241   0.5362   0.5394   0.5410   0.6067
     0.6186   0.6342   0.6526   0.6587   0.6904   0.7014   0.7159   0.7404
     0.7563   0.8723   0.8786   0.8990   0.9577   0.9824   1.0676   1.0878
     1.1669   1.1904   1.2386   1.2862   1.3489   1.3587   1.4077   1.4201
     1.4506   1.4650   1.5006   1.5177   1.5644   1.5664   1.6221   1.6611
     1.6746   1.7178   1.7297   1.7444   1.7511   1.7845   1.8863   1.9252
     1.9824   1.9994   2.0228   2.0328   2.0867   2.1270   2.1360   2.2057
     2.2158   2.2283   2.2385   2.2980   2.3223   2.3317   2.3414   2.4548
     2.4609   2.4794   2.4885   2.4928   2.4974   2.5192   2.5245   2.7018
     2.7282   2.7327   2.7452   2.7497   2.9059   2.9574   3.1512   3.3360
     3.3737   3.5796   3.7753   3.7888   4.0797   4.1703   4.2835   4.4812
     4.7869   4.9992   5.0051   5.0920   5.2127   5.2513   5.3543   5.3928
     5.6004   5.6550   6.1978   6.2856   6.6877   6.8192   7.1787   7.2999
     7.7692

          k = 0.2000-0.1155 0.0000 ( 42996 PWs)   bands (ev):

    -6.1628  -5.0964  -4.4626  -4.3348  -3.9757  -3.9645  -3.7474  -3.6689
    -3.6284  -3.6243  -3.5209  -3.4050  -3.3707  -3.2499  -3.2348  -3.2277
    -3.1484  -2.9401  -2.8140  -2.8124  -2.7959  -2.7784  -2.7271  -2.6926
    -2.6670  -2.6335  -2.6291  -2.6100  -2.5444  -2.5278  -2.5196  -2.4324
    -2.4203  -2.3986  -2.3872  -2.2541  -2.1944  -2.1906  -2.1831  -2.1450
    -1.9457  -1.8995  -1.8955  -1.8530  -1.8140  -1.7894  -1.7814  -1.7108
    -1.6033  -1.5706  -1.5257  -1.5089  -1.4604  -1.4473  -1.4302  -1.2361
    -1.1437  -1.1398  -1.0765  -1.0541  -1.0151  -0.9849  -0.9603  -0.9464
    -0.9270  -0.9234  -0.8638  -0.8556  -0.7986  -0.7691  -0.7624  -0.7329
    -0.6790  -0.6698  -0.6519  -0.5929  -0.5881  -0.5740  -0.5329  -0.4948
    -0.4805  -0.4761  -0.4691  -0.3941  -0.3778  -0.3719  -0.3611  -0.3497
    -0.3070  -0.2892  -0.2621  -0.2332  -0.2098  -0.1993  -0.1850  -0.1542
    -0.1249  -0.1160  -0.1027  -0.0815  -0.0143   0.0464   0.0582   0.0856
     0.0880   0.0913   0.1037   0.1156   0.1592   0.1656   0.1803   0.1921
     0.3986   0.5063   0.5529   0.5796   0.5918   0.6022   0.6071   0.6323
     0.6433   0.7354   0.7993   0.8098   0.8881   0.9419   0.9470   0.9696
     0.9851   1.0083   1.0421   1.0573   1.0760   1.1584   1.1747   1.1939
     1.2043   1.2094   1.3344   1.3929   1.4159   1.4200   1.4318   1.4423
     1.4631   1.5270   1.5495   1.5796   1.5939   1.6036   1.6589   1.6692
     1.6846   1.6936   1.7719   1.7915   1.8120   1.8248   1.8588   1.9337
     1.9540   1.9594   1.9764   1.9917   2.0204   2.0342   2.0998   2.1107
     2.1637   2.1702   2.1802   2.1910   2.2224   2.2257   2.2324   2.2435
     2.2471   2.3053   2.3103   2.4502   2.4605   2.4748   2.4916   2.5069
     2.5096   2.5414   2.5659   2.5775   2.5910   2.6537   2.6925   2.7184
     2.7817   2.8781   2.8845   2.8982   2.9310   3.2691   3.3277   3.8370
     4.0439   4.0763   4.1848   4.9777   5.3929   5.4947   6.1429   6.2134
     6.2285   6.3366   6.5788   7.0075   7.1719   7.3524   7.5398   7.5746
     7.6332

          k = 0.2000 0.1155 0.0000 ( 42996 PWs)   bands (ev):

    -6.1636  -5.1046  -4.4866  -4.3062  -3.9771  -3.9706  -3.7476  -3.6699
    -3.6253  -3.6244  -3.5426  -3.4015  -3.3230  -3.2515  -3.2316  -3.2294
    -3.1806  -2.9382  -2.8140  -2.8122  -2.7952  -2.7549  -2.7260  -2.6873
    -2.6667  -2.6375  -2.6330  -2.6295  -2.5327  -2.5265  -2.5035  -2.4291
    -2.4193  -2.3942  -2.3842  -2.2421  -2.1926  -2.1878  -2.1859  -2.1547
    -1.9309  -1.9007  -1.8914  -1.8508  -1.8164  -1.7922  -1.7813  -1.7295
    -1.6043  -1.5736  -1.5279  -1.5124  -1.4564  -1.4442  -1.4216  -1.2363
    -1.1422  -1.1397  -1.0769  -1.0567  -1.0147  -0.9858  -0.9641  -0.9438
    -0.9260  -0.9186  -0.8833  -0.8493  -0.7919  -0.7659  -0.7608  -0.7496
    -0.6813  -0.6711  -0.6509  -0.5948  -0.5845  -0.5733  -0.5326  -0.4890
    -0.4778  -0.4773  -0.4703  -0.3911  -0.3802  -0.3746  -0.3573  -0.3510
    -0.3000  -0.2947  -0.2652  -0.2350  -0.2088  -0.1987  -0.1891  -0.1527
    -0.1236  -0.1144  -0.1038  -0.0895  -0.0141   0.0487   0.0556   0.0743
     0.0840   0.0917   0.1067   0.1082   0.1541   0.1675   0.1750   0.1867
     0.4125   0.5029   0.5462   0.5684   0.5985   0.6051   0.6054   0.6367
     0.6469   0.7071   0.7858   0.8075   0.8931   0.9414   0.9459   0.9734
     0.9807   0.9998   1.0364   1.0610   1.0683   1.1631   1.1826   1.1926
     1.2069   1.2089   1.3795   1.3805   1.4155   1.4156   1.4287   1.4392
     1.4687   1.5334   1.5389   1.5660   1.5978   1.6000   1.6581   1.6713
     1.6823   1.6882   1.7763   1.7853   1.8172   1.8243   1.8769   1.9290
     1.9299   1.9687   1.9725   1.9813   2.0235   2.0369   2.1017   2.1068
     2.1649   2.1665   2.1849   2.2059   2.2172   2.2308   2.2309   2.2438
     2.2468   2.3078   2.3081   2.4512   2.4604   2.4699   2.4959   2.5100
     2.5120   2.5410   2.5744   2.5798   2.5899   2.6678   2.6911   2.7173
     2.7889   2.8797   2.8799   2.8962   2.9345   3.2777   3.3200   3.8473
     4.0361   4.0760   4.1895   4.9610   5.4264   5.4901   6.1181   6.2145
     6.2516   6.3301   6.5526   6.9993   7.1725   7.3478   7.5590   7.5750
     7.6316

          k = 0.2000 0.3464 0.0000 ( 43046 PWs)   bands (ev):

    -5.8801  -4.9440  -4.6302  -4.6134  -4.2394  -3.5485  -3.5446  -3.5409
    -3.5185  -3.4810  -3.4785  -3.4627  -3.3687  -3.3524  -3.1742  -2.9757
    -2.9699  -2.9616  -2.9548  -2.8897  -2.8724  -2.7361  -2.7230  -2.7132
    -2.7096  -2.6300  -2.6127  -2.5690  -2.5624  -2.5564  -2.4934  -2.4744
    -2.4537  -2.4003  -2.3926  -2.3102  -2.1595  -2.0377  -1.9661  -1.9506
    -1.9265  -1.9147  -1.9028  -1.8979  -1.8427  -1.8240  -1.7613  -1.6743
    -1.6564  -1.6456  -1.5604  -1.5322  -1.4894  -1.4777  -1.4552  -1.3944
    -1.3572  -1.2282  -1.2082  -1.1961  -1.1236  -1.0993  -1.0870  -1.0776
    -1.0492  -1.0101  -0.9853  -0.8625  -0.8446  -0.8335  -0.8165  -0.7841
    -0.7489  -0.7212  -0.7073  -0.6803  -0.6610  -0.5696  -0.5562  -0.5336
    -0.5142  -0.5125  -0.5044  -0.4766  -0.4556  -0.4393  -0.3945  -0.3865
    -0.3590  -0.3344  -0.2669  -0.2647  -0.2327  -0.2030  -0.1773  -0.1687
    -0.1531  -0.1163  -0.1042  -0.0987  -0.0952  -0.0881  -0.0719  -0.0582
    -0.0163   0.0017   0.0887   0.1022   0.1500   0.2090   0.2294   0.2420
     0.2520   0.4305   0.4380   0.4815   0.5674   0.5766   0.6111   0.6192
     0.6448   0.6483   0.6915   0.6970   0.7327   0.7376   0.7601   0.8251
     0.9309   0.9807   1.0022   1.0095   1.0325   1.0551   1.0857   1.1333
     1.1985   1.2191   1.2526   1.3034   1.3141   1.3550   1.4023   1.4432
     1.4553   1.4664   1.5167   1.5377   1.5434   1.5615   1.5709   1.5750
     1.5932   1.6039   1.6168   1.7158   1.7570   1.8049   1.9289   1.9410
     1.9668   2.0922   2.1103   2.1202   2.1256   2.2019   2.2338   2.2528
     2.2594   2.2777   2.3040   2.3123   2.3285   2.3331   2.3449   2.3882
     2.4009   2.4164   2.4863   2.5157   2.5191   2.5436   2.5528   2.6006
     2.7304   2.7482   2.7836   2.8002   2.8510   2.8681   2.8763   2.9758
     3.0165   3.3394   3.5244   3.5513   3.9426   4.0842   4.0918   4.1002
     4.5954   4.7913   4.8154   4.9828   5.0145   5.0579   5.6615   6.0976
     6.1988   6.2285   6.4083   6.6664   6.9337   6.9812   7.0031   7.0199
     7.0496

          k = 0.2000-0.5774 0.0000 ( 43014 PWs)   bands (ev):

    -5.3760  -5.3224  -4.8114  -4.5891  -4.0846  -3.8687  -3.5427  -3.4979
    -3.3989  -3.3689  -3.2652  -3.2554  -3.1549  -3.1483  -3.0545  -3.0273
    -3.0252  -2.9942  -2.9932  -2.9775  -2.8565  -2.8244  -2.8194  -2.7937
    -2.7781  -2.7713  -2.6794  -2.6184  -2.5637  -2.4629  -2.4285  -2.4210
    -2.4055  -2.3772  -2.3356  -2.2961  -2.1797  -2.1652  -2.0695  -1.9927
    -1.9788  -1.9271  -1.8479  -1.8397  -1.7847  -1.7389  -1.6705  -1.6164
    -1.5878  -1.5739  -1.5526  -1.5120  -1.5014  -1.4663  -1.3845  -1.3674
    -1.3489  -1.3395  -1.3331  -1.3258  -1.2752  -1.2541  -1.2119  -1.1343
    -1.0857  -1.0618  -1.0446  -0.9603  -0.9148  -0.9047  -0.8675  -0.8511
    -0.8240  -0.7953  -0.7505  -0.7423  -0.7191  -0.6891  -0.6592  -0.6141
    -0.5921  -0.5722  -0.5168  -0.4864  -0.4832  -0.4674  -0.4041  -0.3381
    -0.3038  -0.2976  -0.2782  -0.2578  -0.2213  -0.2162  -0.2097  -0.1767
    -0.1714  -0.1573  -0.1375  -0.1005  -0.0857  -0.0713  -0.0626  -0.0567
    -0.0491  -0.0371  -0.0001   0.0332   0.0542   0.2350   0.2654   0.3400
     0.3611   0.4190   0.4531   0.4676   0.4918   0.5058   0.5457   0.5612
     0.5733   0.5817   0.6583   0.6834   0.7014   0.7331   0.7701   0.7859
     0.8422   0.8504   0.9006   1.0287   1.0615   1.1049   1.1191   1.1389
     1.1853   1.1998   1.2376   1.2459   1.2586   1.2727   1.2921   1.3078
     1.4042   1.4205   1.4351   1.4573   1.4809   1.5189   1.5296   1.5465
     1.5517   1.6942   1.7179   1.7737   1.8430   1.8648   1.9432   1.9586
     2.0029   2.0646   2.0820   2.0863   2.1712   2.1834   2.2616   2.2831
     2.3010   2.3065   2.3112   2.3414   2.3615   2.3999   2.4647   2.4692
     2.4972   2.5082   2.5211   2.5234   2.5291   2.6009   2.6988   2.7333
     2.7394   2.7467   2.7507   2.8082   2.8454   2.9310   3.0444   3.7471
     3.8934   3.9140   4.0915   4.1501   4.2226   4.2809   4.2902   4.6371
     4.8634   4.9078   5.1071   5.3546   5.3760   5.4648   5.4980   5.6734
     5.7710   5.8412   5.8908   6.1577   6.2898   6.3282   6.7909   6.9612
     6.9867

          k = 0.2000-0.3464 0.0000 ( 43046 PWs)   bands (ev):

    -5.8777  -4.9233  -4.6316  -4.6138  -4.2413  -3.5498  -3.5429  -3.5403
    -3.5243  -3.4829  -3.4804  -3.4583  -3.3677  -3.3529  -3.1932  -2.9693
    -2.9637  -2.9618  -2.9529  -2.8899  -2.8704  -2.7326  -2.7241  -2.7135
    -2.7062  -2.6515  -2.6121  -2.5696  -2.5623  -2.5520  -2.5115  -2.4761
    -2.4528  -2.4119  -2.3954  -2.3097  -2.2291  -2.0489  -1.9646  -1.9558
    -1.9195  -1.9121  -1.9008  -1.8943  -1.8441  -1.8202  -1.7657  -1.6740
    -1.6601  -1.6189  -1.5580  -1.5157  -1.4877  -1.4764  -1.4569  -1.3935
    -1.3610  -1.2245  -1.2061  -1.2000  -1.1237  -1.1006  -1.0874  -1.0739
    -1.0354  -1.0102  -0.9907  -0.8602  -0.8406  -0.8336  -0.8128  -0.7902
    -0.7578  -0.7143  -0.6971  -0.6843  -0.6604  -0.5709  -0.5532  -0.5365
    -0.5139  -0.5064  -0.5025  -0.4714  -0.4501  -0.4400  -0.3879  -0.3812
    -0.3563  -0.3214  -0.2632  -0.2605  -0.2285  -0.2015  -0.1793  -0.1713
    -0.1495  -0.1142  -0.1026  -0.0936  -0.0914  -0.0878  -0.0733  -0.0574
    -0.0270   0.0090   0.0920   0.1111   0.1525   0.1902   0.2293   0.2474
     0.2507   0.4300   0.4375   0.5070   0.5737   0.5784   0.6027   0.6258
     0.6268   0.6485   0.6892   0.7029   0.7303   0.7405   0.7638   0.8265
     0.9123   0.9770   1.0052   1.0108   1.0304   1.0581   1.0975   1.1330
     1.1938   1.2193   1.2454   1.2751   1.3245   1.3494   1.3984   1.4505
     1.4614   1.4701   1.5136   1.5275   1.5519   1.5600   1.5712   1.5824
     1.5959   1.6013   1.6213   1.7151   1.7706   1.8085   1.9260   1.9372
     1.9685   2.0784   2.1178   2.1205   2.1259   2.2130   2.2378   2.2528
     2.2625   2.2807   2.3060   2.3098   2.3298   2.3331   2.3450   2.3880
     2.4017   2.4146   2.4849   2.5151   2.5183   2.5450   2.5524   2.6005
     2.7290   2.7652   2.7856   2.7949   2.8473   2.8705   2.8780   2.9901
     3.0159   3.3064   3.5060   3.5575   3.9109   4.0873   4.0946   4.1016
     4.5987   4.7985   4.8078   4.9629   5.0100   5.0627   5.6448   6.0888
     6.2008   6.2416   6.4349   6.6838   6.9377   6.9783   7.0091   7.0175
     7.3912

          k = 0.4000-0.2309 0.0000 ( 43046 PWs)   bands (ev):

    -5.7422  -5.1213  -4.7912  -4.2456  -4.0095  -3.9924  -3.7947  -3.6416
    -3.4854  -3.3637  -3.2839  -3.2826  -3.2332  -3.1201  -3.0763  -3.0607
    -3.0570  -3.0435  -2.9079  -2.8963  -2.8948  -2.8463  -2.8428  -2.8053
    -2.7286  -2.7134  -2.7103  -2.6371  -2.4539  -2.4468  -2.4379  -2.4333
    -2.4240  -2.3281  -2.2006  -2.1896  -2.1717  -2.1470  -2.1326  -2.0392
    -1.9536  -1.8660  -1.8593  -1.8448  -1.7981  -1.7861  -1.7476  -1.7200
    -1.7074  -1.6709  -1.6454  -1.6058  -1.4969  -1.4890  -1.4599  -1.3806
    -1.3409  -1.3140  -1.2746  -1.2659  -1.1986  -1.1205  -1.0592  -1.0538
    -1.0452  -0.9925  -0.9507  -0.9406  -0.8780  -0.8190  -0.8084  -0.8040
    -0.7630  -0.6863  -0.6836  -0.6607  -0.6554  -0.6415  -0.5905  -0.5693
    -0.5602  -0.5546  -0.5380  -0.5328  -0.5267  -0.4934  -0.4607  -0.3987
    -0.3925  -0.3789  -0.3681  -0.3532  -0.3261  -0.2396  -0.2123  -0.1955
    -0.1463  -0.1303  -0.1148  -0.0902  -0.0631  -0.0545   0.0451   0.0697
     0.0886   0.1032   0.1417   0.1796   0.2269   0.3209   0.3409   0.4135
     0.4259   0.4873   0.5006   0.5241   0.5363   0.5395   0.5411   0.6068
     0.6186   0.6343   0.6526   0.6586   0.6904   0.7012   0.7157   0.7404
     0.7566   0.8721   0.8785   0.8989   0.9577   0.9823   1.0675   1.0877
     1.1669   1.1904   1.2387   1.2863   1.3490   1.3587   1.4076   1.4200
     1.4506   1.4651   1.5006   1.5177   1.5645   1.5665   1.6221   1.6612
     1.6746   1.7178   1.7298   1.7444   1.7511   1.7843   1.8862   1.9251
     1.9824   1.9993   2.0227   2.0328   2.0867   2.1270   2.1361   2.2057
     2.2158   2.2282   2.2385   2.2981   2.3221   2.3315   2.3414   2.4548
     2.4609   2.4794   2.4885   2.4928   2.4975   2.5194   2.5246   2.7018
     2.7282   2.7329   2.7455   2.7498   2.9058   2.9574   3.1511   3.3362
     3.3737   3.5794   3.7753   3.7888   4.0797   4.1703   4.2834   4.4813
     4.7871   4.9992   5.0051   5.0920   5.2126   5.2513   5.3544   5.3930
     5.6004   5.6550   6.1976   6.2858   6.6876   6.8191   7.1786   7.2999
     7.7692

          k = 0.4000-0.0000 0.0000 ( 43046 PWs)   bands (ev):

    -5.8801  -4.9440  -4.6302  -4.6135  -4.2394  -3.5486  -3.5446  -3.5409
    -3.5185  -3.4810  -3.4784  -3.4625  -3.3687  -3.3524  -3.1742  -2.9758
    -2.9700  -2.9615  -2.9548  -2.8898  -2.8724  -2.7361  -2.7230  -2.7133
    -2.7096  -2.6300  -2.6126  -2.5689  -2.5624  -2.5564  -2.4935  -2.4744
    -2.4538  -2.4003  -2.3926  -2.3104  -2.1595  -2.0377  -1.9660  -1.9506
    -1.9265  -1.9146  -1.9027  -1.8979  -1.8427  -1.8240  -1.7613  -1.6742
    -1.6564  -1.6456  -1.5604  -1.5323  -1.4893  -1.4778  -1.4553  -1.3944
    -1.3572  -1.2281  -1.2081  -1.1960  -1.1234  -1.0992  -1.0870  -1.0776
    -1.0492  -1.0101  -0.9853  -0.8625  -0.8447  -0.8337  -0.8166  -0.7841
    -0.7490  -0.7212  -0.7072  -0.6803  -0.6611  -0.5694  -0.5562  -0.5336
    -0.5142  -0.5125  -0.5044  -0.4766  -0.4557  -0.4392  -0.3947  -0.3866
    -0.3592  -0.3344  -0.2669  -0.2647  -0.2327  -0.2031  -0.1774  -0.1687
    -0.1533  -0.1163  -0.1042  -0.0987  -0.0951  -0.0880  -0.0719  -0.0582
    -0.0163   0.0017   0.0888   0.1022   0.1500   0.2089   0.2293   0.2420
     0.2519   0.4305   0.4380   0.4815   0.5674   0.5766   0.6110   0.6191
     0.6448   0.6484   0.6916   0.6971   0.7327   0.7376   0.7601   0.8253
     0.9307   0.9807   1.0021   1.0095   1.0325   1.0551   1.0856   1.1332
     1.1985   1.2190   1.2526   1.3034   1.3141   1.3550   1.4022   1.4433
     1.4552   1.4664   1.5168   1.5377   1.5434   1.5616   1.5710   1.5750
     1.5932   1.6039   1.6170   1.7157   1.7570   1.8050   1.9288   1.9410
     1.9668   2.0922   2.1103   2.1202   2.1256   2.2019   2.2338   2.2529
     2.2594   2.2777   2.3040   2.3122   2.3284   2.3329   2.3448   2.3881
     2.4009   2.4166   2.4862   2.5157   2.5190   2.5436   2.5529   2.6006
     2.7306   2.7484   2.7838   2.8003   2.8510   2.8682   2.8763   2.9757
     3.0165   3.3393   3.5244   3.5513   3.9426   4.0842   4.0919   4.1002
     4.5954   4.7912   4.8154   4.9828   5.0146   5.0579   5.6615   6.0977
     6.1988   6.2286   6.4083   6.6663   6.9337   6.9811   7.0031   7.0199
     7.0496

          k = 0.4000 0.2309 0.0000 ( 43046 PWs)   bands (ev):

    -5.7463  -5.1391  -4.8030  -4.2397  -4.0113  -4.0027  -3.7827  -3.6324
    -3.4851  -3.3629  -3.2831  -3.2818  -3.2169  -3.1189  -3.0914  -3.0614
    -3.0612  -3.0502  -2.9104  -2.8972  -2.8967  -2.8484  -2.8425  -2.7992
    -2.7320  -2.7126  -2.7096  -2.5297  -2.4548  -2.4449  -2.4402  -2.4308
    -2.4244  -2.2954  -2.1994  -2.1868  -2.1713  -2.1409  -2.1353  -2.0289
    -1.9595  -1.8587  -1.8578  -1.8455  -1.7979  -1.7841  -1.7729  -1.7166
    -1.7085  -1.6630  -1.6395  -1.6298  -1.5011  -1.4853  -1.4590  -1.3986
    -1.3387  -1.3121  -1.2740  -1.2662  -1.2017  -1.1202  -1.0543  -1.0481
    -1.0471  -0.9816  -0.9504  -0.9425  -0.8990  -0.8231  -0.8090  -0.8014
    -0.7774  -0.6951  -0.6894  -0.6583  -0.6570  -0.6392  -0.5973  -0.5671
    -0.5630  -0.5532  -0.5402  -0.5328  -0.5290  -0.4903  -0.4628  -0.3948
    -0.3919  -0.3826  -0.3696  -0.3498  -0.3257  -0.2625  -0.2119  -0.1994
    -0.1546  -0.1269  -0.1130  -0.0882  -0.0747  -0.0618   0.0537   0.0563
     0.0865   0.0935   0.1441   0.1836   0.1979   0.3157   0.3485   0.3936
     0.4221   0.4705   0.5186   0.5195   0.5358   0.5402   0.5429   0.5910
     0.6176   0.6404   0.6492   0.6671   0.6840   0.7053   0.7186   0.7473
     0.7634   0.8637   0.8702   0.8931   0.9575   1.0027   1.0754   1.0892
     1.1709   1.1853   1.2353   1.2954   1.3361   1.3626   1.3934   1.4216
     1.4553   1.4605   1.5035   1.5153   1.5583   1.5679   1.6158   1.6650
     1.6739   1.7150   1.7252   1.7430   1.7451   1.7920   1.8893   1.9178
     1.9608   1.9977   2.0141   2.0356   2.0915   2.1264   2.1320   2.2109
     2.2173   2.2312   2.2361   2.3074   2.3223   2.3309   2.3393   2.4548
     2.4585   2.4816   2.4831   2.4956   2.4998   2.5216   2.5248   2.7021
     2.7325   2.7347   2.7445   2.7479   2.9078   2.9578   3.1936   3.3292
     3.3871   3.5693   3.7792   3.7871   4.0952   4.1720   4.2831   4.5021
     4.8202   5.0020   5.0036   5.0774   5.2110   5.2422   5.3722   5.3919
     5.5999   5.6562   6.1862   6.2890   6.6750   6.8132   7.2096   7.2893
     7.7990

          k = 0.4000-0.6928 0.0000 ( 43014 PWs)   bands (ev):

    -5.3873  -5.3236  -4.7967  -4.6209  -4.0816  -3.8439  -3.5480  -3.5022
    -3.3982  -3.3718  -3.2659  -3.2587  -3.1565  -3.1479  -3.0536  -3.0286
    -3.0222  -2.9950  -2.9909  -2.9768  -2.8460  -2.8251  -2.8165  -2.8005
    -2.7811  -2.7736  -2.6656  -2.5965  -2.5597  -2.4526  -2.4222  -2.4150
    -2.4075  -2.3746  -2.3226  -2.2872  -2.1799  -2.1648  -2.0568  -1.9925
    -1.9671  -1.9420  -1.8474  -1.8380  -1.7799  -1.7539  -1.6716  -1.6168
    -1.5837  -1.5803  -1.5570  -1.5119  -1.4971  -1.4616  -1.3870  -1.3717
    -1.3542  -1.3360  -1.3338  -1.3248  -1.2826  -1.2483  -1.2100  -1.1260
    -1.0944  -1.0682  -1.0421  -0.9600  -0.9120  -0.9044  -0.8822  -0.8479
    -0.8229  -0.8086  -0.7565  -0.7411  -0.7217  -0.6877  -0.6582  -0.6264
    -0.5842  -0.5779  -0.5215  -0.4869  -0.4822  -0.4655  -0.4132  -0.3423
    -0.3051  -0.2978  -0.2833  -0.2709  -0.2197  -0.2145  -0.2076  -0.1864
    -0.1765  -0.1637  -0.1345  -0.1030  -0.0882  -0.0717  -0.0653  -0.0572
    -0.0473  -0.0389  -0.0114   0.0376   0.0498   0.2418   0.2617   0.3428
     0.3605   0.4307   0.4540   0.4716   0.4958   0.5043   0.5578   0.5649
     0.5772   0.5814   0.6532   0.6934   0.7070   0.7369   0.7666   0.7867
     0.8418   0.8436   0.8938   0.9859   1.0535   1.1064   1.1118   1.1426
     1.1885   1.2060   1.2339   1.2430   1.2628   1.2687   1.2922   1.3073
     1.3956   1.4344   1.4375   1.4677   1.4751   1.5138   1.5224   1.5410
     1.5513   1.6979   1.7292   1.7797   1.8246   1.8749   1.9466   1.9587
     2.0204   2.0601   2.0788   2.0893   2.1612   2.1900   2.2592   2.2827
     2.2921   2.3056   2.3147   2.3345   2.3660   2.3999   2.4656   2.4686
     2.4941   2.5053   2.5216   2.5268   2.5303   2.6006   2.7057   2.7332
     2.7409   2.7453   2.7489   2.8058   2.8498   2.9227   3.0205   3.7788
     3.8930   3.9137   4.1007   4.1453   4.2484   4.2806   4.2942   4.6410
     4.8496   4.9115   5.1437   5.3517   5.3791   5.4484   5.5057   5.6949
     5.7665   5.8197   5.9007   6.1501   6.2669   6.3408   6.7998   6.9515
     6.9890

          k = 0.4000-0.4619 0.0000 ( 43014 PWs)   bands (ev):

    -5.3760  -5.3224  -4.8114  -4.5891  -4.0846  -3.8686  -3.5428  -3.4979
    -3.3989  -3.3689  -3.2651  -3.2554  -3.1549  -3.1483  -3.0546  -3.0273
    -3.0252  -2.9943  -2.9931  -2.9774  -2.8566  -2.8244  -2.8194  -2.7938
    -2.7781  -2.7713  -2.6794  -2.6184  -2.5637  -2.4629  -2.4285  -2.4210
    -2.4055  -2.3771  -2.3356  -2.2960  -2.1796  -2.1651  -2.0695  -1.9928
    -1.9788  -1.9271  -1.8478  -1.8397  -1.7847  -1.7389  -1.6707  -1.6165
    -1.5878  -1.5739  -1.5525  -1.5117  -1.5012  -1.4663  -1.3845  -1.3674
    -1.3488  -1.3395  -1.3330  -1.3259  -1.2751  -1.2542  -1.2118  -1.1342
    -1.0858  -1.0617  -1.0446  -0.9604  -0.9146  -0.9049  -0.8676  -0.8511
    -0.8243  -0.7955  -0.7504  -0.7422  -0.7191  -0.6891  -0.6592  -0.6141
    -0.5920  -0.5722  -0.5169  -0.4865  -0.4829  -0.4674  -0.4040  -0.3382
    -0.3039  -0.2975  -0.2781  -0.2578  -0.2214  -0.2162  -0.2099  -0.1769
    -0.1715  -0.1575  -0.1377  -0.1002  -0.0856  -0.0715  -0.0627  -0.0566
    -0.0491  -0.0371  -0.0001   0.0331   0.0542   0.2348   0.2653   0.3400
     0.3611   0.4190   0.4531   0.4676   0.4918   0.5060   0.5457   0.5611
     0.5734   0.5818   0.6584   0.6834   0.7014   0.7330   0.7700   0.7860
     0.8422   0.8503   0.9004   1.0287   1.0616   1.1049   1.1191   1.1390
     1.1852   1.1998   1.2377   1.2459   1.2586   1.2727   1.2921   1.3078
     1.4042   1.4205   1.4351   1.4573   1.4809   1.5190   1.5296   1.5464
     1.5516   1.6942   1.7177   1.7735   1.8429   1.8648   1.9433   1.9586
     2.0030   2.0646   2.0820   2.0864   2.1712   2.1834   2.2616   2.2830
     2.3009   2.3064   2.3112   2.3415   2.3615   2.3999   2.4647   2.4692
     2.4971   2.5081   2.5211   2.5234   2.5291   2.6009   2.6988   2.7334
     2.7394   2.7469   2.7508   2.8083   2.8455   2.9310   3.0443   3.7470
     3.8935   3.9139   4.0915   4.1501   4.2225   4.2809   4.2900   4.6373
     4.8635   4.9078   5.1071   5.3545   5.3760   5.4647   5.4980   5.6739
     5.7710   5.8413   5.8906   6.1578   6.2898   6.3281   6.7911   6.9610
     6.9863

     the Fermi energy is     2.5138 ev

!    total energy              =  -27755.48418619 Ry
     total all-electron energy =  -1326642.249603 Ry
     estimated scf accuracy    <          2.8E-09 Ry
     smearing contrib. (-TS)   =       0.00287953 Ry
     internal energy E=F+TS    =  -27755.48706572 Ry

     The total energy is F=E-TS. E is the sum of the following terms:
     one-electron contribution =  -20672.32024404 Ry
     hartree contribution      =   10643.29537693 Ry
     xc contribution           =    -890.70928489 Ry
     ewald contribution        =    8638.22612048 Ry
     one-center paw contrib.   =  -25473.97903421 Ry

     convergence has been achieved in  21 iterations

     negative rho (up, down):  3.146E-03 0.000E+00

     Forces acting on atoms (cartesian axes, Ry/au):

     atom    1 type  1   force =     0.00008642    0.00004464   -0.00322232
     atom    2 type  1   force =     0.00008072    0.00003970   -0.00324763
     atom    3 type  1   force =    -0.00027594    0.00031262   -0.00358379
     atom    4 type  1   force =     0.00007927    0.00004082   -0.00324424
     atom    5 type  1   force =    -0.00008438   -0.00005597   -0.00340017
     atom    6 type  1   force =    -0.00007674   -0.00009625   -0.00357803
     atom    7 type  1   force =     0.00013625   -0.00040007   -0.00358296
     atom    8 type  1   force =    -0.00011581   -0.00002324   -0.00358071
     atom    9 type  1   force =     0.00013363    0.00007550   -0.00346601
     atom   10 type  1   force =    -0.00016947   -0.00007954    0.00556925
     atom   11 type  1   force =    -0.00008063   -0.00043336    0.00476687
     atom   12 type  1   force =    -0.00025373    0.00024809    0.00159071
     atom   13 type  1   force =    -0.00043316    0.00015882    0.00476451
     atom   14 type  1   force =    -0.00026200   -0.00014910    0.00358938
     atom   15 type  1   force =     0.00045302   -0.00011401    0.00481426
     atom   16 type  1   force =     0.00007158   -0.00032434    0.00158207
     atom   17 type  1   force =     0.00012477    0.00045880    0.00481287
     atom   18 type  1   force =    -0.00027591   -0.00015318    0.00084956
     atom   19 type  1   force =     0.00003684   -0.00001836    0.00007559
     atom   20 type  1   force =     0.00007295    0.00003159   -0.00007797
     atom   21 type  1   force =     0.00001096   -0.00000510    0.00006660
     atom   22 type  1   force =     0.00004354    0.00002601    0.00009591
     atom   23 type  1   force =     0.00001022    0.00002700    0.00010069
     atom   24 type  1   force =     0.00000932    0.00003592    0.00009199
     atom   25 type  1   force =     0.00000763   -0.00001226    0.00010055
     atom   26 type  1   force =     0.00001655    0.00001553    0.00011728
     atom   27 type  1   force =     0.00000967    0.00001730    0.00011496
     atom   28 type  1   force =     0.00003224    0.00002239   -0.00025539
     atom   29 type  1   force =     0.00009125   -0.00012479   -0.00018215
     atom   30 type  1   force =     0.00005017    0.00002761   -0.00026157
     atom   31 type  1   force =    -0.00006569    0.00012794   -0.00017036
     atom   32 type  1   force =     0.00023020    0.00011721   -0.00023274
     atom   33 type  1   force =     0.00006967   -0.00000046   -0.00024616
     atom   34 type  1   force =     0.00003807    0.00003890   -0.00027061
     atom   35 type  1   force =     0.00004477    0.00005984   -0.00027787
     atom   36 type  1   force =     0.00007395    0.00003801   -0.00023097
     atom   37 type  2   force =     0.00007979    0.00002580    0.00000861
     The non-local contrib.  to forces
     atom    1 type  1   force =    -0.00102704   -0.00059110   -0.01807009
     atom    2 type  1   force =    -0.00025191    0.00067225   -0.01821402
     atom    3 type  1   force =     0.00132778   -0.00073048   -0.01843428
     atom    4 type  1   force =     0.00045489   -0.00055314   -0.01821727
     atom    5 type  1   force =    -0.00033377   -0.00019174   -0.01791339
     atom    6 type  1   force =    -0.00011709    0.00032038   -0.01821363
     atom    7 type  1   force =     0.00003048    0.00151734   -0.01843595
     atom    8 type  1   force =     0.00021811   -0.00026159   -0.01821337
     atom    9 type  1   force =    -0.00031293   -0.00017986   -0.01827602
     atom   10 type  1   force =     0.00001392    0.00002272    0.00075009
     atom   11 type  1   force =    -0.00053337    0.00033091    0.00094222
     atom   12 type  1   force =     0.00050652    0.00127635   -0.00018982
     atom   13 type  1   force =     0.00000663   -0.00060895    0.00094101
     atom   14 type  1   force =     0.00040628    0.00024391   -0.00027538
     atom   15 type  1   force =    -0.00065721    0.00021336    0.00001487
     atom   16 type  1   force =     0.00134548   -0.00017885   -0.00019781
     atom   17 type  1   force =    -0.00015168   -0.00065819    0.00001015
     atom   18 type  1   force =    -0.00148777   -0.00084885   -0.00002991
     atom   19 type  1   force =    -0.00260814   -0.00116452    0.00100932
     atom   20 type  1   force =     0.00048504    0.00027724    0.00982906
     atom   21 type  1   force =     0.00221652   -0.00009684    0.00134336
     atom   22 type  1   force =     0.00045839    0.00299230    0.00053885
     atom   23 type  1   force =     0.00102507    0.00197685    0.00137339
     atom   24 type  1   force =    -0.00061198   -0.00033474    0.00381489
     atom   25 type  1   force =     0.00018967    0.00010149    0.00416701
     atom   26 type  1   force =    -0.00230764   -0.00168952    0.00104306
     atom   27 type  1   force =     0.00279943   -0.00110625    0.00055297
     atom   28 type  1   force =     0.00822324    0.00475115    0.02089444
     atom   29 type  1   force =    -0.00632992    0.03229540    0.00068283
     atom   30 type  1   force =    -0.00116449    0.00102967    0.01683304
     atom   31 type  1   force =     0.02480342   -0.02165192    0.00066417
     atom   32 type  1   force =    -0.04098417   -0.02368961    0.02651820
     atom   33 type  1   force =     0.00004770    0.00110591    0.01569773
     atom   34 type  1   force =     0.00029596   -0.00153148    0.01682639
     atom   35 type  1   force =     0.00100429   -0.00054006    0.01568354
     atom   36 type  1   force =    -0.00061230   -0.00038041    0.01622204
     atom   37 type  2   force =    -0.00593614   -0.00341722   -0.01994820
     The ionic contribution  to forces
     atom    1 type  1   force =     0.00732383    0.00425168  -93.40427113
     atom    2 type  1   force =     0.00011373    0.00685808  -93.39091323
     atom    3 type  1   force =    -0.00745041    0.00114787  -93.40468671
     atom    4 type  1   force =     0.00597753   -0.00332598  -93.39088592
     atom    5 type  1   force =    -0.00854699   -0.00494444  -93.39545743
     atom    6 type  1   force =     0.00256970   -0.00046290  -93.40640769
     atom    7 type  1   force =    -0.00275475   -0.00702891  -93.40468879
     atom    8 type  1   force =     0.00089424    0.00244052  -93.40644017
     atom    9 type  1   force =     0.00186233    0.00106098  -93.40132856
     atom   10 type  1   force =     0.05243239    0.03067726  -31.46908805
     atom   11 type  1   force =    -0.06998397    0.01684390  -31.47160139
     atom   12 type  1   force =     0.01765658    0.04049629  -31.55054374
     atom   13 type  1   force =    -0.02083644   -0.06879537  -31.47169328
     atom   14 type  1   force =    -0.02197913   -0.01275343  -31.56307490
     atom   15 type  1   force =     0.04157211   -0.01149863  -31.53496851
     atom   16 type  1   force =     0.04354144   -0.00470921  -31.55066224
     atom   17 type  1   force =     0.01080549    0.04170448  -31.53482380
     atom   18 type  1   force =    -0.05704053   -0.03303649  -31.51869829
     atom   19 type  1   force =     0.11649444    0.00222909   31.12338965
     atom   20 type  1   force =    -0.03170455   -0.01880542   31.57112551
     atom   21 type  1   force =    -0.07246176   -0.02670238   30.92850580
     atom   22 type  1   force =     0.03969330   -0.06270726   31.10338696
     atom   23 type  1   force =    -0.05896003   -0.04847891   30.92682211
     atom   24 type  1   force =     0.01805521    0.01188825   30.87280269
     atom   25 type  1   force =    -0.01612978   -0.00998796   30.60304795
     atom   26 type  1   force =     0.06081216    0.09869279   31.12181253
     atom   27 type  1   force =    -0.03587433    0.06551534   31.10239890
     atom   28 type  1   force =     0.03691543    0.02146748   92.33215656
     atom   29 type  1   force =     0.05877156   -0.82487103   92.76273745
     atom   30 type  1   force =     0.03356589    0.00722198   92.49673832
     atom   31 type  1   force =    -0.68504225    0.46268095   92.76309549
     atom   32 type  1   force =     0.31683453    0.18198475   92.54900035
     atom   33 type  1   force =     0.02908362    0.00074136   92.60405477
     atom   34 type  1   force =     0.02256461    0.02591899   92.49629770
     atom   35 type  1   force =     0.01603833    0.02486947   92.60389072
     atom   36 type  1   force =    -0.02748479   -0.01571786   92.56060830
     atom   37 type  2   force =     0.18267129    0.10513468   11.74836207
     The local contribution  to forces
     atom    1 type  1   force =    -0.00619540   -0.00360928   93.40181667
     atom    2 type  1   force =     0.00021373   -0.00749404   93.38861996
     atom    3 type  1   force =     0.00585432   -0.00011217   93.40217234
     atom    4 type  1   force =    -0.00635601    0.00392053   93.38859992
     atom    5 type  1   force =     0.00880541    0.00509034   93.39268781
     atom    6 type  1   force =    -0.00252112    0.00007836   93.40382424
     atom    7 type  1   force =     0.00285946    0.00511743   93.40217990
     atom    8 type  1   force =    -0.00119986   -0.00221133   93.40385550
     atom    9 type  1   force =    -0.00140917   -0.00080423   93.39895233
     atom   10 type  1   force =    -0.05252638   -0.03072507   31.47291657
     atom   11 type  1   force =     0.07031335   -0.01760846   31.47442065
     atom   12 type  1   force =    -0.01840175   -0.04143567   31.55104927
     atom   13 type  1   force =     0.02033261    0.06946206   31.47450908
     atom   14 type  1   force =     0.02127007    0.01234142   31.56566602
     atom   15 type  1   force =    -0.04036698    0.01112626   31.53861693
     atom   16 type  1   force =    -0.04473273    0.00452797   31.55116426
     atom   17 type  1   force =    -0.01052398   -0.04048617   31.53847494
     atom   18 type  1   force =     0.05814944    0.03366755   31.51848070
     atom   19 type  1   force =    -0.11364127   -0.00104042  -31.12199216
     atom   20 type  1   force =     0.03128713    0.01855768  -31.57829549
     atom   21 type  1   force =     0.07019073    0.02675770  -30.92766826
     atom   22 type  1   force =    -0.04003284    0.05968944  -31.10163832
     atom   23 type  1   force =     0.05788030    0.04649484  -30.92597937
     atom   24 type  1   force =    -0.01744140   -0.01151645  -30.87458894
     atom   25 type  1   force =     0.01586537    0.00982294  -30.60509858
     atom   26 type  1   force =    -0.05834713   -0.09683335  -31.12040256
     atom   27 type  1   force =     0.03307262   -0.06430323  -31.10064118
     atom   28 type  1   force =    -0.04416173   -0.02564844  -92.33707359
     atom   29 type  1   force =    -0.05145212    0.78477256  -92.75278381
     atom   30 type  1   force =    -0.03288935   -0.00789626  -92.49747976
     atom   31 type  1   force =     0.65396825   -0.43628361  -92.75311267
     atom   32 type  1   force =    -0.27403378   -0.15726472  -92.56152641
     atom   33 type  1   force =    -0.02880722   -0.00177432  -92.60354532
     atom   34 type  1   force =    -0.02281046   -0.02497753  -92.49704402
     atom   35 type  1   force =    -0.01680451   -0.02408710  -92.60340286
     atom   36 type  1   force =     0.02805985    0.01607127  -92.56059982
     atom   37 type  2   force =    -0.17665579   -0.10169182  -11.72841213
     The core correction contribution to forces
     atom    1 type  1   force =    -0.00001309   -0.00000740    0.01731806
     atom    2 type  1   force =     0.00000698   -0.00000819    0.01727837
     atom    3 type  1   force =    -0.00001137    0.00000563    0.01738122
     atom    4 type  1   force =    -0.00000369    0.00001031    0.01727830
     atom    5 type  1   force =    -0.00000077   -0.00000035    0.01730181
     atom    6 type  1   force =    -0.00000999   -0.00001445    0.01724190
     atom    7 type  1   force =    -0.00000101   -0.00001237    0.01738114
     atom    8 type  1   force =    -0.00001751   -0.00000129    0.01724205
     atom    9 type  1   force =    -0.00001571   -0.00000899    0.01721102
     atom   10 type  1   force =    -0.00008766   -0.00005233    0.00102536
     atom   11 type  1   force =     0.00011951   -0.00000052    0.00103175
     atom   12 type  1   force =    -0.00001296   -0.00007211    0.00129589
     atom   13 type  1   force =     0.00006106    0.00010285    0.00103222
     atom   14 type  1   force =     0.00005479    0.00003199    0.00129486
     atom   15 type  1   force =    -0.00010607    0.00005817    0.00118164
     atom   16 type  1   force =    -0.00006754    0.00002372    0.00129737
     atom   17 type  1   force =    -0.00000270   -0.00012054    0.00118215
     atom   18 type  1   force =     0.00008578    0.00004969    0.00111705
     atom   19 type  1   force =    -0.00020110   -0.00002370   -0.00227834
     atom   20 type  1   force =    -0.00000487   -0.00000179   -0.00268422
     atom   21 type  1   force =     0.00006870    0.00005364   -0.00206451
     atom   22 type  1   force =    -0.00009784    0.00004028   -0.00214645
     atom   23 type  1   force =     0.00008005    0.00002936   -0.00206909
     atom   24 type  1   force =     0.00001456    0.00000327   -0.00189161
     atom   25 type  1   force =     0.00008475    0.00005105   -0.00196688
     atom   26 type  1   force =    -0.00012257   -0.00015909   -0.00228436
     atom   27 type  1   force =    -0.00000907   -0.00010436   -0.00214862
     atom   28 type  1   force =    -0.00093023   -0.00053861   -0.01626455
     atom   29 type  1   force =    -0.00090354    0.00767568   -0.01085667
     atom   30 type  1   force =     0.00052959   -0.00032335   -0.01638083
     atom   31 type  1   force =     0.00619971   -0.00462095   -0.01085625
     atom   32 type  1   force =    -0.00158766   -0.00091350   -0.01425666
     atom   33 type  1   force =    -0.00024856   -0.00006207   -0.01649363
     atom   34 type  1   force =    -0.00001242    0.00061922   -0.01637893
     atom   35 type  1   force =    -0.00018056   -0.00018377   -0.01648914
     atom   36 type  1   force =     0.00009895    0.00005799   -0.01650726
     atom   37 type  2   force =     0.00000000    0.00000000    0.00000000
     The Hubbard contrib.    to forces
     atom    1 type  1   force =     0.00000000    0.00000000    0.00000000
     atom    2 type  1   force =     0.00000000    0.00000000    0.00000000
     atom    3 type  1   force =     0.00000000    0.00000000    0.00000000
     atom    4 type  1   force =     0.00000000    0.00000000    0.00000000
     atom    5 type  1   force =     0.00000000    0.00000000    0.00000000
     atom    6 type  1   force =     0.00000000    0.00000000    0.00000000
     atom    7 type  1   force =     0.00000000    0.00000000    0.00000000
     atom    8 type  1   force =     0.00000000    0.00000000    0.00000000
     atom    9 type  1   force =     0.00000000    0.00000000    0.00000000
     atom   10 type  1   force =     0.00000000    0.00000000    0.00000000
     atom   11 type  1   force =     0.00000000    0.00000000    0.00000000
     atom   12 type  1   force =     0.00000000    0.00000000    0.00000000
     atom   13 type  1   force =     0.00000000    0.00000000    0.00000000
     atom   14 type  1   force =     0.00000000    0.00000000    0.00000000
     atom   15 type  1   force =     0.00000000    0.00000000    0.00000000
     atom   16 type  1   force =     0.00000000    0.00000000    0.00000000
     atom   17 type  1   force =     0.00000000    0.00000000    0.00000000
     atom   18 type  1   force =     0.00000000    0.00000000    0.00000000
     atom   19 type  1   force =     0.00000000    0.00000000    0.00000000
     atom   20 type  1   force =     0.00000000    0.00000000    0.00000000
     atom   21 type  1   force =     0.00000000    0.00000000    0.00000000
     atom   22 type  1   force =     0.00000000    0.00000000    0.00000000
     atom   23 type  1   force =     0.00000000    0.00000000    0.00000000
     atom   24 type  1   force =     0.00000000    0.00000000    0.00000000
     atom   25 type  1   force =     0.00000000    0.00000000    0.00000000
     atom   26 type  1   force =     0.00000000    0.00000000    0.00000000
     atom   27 type  1   force =     0.00000000    0.00000000    0.00000000
     atom   28 type  1   force =     0.00000000    0.00000000    0.00000000
     atom   29 type  1   force =     0.00000000    0.00000000    0.00000000
     atom   30 type  1   force =     0.00000000    0.00000000    0.00000000
     atom   31 type  1   force =     0.00000000    0.00000000    0.00000000
     atom   32 type  1   force =     0.00000000    0.00000000    0.00000000
     atom   33 type  1   force =     0.00000000    0.00000000    0.00000000
     atom   34 type  1   force =     0.00000000    0.00000000    0.00000000
     atom   35 type  1   force =     0.00000000    0.00000000    0.00000000
     atom   36 type  1   force =     0.00000000    0.00000000    0.00000000
     atom   37 type  2   force =     0.00000000    0.00000000    0.00000000
     The SCF correction term to forces
     atom    1 type  1   force =    -0.00000000    0.00000000   -0.00000000
     atom    2 type  1   force =    -0.00000000    0.00000000   -0.00000000
     atom    3 type  1   force =     0.00000000    0.00000000   -0.00000000
     atom    4 type  1   force =     0.00000000   -0.00000000   -0.00000000
     atom    5 type  1   force =    -0.00000000   -0.00000000   -0.00000000
     atom    6 type  1   force =     0.00000000   -0.00000000   -0.00000000
     atom    7 type  1   force =     0.00000000    0.00000000   -0.00000000
     atom    8 type  1   force =    -0.00000000    0.00000000   -0.00000000
     atom    9 type  1   force =     0.00000000    0.00000000   -0.00000000
     atom   10 type  1   force =    -0.00000000   -0.00000000   -0.00000000
     atom   11 type  1   force =     0.00000000    0.00000000   -0.00000000
     atom   12 type  1   force =    -0.00000000   -0.00000000   -0.00000000
     atom   13 type  1   force =     0.00000000   -0.00000000   -0.00000000
     atom   14 type  1   force =    -0.00000000   -0.00000000   -0.00000000
     atom   15 type  1   force =     0.00000000   -0.00000000   -0.00000000
     atom   16 type  1   force =    -0.00000000    0.00000000   -0.00000000
     atom   17 type  1   force =    -0.00000000    0.00000000   -0.00000000
     atom   18 type  1   force =     0.00000000    0.00000000   -0.00000000
     atom   19 type  1   force =    -0.00000710   -0.00001881   -0.00005664
     atom   20 type  1   force =     0.00001017    0.00000387   -0.00005659
     atom   21 type  1   force =    -0.00000324   -0.00001723   -0.00005354
     atom   22 type  1   force =     0.00002252    0.00001125   -0.00004888
     atom   23 type  1   force =    -0.00001518    0.00000485   -0.00005010
     atom   24 type  1   force =    -0.00000710   -0.00000441   -0.00004879
     atom   25 type  1   force =    -0.00000239    0.00000019   -0.00005270
     atom   26 type  1   force =    -0.00001830    0.00000468   -0.00005515
     atom   27 type  1   force =     0.00002100    0.00001578   -0.00005086
     atom   28 type  1   force =    -0.00001448   -0.00000922    0.00002799
     atom   29 type  1   force =     0.00000526    0.00000260    0.00003429
     atom   30 type  1   force =     0.00000852   -0.00000444    0.00002391
     atom   31 type  1   force =     0.00000517    0.00000347    0.00003514
     atom   32 type  1   force =     0.00000127    0.00000028    0.00002803
     atom   33 type  1   force =    -0.00000589   -0.00001136    0.00003653
     atom   34 type  1   force =     0.00000037    0.00000969    0.00002450
     atom   35 type  1   force =    -0.00001279    0.00000129    0.00003612
     atom   36 type  1   force =     0.00001223    0.00000701    0.00004201
     atom   37 type  2   force =     0.00000042    0.00000015    0.00000312

     Total force =     0.000868     Total SCF correction =     0.000196
     SCF correction compared to forces is large: reduce conv_thr to get better values

     Writing all to output data dir ./pwscf.save/

     init_run     :     10.13s CPU     10.45s WALL (       1 calls)
     electrons    :    351.14s CPU    361.67s WALL (       1 calls)
     forces       :      3.35s CPU      4.03s WALL (       1 calls)

     Called by init_run:
     wfcinit      :      5.71s CPU      5.89s WALL (       1 calls)
     potinit      :      3.04s CPU      3.12s WALL (       1 calls)
     hinit0       :      0.82s CPU      0.83s WALL (       1 calls)

     Called by electrons:
     c_bands      :    298.23s CPU    304.61s WALL (      22 calls)
     sum_band     :     33.50s CPU     34.57s WALL (      22 calls)
     v_of_rho     :      9.42s CPU     11.36s WALL (      22 calls)
     newd         :      2.74s CPU      3.50s WALL (      22 calls)
     PAW_pot      :      4.64s CPU      4.75s WALL (      22 calls)
     mix_rho      :      4.71s CPU      4.79s WALL (      22 calls)
     vdW_kernel   :      1.69s CPU      1.71s WALL (       1 calls)

     Called by c_bands:
     init_us_2    :      3.14s CPU      3.25s WALL (     598 calls)
     init_us_2:cp :      3.13s CPU      3.25s WALL (     598 calls)
     cegterg      :    290.49s CPU    296.40s WALL (     286 calls)

     Called by *egterg:
     cdiaghg      :     78.25s CPU     79.26s WALL (    1444 calls)
     h_psi        :    136.16s CPU    138.74s WALL (    1470 calls)
     s_psi        :     16.31s CPU     16.47s WALL (    1470 calls)
     g_psi        :      0.54s CPU      0.55s WALL (    1171 calls)

     Called by h_psi:
     h_psi:calbec :     21.89s CPU     22.54s WALL (    1470 calls)
     vloc_psi     :     95.96s CPU     97.54s WALL (    1470 calls)
     add_vuspsi   :     17.07s CPU     17.41s WALL (    1470 calls)

     General routines
     calbec       :     30.25s CPU     31.04s WALL (    1808 calls)
     fft          :      5.43s CPU      7.39s WALL (    1446 calls)
     ffts         :      2.75s CPU      2.78s WALL (    5220 calls)
     fftw         :     93.59s CPU     95.10s WALL (  378466 calls)
     interpolate  :      0.60s CPU      0.67s WALL (      22 calls)

     Parallel routines

     PWSCF        :   6m 6.34s CPU   6m20.46s WALL


   This run was terminated on:  21:18:31  23Feb2025            

=------------------------------------------------------------------------------=
   JOB DONE.
=------------------------------------------------------------------------------=
