
     Program PWSCF v.7.1 starts on  4Feb2025 at 14: 1:14 
        Git branch: heads/qe-7.1
        Last git commit: 48ba0178f8fede6d020eb786884699a9f063f55d-dirty
        Last git commit date: Fri Jan 27 14:22:33 2023 +0000
        Last git commit subject: Merge branch 'fix_hubbard' into 'develop'

     This program is part of the open-source Quantum ESPRESSO suite
     for quantum simulation of materials; please cite
         "P. Giannozzi et al., J. Phys.:Condens. Matter 21 395502 (2009);
         "P. Giannozzi et al., J. Phys.:Condens. Matter 29 465901 (2017);
         "P. Giannozzi et al., J. Chem. Phys. 152 154105 (2020);
          URL http://www.quantum-espresso.org", 
     in publications or presentations arising from this work. More details at
     http://www.quantum-espresso.org/quote

     Parallel version (MPI), running on    48 processors

     MPI processes distributed on     1 nodes
     187505 MiB available memory on the printing compute node when the environment starts

     Reading input from espresso.pwi
Warning: card &CELL ignored
Warning: card / ignored
Warning: card &FCP ignored
Warning: card / ignored
Warning: card &RISM ignored
Warning: card / ignored

     Current dimensions of program PWSCF are:
     Max number of different atomic species (ntypx) = 10
     Max number of k-points (npk) =  40000
     Max angular momentum in pseudopotentials (lmaxx) =  4
     file Pt.pbe-n-kjpaw_psl.1.0.0.UPF: wavefunction(s)  6S 5D renormalized
     file H.pbe-kjpaw_psl.1.0.0.UPF: wavefunction(s)  1S renormalized

     **************************************************************************
     Initializing libbeef V0.1.2 with the BEEF-vdW functional.
     Citation: Wellendorff et al., PRB 85, 235149 (2012).
     **************************************************************************


     IMPORTANT: XC functional enforced from input :
     Exchange-correlation= BEEF-VDW
                           (   1   4  43  14   2   0   0)
     Any further DFT definition will be discarded
     Please, verify this is what you really want


     R & G space division:  proc/nbgrp/npool/nimage =      48
     Subspace diagonalization in iterative solution of the eigenvalue problem:
     one sub-group per band group will be used
     custom distributed-memory algorithm (size of sub-group:  2*  2 procs)


     Parallelization info
     --------------------
     sticks:   dense  smooth     PW     G-vecs:    dense   smooth      PW
     Min         150      59     16                30552     7447    1068
     Max         151      60     17                30571     7456    1081
     Sum        7243    2839    769              1467143   357639   51591

     Using Slab Decomposition



     bravais-lattice index     =            0
     lattice parameter (alat)  =      16.0028  a.u.
     unit-cell volume          =   10463.1828 (a.u.)^3
     number of atoms/cell      =           37
     number of atomic types    =            2
     number of electrons       =       361.00
     number of Kohn-Sham states=          217
     kinetic-energy cutoff     =      40.0000  Ry
     charge density cutoff     =     410.0000  Ry
     scf convergence threshold =      1.0E-06
     mixing beta               =       0.7000
     number of iterations used =            8  local-TF  mixing
     Exchange-correlation= BEEF-VDW
                           (   1   4  43  14   2   0   0)

     celldm(1)=  16.002787  celldm(2)=   0.000000  celldm(3)=   0.000000
     celldm(4)=   0.000000  celldm(5)=   0.000000  celldm(6)=   0.000000

     crystal axes: (cart. coord. in units of alat)
               a(1) = (   1.000000   0.000000   0.000000 )  
               a(2) = (   0.500000   0.866025   0.000000 )  
               a(3) = (   0.000000   0.000000   2.948128 )  

     reciprocal axes: (cart. coord. in units 2 pi/alat)
               b(1) = (  1.000000 -0.577350  0.000000 )  
               b(2) = (  0.000000  1.154701  0.000000 )  
               b(3) = (  0.000000  0.000000  0.339198 )  


     PseudoPot. # 1 for Pt read from file:
     /users/kbadger1/espresso/pseudo/pslibrary.1.0.0/pbe/PSEUDOPOTENTIALS/Pt.pbe-n-kjpaw_psl.1.0.0.UPF
     MD5 check sum: 2e24a0b5bf98a4ed1a57fa81bca8c143
     Pseudo is Projector augmented-wave + core cor, Zval = 10.0
     Generated using 'atomic' code by A. Dal Corso  v.7.0
     Shape of augmentation charge: PSQ
     Using radial grid of 1277 points,  6 beta functions with: 
                l(1) =   0
                l(2) =   0
                l(3) =   1
                l(4) =   1
                l(5) =   2
                l(6) =   2
     Q(r) pseudized with 0 coefficients 


     PseudoPot. # 2 for H  read from file:
     /users/kbadger1/espresso/pseudo/pslibrary.1.0.0/pbe/PSEUDOPOTENTIALS/H.pbe-kjpaw_psl.1.0.0.UPF
     MD5 check sum: fe4c6fa958fa6d3815bf5d2419cbf1df
     Pseudo is Projector augmented-wave, Zval =  1.0
     Generated using 'atomic' code by A. Dal Corso  v.7.0
     Shape of augmentation charge: PSQ
     Using radial grid of  929 points,  2 beta functions with: 
                l(1) =   0
                l(2) =   0
     Q(r) pseudized with 0 coefficients 


     atomic species   valence    mass     pseudopotential
        Pt            10.00   195.08400     Pt( 1.00)
        H              1.00     1.00800     H ( 1.00)

     No symmetry found



   Cartesian axes

     site n.     atom                  positions (alat units)
         1           Pt  tau(   1) = (   0.0000000   0.0000000   1.0037422  )
         2           Pt  tau(   2) = (   0.3340014   0.0000000   1.0037422  )
         3           Pt  tau(   3) = (   0.6680027   0.0000000   1.0037422  )
         4           Pt  tau(   4) = (   0.1670007   0.2892537   1.0037422  )
         5           Pt  tau(   5) = (   0.5010021   0.2892537   1.0037422  )
         6           Pt  tau(   6) = (   0.8350034   0.2892537   1.0037422  )
         7           Pt  tau(   7) = (   0.3340014   0.5785073   1.0037422  )
         8           Pt  tau(   8) = (   0.6680027   0.5785073   1.0037422  )
         9           Pt  tau(   9) = (   1.0020041   0.5785073   1.0037422  )
        10           Pt  tau(  10) = (   0.1670007   0.0964179   1.2764532  )
        11           Pt  tau(  11) = (   0.5010021   0.0964179   1.2764532  )
        12           Pt  tau(  12) = (   0.8350034   0.0964179   1.2764532  )
        13           Pt  tau(  13) = (   0.3340014   0.3856716   1.2764532  )
        14           Pt  tau(  14) = (   0.6680027   0.3856716   1.2764532  )
        15           Pt  tau(  15) = (   1.0020041   0.3856716   1.2764532  )
        16           Pt  tau(  16) = (   0.5010021   0.6749252   1.2764532  )
        17           Pt  tau(  17) = (   0.8350034   0.6749252   1.2764532  )
        18           Pt  tau(  18) = (   1.1690048   0.6749252   1.2764532  )
        19           Pt  tau(  19) = (   0.0055051   0.1929359   1.5506306  )
        20           Pt  tau(  20) = (   0.3365590   0.1913266   1.5479653  )
        21           Pt  tau(  21) = (   0.6697635   0.1917994   1.5472692  )
        22           Pt  tau(  22) = (   0.1698348   0.4790152   1.5476448  )
        23           Pt  tau(  23) = (   0.5029570   0.4792645   1.5469176  )
        24           Pt  tau(  24) = (   0.8365951   0.4796917   1.5459985  )
        25           Pt  tau(  25) = (   0.3369019   0.7692470   1.5460989  )
        26           Pt  tau(  26) = (   0.6697001   0.7683418   1.5463995  )
        27           Pt  tau(  27) = (   1.0035797   0.7680138   1.5460307  )
        28           Pt  tau(  28) = (   0.0051809  -0.0048443   1.8217279  )
        29           Pt  tau(  29) = (   0.3392833  -0.0076572   1.8206188  )
        30           Pt  tau(  30) = (   0.6721598  -0.0046065   1.8218537  )
        31           Pt  tau(  31) = (   0.1728753   0.2826211   1.8336651  )
        32           Pt  tau(  32) = (   0.5072978   0.2833228   1.8262294  )
        33           Pt  tau(  33) = (   0.8383382   0.2840682   1.8221300  )
        34           Pt  tau(  34) = (   0.3387595   0.5754094   1.8205360  )
        35           Pt  tau(  35) = (   0.6721702   0.5723969   1.8212233  )
        36           Pt  tau(  36) = (   1.0055801   0.5725537   1.8213987  )
        37           H   tau(  37) = (   0.2898722   0.2897555   1.9818831  )

     number of k points=    13  Marzari-Vanderbilt smearing, width (Ry)=  0.0200
                       cart. coord. in units 2pi/alat
        k(    1) = (   0.0000000   0.0000000   0.0000000), wk =   0.0800000
        k(    2) = (   0.0000000   0.2309401   0.0000000), wk =   0.1600000
        k(    3) = (   0.0000000   0.4618802   0.0000000), wk =   0.1600000
        k(    4) = (   0.2000000  -0.1154701   0.0000000), wk =   0.1600000
        k(    5) = (   0.2000000   0.1154701   0.0000000), wk =   0.1600000
        k(    6) = (   0.2000000   0.3464102   0.0000000), wk =   0.1600000
        k(    7) = (   0.2000000  -0.5773503   0.0000000), wk =   0.1600000
        k(    8) = (   0.2000000  -0.3464102   0.0000000), wk =   0.1600000
        k(    9) = (   0.4000000  -0.2309401   0.0000000), wk =   0.1600000
        k(   10) = (   0.4000000   0.0000000   0.0000000), wk =   0.1600000
        k(   11) = (   0.4000000   0.2309401   0.0000000), wk =   0.1600000
        k(   12) = (   0.4000000  -0.6928203   0.0000000), wk =   0.1600000
        k(   13) = (   0.4000000  -0.4618802   0.0000000), wk =   0.1600000

     Dense  grid:  1467143 G-vectors     FFT dimensions: ( 108, 108, 320)

     Smooth grid:   357639 G-vectors     FFT dimensions: (  72,  72, 192)

     Estimated max dynamical RAM per process >     211.30 MB

     Estimated total dynamical RAM >       9.90 GB

     Initial potential from superposition of free atoms

     starting charge     360.9939, renormalised to     361.0000

     negative rho (up, down):  3.616E-03 0.000E+00


     %%%%%%%%%%%%%%%%%%%%%%%%%%%%%%%%%%%%%%%%%%%%%%%%%%%%%%%%%%%%%%%%%%%%%%%%
     %                                                                      %
     % You are using vdW-DF, which was implemented by the Thonhauser group. %
     % Please cite the following two papers that made this development      %
     % possible and the two reviews that describe the various versions:     %
     %                                                                      %
     %   T. Thonhauser et al., PRL 115, 136402 (2015).                      %
     %   T. Thonhauser et al., PRB 76, 125112 (2007).                       %
     %   K. Berland et al., Rep. Prog. Phys. 78, 066501 (2015).             %
     %   D.C. Langreth et al., J. Phys.: Condens. Matter 21, 084203 (2009). %
     %                                                                      %
     % If you are calculating stress with vdW-DF, please also cite:         %
     %                                                                      %
     %   R. Sabatini et al., J. Phys.: Condens. Matter 24, 424209 (2012).   %
     %                                                                      %
     %%%%%%%%%%%%%%%%%%%%%%%%%%%%%%%%%%%%%%%%%%%%%%%%%%%%%%%%%%%%%%%%%%%%%%%%

     %%%%%%%%%%%%%%%%%%%%%%%%%%%%%%%%%%%%%%%%%%%%%%%%%%%%%%%%%%%%%%%%%%%%%%%%
     %                                                                      %
     %  vdW-DF NEWS:                                                        %
     %                                                                      %
     %  * vdW-DF3 is now available. DOI: 10.1021/acs.jctc.0c00471           %
     %    use with input_dft = 'vdW-DF3-opt1' or 'vdW-DF3-opt2'             %
     %                                                                      %
     %  * Unscreened and range-separated hybrid vdW-DF-cx functionals       %
     %    DOI: 10.1063/1.4986522 and 10.1088/1361-648X/ac2ad2               %
     %    use with input_dft = 'vdW-DF-cx0'    and 'vdW-DF-ahcx'            %
     %  * Unscreened and range-separated hybrid vdW-DF2-b86r functionals    %
     %    DOI: 10.1063/1.4986522 and DOI: 10.1103/PhysRevX.12.041003        %
     %    use with input_dft = 'vdW-DF2-br0' and 'vdW-DF2-ahbr'             %
     %                                                                      %
     %%%%%%%%%%%%%%%%%%%%%%%%%%%%%%%%%%%%%%%%%%%%%%%%%%%%%%%%%%%%%%%%%%%%%%%%


     Starting wfcs are  325 randomized atomic wfcs
     Checking if some PAW data can be deallocated... 

     total cpu time spent up to now is       23.3 secs

     per-process dynamical memory:   208.8 Mb

     Self-consistent Calculation

     iteration #  1     ecut=    40.00 Ry     beta= 0.70
     Davidson diagonalization with overlap
     ethr =  1.00E-02,  avg # of iterations =  2.0

     Threshold (ethr) on eigenvalues was too large:
     Diagonalizing with lowered threshold

     Davidson diagonalization with overlap
     ethr =  3.83E-04,  avg # of iterations =  3.8

     negative rho (up, down):  1.803E-02 0.000E+00

     total cpu time spent up to now is       65.5 secs

     total energy              =  -27755.28264131 Ry
     estimated scf accuracy    <       1.58641221 Ry

     iteration #  2     ecut=    40.00 Ry     beta= 0.70
     Davidson diagonalization with overlap
     ethr =  4.39E-04,  avg # of iterations =  2.0

     negative rho (up, down):  1.625E-02 0.000E+00

     total cpu time spent up to now is       90.1 secs

     total energy              =  -27755.38328154 Ry
     estimated scf accuracy    <       0.80470605 Ry

     iteration #  3     ecut=    40.00 Ry     beta= 0.70
     Davidson diagonalization with overlap
     ethr =  2.23E-04,  avg # of iterations =  2.0

     negative rho (up, down):  1.093E-02 0.000E+00

     total cpu time spent up to now is      115.3 secs

     total energy              =  -27755.43628456 Ry
     estimated scf accuracy    <       0.09665326 Ry

     iteration #  4     ecut=    40.00 Ry     beta= 0.70
     Davidson diagonalization with overlap
     c_bands:  2 eigenvalues not converged
     c_bands:  1 eigenvalues not converged
     c_bands:  1 eigenvalues not converged
     c_bands:  1 eigenvalues not converged
     c_bands:  1 eigenvalues not converged
     c_bands:  1 eigenvalues not converged
     c_bands:  1 eigenvalues not converged
     ethr =  2.68E-05,  avg # of iterations = 16.6

     negative rho (up, down):  8.215E-03 0.000E+00

     total cpu time spent up to now is      172.1 secs

     total energy              =  -27755.48599898 Ry
     estimated scf accuracy    <       0.08479696 Ry

     iteration #  5     ecut=    40.00 Ry     beta= 0.70
     Davidson diagonalization with overlap
     ethr =  2.35E-05,  avg # of iterations =  2.8

     negative rho (up, down):  4.009E-03 0.000E+00

     total cpu time spent up to now is      185.5 secs

     total energy              =  -27755.48596719 Ry
     estimated scf accuracy    <       0.02944746 Ry

     iteration #  6     ecut=    40.00 Ry     beta= 0.70
     Davidson diagonalization with overlap
     ethr =  8.16E-06,  avg # of iterations =  6.2

     negative rho (up, down):  2.086E-03 0.000E+00

     total cpu time spent up to now is      211.8 secs

     total energy              =  -27755.48812146 Ry
     estimated scf accuracy    <       0.00243285 Ry

     iteration #  7     ecut=    40.00 Ry     beta= 0.70
     Davidson diagonalization with overlap
     ethr =  6.74E-07,  avg # of iterations = 11.2

     negative rho (up, down):  1.625E-03 0.000E+00

     total cpu time spent up to now is      263.5 secs

     total energy              =  -27755.48869441 Ry
     estimated scf accuracy    <       0.00196773 Ry

     iteration #  8     ecut=    40.00 Ry     beta= 0.70
     Davidson diagonalization with overlap
     ethr =  5.45E-07,  avg # of iterations =  2.0

     negative rho (up, down):  1.381E-03 0.000E+00

     total cpu time spent up to now is      275.8 secs

     total energy              =  -27755.48884254 Ry
     estimated scf accuracy    <       0.00020511 Ry

     iteration #  9     ecut=    40.00 Ry     beta= 0.70
     Davidson diagonalization with overlap
     ethr =  5.68E-08,  avg # of iterations =  5.5

     negative rho (up, down):  1.040E-03 0.000E+00

     total cpu time spent up to now is      325.6 secs

     total energy              =  -27755.48896494 Ry
     estimated scf accuracy    <       0.00008811 Ry

     iteration # 10     ecut=    40.00 Ry     beta= 0.70
     Davidson diagonalization with overlap
     ethr =  2.44E-08,  avg # of iterations =  5.2

     negative rho (up, down):  9.869E-04 0.000E+00

     total cpu time spent up to now is      359.9 secs

     total energy              =  -27755.48898207 Ry
     estimated scf accuracy    <       0.00008821 Ry

     iteration # 11     ecut=    40.00 Ry     beta= 0.70
     Davidson diagonalization with overlap
     ethr =  2.44E-08,  avg # of iterations =  1.2

     negative rho (up, down):  1.055E-03 0.000E+00

     total cpu time spent up to now is      384.7 secs

     total energy              =  -27755.48898652 Ry
     estimated scf accuracy    <       0.00005158 Ry

     iteration # 12     ecut=    40.00 Ry     beta= 0.70
     Davidson diagonalization with overlap
     ethr =  1.43E-08,  avg # of iterations =  1.3

     negative rho (up, down):  1.251E-03 0.000E+00

     total cpu time spent up to now is      396.4 secs

     total energy              =  -27755.48899007 Ry
     estimated scf accuracy    <       0.00002278 Ry

     iteration # 13     ecut=    40.00 Ry     beta= 0.70
     Davidson diagonalization with overlap
     ethr =  6.31E-09,  avg # of iterations =  2.0

     negative rho (up, down):  1.709E-03 0.000E+00

     total cpu time spent up to now is      421.9 secs

     total energy              =  -27755.48899308 Ry
     estimated scf accuracy    <       0.00001363 Ry

     iteration # 14     ecut=    40.00 Ry     beta= 0.70
     Davidson diagonalization with overlap
     ethr =  3.77E-09,  avg # of iterations =  2.0

     negative rho (up, down):  2.077E-03 0.000E+00

     total cpu time spent up to now is      447.7 secs

     total energy              =  -27755.48899747 Ry
     estimated scf accuracy    <       0.00000760 Ry

     iteration # 15     ecut=    40.00 Ry     beta= 0.70
     Davidson diagonalization with overlap
     ethr =  2.11E-09,  avg # of iterations =  2.0

     negative rho (up, down):  2.940E-03 0.000E+00

     total cpu time spent up to now is      472.4 secs

     total energy              =  -27755.48899427 Ry
     estimated scf accuracy    <       0.00000713 Ry

     iteration # 16     ecut=    40.00 Ry     beta= 0.70
     Davidson diagonalization with overlap
     ethr =  1.97E-09,  avg # of iterations =  1.5

     negative rho (up, down):  3.411E-03 0.000E+00

     total cpu time spent up to now is      484.1 secs

     End of self-consistent calculation

          k = 0.0000 0.0000 0.0000 ( 44645 PWs)   bands (ev):

    -6.6416  -5.4028  -4.4607  -4.2396  -4.2277  -4.2069  -4.2021  -4.1979
    -4.1909  -4.1788  -3.8010  -3.6646  -3.6624  -3.6529  -3.6435  -3.6423
    -3.5014  -3.1945  -3.1874  -3.1854  -3.1819  -3.1808  -3.0903  -2.9767
    -2.9699  -2.9683  -2.9636  -2.9578  -2.8468  -2.7525  -2.7490  -2.7431
    -2.7413  -2.7338  -2.7200  -2.7091  -2.6990  -2.6955  -2.6745  -2.6587
    -2.4593  -2.1220  -2.1211  -2.0894  -2.0801  -2.0584  -2.0451  -2.0401
    -2.0272  -2.0260  -1.9197  -1.8819  -1.8670  -1.7870  -1.7423  -1.3381
    -1.3171  -1.3091  -1.3071  -1.2931  -1.2556  -1.2433  -1.1204  -1.1143
    -1.1141  -1.1006  -1.0949  -1.0907  -1.0837  -1.0655  -1.0475  -1.0451
    -1.0415  -1.0298  -1.0034  -0.9946  -0.9852  -0.9072  -0.8970  -0.8907
    -0.8782  -0.8706  -0.8427  -0.6956  -0.6669  -0.6602  -0.6570  -0.6466
    -0.6353  -0.6256  -0.6157  -0.5582  -0.5377  -0.5081  -0.4911  -0.4590
    -0.4577  -0.4199  -0.4181  -0.4018  -0.3535  -0.2742  -0.2646  -0.2472
    -0.2440  -0.2342  -0.2192   0.0455   0.2393   0.2522   0.2633   0.2691
     0.2769   0.2808   0.2928   0.3120   0.3194   0.3247   0.3381   0.3750
     0.3947   0.4459   0.5407   0.5518   0.5627   0.5639   0.5774   0.6555
     0.6714   0.7071   0.7278   0.7323   0.7740   0.9143   0.9790   0.9978
     1.0076   1.0151   1.0240   1.0501   1.0833   1.0921   1.2295   1.2367
     1.2469   1.2487   1.2573   1.3157   1.4116   1.4152   1.4289   1.4357
     1.4391   1.4439   1.4577   1.4608   1.4644   1.4653   1.4686   1.5433
     1.5768   1.5816   1.5987   1.6051   1.6196   1.6243   1.6383   1.6849
     1.6922   1.7172   1.7212   1.7292   1.7333   1.7411   1.7433   1.8152
     1.8240   1.8316   1.8349   1.8408   1.8451   1.8505   1.9054   1.9285
     1.9363   1.9409   1.9537   1.9642   2.1258   2.1650   2.2321   2.2424
     2.2582   2.2639   2.2706   2.2724   2.6914   3.0806   3.1154   3.1442
     3.1509   3.1614   3.1647   4.8836   5.4141   5.4391   5.4602   5.4877
     5.4977   6.7251   7.0587   7.0863   7.1072   7.1193   7.1322   7.1680
     7.2936

          k = 0.0000 0.2309 0.0000 ( 44694 PWs)   bands (ev):

    -6.4941  -5.2628  -4.7397  -4.3629  -4.3139  -4.2788  -4.0965  -4.0254
    -3.9671  -3.9620  -3.8612  -3.7461  -3.6256  -3.5950  -3.5878  -3.5705
    -3.4660  -3.2784  -3.1563  -3.1490  -3.1413  -3.0766  -3.0644  -3.0375
    -3.0107  -2.9976  -2.9784  -2.9567  -2.8685  -2.8559  -2.8413  -2.7733
    -2.7588  -2.7309  -2.7261  -2.5823  -2.5360  -2.5297  -2.5181  -2.4940
    -2.4240  -2.2417  -2.2294  -2.2136  -2.1565  -2.1486  -2.1213  -2.0475
    -1.9442  -1.8983  -1.8720  -1.8505  -1.8202  -1.7872  -1.7461  -1.5634
    -1.4766  -1.4657  -1.4135  -1.3881  -1.3744  -1.3263  -1.3147  -1.2863
    -1.2708  -1.2515  -1.2280  -1.1891  -1.1468  -1.1197  -1.0923  -1.0782
    -1.0432  -1.0115  -1.0067  -0.9206  -0.9064  -0.8877  -0.8721  -0.8205
    -0.8122  -0.7956  -0.7914  -0.7081  -0.7050  -0.6936  -0.6764  -0.6674
    -0.6358  -0.6247  -0.5933  -0.5573  -0.5335  -0.5210  -0.5106  -0.4887
    -0.4831  -0.4432  -0.4340  -0.4145  -0.3424  -0.2785  -0.2677  -0.2566
    -0.2482  -0.2395  -0.2223  -0.2097  -0.1710  -0.1562  -0.1547  -0.1302
     0.0823   0.1671   0.2030   0.2445   0.2550   0.2756   0.2884   0.3099
     0.3249   0.3623   0.4610   0.4823   0.5341   0.5898   0.6148   0.6423
     0.6682   0.6876   0.7241   0.7405   0.7485   0.8441   0.8519   0.8725
     0.8812   0.8912   0.9650   1.0647   1.0830   1.1050   1.1131   1.1332
     1.1483   1.1877   1.2289   1.2536   1.2783   1.2899   1.3282   1.3565
     1.3667   1.3731   1.4232   1.4721   1.4951   1.5168   1.5557   1.6016
     1.6405   1.6473   1.6548   1.6748   1.6918   1.7253   1.7823   1.8040
     1.8336   1.8567   1.8707   1.8850   1.9107   1.9180   1.9254   1.9313
     1.9395   1.9823   1.9895   2.1218   2.1261   2.1569   2.1889   2.1942
     2.2082   2.2276   2.2591   2.2770   2.2858   2.3557   2.3879   2.4050
     2.4343   2.5691   2.5809   2.5829   2.6128   2.9428   3.0138   3.4768
     3.7218   3.7502   3.8787   4.5639   5.0684   5.1814   5.7342   5.9309
     5.9446   6.0175   6.2056   6.6370   6.8900   6.9663   7.2753   7.2827
     7.3072

          k = 0.0000 0.4619 0.0000 ( 44748 PWs)   bands (ev):

    -6.0703  -5.4369  -4.8732  -4.3909  -4.3429  -4.3225  -4.0410  -3.9130
    -3.8353  -3.7115  -3.6222  -3.6201  -3.5452  -3.4634  -3.4346  -3.4107
    -3.3989  -3.3828  -3.2623  -3.2331  -3.2227  -3.1921  -3.1795  -3.1497
    -3.0876  -3.0518  -3.0483  -2.8285  -2.7925  -2.7849  -2.7809  -2.7644
    -2.7516  -2.6629  -2.5345  -2.5214  -2.5101  -2.4995  -2.4743  -2.4120
    -2.3105  -2.2070  -2.2026  -2.1842  -2.1779  -2.1227  -2.0994  -2.0512
    -2.0456  -2.0257  -1.9789  -1.9466  -1.8308  -1.8100  -1.7966  -1.7662
    -1.6761  -1.6363  -1.6050  -1.5936  -1.5528  -1.4580  -1.4093  -1.3895
    -1.3853  -1.3631  -1.2920  -1.2746  -1.2689  -1.1716  -1.1652  -1.1469
    -1.1161  -1.0307  -1.0139  -1.0037  -0.9832  -0.9722  -0.9438  -0.8952
    -0.8884  -0.8763  -0.8697  -0.8622  -0.8575  -0.8283  -0.7854  -0.7185
    -0.7158  -0.7067  -0.6966  -0.6778  -0.6701  -0.6164  -0.5345  -0.5265
    -0.5006  -0.4687  -0.4361  -0.4309  -0.4214  -0.4094  -0.2989  -0.2637
    -0.2379  -0.2295  -0.1838  -0.1591  -0.1336  -0.0039   0.0227   0.0422
     0.0985   0.1431   0.1776   0.1956   0.2084   0.2203   0.2323   0.2479
     0.3016   0.3179   0.3264   0.3461   0.3507   0.3750   0.3838   0.4109
     0.4534   0.5295   0.5519   0.5690   0.6368   0.6624   0.7533   0.7639
     0.8306   0.8714   0.8941   0.9697   1.0231   1.0379   1.0700   1.0943
     1.1329   1.1425   1.1603   1.2013   1.2332   1.2495   1.2834   1.3215
     1.3643   1.3929   1.4144   1.4204   1.4388   1.4707   1.5375   1.6004
     1.6470   1.6903   1.7088   1.7203   1.7525   1.8083   1.8298   1.8548
     1.9056   1.9118   1.9176   1.9829   1.9918   2.0077   2.0329   2.1167
     2.1467   2.1622   2.1706   2.1833   2.1945   2.2191   2.2267   2.3952
     2.4083   2.4330   2.4388   2.4518   2.6143   2.6548   2.8755   3.0230
     3.0795   3.2094   3.4848   3.4912   3.7824   3.8782   3.9328   4.2226
     4.4608   4.7112   4.7159   4.7507   4.8946   4.9418   5.0528   5.0855
     5.3232   5.3681   5.7726   6.0024   6.3450   6.5192   6.8112   6.9831
     7.3103

          k = 0.2000-0.1155 0.0000 ( 44694 PWs)   bands (ev):

    -6.4935  -5.2598  -4.7210  -4.3880  -4.3139  -4.2657  -4.0953  -4.0096
    -3.9803  -3.9669  -3.8265  -3.7505  -3.6933  -3.5865  -3.5781  -3.5732
    -3.4153  -3.2868  -3.1582  -3.1493  -3.1457  -3.1209  -3.0654  -3.0438
    -3.0103  -2.9756  -2.9604  -2.9400  -2.9006  -2.8635  -2.8521  -2.7668
    -2.7591  -2.7465  -2.7321  -2.5981  -2.5350  -2.5244  -2.5153  -2.4900
    -2.4176  -2.2425  -2.2388  -2.2017  -2.1566  -2.1418  -2.1263  -2.0462
    -1.9509  -1.9178  -1.8601  -1.8425  -1.8157  -1.7916  -1.7484  -1.5797
    -1.4820  -1.4709  -1.4300  -1.4133  -1.3673  -1.3440  -1.2900  -1.2762
    -1.2615  -1.2515  -1.2215  -1.1884  -1.1495  -1.1146  -1.1037  -1.0651
    -1.0076  -0.9888  -0.9801  -0.9250  -0.9173  -0.8811  -0.8718  -0.8502
    -0.8414  -0.8276  -0.7668  -0.7200  -0.6959  -0.6880  -0.6774  -0.6730
    -0.6449  -0.6233  -0.5893  -0.5514  -0.5311  -0.5191  -0.5081  -0.4897
    -0.4694  -0.4355  -0.4301  -0.4119  -0.3406  -0.2786  -0.2560  -0.2469
    -0.2339  -0.2274  -0.2191  -0.2065  -0.1710  -0.1574  -0.1425  -0.1305
     0.0157   0.1708   0.2073   0.2446   0.2669   0.2779   0.2835   0.3029
     0.3262   0.3990   0.4736   0.4910   0.5304   0.6007   0.6206   0.6279
     0.6794   0.6967   0.7238   0.7432   0.7602   0.8297   0.8488   0.8724
     0.8815   0.8889   0.9370   1.0862   1.0986   1.1051   1.1203   1.1310
     1.1462   1.1842   1.2271   1.2580   1.2708   1.2902   1.3053   1.3547
     1.3677   1.3811   1.4156   1.4778   1.4894   1.5092   1.5435   1.6202
     1.6418   1.6530   1.6687   1.6801   1.7029   1.7229   1.7833   1.8035
     1.8411   1.8605   1.8692   1.8799   1.9071   1.9161   1.9249   1.9317
     1.9344   1.9940   2.0050   2.1194   2.1453   2.1601   2.1717   2.1825
     2.1902   2.2138   2.2347   2.2518   2.2835   2.3461   2.3901   2.4089
     2.4445   2.5593   2.5762   2.5876   2.6189   2.9099   3.0013   3.4807
     3.7424   3.7572   3.8745   4.6094   5.0036   5.1675   5.7417   5.9352
     5.9390   6.0211   6.2576   6.6438   6.8965   6.9832   7.2518   7.2841
     7.2989

          k = 0.2000 0.1155 0.0000 ( 44694 PWs)   bands (ev):

    -6.4936  -5.2597  -4.7220  -4.3991  -4.3133  -4.2542  -4.0957  -4.0142
    -3.9846  -3.9600  -3.8238  -3.7507  -3.6862  -3.5947  -3.5838  -3.5720
    -3.4234  -3.2672  -3.1595  -3.1511  -3.1420  -3.1283  -3.0642  -3.0397
    -3.0107  -2.9771  -2.9598  -2.9403  -2.9193  -2.8644  -2.8417  -2.7762
    -2.7624  -2.7455  -2.7271  -2.6070  -2.5382  -2.5253  -2.5072  -2.4901
    -2.4101  -2.2425  -2.2333  -2.1785  -2.1625  -2.1330  -2.1251  -2.0448
    -1.9378  -1.9224  -1.8694  -1.8520  -1.8097  -1.7890  -1.7639  -1.5653
    -1.4778  -1.4736  -1.4194  -1.3962  -1.3664  -1.3266  -1.3043  -1.2922
    -1.2741  -1.2545  -1.2039  -1.1900  -1.1418  -1.1169  -1.1029  -1.0743
    -1.0284  -1.0080  -0.9981  -0.9245  -0.9169  -0.8935  -0.8661  -0.8329
    -0.8268  -0.7937  -0.7795  -0.7196  -0.7088  -0.6934  -0.6856  -0.6698
    -0.6462  -0.6177  -0.5890  -0.5532  -0.5335  -0.5181  -0.5055  -0.4919
    -0.4575  -0.4513  -0.4293  -0.4154  -0.3393  -0.2789  -0.2520  -0.2500
    -0.2364  -0.2344  -0.2236  -0.2051  -0.1677  -0.1579  -0.1415  -0.1286
     0.0782   0.1634   0.1946   0.2392   0.2569   0.2752   0.2814   0.3172
     0.3224   0.4179   0.4693   0.4847   0.5159   0.5951   0.6179   0.6371
     0.6687   0.6907   0.7192   0.7398   0.7574   0.7994   0.8458   0.8747
     0.8781   0.8919   0.9146   1.0652   1.0977   1.1044   1.1229   1.1320
     1.1485   1.1859   1.2321   1.2637   1.2793   1.2892   1.3385   1.3567
     1.3701   1.3777   1.4326   1.4798   1.4884   1.5134   1.5437   1.6123
     1.6512   1.6550   1.6598   1.6746   1.6858   1.7250   1.7850   1.8003
     1.8209   1.8595   1.8696   1.8781   1.9060   1.9199   1.9261   1.9295
     1.9364   1.9835   1.9931   2.1099   2.1401   2.1621   2.1833   2.1879
     2.2033   2.2251   2.2566   2.2716   2.2840   2.3612   2.3898   2.4072
     2.4243   2.5686   2.5769   2.5860   2.6086   2.9396   3.0163   3.4637
     3.7374   3.7517   3.8725   4.5989   4.9970   5.1803   5.7502   5.9334
     5.9376   6.0257   6.2576   6.6313   6.8946   6.9859   7.2523   7.2858
     7.3015

          k = 0.2000 0.3464 0.0000 ( 44714 PWs)   bands (ev):

    -6.2073  -5.0289  -4.9640  -4.9494  -4.2142  -3.8960  -3.8899  -3.8791
    -3.8600  -3.8301  -3.8077  -3.7926  -3.7105  -3.7011  -3.4607  -3.3283
    -3.3158  -3.2996  -3.2823  -3.2356  -3.1938  -3.0715  -3.0607  -3.0589
    -3.0470  -2.9812  -2.9372  -2.9040  -2.8990  -2.8947  -2.8369  -2.8125
    -2.8003  -2.7496  -2.7369  -2.6639  -2.5532  -2.3970  -2.3158  -2.2972
    -2.2651  -2.2541  -2.2494  -2.2386  -2.1811  -2.1631  -2.1048  -2.0127
    -2.0089  -1.9694  -1.8938  -1.8771  -1.8301  -1.8219  -1.7911  -1.7332
    -1.7092  -1.5645  -1.5346  -1.5276  -1.4555  -1.4418  -1.4196  -1.4141
    -1.3885  -1.3424  -1.3234  -1.2123  -1.2010  -1.1857  -1.1714  -1.1244
    -1.1182  -1.0528  -1.0429  -1.0172  -0.9795  -0.9059  -0.8818  -0.8628
    -0.8486  -0.8402  -0.8267  -0.8088  -0.7853  -0.7635  -0.7484  -0.7276
    -0.6997  -0.6766  -0.5989  -0.5811  -0.5638  -0.5346  -0.5205  -0.5006
    -0.4831  -0.4578  -0.4367  -0.4242  -0.4197  -0.4057  -0.3945  -0.3836
    -0.3437  -0.3211  -0.2455  -0.2238  -0.1736  -0.1244  -0.1024  -0.0932
    -0.0753   0.0582   0.1183   0.1365   0.2130   0.2388   0.2756   0.2879
     0.3143   0.3361   0.3454   0.3896   0.3956   0.4199   0.4402   0.5213
     0.5559   0.6060   0.6730   0.6870   0.7271   0.7349   0.7588   0.8056
     0.8434   0.9216   0.9272   0.9532   1.0089   1.0223   1.0565   1.1289
     1.1493   1.1566   1.1955   1.2136   1.2306   1.2454   1.2536   1.2650
     1.2796   1.2845   1.3029   1.3947   1.4450   1.4948   1.6025   1.6175
     1.6404   1.7448   1.7894   1.8109   1.8143   1.8473   1.9121   1.9423
     1.9530   1.9691   1.9798   1.9973   2.0122   2.0148   2.0238   2.0587
     2.0771   2.1181   2.1610   2.1921   2.2017   2.2387   2.2504   2.2815
     2.4242   2.4470   2.4887   2.4953   2.5537   2.5589   2.5711   2.6726
     2.7138   2.9862   3.2306   3.2418   3.6310   3.7830   3.7890   3.8047
     4.1676   4.4758   4.4921   4.6900   4.7293   4.7562   5.3656   5.6784
     5.9183   5.9225   6.1145   6.2831   6.6257   6.6764   6.6944   6.7242
     6.7433

          k = 0.2000-0.5774 0.0000 ( 44692 PWs)   bands (ev):

    -5.6745  -5.6688  -5.0535  -4.6009  -4.4333  -4.0172  -3.8976  -3.7748
    -3.7405  -3.6964  -3.6044  -3.5862  -3.5012  -3.4877  -3.3978  -3.3823
    -3.3651  -3.3317  -3.3270  -3.3039  -3.2056  -3.1760  -3.1631  -3.1372
    -3.1214  -3.0981  -3.0185  -2.9119  -2.8880  -2.7802  -2.7727  -2.7592
    -2.7438  -2.7169  -2.6626  -2.6323  -2.5791  -2.5187  -2.4574  -2.3350
    -2.3182  -2.2912  -2.1854  -2.1443  -2.1238  -2.0989  -2.0085  -1.9630
    -1.9275  -1.9117  -1.8837  -1.8382  -1.8253  -1.8026  -1.7188  -1.7098
    -1.6957  -1.6780  -1.6660  -1.6571  -1.6206  -1.5889  -1.5562  -1.4791
    -1.4581  -1.4023  -1.3599  -1.3046  -1.2560  -1.2438  -1.2345  -1.1859
    -1.1766  -1.1576  -1.1006  -1.0637  -1.0536  -1.0312  -0.9979  -0.9565
    -0.9415  -0.9155  -0.8504  -0.8257  -0.8095  -0.7946  -0.7427  -0.6850
    -0.6460  -0.6190  -0.6080  -0.5940  -0.5591  -0.5510  -0.5370  -0.5314
    -0.5198  -0.4906  -0.4735  -0.4442  -0.4110  -0.4096  -0.3847  -0.3805
    -0.3692  -0.3638  -0.3388  -0.2957  -0.2794  -0.1488  -0.0731   0.0038
     0.0375   0.0439   0.1303   0.1450   0.1704   0.1898   0.2129   0.2347
     0.2530   0.2677   0.3060   0.3668   0.3854   0.4036   0.4400   0.4611
     0.5127   0.5247   0.5585   0.6441   0.7376   0.7836   0.7967   0.8193
     0.8463   0.8891   0.9105   0.9241   0.9478   0.9500   0.9821   0.9871
     1.0585   1.1107   1.1219   1.1583   1.1719   1.1947   1.2033   1.2188
     1.2296   1.3733   1.4015   1.4404   1.4934   1.5618   1.6305   1.6456
     1.6931   1.7281   1.7638   1.7799   1.8176   1.8727   1.9283   1.9553
     1.9638   1.9890   1.9962   2.0134   2.0496   2.0859   2.1490   2.1607
     2.1703   2.1788   2.2103   2.2119   2.2220   2.2861   2.3993   2.4191
     2.4320   2.4404   2.4535   2.5010   2.5345   2.6257   2.7257   3.3921
     3.6015   3.6075   3.7786   3.8410   3.9734   3.9820   3.9882   4.3033
     4.5774   4.6201   4.8369   5.0552   5.0824   5.1434   5.2161   5.3490
     5.4446   5.5210   5.5790   5.8345   5.9696   6.0478   6.4121   6.6519
     6.6936

          k = 0.2000-0.3464 0.0000 ( 44714 PWs)   bands (ev):

    -6.2070  -5.0290  -4.9620  -4.9504  -4.2086  -3.8945  -3.8836  -3.8789
    -3.8571  -3.8294  -3.8144  -3.8022  -3.7122  -3.6995  -3.4630  -3.3161
    -3.3058  -3.3021  -3.2932  -3.2145  -3.2048  -3.0729  -3.0638  -3.0591
    -3.0475  -2.9851  -2.9485  -2.9080  -2.9032  -2.8936  -2.8402  -2.8149
    -2.7885  -2.7545  -2.7348  -2.6480  -2.5221  -2.3903  -2.3163  -2.3036
    -2.2779  -2.2636  -2.2473  -2.2384  -2.2126  -2.1782  -2.1373  -2.0155
    -2.0059  -1.9394  -1.9026  -1.8687  -1.8272  -1.8203  -1.7818  -1.7324
    -1.7195  -1.5746  -1.5393  -1.5359  -1.4723  -1.4355  -1.4278  -1.4095
    -1.3849  -1.3471  -1.3300  -1.2092  -1.1916  -1.1712  -1.1582  -1.1220
    -1.0995  -1.0679  -1.0493  -1.0264  -0.9728  -0.9067  -0.8845  -0.8673
    -0.8479  -0.8370  -0.8333  -0.7994  -0.7820  -0.7647  -0.7442  -0.7150
    -0.6909  -0.6781  -0.5940  -0.5817  -0.5565  -0.5342  -0.5095  -0.4958
    -0.4822  -0.4568  -0.4448  -0.4272  -0.4230  -0.4075  -0.4043  -0.3826
    -0.3419  -0.3201  -0.2635  -0.2209  -0.1726  -0.1501  -0.0954  -0.0864
    -0.0738   0.0686   0.1153   0.1266   0.2342   0.2440   0.2827   0.2972
     0.3087   0.3281   0.3643   0.3792   0.3991   0.4131   0.4390   0.4964
     0.5842   0.6244   0.6695   0.6988   0.7188   0.7424   0.7638   0.8104
     0.8596   0.9080   0.9395   0.9790   1.0015   1.0236   1.0652   1.1156
     1.1319   1.1516   1.1804   1.2173   1.2334   1.2423   1.2533   1.2653
     1.2760   1.2798   1.2971   1.3668   1.4735   1.4879   1.5769   1.6284
     1.6506   1.7397   1.7979   1.8053   1.8159   1.8849   1.9175   1.9318
     1.9505   1.9632   1.9855   2.0055   2.0121   2.0214   2.0312   2.0610
     2.0753   2.0978   2.1713   2.1850   2.2206   2.2397   2.2480   2.2882
     2.3619   2.4321   2.4756   2.4870   2.5415   2.5604   2.5698   2.6832
     2.7155   3.0062   3.2392   3.2525   3.6133   3.7730   3.7821   3.7981
     4.1751   4.4790   4.4953   4.6962   4.7280   4.7554   5.3756   5.6726
     5.9075   5.9186   6.1102   6.2728   6.6252   6.6776   6.6993   6.7274
     6.7412

          k = 0.4000-0.2309 0.0000 ( 44748 PWs)   bands (ev):

    -6.0675  -5.4273  -4.8635  -4.4006  -4.3444  -4.2918  -4.0229  -3.9299
    -3.8314  -3.7106  -3.6356  -3.6250  -3.5685  -3.4577  -3.4148  -3.4048
    -3.3932  -3.3483  -3.2541  -3.2368  -3.2201  -3.1834  -3.1663  -3.1591
    -3.0797  -3.0589  -3.0520  -2.9920  -2.7918  -2.7901  -2.7805  -2.7775
    -2.7664  -2.6917  -2.5389  -2.5346  -2.5182  -2.4944  -2.4782  -2.4089
    -2.2808  -2.2061  -2.1939  -2.1878  -2.1688  -2.1325  -2.0828  -2.0748
    -2.0397  -2.0257  -1.9863  -1.9265  -1.8327  -1.8234  -1.8039  -1.7653
    -1.6864  -1.6681  -1.6232  -1.6014  -1.5801  -1.4590  -1.3968  -1.3837
    -1.3770  -1.3515  -1.2969  -1.2781  -1.2150  -1.1501  -1.1304  -1.1142
    -1.0679  -1.0391  -1.0179  -0.9987  -0.9929  -0.9688  -0.9333  -0.9154
    -0.8936  -0.8910  -0.8798  -0.8583  -0.8388  -0.8310  -0.7813  -0.7355
    -0.7252  -0.7090  -0.7015  -0.6930  -0.6760  -0.5897  -0.5301  -0.5092
    -0.4729  -0.4628  -0.4533  -0.4272  -0.3898  -0.3642  -0.3195  -0.2575
    -0.2370  -0.2284  -0.1820  -0.1472  -0.1224  -0.0050   0.0071   0.0671
     0.1006   0.1388   0.1736   0.1867   0.1965   0.2097   0.2192   0.2442
     0.3009   0.3182   0.3336   0.3447   0.3568   0.3758   0.4036   0.4141
     0.4289   0.5479   0.5740   0.5825   0.6308   0.6553   0.7617   0.7758
     0.8331   0.8763   0.8973   0.9478   1.0172   1.0545   1.0923   1.1138
     1.1234   1.1394   1.1550   1.1949   1.2197   1.2430   1.2794   1.3130
     1.3589   1.3884   1.4132   1.4271   1.4430   1.5026   1.5261   1.6115
     1.6681   1.6912   1.7178   1.7233   1.7472   1.8093   1.8301   1.8594
     1.9052   1.9175   1.9255   1.9711   2.0105   2.0193   2.0346   2.1246
     2.1420   2.1597   2.1724   2.1785   2.1829   2.1921   2.2116   2.3955
     2.3971   2.4042   2.4236   2.4286   2.6145   2.6548   2.8270   3.0077
     3.0956   3.2389   3.4809   3.4952   3.7795   3.8773   3.9474   4.1765
     4.4153   4.7046   4.7185   4.7520   4.9124   4.9629   5.0159   5.0638
     5.3273   5.3674   5.8176   5.9782   6.3658   6.5391   6.7710   6.9981
     7.2829

          k = 0.4000 0.0000 0.0000 ( 44714 PWs)   bands (ev):

    -6.2054  -5.0071  -4.9760  -4.9460  -4.1905  -3.8908  -3.8878  -3.8776
    -3.8619  -3.8316  -3.8283  -3.7945  -3.7090  -3.7040  -3.4847  -3.3113
    -3.3067  -3.2975  -3.2551  -3.2260  -3.1886  -3.0732  -3.0625  -3.0575
    -3.0515  -3.0259  -2.9483  -2.9183  -2.9015  -2.8934  -2.8611  -2.8215
    -2.7897  -2.7661  -2.7425  -2.6519  -2.5907  -2.4011  -2.3126  -2.3013
    -2.2747  -2.2560  -2.2428  -2.2407  -2.1804  -2.1577  -2.0999  -2.0183
    -2.0007  -1.9602  -1.9066  -1.8622  -1.8340  -1.8212  -1.7778  -1.7358
    -1.7234  -1.5716  -1.5589  -1.5353  -1.4768  -1.4402  -1.4276  -1.4120
    -1.3848  -1.3416  -1.3285  -1.2058  -1.1759  -1.1651  -1.1486  -1.1169
    -1.1066  -1.0677  -1.0359  -1.0143  -0.9665  -0.9164  -0.8976  -0.8731
    -0.8575  -0.8410  -0.8160  -0.7974  -0.7838  -0.7630  -0.7396  -0.7105
    -0.6804  -0.6486  -0.5949  -0.5766  -0.5660  -0.5369  -0.5141  -0.4941
    -0.4808  -0.4488  -0.4367  -0.4215  -0.4177  -0.4002  -0.3971  -0.3863
    -0.3562  -0.3143  -0.2301  -0.2037  -0.1834  -0.1657  -0.0913  -0.0828
    -0.0728   0.0612   0.1132   0.1350   0.2378   0.2518   0.2763   0.2908
     0.3061   0.3268   0.3520   0.3793   0.4018   0.4060   0.4456   0.4903
     0.5359   0.6277   0.6698   0.6922   0.7246   0.7423   0.7757   0.8084
     0.8409   0.9113   0.9343   0.9510   1.0082   1.0218   1.0756   1.1272
     1.1487   1.1593   1.1798   1.2097   1.2309   1.2393   1.2517   1.2705
     1.2721   1.2818   1.2983   1.3991   1.4623   1.4963   1.5865   1.6239
     1.6448   1.7338   1.8028   1.8075   1.8121   1.8704   1.9120   1.9266
     1.9546   1.9661   1.9865   2.0006   2.0171   2.0236   2.0354   2.0650
     2.0795   2.0954   2.1746   2.1870   2.2183   2.2385   2.2495   2.2879
     2.3998   2.4360   2.4610   2.4757   2.5451   2.5601   2.5723   2.6978
     2.7160   2.9727   3.2233   3.2567   3.5823   3.7710   3.7877   3.7992
     4.1847   4.4819   4.4935   4.6721   4.7232   4.7569   5.3410   5.6638
     5.9155   5.9218   6.1665   6.3064   6.6282   6.6788   6.7020   6.7321
     6.7414

          k = 0.4000 0.2309 0.0000 ( 44748 PWs)   bands (ev):

    -6.0679  -5.4287  -4.8626  -4.4022  -4.3475  -4.2858  -3.9974  -3.9735
    -3.8299  -3.7120  -3.6410  -3.6201  -3.5623  -3.4611  -3.4203  -3.4056
    -3.3978  -3.3449  -3.2570  -3.2322  -3.2094  -3.1874  -3.1683  -3.1613
    -3.0733  -3.0555  -3.0492  -3.0143  -2.7951  -2.7844  -2.7777  -2.7732
    -2.7614  -2.6962  -2.5420  -2.5281  -2.5128  -2.4936  -2.4801  -2.4096
    -2.2594  -2.2085  -2.1952  -2.1846  -2.1487  -2.1292  -2.0968  -2.0571
    -2.0439  -2.0090  -1.9832  -1.9449  -1.8278  -1.8213  -1.7930  -1.7682
    -1.6802  -1.6414  -1.6096  -1.6032  -1.5555  -1.4583  -1.3986  -1.3926
    -1.3780  -1.3588  -1.2885  -1.2817  -1.2321  -1.1620  -1.1446  -1.1328
    -1.1185  -1.0376  -1.0129  -0.9988  -0.9840  -0.9707  -0.9412  -0.9041
    -0.8960  -0.8799  -0.8733  -0.8560  -0.8466  -0.8362  -0.8110  -0.7313
    -0.7172  -0.7071  -0.6950  -0.6886  -0.6582  -0.5746  -0.5382  -0.5247
    -0.4865  -0.4726  -0.4416  -0.4215  -0.3985  -0.3919  -0.3227  -0.2620
    -0.2326  -0.2098  -0.1814  -0.1467  -0.1311  -0.0033   0.0110   0.0753
     0.1014   0.1413   0.1701   0.1997   0.2085   0.2175   0.2267   0.2881
     0.3064   0.3096   0.3193   0.3368   0.3604   0.3806   0.3840   0.3971
     0.4348   0.5351   0.5608   0.5687   0.6114   0.6516   0.7414   0.7607
     0.8019   0.8682   0.8987   0.9713   1.0281   1.0470   1.0830   1.1002
     1.1249   1.1402   1.1541   1.2056   1.2384   1.2457   1.3030   1.3234
     1.3634   1.3978   1.4131   1.4216   1.4401   1.4587   1.5631   1.6106
     1.6646   1.6973   1.7148   1.7210   1.7295   1.8157   1.8278   1.8476
     1.9044   1.9113   1.9206   1.9749   1.9897   2.0150   2.0308   2.1152
     2.1487   2.1608   2.1739   2.1837   2.1885   2.2094   2.2232   2.3931
     2.4058   2.4285   2.4359   2.4471   2.6131   2.6551   2.8325   3.0244
     3.0770   3.2384   3.4857   3.4904   3.7697   3.8788   3.9447   4.1917
     4.4247   4.7123   4.7173   4.7502   4.8946   4.9578   5.0234   5.0756
     5.3257   5.3689   5.8221   5.9889   6.3581   6.5309   6.7702   6.9978
     7.2806

          k = 0.4000-0.6928 0.0000 ( 44692 PWs)   bands (ev):

    -5.6771  -5.6584  -5.0620  -4.5716  -4.4275  -4.0512  -3.8871  -3.7858
    -3.7344  -3.6902  -3.6001  -3.5706  -3.5010  -3.4893  -3.3946  -3.3776
    -3.3650  -3.3359  -3.3265  -3.3079  -3.2115  -3.1677  -3.1618  -3.1376
    -3.1115  -3.0728  -3.0509  -2.9651  -2.9054  -2.8203  -2.7711  -2.7628
    -2.7452  -2.7266  -2.6954  -2.6359  -2.5471  -2.5128  -2.4641  -2.3392
    -2.3179  -2.2292  -2.1930  -2.1602  -2.1273  -2.0855  -2.0089  -1.9614
    -1.9305  -1.9145  -1.8971  -1.8406  -1.8351  -1.8018  -1.7189  -1.7044
    -1.6862  -1.6795  -1.6677  -1.6589  -1.6041  -1.5967  -1.5818  -1.4665
    -1.4439  -1.4004  -1.3649  -1.2970  -1.2640  -1.2419  -1.2101  -1.1760
    -1.1733  -1.1436  -1.0853  -1.0644  -1.0462  -1.0379  -0.9982  -0.9863
    -0.9431  -0.8989  -0.8356  -0.8185  -0.8125  -0.8105  -0.7490  -0.6821
    -0.6537  -0.6169  -0.5993  -0.5836  -0.5566  -0.5495  -0.5439  -0.5305
    -0.4904  -0.4739  -0.4652  -0.4576  -0.4146  -0.4007  -0.3893  -0.3839
    -0.3725  -0.3625  -0.3296  -0.2942  -0.2820  -0.1268  -0.0642  -0.0490
     0.0271   0.0414   0.1350   0.1467   0.1648   0.1894   0.2192   0.2303
     0.2410   0.2590   0.3077   0.3617   0.3889   0.4065   0.4439   0.4608
     0.5141   0.5272   0.5742   0.6786   0.7188   0.7841   0.7905   0.8118
     0.8336   0.8937   0.9209   0.9346   0.9477   0.9586   0.9788   0.9857
     1.0671   1.0902   1.1157   1.1517   1.1776   1.1929   1.2138   1.2247
     1.2339   1.3467   1.4014   1.4595   1.5105   1.5547   1.6281   1.6458
     1.6723   1.7245   1.7640   1.7771   1.8171   1.8676   1.9285   1.9496
     1.9755   1.9948   2.0020   2.0151   2.0528   2.0896   2.1421   2.1620
     2.1659   2.1891   2.2068   2.2152   2.2196   2.2867   2.3983   2.4181
     2.4283   2.4351   2.4524   2.5043   2.5339   2.6304   2.7512   3.3662
     3.6020   3.6051   3.7732   3.8437   3.9415   3.9841   3.9919   4.2896
     4.6009   4.6105   4.7935   5.0542   5.0794   5.1722   5.2129   5.3517
     5.4404   5.5223   5.5695   5.8288   5.9985   6.0451   6.3911   6.6708
     6.7069

          k = 0.4000-0.4619 0.0000 ( 44692 PWs)   bands (ev):

    -5.6780  -5.6560  -5.0626  -4.5766  -4.4228  -4.0518  -3.8814  -3.7748
    -3.7281  -3.6914  -3.6055  -3.5826  -3.4926  -3.4858  -3.3949  -3.3770
    -3.3700  -3.3302  -3.3258  -3.3139  -3.2173  -3.1682  -3.1649  -3.1374
    -3.1097  -3.0624  -3.0498  -2.9607  -2.9101  -2.8229  -2.7685  -2.7637
    -2.7426  -2.7322  -2.6971  -2.6375  -2.5417  -2.5204  -2.4748  -2.3295
    -2.3185  -2.2649  -2.1921  -2.1585  -2.1270  -2.0762  -1.9930  -1.9577
    -1.9268  -1.9088  -1.8935  -1.8621  -1.8543  -1.8128  -1.7162  -1.7106
    -1.6892  -1.6805  -1.6739  -1.6671  -1.6116  -1.5999  -1.5783  -1.4689
    -1.4292  -1.4008  -1.3662  -1.2921  -1.2731  -1.2283  -1.2053  -1.1738
    -1.1516  -1.1326  -1.0890  -1.0691  -1.0479  -1.0440  -0.9961  -0.9575
    -0.9416  -0.9314  -0.8339  -0.8263  -0.8214  -0.8036  -0.7526  -0.6666
    -0.6357  -0.6233  -0.6134  -0.5916  -0.5546  -0.5463  -0.5331  -0.5020
    -0.4858  -0.4736  -0.4645  -0.4572  -0.4169  -0.3946  -0.3889  -0.3787
    -0.3737  -0.3713  -0.3176  -0.2944  -0.2722  -0.2060  -0.0583  -0.0019
     0.0295   0.0401   0.1325   0.1427   0.1545   0.1782   0.2205   0.2390
     0.2455   0.2513   0.3184   0.3479   0.3913   0.3986   0.4504   0.4587
     0.5112   0.5420   0.5856   0.7073   0.7401   0.7791   0.7966   0.8082
     0.8317   0.8852   0.9067   0.9278   0.9440   0.9540   0.9726   0.9846
     1.0485   1.1071   1.1135   1.1535   1.1709   1.1987   1.2090   1.2288
     1.2439   1.3744   1.4127   1.4398   1.5048   1.5531   1.6155   1.6369
     1.6755   1.7327   1.7643   1.7717   1.8397   1.8677   1.9359   1.9646
     1.9810   1.9958   2.0005   2.0192   2.0335   2.0785   2.1480   2.1584
     2.1741   2.1969   2.2093   2.2159   2.2193   2.2883   2.3903   2.4033
     2.4254   2.4272   2.4327   2.4994   2.5130   2.6271   2.7520   3.3764
     3.6032   3.6082   3.7851   3.8364   3.9504   3.9867   4.0073   4.2759
     4.5840   4.6115   4.8063   5.0597   5.0743   5.1677   5.2096   5.3006
     5.4279   5.5188   5.5855   5.8348   6.0077   6.0493   6.3908   6.6823
     6.7169

     the Fermi energy is     2.1978 ev

!    total energy              =  -27755.48899260 Ry
     total all-electron energy =  -1326642.254409 Ry
     estimated scf accuracy    <       0.00000078 Ry
     smearing contrib. (-TS)   =       0.00402727 Ry
     internal energy E=F+TS    =  -27755.49301987 Ry

     The total energy is F=E-TS. E is the sum of the following terms:
     one-electron contribution =  -22798.29844297 Ry
     hartree contribution      =   11702.00912278 Ry
     xc contribution           =    -890.77741452 Ry
     ewald contribution        =    9705.57204783 Ry
     one-center paw contrib.   =  -25473.99833298 Ry

     convergence has been achieved in  16 iterations

     negative rho (up, down):  3.411E-03 0.000E+00

     Forces acting on atoms (cartesian axes, Ry/au):

     atom    1 type  1   force =     0.00242773    0.00192458   -0.00560630
     atom    2 type  1   force =     0.00048197    0.00266345   -0.00496421
     atom    3 type  1   force =    -0.00378209    0.00277550   -0.00710329
     atom    4 type  1   force =     0.00166402   -0.00050185   -0.00449081
     atom    5 type  1   force =    -0.00027947    0.00007711   -0.00300734
     atom    6 type  1   force =    -0.00216822    0.00087915   -0.00315293
     atom    7 type  1   force =     0.00121136   -0.00248616   -0.00485267
     atom    8 type  1   force =    -0.00063505   -0.00157022   -0.00367576
     atom    9 type  1   force =    -0.00256247   -0.00063600   -0.00467636
     atom   10 type  1   force =     0.00178558    0.00212292    0.00729170
     atom   11 type  1   force =     0.00254977    0.00213051    0.00201395
     atom   12 type  1   force =    -0.00251128    0.00313441    0.00286287
     atom   13 type  1   force =     0.00321893   -0.00141453    0.00625159
     atom   14 type  1   force =     0.00032707   -0.00131708    0.00380053
     atom   15 type  1   force =    -0.00172516   -0.00166788    0.00802981
     atom   16 type  1   force =     0.00270904   -0.00456084    0.00413591
     atom   17 type  1   force =     0.00002182   -0.00344257    0.00336227
     atom   18 type  1   force =    -0.00211454   -0.00153835    0.00272246
     atom   19 type  1   force =     0.00011214   -0.00031517   -0.00019552
     atom   20 type  1   force =     0.00038160   -0.00012764   -0.00008177
     atom   21 type  1   force =    -0.00060000   -0.00028739   -0.00022376
     atom   22 type  1   force =     0.00052170    0.00025911   -0.00011120
     atom   23 type  1   force =    -0.00012350    0.00008647   -0.00055817
     atom   24 type  1   force =    -0.00025781    0.00024750    0.00014139
     atom   25 type  1   force =     0.00017844   -0.00027678    0.00007178
     atom   26 type  1   force =     0.00009047   -0.00000743   -0.00044244
     atom   27 type  1   force =    -0.00010839    0.00075575    0.00005740
     atom   28 type  1   force =    -0.00028432    0.00000047    0.00037102
     atom   29 type  1   force =     0.00021352    0.00045303    0.00057954
     atom   30 type  1   force =    -0.00032734    0.00024608    0.00010456
     atom   31 type  1   force =     0.00000344    0.00026757   -0.00040478
     atom   32 type  1   force =    -0.00018888    0.00001356    0.00029146
     atom   33 type  1   force =    -0.00007319    0.00049149    0.00051152
     atom   34 type  1   force =    -0.00011691    0.00052637    0.00026639
     atom   35 type  1   force =    -0.00002371    0.00025729    0.00026347
     atom   36 type  1   force =    -0.00029381    0.00019086    0.00045136
     atom   37 type  2   force =     0.00027753    0.00064669   -0.00003367
     The non-local contrib.  to forces
     atom    1 type  1   force =     0.00153388    0.00044286   -0.01751785
     atom    2 type  1   force =     0.00026872    0.00212587   -0.01702105
     atom    3 type  1   force =     0.00128530    0.00213055   -0.01581154
     atom    4 type  1   force =     0.00276911   -0.00058025   -0.01805111
     atom    5 type  1   force =    -0.00055324    0.00009307   -0.01787373
     atom    6 type  1   force =    -0.00203232    0.00042065   -0.01808389
     atom    7 type  1   force =     0.00166817   -0.00161754   -0.01616414
     atom    8 type  1   force =    -0.00025768   -0.00150988   -0.01757636
     atom    9 type  1   force =    -0.00220601   -0.00117819   -0.01637726
     atom   10 type  1   force =     0.00298201    0.00023172    0.00170434
     atom   11 type  1   force =     0.00003043    0.00091969    0.00076958
     atom   12 type  1   force =     0.00055377    0.00258452    0.00131653
     atom   13 type  1   force =     0.00238661   -0.00054477    0.00042018
     atom   14 type  1   force =     0.00070431   -0.00006980    0.00029718
     atom   15 type  1   force =    -0.00099729    0.00016666    0.00187388
     atom   16 type  1   force =     0.00207074   -0.00414109    0.00029686
     atom   17 type  1   force =     0.00024332   -0.00308564    0.00008007
     atom   18 type  1   force =    -0.00150879   -0.00440834    0.00065253
     atom   19 type  1   force =    -0.00781776   -0.00704258   -0.00840281
     atom   20 type  1   force =     0.00217344   -0.00192032    0.00618388
     atom   21 type  1   force =     0.00038297   -0.00146490    0.00163846
     atom   22 type  1   force =     0.00150784    0.00599082    0.00054682
     atom   23 type  1   force =     0.00154340    0.00249120   -0.00002214
     atom   24 type  1   force =    -0.00077497    0.00163611    0.00321679
     atom   25 type  1   force =     0.00019592   -0.00152526    0.00357257
     atom   26 type  1   force =     0.00038402   -0.00216529    0.00079607
     atom   27 type  1   force =    -0.00026544   -0.00038033    0.00206857
     atom   28 type  1   force =     0.00116347    0.00195932    0.01625263
     atom   29 type  1   force =    -0.00290850    0.01802319    0.02318777
     atom   30 type  1   force =    -0.00020643    0.00029098    0.01468866
     atom   31 type  1   force =    -0.01117084    0.00154444   -0.07390853
     atom   32 type  1   force =    -0.03400213    0.00392607    0.02286249
     atom   33 type  1   force =     0.00184706    0.00211247    0.01581173
     atom   34 type  1   force =    -0.00222426   -0.02086697    0.02572470
     atom   35 type  1   force =    -0.00058928    0.00230667    0.01482133
     atom   36 type  1   force =    -0.00003038   -0.00076260    0.01614729
     atom   37 type  2   force =    -0.01926097   -0.00120642   -0.03002788
     The ionic contribution  to forces
     atom    1 type  1   force =     0.13588535    0.09333826  -96.25995817
     atom    2 type  1   force =     0.01268513    0.15388667  -96.20983488
     atom    3 type  1   force =    -0.12808884    0.22989450  -96.22084370
     atom    4 type  1   force =     0.12736394   -0.06248543  -96.19186778
     atom    5 type  1   force =     0.01022683    0.00381566  -96.14194810
     atom    6 type  1   force =    -0.13052049    0.07576801  -96.14539446
     atom    7 type  1   force =     0.12354014   -0.23047441  -96.22294673
     atom    8 type  1   force =     0.00271551   -0.16455257  -96.16845253
     atom    9 type  1   force =    -0.14158218   -0.09244536  -96.17812274
     atom   10 type  1   force =     0.08760042    0.15314722  -32.37797108
     atom   11 type  1   force =    -0.00998321    0.20645858  -32.45298239
     atom   12 type  1   force =    -0.02029092    0.30754825  -32.28755029
     atom   13 type  1   force =     0.11720120   -0.13238589  -32.45011836
     atom   14 type  1   force =    -0.00930495   -0.07120535  -32.52266241
     atom   15 type  1   force =    -0.09684494   -0.07709675  -32.39681106
     atom   16 type  1   force =     0.12624595   -0.21705329  -32.44247192
     atom   17 type  1   force =    -0.02105287   -0.12880027  -32.49913036
     atom   18 type  1   force =    -0.09855639   -0.12323897  -32.38111552
     atom   19 type  1   force =    -0.04124835   -0.01919743   32.58802256
     atom   20 type  1   force =    -0.01036687    0.09179471   32.18359145
     atom   21 type  1   force =     0.01782111   -0.01614612   31.86817130
     atom   22 type  1   force =     0.06659276   -0.11766764   32.14307576
     atom   23 type  1   force =    -0.03212143   -0.09977142   31.88051201
     atom   24 type  1   force =    -0.01047141   -0.07069611   31.64063447
     atom   25 type  1   force =    -0.00792554    0.07406407   31.70263950
     atom   26 type  1   force =    -0.01140345    0.03895975   31.72979542
     atom   27 type  1   force =     0.03531670    0.06610648   31.67615478
     atom   28 type  1   force =    -0.06661931   -0.10950449   95.36619085
     atom   29 type  1   force =     0.04598389   -0.20182783   94.96780665
     atom   30 type  1   force =     0.01074055   -0.02583913   95.42726173
     atom   31 type  1   force =    -1.10980384    0.08535837   95.43767018
     atom   32 type  1   force =     0.46455724    0.08711481   95.43619856
     atom   33 type  1   force =    -0.01569557    0.06371023   95.38649501
     atom   34 type  1   force =     0.07720844    0.13763710   94.93605130
     atom   35 type  1   force =    -0.00609100    0.01827080   95.36617925
     atom   36 type  1   force =    -0.07728413    0.02093521   95.29373905
     atom   37 type  2   force =     0.58357053    0.05257976   12.51999267
     The local contribution  to forces
     atom    1 type  1   force =    -0.13487547   -0.09157240   96.25426108
     atom    2 type  1   force =    -0.01229479   -0.15300445   96.20441443
     atom    3 type  1   force =     0.12262849   -0.22867299   96.21188436
     atom    4 type  1   force =    -0.12812490    0.06227041   96.18795374
     atom    5 type  1   force =    -0.00981214   -0.00411717   96.13937090
     atom    6 type  1   force =     0.12993582   -0.07551482   96.14302875
     atom    7 type  1   force =    -0.12379317    0.22937677   96.21669740
     atom    8 type  1   force =    -0.00306036    0.16423783   96.16487796
     atom    9 type  1   force =     0.14085736    0.09302107   96.17251118
     atom   10 type  1   force =    -0.08862283   -0.15095439   32.38308450
     atom   11 type  1   force =     0.01288461   -0.20515080   32.45332047
     atom   12 type  1   force =     0.01711882   -0.30638224   32.28893086
     atom   13 type  1   force =    -0.11619572    0.13114355   32.45520129
     atom   14 type  1   force =     0.00902851    0.06955302   32.52506288
     atom   15 type  1   force =     0.09582299    0.07505588   32.40242550
     atom   16 type  1   force =    -0.12543661    0.21638976   32.44534871
     atom   17 type  1   force =     0.02104085    0.12831476   32.50141262
     atom   18 type  1   force =     0.09754875    0.12621185   32.38249002
     atom   19 type  1   force =     0.04926663    0.02559343  -32.57774251
     atom   20 type  1   force =     0.00845636   -0.09006682  -32.18706086
     atom   21 type  1   force =    -0.01854059    0.01667878  -31.86804571
     atom   22 type  1   force =    -0.06733701    0.11170570  -32.14086180
     atom   23 type  1   force =     0.03026460    0.09722487  -31.87855114
     atom   24 type  1   force =     0.01116620    0.06925517  -31.64147387
     atom   25 type  1   force =     0.00771814   -0.07234309  -31.70407762
     atom   26 type  1   force =     0.01112304   -0.03649789  -31.72891876
     atom   27 type  1   force =    -0.03482470   -0.06473524  -31.67606522
     atom   28 type  1   force =     0.06539435    0.10770922  -95.36508676
     atom   29 type  1   force =    -0.04297091    0.18462607  -94.97403169
     atom   30 type  1   force =    -0.01104945    0.02584739  -95.42514840
     atom   31 type  1   force =     1.10914848   -0.08658195  -95.36074675
     atom   32 type  1   force =    -0.42920557   -0.09078893  -95.44407517
     atom   33 type  1   force =     0.01421546   -0.06520444  -95.38468932
     atom   34 type  1   force =    -0.07504725   -0.11663016  -94.94517550
     atom   35 type  1   force =     0.00649310   -0.02035583  -95.36371906
     atom   36 type  1   force =     0.07716779   -0.02044253  -95.29255004
     atom   37 type  2   force =    -0.56404098   -0.05072846  -12.49006068
     The core correction contribution to forces
     atom    1 type  1   force =    -0.00035227   -0.00025817    0.01757265
     atom    2 type  1   force =     0.00003573   -0.00040236    0.01745109
     atom    3 type  1   force =     0.00041017   -0.00056501    0.01771672
     atom    4 type  1   force =    -0.00042063    0.00017070    0.01738701
     atom    5 type  1   force =     0.00001093   -0.00004114    0.01729932
     atom    6 type  1   force =     0.00036564   -0.00009848    0.01720586
     atom    7 type  1   force =    -0.00032826    0.00057908    0.01743372
     atom    8 type  1   force =     0.00003273    0.00039052    0.01727614
     atom    9 type  1   force =     0.00042402    0.00026364    0.01725830
     atom   10 type  1   force =    -0.00021691   -0.00039805    0.00080230
     atom   11 type  1   force =    -0.00019047   -0.00040549    0.00110387
     atom   12 type  1   force =    -0.00005479   -0.00082279    0.00037558
     atom   13 type  1   force =    -0.00031175    0.00027347    0.00103646
     atom   14 type  1   force =     0.00004186    0.00009183    0.00128096
     atom   15 type  1   force =     0.00028295    0.00013811    0.00085127
     atom   16 type  1   force =    -0.00036140    0.00065377    0.00117848
     atom   17 type  1   force =     0.00004006    0.00041391    0.00121524
     atom   18 type  1   force =     0.00033606    0.00030759    0.00091564
     atom   19 type  1   force =    -0.00009490    0.00020677   -0.00171363
     atom   20 type  1   force =     0.00004462   -0.00015043   -0.00243821
     atom   21 type  1   force =    -0.00017614    0.00028295   -0.00175018
     atom   22 type  1   force =    -0.00035805    0.00027195   -0.00246452
     atom   23 type  1   force =     0.00007915    0.00016572   -0.00205854
     atom   24 type  1   force =     0.00004074    0.00003684   -0.00183773
     atom   25 type  1   force =     0.00004748   -0.00023224   -0.00184183
     atom   26 type  1   force =     0.00000632   -0.00002582   -0.00177257
     atom   27 type  1   force =    -0.00021575   -0.00010484   -0.00191104
     atom   28 type  1   force =    -0.00022682   -0.00008283   -0.01677726
     atom   29 type  1   force =     0.00010088   -0.00036949   -0.01614833
     atom   30 type  1   force =     0.00021068   -0.00008578   -0.01652989
     atom   31 type  1   force =     0.01169082   -0.00009381   -0.00340888
     atom   32 type  1   force =    -0.00154045   -0.00034764   -0.01440372
     atom   33 type  1   force =    -0.00031666   -0.00018230   -0.01682520
     atom   34 type  1   force =    -0.00015897    0.00047861   -0.01600796
     atom   35 type  1   force =     0.00023324    0.00011694   -0.01658360
     atom   36 type  1   force =    -0.00010705    0.00044594   -0.01657817
     atom   37 type  2   force =     0.00000000    0.00000000    0.00000000
     The Hubbard contrib.    to forces
     atom    1 type  1   force =     0.00000000    0.00000000    0.00000000
     atom    2 type  1   force =     0.00000000    0.00000000    0.00000000
     atom    3 type  1   force =     0.00000000    0.00000000    0.00000000
     atom    4 type  1   force =     0.00000000    0.00000000    0.00000000
     atom    5 type  1   force =     0.00000000    0.00000000    0.00000000
     atom    6 type  1   force =     0.00000000    0.00000000    0.00000000
     atom    7 type  1   force =     0.00000000    0.00000000    0.00000000
     atom    8 type  1   force =     0.00000000    0.00000000    0.00000000
     atom    9 type  1   force =     0.00000000    0.00000000    0.00000000
     atom   10 type  1   force =     0.00000000    0.00000000    0.00000000
     atom   11 type  1   force =     0.00000000    0.00000000    0.00000000
     atom   12 type  1   force =     0.00000000    0.00000000    0.00000000
     atom   13 type  1   force =     0.00000000    0.00000000    0.00000000
     atom   14 type  1   force =     0.00000000    0.00000000    0.00000000
     atom   15 type  1   force =     0.00000000    0.00000000    0.00000000
     atom   16 type  1   force =     0.00000000    0.00000000    0.00000000
     atom   17 type  1   force =     0.00000000    0.00000000    0.00000000
     atom   18 type  1   force =     0.00000000    0.00000000    0.00000000
     atom   19 type  1   force =     0.00000000    0.00000000    0.00000000
     atom   20 type  1   force =     0.00000000    0.00000000    0.00000000
     atom   21 type  1   force =     0.00000000    0.00000000    0.00000000
     atom   22 type  1   force =     0.00000000    0.00000000    0.00000000
     atom   23 type  1   force =     0.00000000    0.00000000    0.00000000
     atom   24 type  1   force =     0.00000000    0.00000000    0.00000000
     atom   25 type  1   force =     0.00000000    0.00000000    0.00000000
     atom   26 type  1   force =     0.00000000    0.00000000    0.00000000
     atom   27 type  1   force =     0.00000000    0.00000000    0.00000000
     atom   28 type  1   force =     0.00000000    0.00000000    0.00000000
     atom   29 type  1   force =     0.00000000    0.00000000    0.00000000
     atom   30 type  1   force =     0.00000000    0.00000000    0.00000000
     atom   31 type  1   force =     0.00000000    0.00000000    0.00000000
     atom   32 type  1   force =     0.00000000    0.00000000    0.00000000
     atom   33 type  1   force =     0.00000000    0.00000000    0.00000000
     atom   34 type  1   force =     0.00000000    0.00000000    0.00000000
     atom   35 type  1   force =     0.00000000    0.00000000    0.00000000
     atom   36 type  1   force =     0.00000000    0.00000000    0.00000000
     atom   37 type  2   force =     0.00000000    0.00000000    0.00000000
     The SCF correction term to forces
     atom    1 type  1   force =     0.00000000   -0.00000000   -0.00000000
     atom    2 type  1   force =    -0.00000000    0.00000000   -0.00000000
     atom    3 type  1   force =    -0.00000000   -0.00000000   -0.00000000
     atom    4 type  1   force =     0.00000000    0.00000000    0.00000000
     atom    5 type  1   force =    -0.00000000    0.00000000    0.00000000
     atom    6 type  1   force =     0.00000000    0.00000000    0.00000000
     atom    7 type  1   force =     0.00000000   -0.00000000    0.00000000
     atom    8 type  1   force =    -0.00000000   -0.00000000    0.00000000
     atom    9 type  1   force =    -0.00000000   -0.00000000   -0.00000000
     atom   10 type  1   force =     0.00000000    0.00000000   -0.00000000
     atom   11 type  1   force =    -0.00000000    0.00000000   -0.00000000
     atom   12 type  1   force =     0.00000000    0.00000000   -0.00000000
     atom   13 type  1   force =     0.00000000    0.00000000   -0.00000000
     atom   14 type  1   force =    -0.00000000    0.00000000   -0.00000000
     atom   15 type  1   force =     0.00000000    0.00000000   -0.00000000
     atom   16 type  1   force =     0.00000000   -0.00000000   -0.00000000
     atom   17 type  1   force =    -0.00000000   -0.00000000   -0.00000000
     atom   18 type  1   force =     0.00000000   -0.00000000   -0.00000000
     atom   19 type  1   force =     0.00000538    0.00012430   -0.00041693
     atom   20 type  1   force =     0.00007291    0.00021488   -0.00041581
     atom   21 type  1   force =    -0.00008848    0.00036156   -0.00029542
     atom   22 type  1   force =     0.00011502   -0.00004207   -0.00046526
     atom   23 type  1   force =     0.00010965   -0.00002424   -0.00049615
     atom   24 type  1   force =    -0.00021951    0.00001515   -0.00045606
     atom   25 type  1   force =     0.00014130   -0.00024060   -0.00027863
     atom   26 type  1   force =    -0.00002059   -0.00027854   -0.00040038
     atom   27 type  1   force =    -0.00012034   -0.00013068   -0.00024748
     atom   28 type  1   force =     0.00000286   -0.00008110   -0.00026623
     atom   29 type  1   force =     0.00000703    0.00000074   -0.00029266
     atom   30 type  1   force =    -0.00002383    0.00003227   -0.00022533
     atom   31 type  1   force =     0.00013769    0.00004018   -0.00006859
     atom   32 type  1   force =     0.00000088    0.00010891   -0.00034849
     atom   33 type  1   force =    -0.00012461    0.00005518   -0.00033849
     atom   34 type  1   force =     0.00010400   -0.00009255   -0.00038394
     atom   35 type  1   force =    -0.00007091   -0.00008163   -0.00049224
     atom   36 type  1   force =    -0.00004119    0.00001449   -0.00036456
     atom   37 type  2   force =     0.00000781    0.00000147    0.00000444

     Total force =     0.002391     Total SCF correction =     0.001713
     SCF correction compared to forces is large: reduce conv_thr to get better values

     Writing all to output data dir ./pwscf.save/

     init_run     :     22.78s CPU     23.15s WALL (       1 calls)
     electrons    :    439.50s CPU    461.03s WALL (       1 calls)
     forces       :     14.37s CPU     16.83s WALL (       1 calls)

     Called by init_run:
     wfcinit      :     18.32s CPU     18.56s WALL (       1 calls)
     potinit      :      3.01s CPU      3.08s WALL (       1 calls)
     hinit0       :      0.86s CPU      0.86s WALL (       1 calls)

     Called by electrons:
     c_bands      :    395.00s CPU    412.91s WALL (      17 calls)
     sum_band     :     28.93s CPU     29.88s WALL (      17 calls)
     v_of_rho     :      7.87s CPU      9.63s WALL (      17 calls)
     newd         :      2.45s CPU      3.05s WALL (      17 calls)
     PAW_pot      :      3.71s CPU      3.83s WALL (      17 calls)
     mix_rho      :      3.51s CPU      3.58s WALL (      17 calls)
     vdW_kernel   :      1.67s CPU      1.68s WALL (       1 calls)

     Called by c_bands:
     init_us_2    :      2.46s CPU      2.63s WALL (     468 calls)
     init_us_2:cp :      2.46s CPU      2.63s WALL (     468 calls)
     cegterg      :    386.44s CPU    403.81s WALL (     221 calls)

     Called by *egterg:
     cdiaghg      :     64.24s CPU     66.35s WALL (    1107 calls)
     h_psi        :    210.79s CPU    222.82s WALL (    1133 calls)
     s_psi        :     12.87s CPU     13.53s WALL (    1133 calls)
     g_psi        :      0.41s CPU      0.44s WALL (     899 calls)

     Called by h_psi:
     h_psi:calbec :     34.26s CPU     34.94s WALL (    1133 calls)
     vloc_psi     :    162.18s CPU    172.70s WALL (    1133 calls)
     add_vuspsi   :     13.32s CPU     14.13s WALL (    1133 calls)

     General routines
     calbec       :     50.28s CPU     51.40s WALL (    1406 calls)
     fft          :      4.51s CPU      6.19s WALL (    1131 calls)
     ffts         :      2.14s CPU      2.17s WALL (    3949 calls)
     fftw         :    161.96s CPU    170.58s WALL (  290421 calls)
     interpolate  :      0.73s CPU      0.74s WALL (      17 calls)

     Parallel routines

     PWSCF        :   7m58.30s CPU   8m25.56s WALL


   This run was terminated on:  14: 9:39   4Feb2025            

=------------------------------------------------------------------------------=
   JOB DONE.
=------------------------------------------------------------------------------=
