
     Program PWSCF v.7.1 starts on 17Dec2025 at  9:31: 5 
        Git branch: heads/qe-7.1
        Last git commit: 48ba0178f8fede6d020eb786884699a9f063f55d-dirty
        Last git commit date: Fri Jan 27 14:22:33 2023 +0000
        Last git commit subject: Merge branch 'fix_hubbard' into 'develop'

     This program is part of the open-source Quantum ESPRESSO suite
     for quantum simulation of materials; please cite
         "P. Giannozzi et al., J. Phys.:Condens. Matter 21 395502 (2009);
         "P. Giannozzi et al., J. Phys.:Condens. Matter 29 465901 (2017);
         "P. Giannozzi et al., J. Chem. Phys. 152 154105 (2020);
          URL http://www.quantum-espresso.org", 
     in publications or presentations arising from this work. More details at
     http://www.quantum-espresso.org/quote

     Parallel version (MPI), running on    96 processors

     MPI processes distributed on     2 nodes
     158911 MiB available memory on the printing compute node when the environment starts

     Reading input from espresso.pwi
Warning: card &CELL ignored
Warning: card / ignored
Warning: card &FCP ignored
Warning: card / ignored
Warning: card &RISM ignored
Warning: card / ignored

     Current dimensions of program PWSCF are:
     Max number of different atomic species (ntypx) = 10
     Max number of k-points (npk) =  40000
     Max angular momentum in pseudopotentials (lmaxx) =  4
     file Co.pbe-n-kjpaw_psl.1.0.0.UPF: wavefunction(s)  4S 3D renormalized
     file C.pbe-n-kjpaw_psl.1.0.0.UPF: wavefunction(s)  2S 2P renormalized
     file O.pbe-nl-kjpaw_psl.1.0.0.UPF: wavefunction(s)  2S 2P renormalized
     file H.pbe-kjpaw_psl.1.0.0.UPF: wavefunction(s)  1S renormalized

     **************************************************************************
     Initializing libbeef V0.1.2 with the BEEF-vdW functional.
     Citation: Wellendorff et al., PRB 85, 235149 (2012).
     **************************************************************************


     IMPORTANT: XC functional enforced from input :
     Exchange-correlation= BEEF-VDW
                           (   1   4  43  14   2   0   0)
     Any further DFT definition will be discarded
     Please, verify this is what you really want


     R & G space division:  proc/nbgrp/npool/nimage =      96
     Subspace diagonalization in iterative solution of the eigenvalue problem:
     one sub-group per band group will be used
     custom distributed-memory algorithm (size of sub-group:  2*  2 procs)


     Parallelization info
     --------------------
     sticks:   dense  smooth     PW     G-vecs:    dense   smooth      PW
     Min          43      28      7                 7829     4248     595
     Max          44      29      8                 7845     4281     630
     Sum        4153    2773    757               752179   409445   59217

     Using Slab Decomposition



     bravais-lattice index     =            0
     lattice parameter (alat)  =      14.1729  a.u.
     unit-cell volume          =    8574.3059 (a.u.)^3
     number of atoms/cell      =           39
     number of atomic types    =            4
     number of electrons       =       335.00
     number of Kohn-Sham states=          202
     kinetic-energy cutoff     =      50.0000  Ry
     charge density cutoff     =     300.0000  Ry
     scf convergence threshold =      1.0E-08
     mixing beta               =       0.7000
     number of iterations used =            8  local-TF  mixing
     Exchange-correlation= BEEF-VDW
                           (   1   4  43  14   2   0   0)

     celldm(1)=  14.172946  celldm(2)=   0.000000  celldm(3)=   0.000000
     celldm(4)=   0.000000  celldm(5)=   0.000000  celldm(6)=   0.000000

     crystal axes: (cart. coord. in units of alat)
               a(1) = (   1.000000   0.000000   0.000000 )  
               a(2) = (   0.500000   0.866025   0.000000 )  
               a(3) = (   0.000000   0.000000   3.477667 )  

     reciprocal axes: (cart. coord. in units 2 pi/alat)
               b(1) = (  1.000000 -0.577350  0.000000 )  
               b(2) = (  0.000000  1.154701  0.000000 )  
               b(3) = (  0.000000  0.000000  0.287549 )  


     PseudoPot. # 1 for Co read from file:
     /users/kbadger1/espresso/pseudo/pslibrary.1.0.0/pbe/PSEUDOPOTENTIALS/Co.pbe-n-kjpaw_psl.1.0.0.UPF
     MD5 check sum: 88af6ec42553d4236c267fdfcb472151
     Pseudo is Projector augmented-wave + core cor, Zval =  9.0
     Generated using 'atomic' code by A. Dal Corso  v.7.0
     Shape of augmentation charge: PSQ
     Using radial grid of 1193 points,  6 beta functions with: 
                l(1) =   0
                l(2) =   0
                l(3) =   1
                l(4) =   1
                l(5) =   2
                l(6) =   2
     Q(r) pseudized with 0 coefficients 


     PseudoPot. # 2 for C  read from file:
     /users/kbadger1/espresso/pseudo/pslibrary.1.0.0/pbe/PSEUDOPOTENTIALS/C.pbe-n-kjpaw_psl.1.0.0.UPF
     MD5 check sum: 6408e75cdba28732cea38a4db8498ce4
     Pseudo is Projector augmented-wave + core cor, Zval =  4.0
     Generated using 'atomic' code by A. Dal Corso  v.7.0
     Shape of augmentation charge: PSQ
     Using radial grid of 1073 points,  4 beta functions with: 
                l(1) =   0
                l(2) =   0
                l(3) =   1
                l(4) =   1
     Q(r) pseudized with 0 coefficients 


     PseudoPot. # 3 for O  read from file:
     /users/kbadger1/espresso/pseudo/pslibrary.1.0.0/pbe/PSEUDOPOTENTIALS/O.pbe-nl-kjpaw_psl.1.0.0.UPF
     MD5 check sum: f0439fab3598ca4e468f064226030408
     Pseudo is Projector augmented-wave + core cor, Zval =  6.0
     Generated using 'atomic' code by A. Dal Corso  v.7.0
     Shape of augmentation charge: PSQ
     Using radial grid of 1095 points,  4 beta functions with: 
                l(1) =   0
                l(2) =   0
                l(3) =   1
                l(4) =   1
     Q(r) pseudized with 0 coefficients 


     PseudoPot. # 4 for H  read from file:
     /users/kbadger1/espresso/pseudo/pslibrary.1.0.0/pbe/PSEUDOPOTENTIALS/H.pbe-kjpaw_psl.1.0.0.UPF
     MD5 check sum: fe4c6fa958fa6d3815bf5d2419cbf1df
     Pseudo is Projector augmented-wave, Zval =  1.0
     Generated using 'atomic' code by A. Dal Corso  v.7.0
     Shape of augmentation charge: PSQ
     Using radial grid of  929 points,  2 beta functions with: 
                l(1) =   0
                l(2) =   0
     Q(r) pseudized with 0 coefficients 


     atomic species   valence    mass     pseudopotential
        Co             9.00    58.93319     Co( 1.00)
        C              4.00    12.00000     C ( 1.00)
        O              6.00    15.99491     O ( 1.00)
        H              1.00     1.00783     H ( 1.00)

     Starting magnetic structure 
     atomic species   magnetization
        Co           1.000
        C            1.000
        O            0.000
        H            0.000

     No symmetry found



   Cartesian axes

     site n.     atom                  positions (alat units)
         1           Co  tau(   1) = (   0.0000000   0.1924501   1.3333333  )
         2           Co  tau(   2) = (   0.3333333   0.1924501   1.3333333  )
         3           Co  tau(   3) = (   0.6666667   0.1924501   1.3333333  )
         4           Co  tau(   4) = (   0.1666667   0.4811252   1.3333333  )
         5           Co  tau(   5) = (   0.5000000   0.4811252   1.3333333  )
         6           Co  tau(   6) = (   0.8333333   0.4811252   1.3333333  )
         7           Co  tau(   7) = (   0.3333333   0.7698004   1.3333333  )
         8           Co  tau(   8) = (   0.6666667   0.7698004   1.3333333  )
         9           Co  tau(   9) = (   1.0000000   0.7698004   1.3333333  )
        10           Co  tau(  10) = (   0.0000000   0.0000000   1.6036667  )
        11           Co  tau(  11) = (   0.3333333   0.0000000   1.6036667  )
        12           Co  tau(  12) = (   0.6666667   0.0000000   1.6036667  )
        13           Co  tau(  13) = (   0.1666667   0.2886751   1.6036667  )
        14           Co  tau(  14) = (   0.5000000   0.2886751   1.6036667  )
        15           Co  tau(  15) = (   0.8333333   0.2886751   1.6036667  )
        16           Co  tau(  16) = (   0.3333333   0.5773503   1.6036667  )
        17           Co  tau(  17) = (   0.6666667   0.5773503   1.6036667  )
        18           Co  tau(  18) = (   1.0000000   0.5773503   1.6036667  )
        19           Co  tau(  19) = (   0.0000000   0.1924501   1.8740000  )
        20           Co  tau(  20) = (   0.3333333   0.1924501   1.8740000  )
        21           Co  tau(  21) = (   0.6666667   0.1924501   1.8740000  )
        22           Co  tau(  22) = (   0.1666667   0.4811252   1.8740000  )
        23           Co  tau(  23) = (   0.5000000   0.4811252   1.8740000  )
        24           Co  tau(  24) = (   0.8333333   0.4811252   1.8740000  )
        25           Co  tau(  25) = (   0.3333333   0.7698004   1.8740000  )
        26           Co  tau(  26) = (   0.6666667   0.7698004   1.8740000  )
        27           Co  tau(  27) = (   1.0000000   0.7698004   1.8740000  )
        28           Co  tau(  28) = (   0.0000000   0.0000000   2.1443333  )
        29           Co  tau(  29) = (   0.3333333   0.0000000   2.1443333  )
        30           Co  tau(  30) = (   0.6666667   0.0000000   2.1443333  )
        31           Co  tau(  31) = (   0.1666667   0.2886751   2.1443333  )
        32           Co  tau(  32) = (   0.5000000   0.2886751   2.1443333  )
        33           Co  tau(  33) = (   0.8333333   0.2886751   2.1443333  )
        34           Co  tau(  34) = (   0.3333333   0.5773503   2.1443333  )
        35           Co  tau(  35) = (   0.6666667   0.5773503   2.1443333  )
        36           Co  tau(  36) = (   1.0000000   0.5773503   2.1443333  )
        37           C   tau(  37) = (   0.3908280   0.2420225   2.3601388  )
        38           O   tau(  38) = (   0.2587042   0.1343678   2.3858120  )
        39           H   tau(  39) = (   0.4466117   0.3022536   2.4821400  )

     number of k points=    13  Marzari-Vanderbilt smearing, width (Ry)=  0.0010
                       cart. coord. in units 2pi/alat
        k(    1) = (   0.0000000   0.0000000   0.0000000), wk =   0.0400000
        k(    2) = (   0.0000000   0.2309401   0.0000000), wk =   0.0800000
        k(    3) = (   0.0000000   0.4618802   0.0000000), wk =   0.0800000
        k(    4) = (   0.2000000  -0.1154701   0.0000000), wk =   0.0800000
        k(    5) = (   0.2000000   0.1154701   0.0000000), wk =   0.0800000
        k(    6) = (   0.2000000   0.3464102   0.0000000), wk =   0.0800000
        k(    7) = (   0.2000000  -0.5773503   0.0000000), wk =   0.0800000
        k(    8) = (   0.2000000  -0.3464102   0.0000000), wk =   0.0800000
        k(    9) = (   0.4000000  -0.2309401   0.0000000), wk =   0.0800000
        k(   10) = (   0.4000000   0.0000000   0.0000000), wk =   0.0800000
        k(   11) = (   0.4000000   0.2309401   0.0000000), wk =   0.0800000
        k(   12) = (   0.4000000  -0.6928203   0.0000000), wk =   0.0800000
        k(   13) = (   0.4000000  -0.4618802   0.0000000), wk =   0.0800000

     Dense  grid:   752179 G-vectors     FFT dimensions: (  80,  80, 288)

     Smooth grid:   409445 G-vectors     FFT dimensions: (  64,  64, 225)

     Estimated max dynamical RAM per process >      99.02 MB

     Estimated total dynamical RAM >       9.28 GB
     Generating pointlists ...
     new r_m :   0.1016 (alat units)  1.4400 (a.u.) for type    1
     new r_m :   0.0607 (alat units)  0.8597 (a.u.) for type    2
     new r_m :   0.0711 (alat units)  1.0076 (a.u.) for type    3
     new r_m :   0.0607 (alat units)  0.8597 (a.u.) for type    4

     Initial potential from superposition of free atoms

     starting charge     334.9897, renormalised to     335.0000

     negative rho (up, down):  3.003E-03 4.692E-04


     %%%%%%%%%%%%%%%%%%%%%%%%%%%%%%%%%%%%%%%%%%%%%%%%%%%%%%%%%%%%%%%%%%%%%%%%
     %                                                                      %
     % You are using vdW-DF, which was implemented by the Thonhauser group. %
     % Please cite the following two papers that made this development      %
     % possible and the two reviews that describe the various versions:     %
     %                                                                      %
     %   T. Thonhauser et al., PRL 115, 136402 (2015).                      %
     %   T. Thonhauser et al., PRB 76, 125112 (2007).                       %
     %   K. Berland et al., Rep. Prog. Phys. 78, 066501 (2015).             %
     %   D.C. Langreth et al., J. Phys.: Condens. Matter 21, 084203 (2009). %
     %                                                                      %
     % If you are calculating stress with vdW-DF, please also cite:         %
     %                                                                      %
     %   R. Sabatini et al., J. Phys.: Condens. Matter 24, 424209 (2012).   %
     %   C.M. Frostenson et al., Electr. Struct. 4, 014001 (2022).          %
     %                                                                      %
     %%%%%%%%%%%%%%%%%%%%%%%%%%%%%%%%%%%%%%%%%%%%%%%%%%%%%%%%%%%%%%%%%%%%%%%%

     %%%%%%%%%%%%%%%%%%%%%%%%%%%%%%%%%%%%%%%%%%%%%%%%%%%%%%%%%%%%%%%%%%%%%%%%
     %                                                                      %
     %  vdW-DF NEWS:                                                        %
     %                                                                      %
     %  * vdW-DF3 is now available. DOI: 10.1021/acs.jctc.0c00471           %
     %    use with input_dft = 'vdW-DF3-opt1' or 'vdW-DF3-opt2'             %
     %                                                                      %
     %  * Unscreened and range-separated hybrid vdW-DF-cx functionals       %
     %    DOI: 10.1063/1.4986522 and 10.1088/1361-648X/ac2ad2               %
     %    use with input_dft = 'vdW-DF-cx0'    and 'vdW-DF-ahcx'            %
     %  * Unscreened and range-separated hybrid vdW-DF2-b86r functionals    %
     %    DOI: 10.1063/1.4986522 and DOI: 10.1103/PhysRevX.12.041003        %
     %    use with input_dft = 'vdW-DF2-br0' and 'vdW-DF2-ahbr'             %
     %                                                                      %
     %%%%%%%%%%%%%%%%%%%%%%%%%%%%%%%%%%%%%%%%%%%%%%%%%%%%%%%%%%%%%%%%%%%%%%%%


     Starting wfcs are  333 randomized atomic wfcs
     Checking if some PAW data can be deallocated... 

     total cpu time spent up to now is       12.1 secs

     per-process dynamical memory:   230.2 Mb

     Self-consistent Calculation

     iteration #  1     ecut=    50.00 Ry     beta= 0.70
     Davidson diagonalization with overlap
     ethr =  1.00E-02,  avg # of iterations =  2.0

     negative rho (up, down):  2.230E-05 6.358E-08

     total cpu time spent up to now is       34.5 secs

     total energy              =   -6053.06363842 Ry
     estimated scf accuracy    <      39.75460028 Ry

     total magnetization       =    69.00 Bohr mag/cell
     absolute magnetization    =    81.09 Bohr mag/cell

     iteration #  2     ecut=    50.00 Ry     beta= 0.70
     Davidson diagonalization with overlap
     ethr =  1.00E-02,  avg # of iterations =  1.0

     negative rho (up, down):  2.375E-06 6.355E-09

     total cpu time spent up to now is       53.2 secs

     total energy              =   -6052.44275121 Ry
     estimated scf accuracy    <      25.58142824 Ry

     total magnetization       =    69.00 Bohr mag/cell
     absolute magnetization    =    76.72 Bohr mag/cell

     iteration #  3     ecut=    50.00 Ry     beta= 0.70
     Davidson diagonalization with overlap
     ethr =  7.64E-03,  avg # of iterations =  1.0

     total cpu time spent up to now is       67.1 secs

     total energy              =   -6055.17474358 Ry
     estimated scf accuracy    <      84.01959611 Ry

     total magnetization       =    66.28 Bohr mag/cell
     absolute magnetization    =    73.28 Bohr mag/cell

     iteration #  4     ecut=    50.00 Ry     beta= 0.70
     Davidson diagonalization with overlap
     ethr =  7.64E-03,  avg # of iterations =  1.0

     total cpu time spent up to now is       85.0 secs

     total energy              =   -6056.34679614 Ry
     estimated scf accuracy    <       5.78808210 Ry

     total magnetization       =    60.77 Bohr mag/cell
     absolute magnetization    =    70.39 Bohr mag/cell

     iteration #  5     ecut=    50.00 Ry     beta= 0.70
     Davidson diagonalization with overlap
     ethr =  1.73E-03,  avg # of iterations =  1.2

     total cpu time spent up to now is       98.1 secs

     total energy              =   -6056.38068147 Ry
     estimated scf accuracy    <       3.17201458 Ry

     total magnetization       =    60.46 Bohr mag/cell
     absolute magnetization    =    69.67 Bohr mag/cell

     iteration #  6     ecut=    50.00 Ry     beta= 0.70
     Davidson diagonalization with overlap
     ethr =  9.47E-04,  avg # of iterations =  1.4

     total cpu time spent up to now is      117.6 secs

     total energy              =   -6056.48503328 Ry
     estimated scf accuracy    <       0.53034220 Ry

     total magnetization       =    60.45 Bohr mag/cell
     absolute magnetization    =    69.45 Bohr mag/cell

     iteration #  7     ecut=    50.00 Ry     beta= 0.70
     Davidson diagonalization with overlap
     ethr =  1.58E-04,  avg # of iterations =  6.3

     total cpu time spent up to now is      137.1 secs

     total energy              =   -6056.52032312 Ry
     estimated scf accuracy    <       0.74857711 Ry

     total magnetization       =    60.87 Bohr mag/cell
     absolute magnetization    =    69.35 Bohr mag/cell

     iteration #  8     ecut=    50.00 Ry     beta= 0.70
     Davidson diagonalization with overlap
     ethr =  1.58E-04,  avg # of iterations =  1.8

     total cpu time spent up to now is      155.8 secs

     total energy              =   -6056.53543935 Ry
     estimated scf accuracy    <       0.16171777 Ry

     total magnetization       =    61.15 Bohr mag/cell
     absolute magnetization    =    69.40 Bohr mag/cell

     iteration #  9     ecut=    50.00 Ry     beta= 0.70
     Davidson diagonalization with overlap
     ethr =  4.83E-05,  avg # of iterations =  8.7

     total cpu time spent up to now is      183.2 secs

     total energy              =   -6056.54272533 Ry
     estimated scf accuracy    <       0.18586567 Ry

     total magnetization       =    61.33 Bohr mag/cell
     absolute magnetization    =    69.37 Bohr mag/cell

     iteration # 10     ecut=    50.00 Ry     beta= 0.70
     Davidson diagonalization with overlap
     ethr =  4.83E-05,  avg # of iterations =  2.2

     total cpu time spent up to now is      197.6 secs

     total energy              =   -6056.54262210 Ry
     estimated scf accuracy    <       0.16814903 Ry

     total magnetization       =    61.32 Bohr mag/cell
     absolute magnetization    =    69.22 Bohr mag/cell

     iteration # 11     ecut=    50.00 Ry     beta= 0.70
     Davidson diagonalization with overlap
     ethr =  4.83E-05,  avg # of iterations =  1.6

     total cpu time spent up to now is      215.9 secs

     total energy              =   -6056.53873372 Ry
     estimated scf accuracy    <       0.10681941 Ry

     total magnetization       =    61.32 Bohr mag/cell
     absolute magnetization    =    69.11 Bohr mag/cell

     iteration # 12     ecut=    50.00 Ry     beta= 0.70
     Davidson diagonalization with overlap
     c_bands:  3 eigenvalues not converged
     ethr =  3.19E-05,  avg # of iterations =  2.5

     negative rho (up, down):  1.173E-06 0.000E+00

     total cpu time spent up to now is      236.6 secs

     total energy              =   -6056.53994186 Ry
     estimated scf accuracy    <       0.09079974 Ry

     total magnetization       =    61.33 Bohr mag/cell
     absolute magnetization    =    69.00 Bohr mag/cell

     iteration # 13     ecut=    50.00 Ry     beta= 0.70
     Davidson diagonalization with overlap
     ethr =  2.71E-05,  avg # of iterations =  2.5

     total cpu time spent up to now is      250.9 secs

     total energy              =   -6056.53725583 Ry
     estimated scf accuracy    <       0.10336887 Ry

     total magnetization       =    61.32 Bohr mag/cell
     absolute magnetization    =    68.95 Bohr mag/cell

     iteration # 14     ecut=    50.00 Ry     beta= 0.70
     Davidson diagonalization with overlap
     ethr =  2.71E-05,  avg # of iterations =  2.2

     negative rho (up, down):  6.187E-03 4.832E-03

     total cpu time spent up to now is      270.0 secs

     total energy              =   -6056.53069032 Ry
     estimated scf accuracy    <       0.05644785 Ry

     total magnetization       =    61.32 Bohr mag/cell
     absolute magnetization    =    68.96 Bohr mag/cell

     iteration # 15     ecut=    50.00 Ry     beta= 0.70
     Davidson diagonalization with overlap
     c_bands:  2 eigenvalues not converged
     c_bands:  2 eigenvalues not converged
     ethr =  1.69E-05,  avg # of iterations =  3.9

     negative rho (up, down):  8.846E-03 7.393E-03

     total cpu time spent up to now is      286.4 secs

     total energy              =   -6056.52951165 Ry
     estimated scf accuracy    <       0.06627760 Ry

     total magnetization       =    61.32 Bohr mag/cell
     absolute magnetization    =    68.90 Bohr mag/cell

     iteration # 16     ecut=    50.00 Ry     beta= 0.70
     Davidson diagonalization with overlap
     c_bands:  1 eigenvalues not converged
     ethr =  1.69E-05,  avg # of iterations =  2.0

     negative rho (up, down):  1.354E-02 1.200E-02

     total cpu time spent up to now is      306.0 secs

     total energy              =   -6056.52900032 Ry
     estimated scf accuracy    <       0.02030214 Ry

     total magnetization       =    61.32 Bohr mag/cell
     absolute magnetization    =    68.88 Bohr mag/cell

     iteration # 17     ecut=    50.00 Ry     beta= 0.70
     Davidson diagonalization with overlap
     c_bands:  2 eigenvalues not converged
     c_bands:  2 eigenvalues not converged
     c_bands:  2 eigenvalues not converged
     c_bands:  5 eigenvalues not converged
     ethr =  6.06E-06,  avg # of iterations =  9.5

     negative rho (up, down):  1.199E-02 1.069E-02

     total cpu time spent up to now is      332.2 secs

     total energy              =   -6056.52730082 Ry
     estimated scf accuracy    <       0.04079423 Ry

     total magnetization       =    61.32 Bohr mag/cell
     absolute magnetization    =    68.87 Bohr mag/cell

     iteration # 18     ecut=    50.00 Ry     beta= 0.70
     Davidson diagonalization with overlap
     ethr =  6.06E-06,  avg # of iterations =  2.0

     negative rho (up, down):  2.075E-02 1.935E-02

     total cpu time spent up to now is      346.5 secs

     total energy              =   -6056.52618577 Ry
     estimated scf accuracy    <       0.01310705 Ry

     total magnetization       =    61.32 Bohr mag/cell
     absolute magnetization    =    68.88 Bohr mag/cell

     iteration # 19     ecut=    50.00 Ry     beta= 0.70
     Davidson diagonalization with overlap
     c_bands:  1 eigenvalues not converged
     ethr =  3.91E-06,  avg # of iterations =  3.1

     negative rho (up, down):  2.545E-02 2.425E-02

     total cpu time spent up to now is      367.6 secs

     total energy              =   -6056.52461558 Ry
     estimated scf accuracy    <       0.01782151 Ry

     total magnetization       =    61.32 Bohr mag/cell
     absolute magnetization    =    68.85 Bohr mag/cell

     iteration # 20     ecut=    50.00 Ry     beta= 0.70
     Davidson diagonalization with overlap
     ethr =  3.91E-06,  avg # of iterations =  2.4

     negative rho (up, down):  1.907E-02 1.830E-02

     total cpu time spent up to now is      386.7 secs

     total energy              =   -6056.52440122 Ry
     estimated scf accuracy    <       0.01224606 Ry

     total magnetization       =    61.32 Bohr mag/cell
     absolute magnetization    =    68.84 Bohr mag/cell

     iteration # 21     ecut=    50.00 Ry     beta= 0.70
     Davidson diagonalization with overlap
     ethr =  3.66E-06,  avg # of iterations =  1.5

     negative rho (up, down):  2.207E-02 2.122E-02

     total cpu time spent up to now is      400.2 secs

     total energy              =   -6056.52439910 Ry
     estimated scf accuracy    <       0.01333868 Ry

     total magnetization       =    61.32 Bohr mag/cell
     absolute magnetization    =    68.86 Bohr mag/cell

     iteration # 22     ecut=    50.00 Ry     beta= 0.70
     Davidson diagonalization with overlap
     ethr =  3.66E-06,  avg # of iterations =  1.1

     negative rho (up, down):  1.974E-02 1.893E-02

     total cpu time spent up to now is      419.5 secs

     total energy              =   -6056.52456260 Ry
     estimated scf accuracy    <       0.00278756 Ry

     total magnetization       =    61.32 Bohr mag/cell
     absolute magnetization    =    68.85 Bohr mag/cell

     iteration # 23     ecut=    50.00 Ry     beta= 0.70
     Davidson diagonalization with overlap
     ethr =  8.32E-07,  avg # of iterations =  2.5

     negative rho (up, down):  1.654E-02 1.582E-02

     total cpu time spent up to now is      434.5 secs

     total energy              =   -6056.52452747 Ry
     estimated scf accuracy    <       0.00160377 Ry

     total magnetization       =    61.32 Bohr mag/cell
     absolute magnetization    =    68.85 Bohr mag/cell

     iteration # 24     ecut=    50.00 Ry     beta= 0.70
     Davidson diagonalization with overlap
     ethr =  4.79E-07,  avg # of iterations =  2.6

     negative rho (up, down):  8.472E-03 7.809E-03

     total cpu time spent up to now is      454.1 secs

     total energy              =   -6056.52448648 Ry
     estimated scf accuracy    <       0.00143501 Ry

     total magnetization       =    61.32 Bohr mag/cell
     absolute magnetization    =    68.86 Bohr mag/cell

     iteration # 25     ecut=    50.00 Ry     beta= 0.70
     Davidson diagonalization with overlap
     ethr =  4.28E-07,  avg # of iterations =  2.2

     negative rho (up, down):  7.134E-03 6.459E-03

     total cpu time spent up to now is      473.6 secs

     total energy              =   -6056.52445329 Ry
     estimated scf accuracy    <       0.00104008 Ry

     total magnetization       =    61.32 Bohr mag/cell
     absolute magnetization    =    68.87 Bohr mag/cell

     iteration # 26     ecut=    50.00 Ry     beta= 0.70
     Davidson diagonalization with overlap
     ethr =  3.10E-07,  avg # of iterations =  1.5

     negative rho (up, down):  3.707E-03 2.925E-03

     total cpu time spent up to now is      488.7 secs

     total energy              =   -6056.52448634 Ry
     estimated scf accuracy    <       0.00031159 Ry

     total magnetization       =    61.32 Bohr mag/cell
     absolute magnetization    =    68.87 Bohr mag/cell

     iteration # 27     ecut=    50.00 Ry     beta= 0.70
     Davidson diagonalization with overlap
     ethr =  9.30E-08,  avg # of iterations =  6.5

     negative rho (up, down):  4.842E-03 4.006E-03

     total cpu time spent up to now is      513.3 secs

     total energy              =   -6056.52458422 Ry
     estimated scf accuracy    <       0.00163784 Ry

     total magnetization       =    61.32 Bohr mag/cell
     absolute magnetization    =    68.86 Bohr mag/cell

     iteration # 28     ecut=    50.00 Ry     beta= 0.70
     Davidson diagonalization with overlap
     ethr =  9.30E-08,  avg # of iterations =  1.5

     negative rho (up, down):  4.692E-03 3.882E-03

     total cpu time spent up to now is      527.4 secs

     total energy              =   -6056.52458504 Ry
     estimated scf accuracy    <       0.00017703 Ry

     total magnetization       =    61.32 Bohr mag/cell
     absolute magnetization    =    68.86 Bohr mag/cell

     iteration # 29     ecut=    50.00 Ry     beta= 0.70
     Davidson diagonalization with overlap
     ethr =  5.28E-08,  avg # of iterations =  1.3

     negative rho (up, down):  3.805E-03 2.811E-03

     total cpu time spent up to now is      547.0 secs

     total energy              =   -6056.52460260 Ry
     estimated scf accuracy    <       0.00010591 Ry

     total magnetization       =    61.32 Bohr mag/cell
     absolute magnetization    =    68.86 Bohr mag/cell

     iteration # 30     ecut=    50.00 Ry     beta= 0.70
     Davidson diagonalization with overlap
     ethr =  3.16E-08,  avg # of iterations =  2.0

     negative rho (up, down):  3.812E-03 2.855E-03

     total cpu time spent up to now is      566.2 secs

     total energy              =   -6056.52458773 Ry
     estimated scf accuracy    <       0.00023208 Ry

     total magnetization       =    61.32 Bohr mag/cell
     absolute magnetization    =    68.86 Bohr mag/cell

     iteration # 31     ecut=    50.00 Ry     beta= 0.70
     Davidson diagonalization with overlap
     ethr =  3.16E-08,  avg # of iterations =  1.3

     negative rho (up, down):  3.495E-03 2.452E-03

     total cpu time spent up to now is      579.9 secs

     total energy              =   -6056.52459454 Ry
     estimated scf accuracy    <       0.00007909 Ry

     total magnetization       =    61.32 Bohr mag/cell
     absolute magnetization    =    68.86 Bohr mag/cell

     iteration # 32     ecut=    50.00 Ry     beta= 0.70
     Davidson diagonalization with overlap
     ethr =  2.36E-08,  avg # of iterations =  1.7

     negative rho (up, down):  3.263E-03 2.187E-03

     total cpu time spent up to now is      599.7 secs

     total energy              =   -6056.52458693 Ry
     estimated scf accuracy    <       0.00014054 Ry

     total magnetization       =    61.32 Bohr mag/cell
     absolute magnetization    =    68.86 Bohr mag/cell

     iteration # 33     ecut=    50.00 Ry     beta= 0.70
     Davidson diagonalization with overlap
     ethr =  2.36E-08,  avg # of iterations =  1.1

     negative rho (up, down):  3.135E-03 2.096E-03

     total cpu time spent up to now is      613.8 secs

     total energy              =   -6056.52459146 Ry
     estimated scf accuracy    <       0.00007116 Ry

     total magnetization       =    61.32 Bohr mag/cell
     absolute magnetization    =    68.86 Bohr mag/cell

     iteration # 34     ecut=    50.00 Ry     beta= 0.70
     Davidson diagonalization with overlap
     ethr =  2.12E-08,  avg # of iterations =  1.4

     negative rho (up, down):  2.960E-03 1.881E-03

     total cpu time spent up to now is      632.2 secs

     total energy              =   -6056.52458983 Ry
     estimated scf accuracy    <       0.00002239 Ry

     total magnetization       =    61.32 Bohr mag/cell
     absolute magnetization    =    68.86 Bohr mag/cell

     iteration # 35     ecut=    50.00 Ry     beta= 0.70
     Davidson diagonalization with overlap
     ethr =  6.68E-09,  avg # of iterations =  2.7

     negative rho (up, down):  2.904E-03 1.825E-03

     total cpu time spent up to now is      647.1 secs

     total energy              =   -6056.52458995 Ry
     estimated scf accuracy    <       0.00001133 Ry

     total magnetization       =    61.32 Bohr mag/cell
     absolute magnetization    =    68.86 Bohr mag/cell

     iteration # 36     ecut=    50.00 Ry     beta= 0.70
     Davidson diagonalization with overlap
     ethr =  3.38E-09,  avg # of iterations =  3.3

     negative rho (up, down):  2.706E-03 1.621E-03

     total cpu time spent up to now is      668.6 secs

     total energy              =   -6056.52458956 Ry
     estimated scf accuracy    <       0.00001821 Ry

     total magnetization       =    61.32 Bohr mag/cell
     absolute magnetization    =    68.86 Bohr mag/cell

     iteration # 37     ecut=    50.00 Ry     beta= 0.70
     Davidson diagonalization with overlap
     ethr =  3.38E-09,  avg # of iterations =  2.0

     negative rho (up, down):  2.695E-03 1.607E-03

     total cpu time spent up to now is      687.6 secs

     total energy              =   -6056.52458962 Ry
     estimated scf accuracy    <       0.00001176 Ry

     total magnetization       =    61.32 Bohr mag/cell
     absolute magnetization    =    68.86 Bohr mag/cell

     iteration # 38     ecut=    50.00 Ry     beta= 0.70
     Davidson diagonalization with overlap
     ethr =  3.38E-09,  avg # of iterations =  1.1

     negative rho (up, down):  2.489E-03 1.405E-03

     total cpu time spent up to now is      700.8 secs

     total energy              =   -6056.52458897 Ry
     estimated scf accuracy    <       0.00001050 Ry

     total magnetization       =    61.32 Bohr mag/cell
     absolute magnetization    =    68.86 Bohr mag/cell

     iteration # 39     ecut=    50.00 Ry     beta= 0.70
     Davidson diagonalization with overlap
     ethr =  3.13E-09,  avg # of iterations =  1.7

     negative rho (up, down):  2.595E-03 1.483E-03

     total cpu time spent up to now is      719.8 secs

     total energy              =   -6056.52458938 Ry
     estimated scf accuracy    <       0.00000906 Ry

     total magnetization       =    61.32 Bohr mag/cell
     absolute magnetization    =    68.86 Bohr mag/cell

     iteration # 40     ecut=    50.00 Ry     beta= 0.70
     Davidson diagonalization with overlap
     ethr =  2.70E-09,  avg # of iterations =  2.0

     negative rho (up, down):  2.479E-03 1.381E-03

     total cpu time spent up to now is      735.6 secs

     total energy              =   -6056.52458934 Ry
     estimated scf accuracy    <       0.00000692 Ry

     total magnetization       =    61.32 Bohr mag/cell
     absolute magnetization    =    68.86 Bohr mag/cell

     iteration # 41     ecut=    50.00 Ry     beta= 0.70
     Davidson diagonalization with overlap
     ethr =  2.07E-09,  avg # of iterations =  1.1

     negative rho (up, down):  2.484E-03 1.378E-03

     total cpu time spent up to now is      754.0 secs

     total energy              =   -6056.52458959 Ry
     estimated scf accuracy    <       0.00000388 Ry

     total magnetization       =    61.32 Bohr mag/cell
     absolute magnetization    =    68.86 Bohr mag/cell

     iteration # 42     ecut=    50.00 Ry     beta= 0.70
     Davidson diagonalization with overlap
     ethr =  1.16E-09,  avg # of iterations =  1.6

     negative rho (up, down):  2.340E-03 1.230E-03

     total cpu time spent up to now is      772.9 secs

     total energy              =   -6056.52458939 Ry
     estimated scf accuracy    <       0.00000861 Ry

     total magnetization       =    61.32 Bohr mag/cell
     absolute magnetization    =    68.86 Bohr mag/cell

     iteration # 43     ecut=    50.00 Ry     beta= 0.70
     Davidson diagonalization with overlap
     ethr =  1.16E-09,  avg # of iterations =  1.4

     negative rho (up, down):  2.324E-03 1.214E-03

     total cpu time spent up to now is      788.3 secs

     total energy              =   -6056.52458967 Ry
     estimated scf accuracy    <       0.00000564 Ry

     total magnetization       =    61.32 Bohr mag/cell
     absolute magnetization    =    68.86 Bohr mag/cell

     iteration # 44     ecut=    50.00 Ry     beta= 0.70
     Davidson diagonalization with overlap
     ethr =  1.16E-09,  avg # of iterations =  1.0

     negative rho (up, down):  2.299E-03 1.188E-03

     total cpu time spent up to now is      806.1 secs

     total energy              =   -6056.52458969 Ry
     estimated scf accuracy    <       0.00000211 Ry

     total magnetization       =    61.32 Bohr mag/cell
     absolute magnetization    =    68.86 Bohr mag/cell

     iteration # 45     ecut=    50.00 Ry     beta= 0.70
     Davidson diagonalization with overlap
     ethr =  6.31E-10,  avg # of iterations =  1.4

     negative rho (up, down):  2.248E-03 1.137E-03

     total cpu time spent up to now is      819.7 secs

     total energy              =   -6056.52458961 Ry
     estimated scf accuracy    <       0.00000116 Ry

     total magnetization       =    61.32 Bohr mag/cell
     absolute magnetization    =    68.86 Bohr mag/cell

     iteration # 46     ecut=    50.00 Ry     beta= 0.70
     Davidson diagonalization with overlap
     ethr =  3.48E-10,  avg # of iterations =  3.0

     negative rho (up, down):  2.312E-03 1.202E-03

     total cpu time spent up to now is      840.0 secs

     total energy              =   -6056.52458968 Ry
     estimated scf accuracy    <       0.00000137 Ry

     total magnetization       =    61.32 Bohr mag/cell
     absolute magnetization    =    68.86 Bohr mag/cell

     iteration # 47     ecut=    50.00 Ry     beta= 0.70
     Davidson diagonalization with overlap
     ethr =  3.48E-10,  avg # of iterations =  1.6

     negative rho (up, down):  2.231E-03 1.122E-03

     total cpu time spent up to now is      855.1 secs

     total energy              =   -6056.52458959 Ry
     estimated scf accuracy    <       0.00000183 Ry

     total magnetization       =    61.32 Bohr mag/cell
     absolute magnetization    =    68.86 Bohr mag/cell

     iteration # 48     ecut=    50.00 Ry     beta= 0.70
     Davidson diagonalization with overlap
     ethr =  3.48E-10,  avg # of iterations =  1.3

     negative rho (up, down):  2.275E-03 1.165E-03

     total cpu time spent up to now is      873.7 secs

     total energy              =   -6056.52458974 Ry
     estimated scf accuracy    <       0.00000026 Ry

     total magnetization       =    61.32 Bohr mag/cell
     absolute magnetization    =    68.86 Bohr mag/cell

     iteration # 49     ecut=    50.00 Ry     beta= 0.70
     Davidson diagonalization with overlap
     ethr =  7.62E-11,  avg # of iterations =  4.9

     negative rho (up, down):  2.235E-03 1.127E-03

     total cpu time spent up to now is      896.2 secs

     total energy              =   -6056.52458968 Ry
     estimated scf accuracy    <       0.00000070 Ry

     total magnetization       =    61.32 Bohr mag/cell
     absolute magnetization    =    68.86 Bohr mag/cell

     iteration # 50     ecut=    50.00 Ry     beta= 0.70
     Davidson diagonalization with overlap
     ethr =  7.62E-11,  avg # of iterations =  1.6

     negative rho (up, down):  2.233E-03 1.126E-03

     total cpu time spent up to now is      911.2 secs

     total energy              =   -6056.52458971 Ry
     estimated scf accuracy    <       0.00000023 Ry

     total magnetization       =    61.32 Bohr mag/cell
     absolute magnetization    =    68.86 Bohr mag/cell

     iteration # 51     ecut=    50.00 Ry     beta= 0.70
     Davidson diagonalization with overlap
     ethr =  6.73E-11,  avg # of iterations =  1.1

     negative rho (up, down):  2.227E-03 1.121E-03

     total cpu time spent up to now is      929.1 secs

     total energy              =   -6056.52458971 Ry
     estimated scf accuracy    <       0.00000008 Ry

     total magnetization       =    61.32 Bohr mag/cell
     absolute magnetization    =    68.86 Bohr mag/cell

     iteration # 52     ecut=    50.00 Ry     beta= 0.70
     Davidson diagonalization with overlap
     ethr =  2.43E-11,  avg # of iterations =  3.2

     negative rho (up, down):  2.218E-03 1.113E-03

     total cpu time spent up to now is      945.1 secs

     total energy              =   -6056.52458970 Ry
     estimated scf accuracy    <       0.00000011 Ry

     total magnetization       =    61.32 Bohr mag/cell
     absolute magnetization    =    68.86 Bohr mag/cell

     iteration # 53     ecut=    50.00 Ry     beta= 0.70
     Davidson diagonalization with overlap
     ethr =  2.43E-11,  avg # of iterations =  1.9

     negative rho (up, down):  2.222E-03 1.117E-03

     total cpu time spent up to now is      964.6 secs

     total energy              =   -6056.52458971 Ry
     estimated scf accuracy    <       0.00000019 Ry

     total magnetization       =    61.32 Bohr mag/cell
     absolute magnetization    =    68.86 Bohr mag/cell

     iteration # 54     ecut=    50.00 Ry     beta= 0.70
     Davidson diagonalization with overlap
     ethr =  2.43E-11,  avg # of iterations =  1.1

     negative rho (up, down):  2.228E-03 1.123E-03

     total cpu time spent up to now is      983.6 secs

     total energy              =   -6056.52458972 Ry
     estimated scf accuracy    <       0.00000004 Ry

     total magnetization       =    61.32 Bohr mag/cell
     absolute magnetization    =    68.86 Bohr mag/cell

     iteration # 55     ecut=    50.00 Ry     beta= 0.70
     Davidson diagonalization with overlap
     ethr =  1.06E-11,  avg # of iterations =  2.0

     negative rho (up, down):  2.229E-03 1.123E-03

     total cpu time spent up to now is      998.6 secs

     total energy              =   -6056.52458973 Ry
     estimated scf accuracy    <       0.00000002 Ry

     total magnetization       =    61.32 Bohr mag/cell
     absolute magnetization    =    68.86 Bohr mag/cell

     iteration # 56     ecut=    50.00 Ry     beta= 0.70
     Davidson diagonalization with overlap
     ethr =  5.86E-12,  avg # of iterations =  2.2

     negative rho (up, down):  2.229E-03 1.124E-03

     Magnetic moment per site  (integrated on atomic sphere of radius R)
     atom   1 (R=0.102)  charge=  6.1846  magn=  1.7629
     atom   2 (R=0.102)  charge=  6.1846  magn=  1.7546
     atom   3 (R=0.102)  charge=  6.1851  magn=  1.7579
     atom   4 (R=0.102)  charge=  6.1846  magn=  1.7610
     atom   5 (R=0.102)  charge=  6.1851  magn=  1.7580
     atom   6 (R=0.102)  charge=  6.1843  magn=  1.7633
     atom   7 (R=0.102)  charge=  6.1853  magn=  1.7655
     atom   8 (R=0.102)  charge=  6.1845  magn=  1.7635
     atom   9 (R=0.102)  charge=  6.1846  magn=  1.7588
     atom  10 (R=0.102)  charge=  6.1895  magn=  1.6882
     atom  11 (R=0.102)  charge=  6.1900  magn=  1.7004
     atom  12 (R=0.102)  charge=  6.1894  magn=  1.6925
     atom  13 (R=0.102)  charge=  6.1901  magn=  1.6997
     atom  14 (R=0.102)  charge=  6.1907  magn=  1.6797
     atom  15 (R=0.102)  charge=  6.1905  magn=  1.6909
     atom  16 (R=0.102)  charge=  6.1896  magn=  1.6921
     atom  17 (R=0.102)  charge=  6.1905  magn=  1.6946
     atom  18 (R=0.102)  charge=  6.1904  magn=  1.6848
     atom  19 (R=0.102)  charge=  6.1884  magn=  1.6825
     atom  20 (R=0.102)  charge=  6.1853  magn=  1.7330
     atom  21 (R=0.102)  charge=  6.1913  magn=  1.6524
     atom  22 (R=0.102)  charge=  6.1901  magn=  1.6788
     atom  23 (R=0.102)  charge=  6.1914  magn=  1.6604
     atom  24 (R=0.102)  charge=  6.1886  magn=  1.7029
     atom  25 (R=0.102)  charge=  6.1897  magn=  1.6866
     atom  26 (R=0.102)  charge=  6.1884  magn=  1.6859
     atom  27 (R=0.102)  charge=  6.1905  magn=  1.6660
     atom  28 (R=0.102)  charge=  6.1910  magn=  1.7878
     atom  29 (R=0.102)  charge=  6.1937  magn=  1.7040
     atom  30 (R=0.102)  charge=  6.1843  magn=  1.7713
     atom  31 (R=0.102)  charge=  6.1974  magn=  1.6922
     atom  32 (R=0.102)  charge=  6.2128  magn=  1.0936
     atom  33 (R=0.102)  charge=  6.1835  magn=  1.7733
     atom  34 (R=0.102)  charge=  6.1857  magn=  1.7619
     atom  35 (R=0.102)  charge=  6.1849  magn=  1.7743
     atom  36 (R=0.102)  charge=  6.1824  magn=  1.7937
     atom  37 (R=0.061)  charge=  0.8342  magn= -0.0246
     atom  38 (R=0.071)  charge=  3.3214  magn=  0.0186
     atom  39 (R=0.061)  charge=  0.5061  magn= -0.0007

     total cpu time spent up to now is     1017.5 secs

     End of self-consistent calculation

 ------ SPIN UP ------------


          k = 0.0000 0.0000 0.0000 ( 51087 PWs)   bands (ev):

   -21.4004 -10.1127  -7.4675  -6.8014  -6.2216  -5.6088  -5.4096  -4.5564
    -4.5392  -4.5376  -4.5339  -4.5329  -4.5007  -4.4815  -4.1701  -4.0268
    -4.0059  -4.0052  -3.9972  -3.9560  -3.9473  -3.5168  -3.4927  -3.4922
    -3.4811  -3.4594  -3.4338  -3.3627  -3.3590  -3.3567  -3.3528  -3.3457
    -3.3131  -3.2838  -3.2817  -2.9802  -2.9751  -2.9661  -2.9648  -2.9421
    -2.9172  -2.9152  -2.9034  -2.8965  -2.8950  -2.8918  -2.8896  -2.7444
    -2.7368  -2.7131  -2.6949  -2.6750  -2.6642  -2.6583  -2.6486  -2.6329
    -2.6305  -2.6206  -2.6073  -2.5350  -2.5324  -2.5293  -2.5223  -2.5196
    -2.4493  -2.2311  -2.0284  -2.0025  -2.0000  -1.9879  -1.9848  -1.8839
    -1.8710  -1.8587  -1.8520  -1.8463  -1.8313  -1.8134  -1.8067  -1.8040
    -1.7863  -1.7605  -1.7537  -1.7223  -1.7093  -1.7049  -1.6903  -1.6811
    -1.6741  -1.6667  -1.6646  -1.6594  -1.6408  -1.6344  -1.6330  -1.6279
    -1.6258  -1.6222  -1.6176  -1.6159  -1.6113  -1.6085  -1.6057  -1.6045
    -1.5920  -1.5518  -1.5419  -1.5334  -1.5244  -1.4600  -1.4542  -1.4075
    -1.2591  -1.2106  -1.1756  -1.1679  -1.1638  -1.1631  -1.1405  -1.1221
    -1.1200  -1.1177  -1.0857  -1.0727  -1.0685  -0.9604  -0.9509  -0.9443
    -0.9201  -0.8969  -0.8122  -0.7742  -0.7545  -0.7480  -0.7381  -0.7094
    -0.6886  -0.6808  -0.6761  -0.6734  -0.6559  -0.6386  -0.5868  -0.5617
    -0.4893  -0.4403  -0.4255  -0.4247  -0.4063  -0.3819  -0.3659  -0.3628
    -0.3576  -0.3563  -0.3520  -0.3495  -0.3449  -0.3395  -0.3376  -0.3290
    -0.3162  -0.3144  -0.2968  -0.2954  -0.2841  -0.2812  -0.2784  -0.2694
    -0.2559  -0.2545  -0.2331  -0.2277  -0.2214  -0.2135  -0.2086  -0.2051
    -0.2041  -0.2001  -0.1590  -0.1497  -0.1320  -0.1279  -0.1236  -0.1170
    -0.1144  -0.1056  -0.0865  -0.0835  -0.0757  -0.0590  -0.0291  -0.0278
    -0.0248  -0.0206   0.0332   0.0368   0.0400   0.0505   0.0633   0.0942
     0.4988   0.9639

          k = 0.0000 0.2309 0.0000 ( 51134 PWs)   bands (ev):

   -21.4004 -10.1134  -7.3271  -6.7754  -6.1498  -5.5994  -5.4084  -5.2328
    -4.7867  -4.7682  -4.4124  -4.2810  -4.1996  -4.1935  -4.1319  -4.0769
    -4.0472  -4.0044  -3.9298  -3.8849  -3.8594  -3.6167  -3.5100  -3.4908
    -3.4268  -3.4016  -3.3717  -3.3630  -3.3603  -3.3540  -3.3371  -3.3195
    -3.2911  -3.2451  -3.2380  -3.2185  -3.2120  -3.0436  -2.9954  -2.9847
    -2.9409  -2.9357  -2.9273  -2.9193  -2.8574  -2.8092  -2.7999  -2.7719
    -2.7618  -2.7566  -2.7352  -2.7184  -2.6314  -2.6195  -2.6006  -2.5638
    -2.5571  -2.5386  -2.5197  -2.5106  -2.4828  -2.4685  -2.4495  -2.4368
    -2.3905  -2.2704  -2.1279  -2.0989  -2.0857  -2.0548  -2.0285  -1.9714
    -1.9599  -1.9494  -1.9394  -1.9330  -1.9189  -1.9039  -1.8802  -1.8451
    -1.8125  -1.8108  -1.7923  -1.7620  -1.7485  -1.7415  -1.7357  -1.7254
    -1.7156  -1.7082  -1.7029  -1.7005  -1.6906  -1.6725  -1.6451  -1.6307
    -1.6035  -1.5800  -1.5509  -1.5268  -1.5174  -1.5137  -1.5099  -1.4970
    -1.4833  -1.4786  -1.4648  -1.4607  -1.4585  -1.4384  -1.4243  -1.4075
    -1.3894  -1.3843  -1.3527  -1.3136  -1.2855  -1.2305  -1.2142  -1.1905
    -1.1782  -1.1719  -1.1590  -1.1525  -1.1436  -1.1161  -1.0398  -1.0032
    -0.9754  -0.9552  -0.9305  -0.9019  -0.8834  -0.8404  -0.8177  -0.7947
    -0.7851  -0.7301  -0.7043  -0.6937  -0.6608  -0.6541  -0.6320  -0.6226
    -0.6166  -0.5900  -0.5772  -0.5433  -0.5283  -0.5221  -0.5061  -0.5018
    -0.4549  -0.4411  -0.4243  -0.4211  -0.4018  -0.3835  -0.3592  -0.3560
    -0.3463  -0.3389  -0.3340  -0.3277  -0.3083  -0.2973  -0.2765  -0.2429
    -0.2385  -0.2226  -0.2083  -0.1824  -0.1737  -0.1503  -0.1288  -0.1077
    -0.0969  -0.0886  -0.0778  -0.0737  -0.0502  -0.0455  -0.0390  -0.0301
    -0.0050   0.0280   0.0423   0.0537   0.0724   0.0797   0.1143   0.1270
     0.1424   0.1789   0.4194   0.4271   0.5128   0.5920   0.6608   0.7014
     0.7620   0.9048

          k = 0.0000 0.4619 0.0000 ( 51204 PWs)   bands (ev):

   -21.4004 -10.1145  -6.9847  -6.6736  -6.1614  -5.9517  -5.4881  -5.2650
    -4.9279  -4.9022  -4.7930  -4.0911  -4.0455  -4.0313  -3.9913  -3.9508
    -3.8429  -3.8387  -3.7973  -3.7160  -3.7046  -3.6905  -3.6017  -3.5279
    -3.5188  -3.5154  -3.5086  -3.4586  -3.4309  -3.4027  -3.3927  -3.2474
    -3.2394  -3.2329  -3.2133  -3.1962  -3.1840  -3.1110  -3.0908  -3.0766
    -3.0640  -3.0555  -2.9538  -2.8731  -2.8656  -2.7829  -2.7605  -2.7329
    -2.7177  -2.6814  -2.6753  -2.6695  -2.6508  -2.6399  -2.5882  -2.5709
    -2.5452  -2.5201  -2.5060  -2.4229  -2.3700  -2.3613  -2.3317  -2.2992
    -2.2699  -2.2506  -2.2277  -2.2056  -2.1926  -2.1451  -2.0853  -2.0799
    -2.0747  -2.0703  -2.0598  -2.0484  -2.0345  -2.0222  -1.9856  -1.9637
    -1.9539  -1.9300  -1.9025  -1.8887  -1.8618  -1.8326  -1.7777  -1.7609
    -1.7555  -1.7322  -1.7243  -1.7035  -1.6768  -1.6574  -1.6437  -1.6324
    -1.6217  -1.6129  -1.5924  -1.5797  -1.5672  -1.5593  -1.5482  -1.5217
    -1.5124  -1.4869  -1.4568  -1.4488  -1.4028  -1.3663  -1.3542  -1.3394
    -1.3316  -1.3143  -1.2676  -1.2499  -1.2300  -1.2188  -1.2111  -1.2065
    -1.1924  -1.1867  -1.1805  -1.1748  -1.1597  -1.1566  -1.1366  -1.1283
    -1.1060  -1.0869  -1.0306  -1.0088  -0.9776  -0.9700  -0.9614  -0.9319
    -0.9065  -0.8691  -0.8535  -0.8378  -0.8189  -0.7869  -0.7658  -0.7223
    -0.6944  -0.6640  -0.6540  -0.6337  -0.6181  -0.6040  -0.5903  -0.5140
    -0.4800  -0.4537  -0.4364  -0.4276  -0.4203  -0.4132  -0.4030  -0.3930
    -0.3748  -0.3417  -0.2912  -0.2797  -0.2671  -0.2548  -0.2438  -0.2394
    -0.2257  -0.2188  -0.2084  -0.1931  -0.1715  -0.1452  -0.0976  -0.0733
    -0.0675  -0.0521  -0.0350   0.0093   0.0340   0.0367   0.0571   0.0918
     0.1072   0.1448   0.1505   0.1705   0.1731   0.1794   0.1974   0.2075
     0.2774   0.2969   0.4060   0.9754   1.1776   1.3615   1.4126   1.4452
     1.6697   1.7892

          k = 0.2000-0.1155 0.0000 ( 51134 PWs)   bands (ev):

   -21.4004 -10.1128  -7.3276  -6.7752  -6.1541  -5.6143  -5.4071  -5.2108
    -4.7892  -4.7763  -4.4058  -4.2703  -4.2015  -4.1937  -4.1293  -4.0763
    -4.0592  -4.0053  -3.9233  -3.8900  -3.8610  -3.6141  -3.5129  -3.4892
    -3.4187  -3.3975  -3.3753  -3.3629  -3.3602  -3.3533  -3.3442  -3.3190
    -3.2903  -3.2474  -3.2375  -3.2195  -3.2118  -3.0265  -2.9967  -2.9884
    -2.9522  -2.9388  -2.9250  -2.9203  -2.8461  -2.8143  -2.7999  -2.7708
    -2.7590  -2.7552  -2.7428  -2.7181  -2.6286  -2.6217  -2.5985  -2.5678
    -2.5561  -2.5456  -2.5210  -2.5112  -2.4841  -2.4684  -2.4477  -2.4384
    -2.3845  -2.2783  -2.1250  -2.0991  -2.0830  -2.0530  -2.0263  -1.9690
    -1.9598  -1.9478  -1.9417  -1.9380  -1.9175  -1.9012  -1.8751  -1.8438
    -1.8178  -1.8114  -1.7966  -1.7610  -1.7535  -1.7448  -1.7376  -1.7254
    -1.7147  -1.7068  -1.7028  -1.7002  -1.6826  -1.6681  -1.6592  -1.6250
    -1.6066  -1.5786  -1.5499  -1.5280  -1.5143  -1.5127  -1.5081  -1.4990
    -1.4823  -1.4775  -1.4644  -1.4598  -1.4534  -1.4381  -1.4214  -1.4078
    -1.3909  -1.3842  -1.3453  -1.3080  -1.2926  -1.2382  -1.2195  -1.1915
    -1.1792  -1.1675  -1.1613  -1.1539  -1.1465  -1.1073  -1.0376  -1.0051
    -0.9797  -0.9693  -0.9280  -0.9018  -0.8850  -0.8362  -0.8179  -0.8035
    -0.7829  -0.7182  -0.7021  -0.6880  -0.6623  -0.6516  -0.6356  -0.6230
    -0.6148  -0.5893  -0.5850  -0.5429  -0.5266  -0.5203  -0.5071  -0.5024
    -0.4598  -0.4374  -0.4270  -0.4211  -0.3989  -0.3788  -0.3617  -0.3569
    -0.3462  -0.3382  -0.3320  -0.3265  -0.3066  -0.2972  -0.2822  -0.2479
    -0.2371  -0.2223  -0.2097  -0.1850  -0.1662  -0.1523  -0.1314  -0.1089
    -0.1002  -0.0885  -0.0770  -0.0729  -0.0508  -0.0431  -0.0403  -0.0195
    -0.0057   0.0292   0.0408   0.0532   0.0721   0.0798   0.1172   0.1283
     0.1377   0.1784   0.4137   0.4286   0.5278   0.5843   0.6605   0.6996
     0.7890   0.9135

          k = 0.2000 0.1155 0.0000 ( 51134 PWs)   bands (ev):

   -21.4004 -10.1139  -7.3257  -6.7756  -6.1437  -5.5783  -5.4150  -5.2674
    -4.7797  -4.7595  -4.4171  -4.3010  -4.2003  -4.1901  -4.1330  -4.0804
    -4.0213  -4.0066  -3.9395  -3.8740  -3.8595  -3.6196  -3.5033  -3.4969
    -3.4314  -3.4006  -3.3693  -3.3656  -3.3606  -3.3500  -3.3320  -3.3200
    -3.2824  -3.2471  -3.2423  -3.2143  -3.2114  -3.0361  -2.9884  -2.9851
    -2.9459  -2.9321  -2.9253  -2.9212  -2.8568  -2.8164  -2.8025  -2.7780
    -2.7627  -2.7571  -2.7400  -2.7242  -2.6335  -2.6231  -2.5991  -2.5678
    -2.5602  -2.5306  -2.5185  -2.5007  -2.4861  -2.4706  -2.4475  -2.4407
    -2.3955  -2.2601  -2.1214  -2.1006  -2.0805  -2.0590  -2.0374  -1.9630
    -1.9594  -1.9536  -1.9412  -1.9314  -1.9230  -1.9071  -1.8697  -1.8571
    -1.8306  -1.8086  -1.7825  -1.7709  -1.7491  -1.7456  -1.7396  -1.7226
    -1.7115  -1.7077  -1.7062  -1.6984  -1.6764  -1.6740  -1.6468  -1.6280
    -1.5938  -1.5731  -1.5664  -1.5326  -1.5154  -1.5079  -1.5033  -1.4967
    -1.4850  -1.4768  -1.4719  -1.4607  -1.4600  -1.4341  -1.4195  -1.4069
    -1.3929  -1.3877  -1.3704  -1.3237  -1.2937  -1.2211  -1.1969  -1.1884
    -1.1765  -1.1731  -1.1595  -1.1557  -1.1445  -1.1354  -1.0403  -1.0241
    -0.9692  -0.9549  -0.9039  -0.8998  -0.8720  -0.8566  -0.8200  -0.8058
    -0.7545  -0.7292  -0.7045  -0.6862  -0.6589  -0.6564  -0.6301  -0.6247
    -0.6084  -0.5983  -0.5737  -0.5286  -0.5197  -0.5115  -0.4991  -0.4952
    -0.4847  -0.4383  -0.4297  -0.4198  -0.4113  -0.3818  -0.3680  -0.3535
    -0.3482  -0.3410  -0.3316  -0.3242  -0.3022  -0.3003  -0.2697  -0.2578
    -0.2344  -0.2218  -0.2059  -0.1939  -0.1671  -0.1659  -0.1193  -0.1023
    -0.0972  -0.0885  -0.0842  -0.0738  -0.0495  -0.0448  -0.0328  -0.0207
     0.0001   0.0370   0.0448   0.0516   0.0773   0.0795   0.1131   0.1251
     0.1639   0.1759   0.4193   0.4223   0.5023   0.5660   0.6553   0.6811
     0.7523   0.9437

          k = 0.2000 0.3464 0.0000 ( 51202 PWs)   bands (ev):

   -21.4004 -10.1152  -7.0738  -6.7186  -6.0434  -5.6632  -5.6197  -5.3870
    -5.3465  -4.5053  -4.4547  -4.2025  -4.1902  -4.1512  -3.9894  -3.9812
    -3.8919  -3.8854  -3.8693  -3.7509  -3.7297  -3.6213  -3.6009  -3.5368
    -3.4981  -3.4096  -3.4008  -3.3901  -3.3725  -3.3532  -3.3316  -3.3118
    -3.3016  -3.2776  -3.2607  -3.2279  -3.1918  -3.1471  -3.1424  -3.0557
    -3.0253  -2.9294  -2.9208  -2.8986  -2.8795  -2.8711  -2.7787  -2.7395
    -2.7260  -2.6920  -2.6871  -2.6716  -2.6404  -2.6177  -2.6099  -2.5981
    -2.5739  -2.4994  -2.4665  -2.4148  -2.4065  -2.3924  -2.3594  -2.3427
    -2.3279  -2.2488  -2.2146  -2.1456  -2.1329  -2.1077  -2.0905  -2.0606
    -2.0508  -2.0402  -2.0284  -2.0159  -1.9973  -1.9805  -1.9760  -1.9688
    -1.9514  -1.9098  -1.8730  -1.8581  -1.7874  -1.7819  -1.7656  -1.7456
    -1.7407  -1.7058  -1.6921  -1.6689  -1.6598  -1.6410  -1.6298  -1.6162
    -1.6120  -1.6004  -1.5912  -1.5837  -1.5739  -1.5667  -1.5443  -1.5247
    -1.5203  -1.5081  -1.4784  -1.4497  -1.4319  -1.4075  -1.4011  -1.3824
    -1.3737  -1.3577  -1.3402  -1.3083  -1.2904  -1.2748  -1.2598  -1.2234
    -1.2168  -1.2046  -1.1979  -1.1905  -1.1717  -1.1482  -1.1331  -1.0964
    -1.0701  -1.0412  -1.0228  -0.9889  -0.9543  -0.9097  -0.8919  -0.8417
    -0.7934  -0.7848  -0.7742  -0.7633  -0.7494  -0.7323  -0.7229  -0.7099
    -0.6866  -0.6755  -0.6438  -0.6289  -0.6072  -0.5922  -0.5797  -0.5625
    -0.5491  -0.5314  -0.5084  -0.4879  -0.4816  -0.4346  -0.3754  -0.3428
    -0.3185  -0.3073  -0.2875  -0.2765  -0.2617  -0.2445  -0.2385  -0.2264
    -0.2167  -0.2072  -0.1546  -0.1314  -0.1205  -0.1127  -0.0767  -0.0634
    -0.0501  -0.0449  -0.0323  -0.0238  -0.0129  -0.0034   0.0058   0.0250
     0.0313   0.0677   0.1130   0.1236   0.1349   0.1695   0.1742   0.1902
     0.4880   0.5183   0.5739   0.6469   0.8535   0.8803   1.1723   1.3811
     1.4155   1.6221

          k = 0.2000-0.5774 0.0000 ( 51262 PWs)   bands (ev):

   -21.4004 -10.1148  -6.8865  -6.3971  -6.3612  -5.9458  -5.7052  -5.4361
    -5.0722  -4.9300  -4.5239  -4.1858  -3.9514  -3.9001  -3.8131  -3.7765
    -3.7684  -3.7431  -3.7323  -3.7112  -3.6694  -3.6575  -3.6553  -3.6487
    -3.5723  -3.5407  -3.5093  -3.5036  -3.4785  -3.4686  -3.3719  -3.3424
    -3.3231  -3.3178  -3.2904  -3.2479  -3.1882  -3.1518  -3.0744  -3.0268
    -3.0216  -2.9723  -2.9442  -2.9231  -2.8953  -2.8170  -2.8078  -2.7985
    -2.7413  -2.7262  -2.6521  -2.6225  -2.6094  -2.5856  -2.5389  -2.5241
    -2.4769  -2.4454  -2.4374  -2.4266  -2.4225  -2.4028  -2.3725  -2.3005
    -2.2682  -2.2370  -2.2232  -2.2129  -2.2006  -2.1534  -2.1338  -2.0898
    -2.0781  -2.0507  -2.0436  -2.0293  -2.0137  -1.9983  -1.9686  -1.9656
    -1.9478  -1.9361  -1.9194  -1.8959  -1.8942  -1.8756  -1.8284  -1.8193
    -1.7840  -1.7638  -1.7393  -1.7123  -1.6928  -1.6711  -1.6527  -1.6367
    -1.6187  -1.6135  -1.6050  -1.5910  -1.5851  -1.5749  -1.5478  -1.5207
    -1.4917  -1.4684  -1.4522  -1.4451  -1.4370  -1.4253  -1.4193  -1.4100
    -1.4034  -1.3928  -1.3745  -1.3559  -1.3321  -1.3075  -1.2843  -1.2605
    -1.2300  -1.2024  -1.1703  -1.1617  -1.1318  -1.1261  -1.1119  -1.0868
    -1.0548  -1.0489  -1.0364  -1.0049  -0.9514  -0.9126  -0.8955  -0.8814
    -0.8707  -0.8572  -0.8491  -0.8198  -0.8022  -0.7891  -0.7615  -0.7350
    -0.7120  -0.6892  -0.6789  -0.6725  -0.6416  -0.6116  -0.6028  -0.5901
    -0.5722  -0.5519  -0.5383  -0.5293  -0.4932  -0.4610  -0.4408  -0.3532
    -0.3045  -0.2860  -0.2749  -0.2616  -0.2561  -0.2480  -0.2401  -0.2109
    -0.1913  -0.1860  -0.1720  -0.1590  -0.1264  -0.1153  -0.0512  -0.0453
    -0.0365  -0.0178  -0.0075   0.0063   0.0457   0.0523   0.0587   0.0657
     0.0828   0.1480   0.1544   0.1624   0.1751   0.1780   0.2072   0.2336
     0.3288   0.5447   0.6497   0.8926   1.3600   1.4707   1.5175   1.8208
     1.9076   2.0067

          k = 0.2000-0.3464 0.0000 ( 51202 PWs)   bands (ev):

   -21.4004 -10.1134  -7.0780  -6.7204  -6.0577  -5.7011  -5.6139  -5.3991
    -5.2754  -4.5285  -4.4235  -4.2050  -4.2004  -4.1435  -3.9869  -3.9825
    -3.8903  -3.8734  -3.8629  -3.7598  -3.7475  -3.6110  -3.6087  -3.5409
    -3.4978  -3.4160  -3.3989  -3.3823  -3.3695  -3.3448  -3.3349  -3.3260
    -3.3088  -3.2830  -3.2631  -3.2304  -3.1970  -3.1535  -3.1351  -3.0487
    -3.0229  -2.9350  -2.9247  -2.8978  -2.8868  -2.8514  -2.7664  -2.7338
    -2.7182  -2.6971  -2.6884  -2.6663  -2.6448  -2.6307  -2.6079  -2.5873
    -2.5833  -2.5163  -2.4640  -2.4127  -2.4064  -2.3783  -2.3643  -2.3378
    -2.3256  -2.2691  -2.2062  -2.1416  -2.1258  -2.1130  -2.0916  -2.0631
    -2.0552  -2.0356  -2.0278  -2.0139  -2.0048  -1.9865  -1.9731  -1.9684
    -1.9431  -1.9108  -1.8622  -1.8160  -1.7863  -1.7742  -1.7638  -1.7430
    -1.7316  -1.7197  -1.6961  -1.6778  -1.6553  -1.6498  -1.6294  -1.6195
    -1.6166  -1.6067  -1.5988  -1.5817  -1.5726  -1.5612  -1.5517  -1.5302
    -1.5192  -1.5055  -1.4848  -1.4487  -1.4306  -1.4095  -1.3889  -1.3789
    -1.3660  -1.3541  -1.3457  -1.2958  -1.2827  -1.2752  -1.2550  -1.2359
    -1.2163  -1.2084  -1.1979  -1.1862  -1.1667  -1.1547  -1.1359  -1.0916
    -1.0792  -1.0447  -1.0366  -0.9936  -0.9564  -0.9201  -0.8935  -0.8300
    -0.7988  -0.7806  -0.7754  -0.7625  -0.7517  -0.7369  -0.7315  -0.7112
    -0.6932  -0.6711  -0.6434  -0.6298  -0.6149  -0.5912  -0.5841  -0.5665
    -0.5532  -0.5336  -0.5014  -0.4877  -0.4819  -0.4402  -0.3812  -0.3303
    -0.3210  -0.3025  -0.2870  -0.2790  -0.2588  -0.2557  -0.2445  -0.2273
    -0.2144  -0.1914  -0.1457  -0.1368  -0.1279  -0.1243  -0.0794  -0.0554
    -0.0513  -0.0445  -0.0349  -0.0216  -0.0139  -0.0070   0.0014   0.0152
     0.0396   0.0979   0.1153   0.1227   0.1314   0.1634   0.1798   0.2069
     0.4882   0.5179   0.5289   0.7432   0.7974   0.8795   1.1557   1.3844
     1.4097   1.6127

          k = 0.4000-0.2309 0.0000 ( 51204 PWs)   bands (ev):

   -21.4004 -10.1130  -6.9844  -6.6760  -6.1741  -5.9583  -5.5080  -5.2249
    -4.9264  -4.9153  -4.7763  -4.0845  -4.0588  -4.0340  -3.9905  -3.9453
    -3.8453  -3.8382  -3.7944  -3.7160  -3.7056  -3.6908  -3.5951  -3.5288
    -3.5195  -3.5149  -3.5100  -3.4556  -3.4205  -3.3997  -3.3924  -3.2644
    -3.2402  -3.2332  -3.2161  -3.1975  -3.1841  -3.0992  -3.0852  -3.0789
    -3.0628  -3.0556  -2.9452  -2.8932  -2.8571  -2.7846  -2.7577  -2.7367
    -2.7168  -2.6816  -2.6746  -2.6703  -2.6589  -2.6396  -2.5902  -2.5706
    -2.5408  -2.5259  -2.5007  -2.4243  -2.3697  -2.3653  -2.3252  -2.2978
    -2.2636  -2.2503  -2.2296  -2.2080  -2.2031  -2.1429  -2.1018  -2.0788
    -2.0744  -2.0727  -2.0662  -2.0470  -2.0341  -2.0207  -1.9818  -1.9614
    -1.9519  -1.9317  -1.9039  -1.8923  -1.8586  -1.8361  -1.7782  -1.7659
    -1.7548  -1.7301  -1.7212  -1.6965  -1.6774  -1.6537  -1.6411  -1.6333
    -1.6172  -1.6109  -1.5858  -1.5825  -1.5677  -1.5601  -1.5443  -1.5215
    -1.5124  -1.4880  -1.4707  -1.4502  -1.3994  -1.3698  -1.3469  -1.3385
    -1.3289  -1.3110  -1.2744  -1.2507  -1.2328  -1.2193  -1.2115  -1.2071
    -1.1956  -1.1907  -1.1783  -1.1714  -1.1604  -1.1494  -1.1364  -1.1277
    -1.1003  -1.0787  -1.0276  -1.0107  -0.9812  -0.9685  -0.9569  -0.9312
    -0.9062  -0.8724  -0.8552  -0.8401  -0.8201  -0.7891  -0.7683  -0.7241
    -0.7012  -0.6609  -0.6493  -0.6351  -0.6174  -0.6061  -0.5899  -0.5159
    -0.4774  -0.4584  -0.4389  -0.4243  -0.4206  -0.4131  -0.4048  -0.3982
    -0.3745  -0.3519  -0.2905  -0.2770  -0.2647  -0.2571  -0.2470  -0.2396
    -0.2276  -0.2176  -0.2097  -0.1907  -0.1677  -0.1395  -0.0979  -0.0727
    -0.0704  -0.0534  -0.0361   0.0125   0.0307   0.0462   0.0574   0.1021
     0.1094   0.1456   0.1500   0.1708   0.1737   0.1812   0.2036   0.2073
     0.2777   0.2990   0.4257   0.9424   1.2066   1.3774   1.4109   1.4465
     1.6582   1.7797

          k = 0.4000 0.0000 0.0000 ( 51202 PWs)   bands (ev):

   -21.4004 -10.1143  -7.0744  -6.7198  -6.0505  -5.6844  -5.6141  -5.3966
    -5.3147  -4.5161  -4.4378  -4.2036  -4.1959  -4.1478  -3.9882  -3.9802
    -3.8908  -3.8798  -3.8683  -3.7513  -3.7388  -3.6194  -3.6014  -3.5379
    -3.4988  -3.4125  -3.4004  -3.3822  -3.3718  -3.3528  -3.3300  -3.3146
    -3.3030  -3.2785  -3.2613  -3.2280  -3.1919  -3.1487  -3.1427  -3.0449
    -3.0214  -2.9335  -2.9250  -2.8997  -2.8733  -2.8666  -2.7771  -2.7455
    -2.7265  -2.6931  -2.6869  -2.6730  -2.6443  -2.6225  -2.6111  -2.5988
    -2.5728  -2.5148  -2.4680  -2.4113  -2.4023  -2.3930  -2.3600  -2.3432
    -2.3277  -2.2502  -2.2112  -2.1438  -2.1302  -2.1064  -2.0893  -2.0656
    -2.0515  -2.0353  -2.0278  -2.0164  -1.9999  -1.9828  -1.9756  -1.9645
    -1.9515  -1.9098  -1.8695  -1.8493  -1.7903  -1.7834  -1.7720  -1.7447
    -1.7370  -1.7038  -1.6935  -1.6718  -1.6637  -1.6367  -1.6305  -1.6171
    -1.6117  -1.5973  -1.5943  -1.5825  -1.5740  -1.5664  -1.5427  -1.5247
    -1.5188  -1.5033  -1.4794  -1.4476  -1.4308  -1.4049  -1.3990  -1.3835
    -1.3740  -1.3599  -1.3356  -1.3099  -1.2914  -1.2769  -1.2613  -1.2328
    -1.2159  -1.2085  -1.1989  -1.1932  -1.1727  -1.1467  -1.1326  -1.0957
    -1.0711  -1.0410  -1.0256  -0.9948  -0.9523  -0.9059  -0.8925  -0.8495
    -0.7934  -0.7822  -0.7749  -0.7608  -0.7505  -0.7316  -0.7187  -0.7049
    -0.6868  -0.6755  -0.6423  -0.6275  -0.6080  -0.5918  -0.5788  -0.5638
    -0.5483  -0.5291  -0.5046  -0.4905  -0.4837  -0.4433  -0.3825  -0.3391
    -0.3190  -0.3046  -0.2891  -0.2767  -0.2599  -0.2461  -0.2412  -0.2291
    -0.2205  -0.2060  -0.1529  -0.1296  -0.1209  -0.1128  -0.0769  -0.0602
    -0.0498  -0.0442  -0.0317  -0.0199  -0.0121  -0.0031   0.0051   0.0245
     0.0337   0.0734   0.1126   0.1224   0.1401   0.1691   0.1748   0.1946
     0.4882   0.5193   0.5624   0.6892   0.8445   0.8718   1.1705   1.3747
     1.4249   1.5934

          k = 0.4000 0.2309 0.0000 ( 51204 PWs)   bands (ev):

   -21.4004 -10.1160  -6.9809  -6.6718  -6.1396  -5.9534  -5.4366  -5.3557
    -4.9273  -4.8835  -4.8235  -4.0992  -4.0260  -4.0148  -3.9934  -3.9598
    -3.8427  -3.8345  -3.7952  -3.7129  -3.6975  -3.6933  -3.6143  -3.5219
    -3.5207  -3.5113  -3.5084  -3.4555  -3.4428  -3.4021  -3.3917  -3.2388
    -3.2376  -3.2172  -3.2058  -3.1900  -3.1792  -3.1097  -3.0789  -3.0708
    -3.0626  -3.0584  -2.9498  -2.8834  -2.8667  -2.7935  -2.7749  -2.7394
    -2.7274  -2.6853  -2.6804  -2.6698  -2.6530  -2.6382  -2.5788  -2.5725
    -2.5533  -2.5301  -2.5100  -2.4196  -2.3720  -2.3520  -2.3499  -2.2987
    -2.2636  -2.2434  -2.2361  -2.2224  -2.1679  -2.1450  -2.1261  -2.0835
    -2.0800  -2.0693  -2.0552  -2.0527  -2.0296  -2.0179  -1.9955  -1.9560
    -1.9507  -1.9282  -1.9022  -1.8659  -1.8637  -1.8393  -1.7818  -1.7716
    -1.7597  -1.7406  -1.7239  -1.7130  -1.6708  -1.6498  -1.6385  -1.6325
    -1.6248  -1.6035  -1.5947  -1.5770  -1.5656  -1.5536  -1.5396  -1.5312
    -1.5090  -1.4903  -1.4475  -1.4434  -1.3787  -1.3704  -1.3520  -1.3372
    -1.3291  -1.3170  -1.2821  -1.2455  -1.2343  -1.2199  -1.2102  -1.2071
    -1.1944  -1.1901  -1.1797  -1.1786  -1.1705  -1.1581  -1.1342  -1.1269
    -1.1189  -1.0917  -1.0260  -1.0032  -0.9753  -0.9709  -0.9471  -0.9416
    -0.9182  -0.8600  -0.8463  -0.8247  -0.8113  -0.7760  -0.7706  -0.7233
    -0.7051  -0.6593  -0.6404  -0.6307  -0.6103  -0.5974  -0.5649  -0.5451
    -0.4748  -0.4550  -0.4301  -0.4253  -0.4226  -0.4135  -0.4007  -0.3987
    -0.3819  -0.3272  -0.2987  -0.2775  -0.2654  -0.2616  -0.2554  -0.2419
    -0.2325  -0.2037  -0.1978  -0.1880  -0.1754  -0.1677  -0.0890  -0.0776
    -0.0653  -0.0582  -0.0293   0.0024   0.0304   0.0373   0.0651   0.0834
     0.1068   0.1470   0.1479   0.1715   0.1741   0.1791   0.2030   0.2282
     0.2767   0.2913   0.4142   0.9924   1.2303   1.3318   1.3956   1.4205
     1.7082   1.7725

          k = 0.4000-0.6928 0.0000 ( 51262 PWs)   bands (ev):

   -21.4004 -10.1158  -6.8851  -6.3897  -6.3490  -5.9690  -5.7016  -5.3823
    -5.1405  -4.9505  -4.4931  -4.1837  -3.9498  -3.9073  -3.8157  -3.7773
    -3.7679  -3.7436  -3.7308  -3.7162  -3.6680  -3.6583  -3.6545  -3.6417
    -3.5703  -3.5453  -3.5052  -3.4982  -3.4757  -3.4741  -3.3799  -3.3369
    -3.3179  -3.3152  -3.2805  -3.2489  -3.1739  -3.1478  -3.0789  -3.0248
    -3.0218  -2.9707  -2.9463  -2.9233  -2.8889  -2.8245  -2.8147  -2.7965
    -2.7490  -2.7399  -2.6470  -2.6245  -2.6054  -2.5832  -2.5360  -2.5327
    -2.4784  -2.4446  -2.4420  -2.4298  -2.4254  -2.4100  -2.3830  -2.3059
    -2.2524  -2.2322  -2.2228  -2.2155  -2.1872  -2.1526  -2.1475  -2.0974
    -2.0769  -2.0485  -2.0402  -2.0349  -2.0252  -1.9922  -1.9762  -1.9666
    -1.9508  -1.9407  -1.9290  -1.8997  -1.8923  -1.8677  -1.8289  -1.8158
    -1.7982  -1.7571  -1.7252  -1.7214  -1.7017  -1.6561  -1.6486  -1.6366
    -1.6192  -1.6146  -1.6078  -1.5914  -1.5831  -1.5590  -1.5420  -1.5132
    -1.4936  -1.4671  -1.4506  -1.4447  -1.4283  -1.4247  -1.4217  -1.4100
    -1.3969  -1.3863  -1.3686  -1.3577  -1.3416  -1.3048  -1.2817  -1.2752
    -1.2461  -1.2055  -1.1645  -1.1522  -1.1440  -1.1274  -1.1200  -1.0878
    -1.0571  -1.0443  -1.0317  -1.0082  -0.9341  -0.9144  -0.8949  -0.8892
    -0.8767  -0.8607  -0.8358  -0.8254  -0.8017  -0.7777  -0.7568  -0.7453
    -0.7167  -0.6922  -0.6758  -0.6649  -0.6410  -0.6076  -0.5962  -0.5748
    -0.5653  -0.5565  -0.5438  -0.5270  -0.4809  -0.4705  -0.4427  -0.3575
    -0.2957  -0.2938  -0.2757  -0.2694  -0.2563  -0.2505  -0.2321  -0.2216
    -0.1991  -0.1818  -0.1690  -0.1551  -0.1330  -0.1071  -0.0521  -0.0401
    -0.0276  -0.0164  -0.0118   0.0104   0.0435   0.0502   0.0614   0.0663
     0.0897   0.1190   0.1525   0.1569   0.1709   0.1862   0.2037   0.2286
     0.3381   0.5457   0.6715   0.9412   1.3110   1.4653   1.5027   1.8160
     1.9367   2.0029

          k = 0.4000-0.4619 0.0000 ( 51262 PWs)   bands (ev):

   -21.4004 -10.1139  -6.8852  -6.4027  -6.3683  -5.9421  -5.6965  -5.4708
    -5.0253  -4.9302  -4.5399  -4.1887  -3.9509  -3.8952  -3.8007  -3.7753
    -3.7684  -3.7435  -3.7353  -3.7094  -3.6736  -3.6571  -3.6558  -3.6507
    -3.5701  -3.5410  -3.5081  -3.5057  -3.4788  -3.4680  -3.3687  -3.3386
    -3.3249  -3.3169  -3.2936  -3.2491  -3.2018  -3.1515  -3.0497  -3.0269
    -3.0211  -2.9873  -2.9450  -2.9171  -2.8960  -2.8157  -2.8087  -2.8049
    -2.7388  -2.7268  -2.6538  -2.6246  -2.6114  -2.5858  -2.5412  -2.5230
    -2.4723  -2.4459  -2.4359  -2.4282  -2.4222  -2.3988  -2.3690  -2.3029
    -2.2720  -2.2356  -2.2231  -2.2111  -2.2069  -2.1537  -2.1351  -2.0979
    -2.0817  -2.0512  -2.0433  -2.0268  -2.0071  -2.0000  -1.9696  -1.9618
    -1.9476  -1.9382  -1.9255  -1.8996  -1.8937  -1.8805  -1.8292  -1.8148
    -1.7860  -1.7634  -1.7299  -1.7097  -1.6937  -1.6696  -1.6523  -1.6318
    -1.6231  -1.6137  -1.6034  -1.5922  -1.5809  -1.5703  -1.5477  -1.5277
    -1.4934  -1.4705  -1.4530  -1.4469  -1.4323  -1.4247  -1.4174  -1.4106
    -1.4032  -1.3898  -1.3755  -1.3569  -1.3284  -1.3094  -1.2817  -1.2660
    -1.2253  -1.1985  -1.1754  -1.1607  -1.1309  -1.1224  -1.1112  -1.0939
    -1.0549  -1.0466  -1.0339  -1.0054  -0.9510  -0.9126  -0.8991  -0.8795
    -0.8694  -0.8620  -0.8490  -0.8190  -0.8059  -0.7894  -0.7588  -0.7335
    -0.7140  -0.6908  -0.6770  -0.6679  -0.6453  -0.6156  -0.5966  -0.5905
    -0.5745  -0.5497  -0.5399  -0.5306  -0.4938  -0.4605  -0.4452  -0.3567
    -0.3049  -0.2854  -0.2760  -0.2646  -0.2564  -0.2501  -0.2409  -0.2080
    -0.1964  -0.1851  -0.1724  -0.1562  -0.1242  -0.1161  -0.0517  -0.0467
    -0.0288  -0.0200  -0.0092   0.0035   0.0480   0.0516   0.0577   0.0688
     0.0819   0.1496   0.1569   0.1680   0.1767   0.1919   0.2078   0.2380
     0.3318   0.5458   0.6359   0.9044   1.3594   1.4681   1.5279   1.7758
     1.9507   1.9988

 ------ SPIN DOWN ----------


          k = 0.0000 0.0000 0.0000 ( 51087 PWs)   bands (ev):

   -21.3771 -10.1956  -7.5913  -6.7959  -6.2627  -5.6000  -5.3902  -4.3613
    -4.3422  -4.3378  -4.3355  -4.3314  -4.2952  -4.1988  -3.5003  -3.4661
    -3.4649  -3.4599  -3.4319  -3.3982  -3.3011  -2.5771  -2.5202  -2.5152
    -2.5069  -2.4790  -2.4298  -2.0792  -2.0522  -2.0497  -2.0462  -2.0409
    -2.0223  -1.8962  -1.8461  -1.7929  -1.7671  -1.7633  -1.7512  -1.7293
    -1.6564  -1.6552  -1.6159  -1.6076  -1.5763  -1.5303  -1.5003  -1.4979
    -1.4917  -1.4659  -1.3146  -1.2424  -1.2359  -1.2301  -1.2258  -1.2161
    -1.2156  -1.2002  -1.1867  -1.1618  -1.1569  -1.1407  -1.1362  -1.1233
    -1.0894  -1.0019  -0.6649  -0.5773  -0.5724  -0.5508  -0.5445  -0.4163
    -0.3568  -0.2588  -0.2405  -0.2356  -0.2239  -0.2204  -0.2173  -0.1744
    -0.1674  -0.1642  -0.1497  -0.1395  -0.1387  -0.1378  -0.0835  -0.0547
    -0.0429  -0.0324  -0.0261  -0.0138   0.0116   0.0169   0.0193   0.0269
     0.0278   0.0300   0.0528   0.0545   0.0556   0.0685   0.1025   0.1145
     0.1912   0.2160   0.2246   0.2662   0.2740   0.2803   0.2832   0.2866
     0.2916   0.2929   0.2940   0.3615   0.3625   0.3681   0.4215   0.4311
     0.4519   0.4704   0.4749   0.5083   0.6048   0.6738   0.6802   0.7234
     0.7595   0.7618   0.7712   0.7728   0.8279   0.9512   1.0722   1.0957
     1.1156   1.1191   1.2984   1.3139   1.3249   1.3302   1.3372   1.3400
     1.3617   1.4883   1.4933   1.5037   1.5083   1.5108   1.5338   1.5372
     1.5432   1.5689   1.5864   1.5975   1.6359   1.6378   1.6438   1.6557
     1.6578   1.6635   1.6650   1.6764   1.7043   1.7175   1.7469   1.7632
     1.7704   1.7733   1.7778   1.7854   1.7859   1.7915   1.7947   1.8304
     1.8486   1.8613   1.8654   1.8665   1.8795   1.8810   1.8857   1.9193
     1.9205   1.9294   1.9320   1.9379   1.9396   1.9493   1.9546   1.9593
     1.9649   2.0107   2.0132   2.0686   2.1591   2.1622   2.1691   2.1731
     2.1758   2.1795

          k = 0.0000 0.2309 0.0000 ( 51134 PWs)   bands (ev):

   -21.3771 -10.1963  -7.4462  -6.7684  -6.1852  -5.6122  -5.3958  -5.2466
    -4.7234  -4.7021  -4.1992  -4.0559  -3.7953  -3.7834  -3.7059  -3.6499
    -3.4967  -3.2409  -3.1362  -3.0957  -3.0138  -2.7471  -2.5555  -2.5033
    -2.4674  -2.4177  -2.3835  -2.1903  -2.1018  -2.0878  -2.0775  -2.0462
    -2.0339  -2.0060  -1.9897  -1.9575  -1.9445  -1.8662  -1.8061  -1.7526
    -1.7259  -1.7187  -1.6739  -1.5690  -1.5335  -1.5241  -1.4992  -1.4425
    -1.3844  -1.3712  -1.3235  -1.2850  -1.2718  -1.2479  -1.2293  -1.2255
    -1.2055  -1.1871  -1.1263  -1.1132  -1.0825  -1.0651  -1.0458  -1.0142
    -0.9788  -0.8970  -0.7300  -0.6170  -0.6037  -0.5796  -0.5673  -0.5177
    -0.4511  -0.4358  -0.3906  -0.3704  -0.2682  -0.2594  -0.2474  -0.2316
    -0.2194  -0.2054  -0.1895  -0.1731  -0.1650  -0.1483  -0.1189  -0.0641
    -0.0421  -0.0280  -0.0194  -0.0095   0.0136   0.0341   0.0414   0.0521
     0.0563   0.0640   0.0673   0.0759   0.0786   0.0855   0.1264   0.1388
     0.1570   0.1696   0.1790   0.1894   0.2105   0.2238   0.2420   0.2598
     0.2817   0.2959   0.3489   0.3766   0.3831   0.4021   0.4136   0.4296
     0.4938   0.5612   0.6049   0.6419   0.6482   0.6800   0.6998   0.7231
     0.7314   0.7480   0.7520   0.7580   0.8165   0.9895   1.0592   1.0826
     1.0876   1.0913   1.1051   1.1268   1.1493   1.1698   1.2475   1.2712
     1.3020   1.3233   1.3617   1.3720   1.3992   1.4181   1.4465   1.4788
     1.5072   1.5431   1.5501   1.5620   1.5734   1.5883   1.6109   1.6205
     1.6525   1.6848   1.7019   1.7198   1.7438   1.7492   1.7620   1.8033
     1.8106   1.8211   1.8269   1.8346   1.8493   1.8870   1.9093   1.9187
     1.9246   1.9445   1.9583   1.9703   1.9798   1.9907   2.0093   2.0161
     2.0298   2.0693   2.0725   2.0830   2.0934   2.1012   2.1167   2.1220
     2.1377   2.1604   2.1675   2.1770   2.2432   2.2652   2.2709   2.2983
     2.3477   2.3669

          k = 0.0000 0.4619 0.0000 ( 51204 PWs)   bands (ev):

   -21.3771 -10.1974  -7.0550  -6.7090  -6.2420  -5.9772  -5.5072  -5.2786
    -4.9402  -4.9064  -4.7782  -3.8592  -3.8225  -3.7144  -3.2331  -3.1750
    -3.1654  -3.0511  -2.9060  -2.8605  -2.7433  -2.7152  -2.5814  -2.5668
    -2.5322  -2.4968  -2.4528  -2.4149  -2.3461  -2.3215  -2.2925  -2.2509
    -2.2346  -2.0573  -2.0297  -1.9594  -1.9513  -1.8655  -1.8391  -1.8259
    -1.8146  -1.8028  -1.7205  -1.5629  -1.5152  -1.4901  -1.4714  -1.4339
    -1.3115  -1.3050  -1.2806  -1.2753  -1.2619  -1.2388  -1.2338  -1.2110
    -1.1836  -1.1147  -1.1114  -1.1026  -1.0770  -1.0455  -0.9378  -0.9085
    -0.8244  -0.7731  -0.7121  -0.6457  -0.6266  -0.5974  -0.5766  -0.5576
    -0.5455  -0.5242  -0.4859  -0.4609  -0.4409  -0.3994  -0.3674  -0.3560
    -0.3226  -0.2994  -0.2797  -0.2753  -0.2413  -0.2073  -0.1652  -0.1145
    -0.0934  -0.0797  -0.0394  -0.0179  -0.0026   0.0308   0.0441   0.0669
     0.0871   0.1041   0.1096   0.1270   0.1375   0.1425   0.1675   0.1884
     0.1959   0.2175   0.2305   0.2396   0.2457   0.2512   0.2603   0.2814
     0.3034   0.3199   0.3767   0.4075   0.4465   0.4536   0.4823   0.5030
     0.5043   0.5275   0.5401   0.5631   0.6108   0.6141   0.6241   0.6592
     0.6778   0.6845   0.7123   0.7280   0.7571   0.7795   0.8659   0.9002
     0.9290   0.9508   1.0400   1.0838   1.1384   1.1641   1.1787   1.1888
     1.2068   1.2163   1.2534   1.2848   1.2982   1.3746   1.4461   1.4656
     1.4797   1.5004   1.5297   1.5495   1.5887   1.5978   1.6240   1.6387
     1.6719   1.6795   1.7215   1.7479   1.7828   1.7939   1.8197   1.8325
     1.8405   1.8456   1.8569   1.8904   1.9113   1.9199   1.9309   1.9573
     1.9746   2.0100   2.0307   2.0638   2.0826   2.1034   2.1126   2.1211
     2.1227   2.1423   2.1610   2.1708   2.1831   2.1951   2.1997   2.2036
     2.2301   2.2507   2.3398   2.4096   2.4133   2.5412   2.6746   2.8401
     2.9355   2.9840

          k = 0.2000-0.1155 0.0000 ( 51134 PWs)   bands (ev):

   -21.3771 -10.1958  -7.4467  -6.7681  -6.1897  -5.6283  -5.3944  -5.2220
    -4.7273  -4.7103  -4.1862  -4.0471  -3.7965  -3.7839  -3.7186  -3.6568
    -3.4933  -3.2405  -3.1410  -3.0974  -3.0047  -2.7294  -2.5711  -2.5045
    -2.4577  -2.4281  -2.3843  -2.1759  -2.1058  -2.0867  -2.0763  -2.0566
    -2.0314  -2.0102  -1.9897  -1.9642  -1.9439  -1.8620  -1.8058  -1.7315
    -1.7237  -1.7105  -1.6885  -1.5791  -1.5323  -1.5233  -1.4998  -1.4347
    -1.3924  -1.3715  -1.3171  -1.2970  -1.2709  -1.2463  -1.2305  -1.2229
    -1.2024  -1.1960  -1.1336  -1.1129  -1.0827  -1.0623  -1.0499  -1.0101
    -0.9842  -0.8848  -0.7321  -0.6178  -0.6015  -0.5808  -0.5658  -0.5173
    -0.4546  -0.4340  -0.3914  -0.3724  -0.2747  -0.2585  -0.2497  -0.2314
    -0.2166  -0.2038  -0.1884  -0.1727  -0.1670  -0.1515  -0.1152  -0.0646
    -0.0395  -0.0283  -0.0176  -0.0120   0.0090   0.0324   0.0420   0.0510
     0.0606   0.0650   0.0691   0.0771   0.0786   0.0853   0.1257   0.1372
     0.1570   0.1687   0.1833   0.1889   0.2065   0.2312   0.2392   0.2566
     0.2837   0.2884   0.3478   0.3668   0.3853   0.4022   0.4155   0.4292
     0.4965   0.5698   0.6244   0.6430   0.6529   0.6677   0.6988   0.7237
     0.7343   0.7464   0.7507   0.7593   0.8088   0.9885   1.0607   1.0840
     1.0866   1.0933   1.1095   1.1254   1.1466   1.1740   1.2504   1.2721
     1.3025   1.3278   1.3643   1.3712   1.3994   1.4163   1.4457   1.4693
     1.5075   1.5454   1.5547   1.5659   1.5727   1.5893   1.6110   1.6208
     1.6431   1.6806   1.7085   1.7200   1.7446   1.7507   1.7629   1.8018
     1.8102   1.8216   1.8285   1.8321   1.8502   1.8856   1.9089   1.9170
     1.9236   1.9484   1.9550   1.9703   1.9799   1.9929   2.0092   2.0154
     2.0295   2.0707   2.0729   2.0835   2.0952   2.1019   2.1174   2.1290
     2.1444   2.1606   2.1683   2.1791   2.2386   2.2644   2.2699   2.3056
     2.3386   2.3674

          k = 0.2000 0.1155 0.0000 ( 51134 PWs)   bands (ev):

   -21.3771 -10.1969  -7.4448  -6.7686  -6.1785  -5.5888  -5.3999  -5.2901
    -4.7077  -4.6955  -4.2064  -4.0877  -3.7917  -3.7854  -3.6673  -3.6434
    -3.5046  -3.2400  -3.1217  -3.0992  -3.0284  -2.7605  -2.5309  -2.5093
    -2.4680  -2.4078  -2.3928  -2.1838  -2.0875  -2.0800  -2.0743  -2.0512
    -2.0390  -2.0105  -1.9899  -1.9610  -1.9519  -1.8755  -1.8024  -1.7693
    -1.7250  -1.7203  -1.6407  -1.6117  -1.5453  -1.5242  -1.4847  -1.4142
    -1.3931  -1.3690  -1.3203  -1.3084  -1.2658  -1.2479  -1.2320  -1.2240
    -1.2151  -1.1723  -1.1494  -1.1087  -1.0908  -1.0548  -1.0416  -1.0098
    -0.9736  -0.8802  -0.7412  -0.6173  -0.6055  -0.5801  -0.5660  -0.5204
    -0.4698  -0.4245  -0.3897  -0.3776  -0.2860  -0.2513  -0.2473  -0.2417
    -0.2041  -0.1953  -0.1925  -0.1761  -0.1699  -0.1427  -0.1292  -0.0606
    -0.0394  -0.0285  -0.0163  -0.0110   0.0028   0.0412   0.0464   0.0521
     0.0561   0.0647   0.0687   0.0768   0.0773   0.0859   0.1284   0.1337
     0.1577   0.1666   0.1857   0.1870   0.1920   0.2342   0.2471   0.2616
     0.2834   0.2875   0.3441   0.3841   0.3949   0.4012   0.4184   0.4289
     0.4708   0.5658   0.6053   0.6418   0.6499   0.6952   0.7092   0.7262
     0.7360   0.7442   0.7530   0.7648   0.8071   0.9850   1.0603   1.0747
     1.0831   1.0980   1.1166   1.1308   1.1535   1.2147   1.2500   1.2746
     1.2875   1.3222   1.3640   1.3750   1.4068   1.4195   1.4279   1.4480
     1.5139   1.5347   1.5599   1.5727   1.5871   1.6022   1.6081   1.6289
     1.6394   1.6867   1.6984   1.7171   1.7300   1.7588   1.7630   1.7932
     1.8127   1.8194   1.8312   1.8349   1.8568   1.8833   1.9065   1.9142
     1.9206   1.9351   1.9581   1.9672   1.9844   1.9928   2.0058   2.0201
     2.0331   2.0686   2.0722   2.0771   2.0956   2.0995   2.1067   2.1297
     2.1354   2.1632   2.1658   2.1731   2.2506   2.2604   2.2685   2.3031
     2.3379   2.3834

          k = 0.2000 0.3464 0.0000 ( 51202 PWs)   bands (ev):

   -21.3771 -10.1982  -7.1699  -6.7279  -6.0561  -5.7322  -5.6987  -5.4053
    -5.3453  -4.4518  -4.3726  -3.9844  -3.9649  -3.8622  -3.1598  -3.1449
    -3.1360  -3.1227  -3.0278  -2.9354  -2.8621  -2.8415  -2.8057  -2.4737
    -2.4244  -2.3865  -2.3699  -2.3047  -2.2899  -2.2698  -2.2147  -2.1803
    -2.1686  -2.1627  -2.1336  -2.0293  -1.9701  -1.8804  -1.8018  -1.7924
    -1.7602  -1.7253  -1.6641  -1.6499  -1.5963  -1.4877  -1.4703  -1.4162
    -1.3481  -1.3100  -1.2697  -1.2650  -1.2612  -1.2398  -1.2190  -1.2077
    -1.1967  -1.1914  -1.1266  -1.0801  -1.0560  -0.9683  -0.9260  -0.8945
    -0.8283  -0.7968  -0.7452  -0.6790  -0.5906  -0.5692  -0.5534  -0.5160
    -0.5046  -0.4823  -0.4703  -0.4496  -0.4073  -0.3861  -0.3546  -0.3442
    -0.3368  -0.3139  -0.3014  -0.2776  -0.2248  -0.1957  -0.1293  -0.1184
    -0.1021  -0.0827  -0.0367  -0.0204  -0.0063   0.0064   0.0173   0.0294
     0.0416   0.0650   0.0768   0.0825   0.0987   0.1147   0.1417   0.1696
     0.1804   0.1867   0.1970   0.2097   0.2248   0.2298   0.2461   0.2572
[...]
     atom    8 type  1   force =    -0.00009738   -0.00583944   -0.09910128
     atom    9 type  1   force =    -0.00038310    0.00380786   -0.10408968
     atom   10 type  1   force =     0.00083586    0.00061713   -0.01715940
     atom   11 type  1   force =     0.00037020    0.00097967   -0.00830005
     atom   12 type  1   force =     0.00025229    0.00222401   -0.01294770
     atom   13 type  1   force =     0.00054255   -0.00003495   -0.00845298
     atom   14 type  1   force =     0.00014302    0.00020563   -0.01178727
     atom   15 type  1   force =    -0.00079394    0.00091066   -0.01013152
     atom   16 type  1   force =     0.00199906   -0.00104149   -0.01293157
     atom   17 type  1   force =    -0.00014043   -0.00161198   -0.00995590
     atom   18 type  1   force =    -0.00121637   -0.00119242   -0.01551299
     atom   19 type  1   force =    -0.00495717   -0.00021640    0.00710033
     atom   20 type  1   force =    -0.00404809   -0.00076453   -0.00146758
     atom   21 type  1   force =     0.00537679   -0.00645752    0.01149057
     atom   22 type  1   force =     0.00130217    0.00467293    0.00795529
     atom   23 type  1   force =    -0.00252879    0.00922862    0.01122520
     atom   24 type  1   force =     0.00117322    0.00117122    0.02021114
     atom   25 type  1   force =     0.00171735    0.00107434    0.01932233
     atom   26 type  1   force =    -0.00438918   -0.00517229    0.00697812
     atom   27 type  1   force =     0.00657879   -0.00216898    0.00427015
     atom   28 type  1   force =     0.05246570    0.02517786    0.15939310
     atom   29 type  1   force =    -0.01348524    0.07637760    0.15112723
     atom   30 type  1   force =    -0.01076696    0.00389478    0.11753017
     atom   31 type  1   force =     0.06152001   -0.06974499    0.18887891
     atom   32 type  1   force =    -0.00727178   -0.00103118    0.00359970
     atom   33 type  1   force =     0.00233152    0.00017740    0.10917561
     atom   34 type  1   force =     0.00083086   -0.01310750    0.11696521
     atom   35 type  1   force =    -0.00037152    0.00371242    0.11323104
     atom   36 type  1   force =    -0.00301743   -0.00092176    0.10103520
     atom   37 type  2   force =    -0.42215447   -0.25708421    0.18633474
     atom   38 type  3   force =     1.67670682    1.33733433   -1.00684449
     atom   39 type  4   force =    -0.03068571   -0.03222139   -0.06357609
     The ionic contribution  to forces
     atom    1 type  1   force =    -0.00980028    0.00075117 -111.25903097
     atom    2 type  1   force =     0.00073899    0.00035899 -111.27725403
     atom    3 type  1   force =     0.00906130   -0.00035142 -111.25756070
     atom    4 type  1   force =    -0.00486236    0.00881623 -111.25711379
     atom    5 type  1   force =     0.00428928    0.00765706 -111.25826047
     atom    6 type  1   force =     0.00057311   -0.00000555 -111.24861469
     atom    7 type  1   force =    -0.00130273   -0.00034980 -111.24868884
     atom    8 type  1   force =    -0.00419693   -0.00849603 -111.25961506
     atom    9 type  1   force =     0.00549963   -0.00838065 -111.25699801
     atom   10 type  1   force =    -0.05596673   -0.02945372  -40.21006615
     atom   11 type  1   force =     0.00927500   -0.07436544  -40.30512583
     atom   12 type  1   force =     0.04669679   -0.03162911  -40.19191233
     atom   13 type  1   force =    -0.06241722    0.04432129  -40.30391076
     atom   14 type  1   force =     0.06452833    0.03483135  -40.29989085
     atom   15 type  1   force =    -0.00210746    0.01427922  -40.17686491
     atom   16 type  1   force =    -0.00651806    0.05724727  -40.19600814
     atom   17 type  1   force =     0.01323315   -0.01071267  -40.18172291
     atom   18 type  1   force =    -0.00671877   -0.00451724  -40.16886097
     atom   19 type  1   force =    -0.49026328    0.04362069   31.21972681
     atom   20 type  1   force =     0.04077377    0.01922699   30.20330024
     atom   21 type  1   force =     0.44941007   -0.02371411   31.29226518
     atom   22 type  1   force =    -0.23864652    0.42767293   31.31948598
     atom   23 type  1   force =     0.21160041    0.38715403   31.25499486
     atom   24 type  1   force =     0.02776270    0.00006900   31.67997787
     atom   25 type  1   force =    -0.06025706   -0.01616995   31.67689163
     atom   26 type  1   force =    -0.20905706   -0.43176229   31.18775999
     atom   27 type  1   force =     0.26851011   -0.40636451   31.32487872
     atom   28 type  1   force =    -2.32070090   -1.21949557  103.33871196
     atom   29 type  1   force =     0.99406759   -4.88544975   98.80342247
     atom   30 type  1   force =     1.59937875   -1.08532655  104.05406025
     atom   31 type  1   force =    -3.94770626    3.09148111   99.20394265
     atom   32 type  1   force =     4.37406798    2.18953482   98.38353003
     atom   33 type  1   force =    -0.04353601    0.38825938  104.39395512
     atom   34 type  1   force =    -0.24378842    2.06485120  103.89559216
     atom   35 type  1   force =     0.37713353   -0.30157896  104.28176732
     atom   36 type  1   force =    -0.15380495   -0.12415682  104.56373067
     atom   37 type  2   force =     4.74709471    3.88359329   57.22915525
     atom   38 type  3   force =    -6.56767080   -5.20004050   88.73636391
     atom   39 type  4   force =     1.18562658    1.19859460   15.31398635
     The local contribution  to forces
     atom    1 type  1   force =     0.01425274   -0.00398129  111.36260951
     atom    2 type  1   force =    -0.00273276   -0.00209317  111.38213114
     atom    3 type  1   force =    -0.01138528    0.00311300  111.36549000
     atom    4 type  1   force =     0.00152650   -0.00629525  111.36412966
     atom    5 type  1   force =    -0.00297251   -0.01164271  111.36636445
     atom    6 type  1   force =     0.00118812    0.00078792  111.35443793
     atom    7 type  1   force =     0.00067733    0.00000808  111.35559162
     atom    8 type  1   force =     0.00436761    0.01450402  111.36162987
     atom    9 type  1   force =    -0.00553998    0.00459057  111.36351801
     atom   10 type  1   force =     0.05580779    0.02945571   40.20484592
     atom   11 type  1   force =    -0.01075326    0.07251564   40.29361114
     atom   12 type  1   force =    -0.04592981    0.02910896   40.18460825
     atom   13 type  1   force =     0.06083953   -0.04506832   40.29211383
     atom   14 type  1   force =    -0.06356324   -0.03422735   40.28920813
     atom   15 type  1   force =     0.00312391   -0.01548011   40.16600738
     atom   16 type  1   force =     0.00447849   -0.05544821   40.18836003
     atom   17 type  1   force =    -0.01309078    0.01258647   40.17039451
     atom   18 type  1   force =     0.00872575    0.00610802   40.16241942
     atom   19 type  1   force =     0.49537608   -0.04187222  -31.20381095
     atom   20 type  1   force =    -0.03462752   -0.01754610  -30.18279804
     atom   21 type  1   force =    -0.45514487    0.02954862  -31.28589957
     atom   22 type  1   force =     0.23750593   -0.43216285  -31.30662497
     atom   23 type  1   force =    -0.20945429   -0.39571021  -31.24845216
     atom   24 type  1   force =    -0.02879286   -0.00088722  -31.67691332
     atom   25 type  1   force =     0.05871638    0.01482033  -31.67042206
     atom   26 type  1   force =     0.21588388    0.43642796  -31.17138265
     atom   27 type  1   force =    -0.27508324    0.40903136  -31.30978125
     atom   28 type  1   force =     2.25709510    1.18806284 -103.51188891
     atom   29 type  1   force =    -0.98342994    4.78415101  -98.96128964
     atom   30 type  1   force =    -1.58047333    1.07898490 -104.17859384
     atom   31 type  1   force =     3.86835961   -3.01126947  -99.39577476
     atom   32 type  1   force =    -4.34927176   -2.18361259  -98.38199549
     atom   33 type  1   force =     0.03849661   -0.38581580 -104.51219827
     atom   34 type  1   force =     0.24305687   -2.04115573 -104.01962662
     atom   35 type  1   force =    -0.37509371    0.29503690 -104.40599857
     atom   36 type  1   force =     0.15471727    0.12406639 -104.67324965
     atom   37 type  2   force =    -4.32929342   -3.62786566  -57.41201759
     atom   38 type  3   force =     4.90695677    3.87378180  -87.73993244
     atom   39 type  4   force =    -1.15625903   -1.16397595  -15.24825434
     The core correction contribution to forces
     atom    1 type  1   force =     0.00034348   -0.00017087    0.01022674
     atom    2 type  1   force =    -0.00009964   -0.00004185    0.00988984
     atom    3 type  1   force =    -0.00020789    0.00010230    0.01046626
     atom    4 type  1   force =    -0.00019878   -0.00009439    0.01001837
     atom    5 type  1   force =     0.00005742   -0.00023108    0.01034266
     atom    6 type  1   force =    -0.00005345   -0.00013856    0.01003059
     atom    7 type  1   force =    -0.00003228   -0.00005351    0.00975830
     atom    8 type  1   force =     0.00010665    0.00040862    0.01023637
     atom    9 type  1   force =    -0.00023981   -0.00005077    0.01005969
     atom   10 type  1   force =     0.00016105    0.00008608   -0.00201633
     atom   11 type  1   force =    -0.00036501    0.00003981   -0.00171025
     atom   12 type  1   force =     0.00012018   -0.00010163   -0.00183642
     atom   13 type  1   force =    -0.00012821   -0.00024743   -0.00172784
     atom   14 type  1   force =     0.00010568    0.00012385   -0.00182033
     atom   15 type  1   force =    -0.00011627    0.00007614   -0.00167660
     atom   16 type  1   force =    -0.00004858    0.00009665   -0.00183819
     atom   17 type  1   force =     0.00006055   -0.00010496   -0.00169162
     atom   18 type  1   force =    -0.00004859   -0.00003174   -0.00201392
     atom   19 type  1   force =    -0.00010609   -0.00029338    0.00147389
     atom   20 type  1   force =    -0.00037323   -0.00013292    0.00129521
     atom   21 type  1   force =     0.00113255   -0.00119097    0.00013668
     atom   22 type  1   force =    -0.00022660    0.00024395    0.00132981
     atom   23 type  1   force =    -0.00018871    0.00143966    0.00019585
     atom   24 type  1   force =     0.00007393    0.00010283    0.00192630
     atom   25 type  1   force =     0.00041009    0.00027620    0.00202328
     atom   26 type  1   force =    -0.00020942   -0.00000697    0.00156867
     atom   27 type  1   force =     0.00035408   -0.00023517    0.00096629
     atom   28 type  1   force =     0.00230411    0.00170892   -0.00749131
     atom   29 type  1   force =    -0.00201021    0.01204994    0.00267340
     atom   30 type  1   force =    -0.00241467    0.00300867   -0.00857878
     atom   31 type  1   force =     0.01119699   -0.00677191    0.00184686
     atom   32 type  1   force =    -0.00680042   -0.00116097   -0.00395847
     atom   33 type  1   force =    -0.00163391   -0.00053909   -0.00944747
     atom   34 type  1   force =     0.00091137   -0.00515150   -0.00838884
     atom   35 type  1   force =    -0.00073867   -0.00123004   -0.00964235
     atom   36 type  1   force =     0.00015564   -0.00008151   -0.01085264
     atom   37 type  2   force =     0.00548231    0.00310340   -0.00256666
     atom   38 type  3   force =    -0.01408141   -0.01130684    0.00951576
     atom   39 type  4   force =     0.00000000    0.00000000    0.00000000
     The Hubbard contrib.    to forces
     atom    1 type  1   force =     0.00000000    0.00000000    0.00000000
     atom    2 type  1   force =     0.00000000    0.00000000    0.00000000
     atom    3 type  1   force =     0.00000000    0.00000000    0.00000000
     atom    4 type  1   force =     0.00000000    0.00000000    0.00000000
     atom    5 type  1   force =     0.00000000    0.00000000    0.00000000
     atom    6 type  1   force =     0.00000000    0.00000000    0.00000000
     atom    7 type  1   force =     0.00000000    0.00000000    0.00000000
     atom    8 type  1   force =     0.00000000    0.00000000    0.00000000
     atom    9 type  1   force =     0.00000000    0.00000000    0.00000000
     atom   10 type  1   force =     0.00000000    0.00000000    0.00000000
     atom   11 type  1   force =     0.00000000    0.00000000    0.00000000
     atom   12 type  1   force =     0.00000000    0.00000000    0.00000000
     atom   13 type  1   force =     0.00000000    0.00000000    0.00000000
     atom   14 type  1   force =     0.00000000    0.00000000    0.00000000
     atom   15 type  1   force =     0.00000000    0.00000000    0.00000000
     atom   16 type  1   force =     0.00000000    0.00000000    0.00000000
     atom   17 type  1   force =     0.00000000    0.00000000    0.00000000
     atom   18 type  1   force =     0.00000000    0.00000000    0.00000000
     atom   19 type  1   force =     0.00000000    0.00000000    0.00000000
     atom   20 type  1   force =     0.00000000    0.00000000    0.00000000
     atom   21 type  1   force =     0.00000000    0.00000000    0.00000000
     atom   22 type  1   force =     0.00000000    0.00000000    0.00000000
     atom   23 type  1   force =     0.00000000    0.00000000    0.00000000
     atom   24 type  1   force =     0.00000000    0.00000000    0.00000000
     atom   25 type  1   force =     0.00000000    0.00000000    0.00000000
     atom   26 type  1   force =     0.00000000    0.00000000    0.00000000
     atom   27 type  1   force =     0.00000000    0.00000000    0.00000000
     atom   28 type  1   force =     0.00000000    0.00000000    0.00000000
     atom   29 type  1   force =     0.00000000    0.00000000    0.00000000
     atom   30 type  1   force =     0.00000000    0.00000000    0.00000000
     atom   31 type  1   force =     0.00000000    0.00000000    0.00000000
     atom   32 type  1   force =     0.00000000    0.00000000    0.00000000
     atom   33 type  1   force =     0.00000000    0.00000000    0.00000000
     atom   34 type  1   force =     0.00000000    0.00000000    0.00000000
     atom   35 type  1   force =     0.00000000    0.00000000    0.00000000
     atom   36 type  1   force =     0.00000000    0.00000000    0.00000000
     atom   37 type  2   force =     0.00000000    0.00000000    0.00000000
     atom   38 type  3   force =     0.00000000    0.00000000    0.00000000
     atom   39 type  4   force =     0.00000000    0.00000000    0.00000000
     The SCF correction term to forces
     atom    1 type  1   force =     0.00000000   -0.00000000    0.00000000
     atom    2 type  1   force =     0.00000000    0.00000000    0.00000000
     atom    3 type  1   force =    -0.00000000   -0.00000000    0.00000000
     atom    4 type  1   force =     0.00000000   -0.00000000    0.00000000
     atom    5 type  1   force =    -0.00000000   -0.00000000    0.00000000
     atom    6 type  1   force =    -0.00000000   -0.00000000    0.00000000
     atom    7 type  1   force =     0.00000000    0.00000000    0.00000000
     atom    8 type  1   force =    -0.00000000    0.00000000    0.00000000
     atom    9 type  1   force =     0.00000000    0.00000000    0.00000000
     atom   10 type  1   force =    -0.00000000   -0.00000000    0.00000000
     atom   11 type  1   force =     0.00000000    0.00000000    0.00000000
     atom   12 type  1   force =     0.00000000   -0.00000000    0.00000000
     atom   13 type  1   force =     0.00000000    0.00000000    0.00000000
     atom   14 type  1   force =    -0.00000000   -0.00000000    0.00000000
     atom   15 type  1   force =     0.00000000   -0.00000000    0.00000000
     atom   16 type  1   force =    -0.00000000    0.00000000    0.00000000
     atom   17 type  1   force =    -0.00000000    0.00000000    0.00000000
     atom   18 type  1   force =     0.00000000    0.00000000    0.00000000
     atom   19 type  1   force =    -0.00000000    0.00000000    0.00000000
     atom   20 type  1   force =    -0.00000000   -0.00000000   -0.00000000
     atom   21 type  1   force =     0.00000000   -0.00000000    0.00000000
     atom   22 type  1   force =    -0.00000000    0.00000000   -0.00000000
     atom   23 type  1   force =     0.00000000    0.00000000   -0.00000000
     atom   24 type  1   force =     0.00000000    0.00000000    0.00000000
     atom   25 type  1   force =    -0.00000000   -0.00000000   -0.00000000
     atom   26 type  1   force =    -0.00000000   -0.00000000    0.00000000
     atom   27 type  1   force =     0.00000000   -0.00000000    0.00000000
     atom   28 type  1   force =     0.00000000    0.00000000   -0.00000000
     atom   29 type  1   force =     0.00000000   -0.00000000   -0.00000000
     atom   30 type  1   force =    -0.00000000    0.00000000   -0.00000000
     atom   31 type  1   force =    -0.00000000    0.00000000   -0.00000000
     atom   32 type  1   force =     0.00000000    0.00000000   -0.00000000
     atom   33 type  1   force =    -0.00000000    0.00000000   -0.00000000
     atom   34 type  1   force =    -0.00000000    0.00000000   -0.00000000
     atom   35 type  1   force =     0.00000000   -0.00000000   -0.00000000
     atom   36 type  1   force =    -0.00000000   -0.00000000   -0.00000000
     atom   37 type  2   force =    -0.00000098   -0.00000462    0.00000456
     atom   38 type  3   force =    -0.00000237   -0.00000795   -0.00000121
     atom   39 type  4   force =     0.00000072    0.00000016    0.00000001

     Total force =     0.004657     Total SCF correction =     0.000011

     Writing all to output data dir ./pwscf.save/

     init_run     :     11.32s CPU     11.77s WALL (       1 calls)
     electrons    :    973.60s CPU   1005.54s WALL (       1 calls)
     forces       :      3.44s CPU      3.53s WALL (       1 calls)

     Called by init_run:
     wfcinit      :      8.24s CPU      8.56s WALL (       1 calls)
     potinit      :      1.99s CPU      2.07s WALL (       1 calls)
     hinit0       :      0.83s CPU      0.86s WALL (       1 calls)

     Called by electrons:
     c_bands      :    822.11s CPU    849.64s WALL (      56 calls)
     sum_band     :     98.41s CPU    101.61s WALL (      56 calls)
     v_of_rho     :      9.65s CPU     10.09s WALL (      57 calls)
     newd         :      3.16s CPU      3.21s WALL (      57 calls)
     PAW_pot      :     14.29s CPU     14.49s WALL (      57 calls)
     mix_rho      :     27.27s CPU     27.64s WALL (      56 calls)
     vdW_kernel   :      1.08s CPU      1.09s WALL (       1 calls)

     Called by c_bands:
     init_us_2    :     10.04s CPU     10.40s WALL (    2964 calls)
     init_us_2:cp :     10.02s CPU     10.40s WALL (    2964 calls)
     cegterg      :    794.24s CPU    820.04s WALL (    1456 calls)

     Called by *egterg:
     cdiaghg      :    216.83s CPU    224.21s WALL (    4831 calls)
     h_psi        :    382.55s CPU    396.18s WALL (    4857 calls)
     s_psi        :     40.59s CPU     41.51s WALL (    4857 calls)
     g_psi        :      1.02s CPU      1.05s WALL (    3375 calls)

     Called by h_psi:
     h_psi:calbec :     62.11s CPU     64.01s WALL (    4857 calls)
     vloc_psi     :    276.32s CPU    286.96s WALL (    4857 calls)
     add_vuspsi   :     41.59s CPU     42.62s WALL (    4857 calls)

     General routines
     calbec       :     89.13s CPU     91.66s WALL (    6417 calls)
     fft          :      7.32s CPU      7.78s WALL (    5150 calls)
     ffts         :     16.13s CPU     16.37s WALL (   25115 calls)
     fftw         :    312.82s CPU    325.41s WALL ( 1504888 calls)
     interpolate  :      0.41s CPU      0.42s WALL (     114 calls)

     Parallel routines

     PWSCF        :  16m35.23s CPU  17m12.71s WALL


   This run was terminated on:   9:48:18  17Dec2025            

=------------------------------------------------------------------------------=
   JOB DONE.
=------------------------------------------------------------------------------=
