  37  37   0   0
  0.4190497E+02  0.8468310E-09  0.8468310E-09  0.2496566E-08  0.5000000E-15
  1.000000000000000E-004
  CAR 
 unknown system                          
      8.69336050     -9.89195001  301     -0.07124132      1.00000000
     -9.892  0.0000E+00  0.0000E+00
     -9.830  0.0000E+00  0.0000E+00
     -9.768  0.0000E+00  0.0000E+00
     -9.706 -0.4848E-28 -0.3003E-29
     -9.644 -0.7335E-24 -0.4545E-25
     -9.582 -0.5116E-20 -0.3170E-21
     -9.520 -0.1643E-16 -0.1018E-17
     -9.458 -0.2352E-13 -0.1458E-14
     -9.396 -0.1576E-10 -0.9778E-12
     -9.334 -0.4810E-08 -0.2990E-09
     -9.272 -0.6625E-06 -0.4134E-07
     -9.210 -0.4054E-04 -0.2553E-05
     -9.149 -0.1068E-02 -0.6871E-04
     -9.087 -0.1117E-01 -0.7610E-03
     -9.025 -0.3372E-01 -0.2850E-02
     -8.963  0.6255E-01  0.1025E-02
     -8.901  0.3442E+00  0.2235E-01
     -8.839  0.6356E+00  0.6173E-01
     -8.777  0.2168E+01  0.1960E+00
     -8.715  0.3821E+01  0.4327E+00
     -8.653  0.2087E+01  0.5621E+00
     -8.591 -0.8964E-01  0.5565E+00
     -8.529  0.2774E+00  0.5737E+00
     -8.467  0.2700E+01  0.7410E+00
     -8.405  0.3789E+01  0.9757E+00
     -8.343  0.3544E+01  0.1195E+01
     -8.281  0.3705E+01  0.1425E+01
     -8.219  0.1729E+01  0.1532E+01
     -8.157 -0.4316E-01  0.1529E+01
     -8.095 -0.3581E+00  0.1507E+01
     -8.033 -0.3076E+00  0.1488E+01
     -7.971  0.2216E+01  0.1625E+01
     -7.910  0.6982E+01  0.2058E+01
     -7.848  0.5933E+01  0.2425E+01
     -7.786  0.1114E+01  0.2494E+01
     -7.724  0.1229E+01  0.2571E+01
     -7.662  0.3989E+01  0.2818E+01
     -7.600  0.3612E+01  0.3041E+01
     -7.538  0.3259E+01  0.3243E+01
     -7.476  0.3239E+01  0.3444E+01
     -7.414  0.8817E+00  0.3499E+01
     -7.352  0.1655E+01  0.3601E+01
     -7.290  0.7156E+01  0.4044E+01
     -7.228  0.1115E+02  0.4735E+01
     -7.166  0.1079E+02  0.5403E+01
     -7.104  0.6592E+01  0.5812E+01
     -7.042  0.2538E+01  0.5969E+01
     -6.980  0.2896E+01  0.6148E+01
     -6.918  0.4293E+01  0.6414E+01
     -6.856  0.4088E+01  0.6668E+01
     -6.794  0.2503E+01  0.6823E+01
     -6.732  0.3098E+01  0.7015E+01
     -6.670  0.9625E+01  0.7611E+01
     -6.609  0.1536E+02  0.8563E+01
     -6.547  0.1787E+02  0.9669E+01
     -6.485  0.1618E+02  0.1067E+02
     -6.423  0.9223E+01  0.1124E+02
     -6.361  0.6812E+01  0.1166E+02
     -6.299  0.1240E+02  0.1243E+02
     -6.237  0.1731E+02  0.1351E+02
     -6.175  0.2261E+02  0.1491E+02
     -6.113  0.3235E+02  0.1691E+02
     -6.051  0.3532E+02  0.1910E+02
     -5.989  0.3212E+02  0.2109E+02
     -5.927  0.3197E+02  0.2307E+02
     -5.865  0.3367E+02  0.2515E+02
     -5.803  0.3150E+02  0.2711E+02
     -5.741  0.2651E+02  0.2875E+02
     -5.679  0.3044E+02  0.3063E+02
     -5.617  0.3880E+02  0.3304E+02
     -5.555  0.4250E+02  0.3567E+02
     -5.493  0.4544E+02  0.3849E+02
     -5.431  0.5563E+02  0.4193E+02
     -5.370  0.6363E+02  0.4587E+02
     -5.308  0.6106E+02  0.4966E+02
     -5.246  0.5080E+02  0.5280E+02
     -5.184  0.4423E+02  0.5554E+02
     -5.122  0.4396E+02  0.5827E+02
     -5.060  0.5845E+02  0.6189E+02
     -4.998  0.7327E+02  0.6643E+02
     -4.936  0.5116E+02  0.6960E+02
     -4.874  0.2445E+02  0.7111E+02
     -4.812  0.3125E+02  0.7305E+02
     -4.750  0.4563E+02  0.7588E+02
     -4.688  0.3419E+02  0.7799E+02
     -4.626  0.2008E+02  0.7924E+02
     -4.564  0.2719E+02  0.8092E+02
     -4.502  0.4720E+02  0.8385E+02
     -4.440  0.6150E+02  0.8766E+02
     -4.378  0.5899E+02  0.9131E+02
     -4.316  0.4820E+02  0.9430E+02
     -4.254  0.4203E+02  0.9690E+02
     -4.192  0.4279E+02  0.9955E+02
     -4.131  0.5442E+02  0.1029E+03
     -4.069  0.6240E+02  0.1068E+03
     -4.007  0.5361E+02  0.1101E+03
     -3.945  0.4484E+02  0.1129E+03
     -3.883  0.4261E+02  0.1155E+03
     -3.821  0.3893E+02  0.1179E+03
     -3.759  0.3595E+02  0.1202E+03
     -3.697  0.4967E+02  0.1232E+03
     -3.635  0.6321E+02  0.1272E+03
     -3.573  0.5905E+02  0.1308E+03
     -3.511  0.5486E+02  0.1342E+03
     -3.449  0.6129E+02  0.1380E+03
     -3.387  0.7320E+02  0.1425E+03
     -3.325  0.7605E+02  0.1473E+03
     -3.263  0.6961E+02  0.1516E+03
     -3.201  0.6816E+02  0.1558E+03
     -3.139  0.8167E+02  0.1609E+03
     -3.077  0.8915E+02  0.1664E+03
     -3.015  0.7977E+02  0.1713E+03
     -2.953  0.7731E+02  0.1761E+03
     -2.891  0.7553E+02  0.1808E+03
     -2.830  0.7623E+02  0.1855E+03
     -2.768  0.9413E+02  0.1913E+03
     -2.706  0.1063E+03  0.1979E+03
     -2.644  0.9473E+02  0.2038E+03
     -2.582  0.6864E+02  0.2080E+03
     -2.520  0.6122E+02  0.2118E+03
     -2.458  0.6644E+02  0.2160E+03
     -2.396  0.5559E+02  0.2194E+03
     -2.334  0.3493E+02  0.2216E+03
     -2.272  0.2506E+02  0.2231E+03
     -2.210  0.2892E+02  0.2249E+03
     -2.148  0.3746E+02  0.2272E+03
     -2.086  0.5271E+02  0.2305E+03
     -2.024  0.7558E+02  0.2352E+03
     -1.962  0.9139E+02  0.2408E+03
     -1.900  0.8737E+02  0.2462E+03
     -1.838  0.6926E+02  0.2505E+03
     -1.776  0.5024E+02  0.2537E+03
     -1.714  0.4405E+02  0.2564E+03
     -1.652  0.4534E+02  0.2592E+03
     -1.591  0.5038E+02  0.2623E+03
     -1.529  0.5737E+02  0.2659E+03
     -1.467  0.5721E+02  0.2694E+03
     -1.405  0.5758E+02  0.2730E+03
     -1.343  0.6099E+02  0.2768E+03
     -1.281  0.5527E+02  0.2802E+03
     -1.219  0.5037E+02  0.2833E+03
     -1.157  0.6440E+02  0.2873E+03
     -1.095  0.8138E+02  0.2923E+03
     -1.033  0.8647E+02  0.2977E+03
     -0.971  0.7832E+02  0.3025E+03
     -0.909  0.6082E+02  0.3063E+03
     -0.847  0.5599E+02  0.3098E+03
     -0.785  0.5471E+02  0.3132E+03
     -0.723  0.4461E+02  0.3159E+03
     -0.661  0.4501E+02  0.3187E+03
     -0.599  0.6044E+02  0.3225E+03
     -0.537  0.6399E+02  0.3264E+03
     -0.475  0.5884E+02  0.3301E+03
     -0.413  0.6338E+02  0.3340E+03
     -0.351  0.7860E+02  0.3389E+03
     -0.290  0.9375E+02  0.3447E+03
     -0.228  0.8303E+02  0.3498E+03
     -0.166  0.5854E+02  0.3534E+03
     -0.104  0.7146E+02  0.3579E+03
     -0.042  0.9751E+02  0.3639E+03
      0.020  0.7287E+02  0.3684E+03
      0.082  0.3617E+02  0.3707E+03
      0.144  0.4427E+02  0.3734E+03
      0.206  0.5800E+02  0.3770E+03
      0.268  0.4640E+02  0.3799E+03
      0.330  0.3918E+02  0.3823E+03
      0.392  0.3175E+02  0.3843E+03
      0.454  0.1822E+02  0.3854E+03
      0.516  0.7098E+01  0.3858E+03
      0.578  0.2493E+01  0.3860E+03
      0.640  0.4417E+01  0.3863E+03
      0.702  0.9048E+01  0.3868E+03
      0.764  0.1406E+02  0.3877E+03
      0.826  0.1294E+02  0.3885E+03
      0.888  0.8386E+01  0.3890E+03
      0.949  0.1039E+02  0.3897E+03
      1.011  0.1140E+02  0.3904E+03
      1.073  0.5132E+01  0.3907E+03
      1.135  0.3682E+01  0.3909E+03
      1.197  0.9308E+01  0.3915E+03
      1.259  0.1268E+02  0.3923E+03
      1.321  0.1189E+02  0.3930E+03
      1.383  0.1032E+02  0.3937E+03
      1.445  0.1062E+02  0.3943E+03
      1.507  0.2209E+02  0.3957E+03
      1.569  0.2788E+02  0.3974E+03
      1.631  0.2071E+02  0.3987E+03
      1.693  0.1687E+02  0.3997E+03
      1.755  0.1268E+02  0.4005E+03
      1.817  0.3634E+01  0.4007E+03
      1.879  0.1992E+01  0.4009E+03
      1.941  0.6963E+01  0.4013E+03
      2.003  0.7396E+01  0.4018E+03
      2.065  0.4396E+01  0.4020E+03
      2.127  0.3375E+01  0.4022E+03
      2.189  0.6878E+01  0.4027E+03
      2.250  0.1026E+02  0.4033E+03
      2.312  0.1115E+02  0.4040E+03
      2.374  0.1414E+02  0.4049E+03
      2.436  0.1974E+02  0.4061E+03
      2.498  0.2187E+02  0.4074E+03
      2.560  0.1321E+02  0.4083E+03
      2.622  0.6452E+01  0.4087E+03
      2.684  0.7147E+01  0.4091E+03
      2.746  0.1160E+02  0.4098E+03
      2.808  0.1791E+02  0.4109E+03
      2.870  0.1719E+02  0.4120E+03
      2.932  0.1237E+02  0.4128E+03
      2.994  0.8413E+01  0.4133E+03
      3.056  0.1078E+02  0.4140E+03
      3.118  0.1541E+02  0.4149E+03
      3.180  0.1244E+02  0.4157E+03
      3.242  0.9283E+01  0.4163E+03
      3.304  0.7888E+01  0.4167E+03
      3.366  0.5042E+01  0.4171E+03
      3.428  0.4802E+01  0.4174E+03
      3.489  0.7228E+01  0.4178E+03
      3.551  0.9120E+01  0.4184E+03
      3.613  0.1305E+02  0.4192E+03
      3.675  0.2034E+02  0.4204E+03
      3.737  0.2211E+02  0.4218E+03
      3.799  0.1466E+02  0.4227E+03
      3.861  0.6406E+01  0.4231E+03
      3.923  0.3637E+01  0.4233E+03
      3.985  0.5083E+01  0.4237E+03
      4.047  0.7702E+01  0.4241E+03
      4.109  0.8946E+01  0.4247E+03
      4.171  0.6662E+01  0.4251E+03
      4.233  0.3408E+01  0.4253E+03
      4.295  0.4093E+01  0.4256E+03
      4.357  0.1211E+02  0.4263E+03
      4.419  0.2414E+02  0.4278E+03
      4.481  0.2341E+02  0.4293E+03
      4.543  0.1223E+02  0.4300E+03
      4.605  0.7765E+01  0.4305E+03
      4.667  0.9770E+01  0.4311E+03
      4.728  0.1234E+02  0.4319E+03
      4.790  0.1165E+02  0.4326E+03
      4.852  0.7873E+01  0.4331E+03
      4.914  0.6401E+01  0.4335E+03
      4.976  0.1121E+02  0.4342E+03
      5.038  0.1396E+02  0.4350E+03
      5.100  0.8287E+01  0.4355E+03
      5.162  0.7612E+01  0.4360E+03
      5.224  0.1316E+02  0.4368E+03
      5.286  0.1557E+02  0.4378E+03
      5.348  0.1102E+02  0.4385E+03
      5.410  0.6275E+01  0.4389E+03
      5.472  0.1182E+02  0.4396E+03
      5.534  0.2071E+02  0.4409E+03
      5.596  0.2213E+02  0.4423E+03
      5.658  0.2184E+02  0.4436E+03
      5.720  0.2423E+02  0.4451E+03
      5.782  0.2306E+02  0.4465E+03
      5.844  0.1643E+02  0.4476E+03
      5.906  0.1449E+02  0.4485E+03
      5.968  0.2387E+02  0.4499E+03
      6.029  0.3375E+02  0.4520E+03
      6.091  0.2792E+02  0.4538E+03
      6.153  0.1311E+02  0.4546E+03
      6.215  0.1115E+02  0.4553E+03
      6.277  0.2171E+02  0.4566E+03
      6.339  0.3146E+02  0.4585E+03
      6.401  0.2628E+02  0.4602E+03
      6.463  0.1408E+02  0.4610E+03
      6.525  0.1368E+02  0.4619E+03
      6.587  0.2358E+02  0.4634E+03
      6.649  0.2953E+02  0.4652E+03
      6.711  0.2985E+02  0.4670E+03
      6.773  0.2626E+02  0.4687E+03
      6.835  0.1670E+02  0.4697E+03
      6.897  0.1133E+02  0.4704E+03
      6.959  0.1625E+02  0.4714E+03
      7.021  0.1877E+02  0.4726E+03
      7.083  0.1582E+02  0.4735E+03
      7.145  0.1811E+02  0.4747E+03
      7.207  0.2431E+02  0.4762E+03
      7.268  0.2264E+02  0.4776E+03
      7.330  0.1190E+02  0.4783E+03
      7.392  0.3026E+01  0.4785E+03
      7.454  0.1630E+01  0.4786E+03
      7.516  0.5008E+01  0.4789E+03
      7.578  0.7288E+01  0.4794E+03
      7.640  0.6679E+01  0.4798E+03
      7.702  0.3274E+01  0.4800E+03
      7.764  0.5123E+00  0.4800E+03
      7.826 -0.1444E+00  0.4800E+03
      7.888 -0.7998E-01  0.4800E+03
      7.950 -0.1463E-01  0.4800E+03
      8.012 -0.1175E-02  0.4800E+03
      8.074 -0.4201E-04  0.4800E+03
      8.136 -0.6716E-06  0.4800E+03
      8.198 -0.4836E-08  0.4800E+03
      8.260 -0.1579E-10  0.4800E+03
      8.322 -0.2351E-13  0.4800E+03
      8.384  0.0000E+00  0.4800E+03
      8.446  0.0000E+00  0.4800E+03
      8.508  0.0000E+00  0.4800E+03
      8.569  0.0000E+00  0.4800E+03
      8.631  0.0000E+00  0.4800E+03
      8.693  0.0000E+00  0.4800E+03
