   37   37    1    1
  0.4190497E+02  0.8468310E-09  0.8468310E-09  0.2496566E-08  0.5000000E-15
  1.000000000000000E-004
  CAR 
 unknown system                          
    361     13    240
 
  0.1276756E-14  0.1276756E-14  0.1276756E-14  0.4000000E-01
      1         -8.891950   1.000000
      2         -7.666176   1.000000
      3         -6.754182   1.000000
      4         -6.496438   1.000000
      5         -6.468835   1.000000
      6         -6.461225   1.000000
      7         -6.457808   1.000000
      8         -6.452341   1.000000
      9         -6.441560   1.000000
     10         -6.433419   1.000000
     11         -6.053286   1.000000
     12         -5.919449   1.000000
     13         -5.914861   1.000000
     14         -5.908997   1.000000
     15         -5.902256   1.000000
     16         -5.900830   1.000000
     17         -5.767164   1.000000
     18         -5.470063   1.000000
     19         -5.456101   1.000000
     20         -5.452632   1.000000
     21         -5.449590   1.000000
     22         -5.444550   1.000000
     23         -5.357870   1.000000
     24         -5.234709   1.000000
     25         -5.227299   1.000000
     26         -5.226120   1.000000
     27         -5.220319   1.000000
     28         -5.217696   1.000000
     29         -5.118886   1.000000
     30         -5.028202   1.000000
     31         -5.022711   1.000000
     32         -5.020265   1.000000
     33         -5.017113   1.000000
     34         -5.008732   1.000000
     35         -4.975175   1.000000
     36         -4.963850   1.000000
     37         -4.963505   1.000000
     38         -4.957162   1.000000
     39         -4.932700   1.000000
     40         -4.913538   1.000000
     41         -4.716164   1.000000
     42         -4.377891   1.000000
     43         -4.375335   1.000000
     44         -4.361333   1.000000
     45         -4.344772   1.000000
     46         -4.322124   1.000000
     47         -4.313844   1.000000
     48         -4.302896   1.000000
     49         -4.295589   1.000000
     50         -4.292564   1.000000
     51         -4.159111   1.000000
     52         -4.136900   1.000000
     53         -4.109159   1.000000
     54         -4.047700   1.000000
     55         -3.998543   1.000000
     56         -3.593082   1.000000
     57         -3.579961   1.000000
     58         -3.563278   1.000000
     59         -3.561465   1.000000
     60         -3.559366   1.000000
     61         -3.498023   1.000000
     62         -3.492389   1.000000
     63         -3.383536   1.000000
     64         -3.376065   1.000000
     65         -3.374934   1.000000
     66         -3.368279   1.000000
     67         -3.364083   1.000000
     68         -3.356119   1.000000
     69         -3.344006   1.000000
     70         -3.329445   1.000000
     71         -3.312957   1.000000
     72         -3.307538   1.000000
     73         -3.300694   1.000000
     74         -3.290442   1.000000
     75         -3.267235   1.000000
     76         -3.261981   1.000000
     77         -3.236010   1.000000
     78         -3.157866   1.000000
     79         -3.149879   1.000000
     80         -3.143610   1.000000
     81         -3.139489   1.000000
     82         -3.132369   1.000000
     83         -3.114815   1.000000
     84         -2.940826   1.000000
     85         -2.935411   1.000000
     86         -2.931456   1.000000
     87         -2.923963   1.000000
     88         -2.909349   1.000000
     89         -2.904430   1.000000
     90         -2.901605   1.000000
     91         -2.889508   1.000000
     92         -2.835964   1.000000
     93         -2.816685   1.000000
     94         -2.775746   1.000000
     95         -2.760380   1.000000
     96         -2.739143   1.000000
     97         -2.730753   1.000000
     98         -2.711886   1.000000
     99         -2.688432   1.000000
    100         -2.683347   1.000000
    101         -2.628712   1.000000
    102         -2.533240   1.000000
    103         -2.526305   1.000000
    104         -2.510524   1.000000
    105         -2.505939   1.000000
    106         -2.498371   1.000000
    107         -2.494220   1.000000
    108         -2.224070   1.000000
    109         -2.032137   1.000000
    110         -2.004025   1.000000
    111         -1.996088   1.000000
    112         -1.994557   1.000000
    113         -1.989406   1.000000
    114         -1.987930   1.000000
    115         -1.982544   1.000000
    116         -1.968706   1.000000
    117         -1.952674   1.000000
    118         -1.946772   1.000000
    119         -1.944000   1.000000
    120         -1.874126   1.000000
    121         -1.856406   1.000000
    122         -1.813298   1.000000
    123         -1.733810   1.000000
    124         -1.729392   1.000000
    125         -1.712894   1.000000
    126         -1.708110   1.000000
    127         -1.704998   1.000000
    128         -1.597800   1.000000
    129         -1.590713   1.000000
    130         -1.534559   1.000000
    131         -1.532485   1.000000
    132         -1.524067   1.000000
    133         -1.487756   1.000000
    134         -1.346077   1.000000
    135         -1.285027   1.000000
    136         -1.265857   1.000000
    137         -1.265045   1.000000
    138         -1.250387   1.000000
    139         -1.244147   1.000000
    140         -1.203142   1.000000
    141         -1.178456   1.000000
    142         -1.160321   1.000000
    143         -1.031137   1.000000
    144         -1.029251   1.000000
    145         -1.021304   1.000000
    146         -1.016308   1.000000
    147         -1.012720   1.000000
    148         -0.955808   1.000000
    149         -0.869215   1.000000
    150         -0.861218   1.000000
    151         -0.838084   1.000000
    152         -0.830544   1.000000
    153         -0.827185   1.000000
    154         -0.813318   1.000000
    155         -0.808240   1.000000
    156         -0.806185   1.000000
    157         -0.799455   1.000000
    158         -0.797460   1.000000
    159         -0.793275   1.000000
    160         -0.722331   1.000000
    161         -0.702835   1.000000
    162         -0.684430   1.000000
    163         -0.674486   1.000000
    164         -0.664500   1.000000
    165         -0.655965   1.000000
    166         -0.645243   1.000000
    167         -0.633420   1.000000
    168         -0.598505   1.000000
    169         -0.589758   1.000000
    170         -0.563643   1.000000
    171         -0.557394   1.000000
    172         -0.552825   1.000000
    173         -0.541158   1.000000
    174         -0.540145   1.000000
    175         -0.536716   1.000000
    176         -0.456221   1.000000
    177         -0.442654   1.000001
    178         -0.437168   1.000001
    179         -0.434013   1.000002
    180         -0.433006   1.000002
    181         -0.420233   1.000005
    182         -0.417117   1.000006
    183         -0.351307   1.000273
    184         -0.329565   1.000792
    185         -0.319482   1.001252
    186         -0.317787   1.001349
    187         -0.306564   1.002175
    188         -0.299854   1.002853
    189         -0.119749   0.861790
    190         -0.093793   0.685569
    191         -0.024048   0.145702
    192         -0.009139   0.070777
    193          0.006937   0.014761
    194          0.011565   0.003117
    195          0.012330   0.001371
    196          0.017530  -0.009211
    197          0.443473  -0.000000
    198          0.815900  -0.000000
    199          0.863808  -0.000000
    200          0.886357  -0.000000
    201          0.901619  -0.000000
    202          0.905761  -0.000000
    203          0.908210  -0.000000
    204          2.648436  -0.000000
    205          3.152953   0.000000
    206          3.177151   0.000000
    207          3.209306   0.000000
    208          3.213317   0.000000
    209          3.232796   0.000000
    210          4.455524   0.000000
    211          4.751123   0.000000
    212          4.781859   0.000000
    213          4.809210   0.000000
    214          4.830604   0.000000
    215          4.833048   0.000000
    216          4.874692   0.000000
    217          4.988604   0.000000
    218          5.119840   0.000000
    219          5.482872   0.000000
    220          5.513228   0.000000
    221          5.790232   0.000000
    222          5.819212   0.000000
    223          5.841950   0.000000
    224          5.856919   0.000000
    225          5.872736   0.000000
    226          6.171669   0.000000
    227          6.436288   0.000000
    228          6.611979   0.000000
    229          6.626222   0.000000
    230          6.629661   0.000000
    231          6.809074   0.000000
    232          6.931799   0.000000
    233          7.123106   0.000000
    234          7.131340   0.000000
    235          7.160283   0.000000
    236          7.163934   0.000000
    237          7.169310   0.000000
    238          7.178547   0.000000
    239          7.297874   0.000000
    240          7.693361   0.000000
 
  0.2000000E+00  0.1278043E-14  0.1276756E-14  0.8000000E-01
      1         -8.743517   1.000000
      2         -7.523169   1.000000
      3         -6.968982   1.000000
      4         -6.684690   1.000000
      5         -6.564018   1.000000
      6         -6.511842   1.000000
      7         -6.354029   1.000000
      8         -6.272702   1.000000
      9         -6.237063   1.000000
     10         -6.215889   1.000000
     11         -6.070963   1.000000
     12         -6.004603   1.000000
     13         -5.950187   1.000000
     14         -5.848873   1.000000
     15         -5.845213   1.000000
     16         -5.828356   1.000000
     17         -5.687345   1.000000
     18         -5.524215   1.000000
     19         -5.421641   1.000000
     20         -5.418871   1.000000
     21         -5.407191   1.000000
     22         -5.395249   1.000000
     23         -5.337257   1.000000
     24         -5.301375   1.000000
     25         -5.277964   1.000000
     26         -5.228745   1.000000
     27         -5.223000   1.000000
     28         -5.218168   1.000000
     29         -5.175181   1.000000
     30         -5.122841   1.000000
     31         -5.093682   1.000000
     32         -5.037227   1.000000
     33         -5.023598   1.000000
     34         -5.007159   1.000000
     35         -5.005640   1.000000
     36         -4.877465   1.000000
     37         -4.808824   1.000000
     38         -4.788910   1.000000
     39         -4.770850   1.000000
     40         -4.762586   1.000000
     41         -4.661983   1.000000
     42         -4.501197   1.000000
     43         -4.493644   1.000000
     44         -4.431199   1.000000
     45         -4.425798   1.000000
     46         -4.403523   1.000000
     47         -4.389283   1.000000
     48         -4.302772   1.000000
     49         -4.207111   1.000000
     50         -4.188838   1.000000
     51         -4.126917   1.000000
     52         -4.120063   1.000000
     53         -4.064846   1.000000
     54         -4.053553   1.000000
     55         -4.015311   1.000000
     56         -3.827511   1.000000
     57         -3.740963   1.000000
     58         -3.734903   1.000000
     59         -3.681053   1.000000
     60         -3.656762   1.000000
     61         -3.626814   1.000000
     62         -3.581085   1.000000
     63         -3.572714   1.000000
     64         -3.560837   1.000000
     65         -3.528029   1.000000
     66         -3.526618   1.000000
     67         -3.455799   1.000000
     68         -3.448135   1.000000
     69         -3.394650   1.000000
     70         -3.363156   1.000000
     71         -3.357995   1.000000
     72         -3.337274   1.000000
     73         -3.285123   1.000000
     74         -3.271089   1.000000
     75         -3.265496   1.000000
     76         -3.185499   1.000000
     77         -3.177764   1.000000
     78         -3.161542   1.000000
     79         -3.127064   1.000000
     80         -3.089102   1.000000
     81         -3.074697   1.000000
     82         -3.063777   1.000000
     83         -3.044015   1.000000
     84         -2.990542   1.000000
     85         -2.968800   1.000000
     86         -2.954701   1.000000
     87         -2.947605   1.000000
     88         -2.939064   1.000000
     89         -2.925342   1.000000
     90         -2.892105   1.000000
     91         -2.851754   1.000000
     92         -2.825867   1.000000
     93         -2.804529   1.000000
     94         -2.791561   1.000000
     95         -2.768088   1.000000
     96         -2.764055   1.000000
     97         -2.732326   1.000000
     98         -2.716903   1.000000
     99         -2.714839   1.000000
    100         -2.697284   1.000000
    101         -2.603706   1.000000
    102         -2.553243   1.000000
    103         -2.536833   1.000000
    104         -2.514625   1.000000
    105         -2.505083   1.000000
    106         -2.503644   1.000000
    107         -2.493456   1.000000
    108         -2.486316   1.000000
    109         -2.438882   1.000000
    110         -2.434867   1.000000
    111         -2.416188   1.000000
    112         -2.405474   1.000000
    113         -2.187147   1.000000
    114         -2.091091   1.000000
    115         -2.071794   1.000000
    116         -2.029483   1.000000
    117         -1.993047   1.000000
    118         -1.988631   1.000000
    119         -1.980808   1.000000
    120         -1.944398   1.000000
    121         -1.942441   1.000000
    122         -1.849281   1.000000
    123         -1.794191   1.000000
    124         -1.785523   1.000000
    125         -1.752360   1.000000
    126         -1.664838   1.000000
    127         -1.650171   1.000000
    128         -1.603354   1.000000
    129         -1.591374   1.000000
    130         -1.572928   1.000000
    131         -1.543013   1.000000
    132         -1.529117   1.000000
    133         -1.518279   1.000000
    134         -1.474464   1.000000
    135         -1.435540   1.000000
    136         -1.395895   1.000000
    137         -1.384507   1.000000
    138         -1.373920   1.000000
    139         -1.339939   1.000000
    140         -1.190551   1.000000
    141         -1.180422   1.000000
    142         -1.167802   1.000000
    143         -1.141089   1.000000
    144         -1.136041   1.000000
    145         -1.113339   1.000000
    146         -1.077093   1.000000
    147         -1.030102   1.000000
    148         -0.999762   1.000000
    149         -0.981672   1.000000
    150         -0.979765   1.000000
    151         -0.923780   1.000000
    152         -0.911788   1.000000
    153         -0.901293   1.000000
    154         -0.893121   1.000000
    155         -0.825448   1.000000
    156         -0.784797   1.000000
    157         -0.778571   1.000000
    158         -0.750798   1.000000
    159         -0.724831   1.000000
    160         -0.660930   1.000000
    161         -0.632371   1.000000
    162         -0.613774   1.000000
    163         -0.600145   1.000000
    164         -0.587168   1.000000
    165         -0.580707   1.000000
    166         -0.540839   1.000000
    167         -0.482015   1.000000
    168         -0.468203   1.000000
    169         -0.435559   1.000002
    170         -0.398804   1.000018
    171         -0.390221   1.000031
    172         -0.380991   1.000054
    173         -0.350259   1.000288
    174         -0.345989   1.000357
    175         -0.342426   1.000427
    176         -0.336326   1.000575
    177         -0.326224   1.000924
    178         -0.274796   1.007115
    179         -0.267955   1.008877
    180         -0.148973   0.984015
    181         -0.113696   0.825888
    182         -0.091808   0.670036
    183         -0.078518   0.561401
    184         -0.063712   0.436484
    185         -0.058178   0.390486
    186         -0.023868   0.144669
    187         -0.011613   0.081659
    188          0.007734   0.012620
    189          0.014291  -0.002877
    190          0.093788  -0.020760
    191          0.108954  -0.014356
    192          0.135969  -0.006289
    193          0.152519  -0.003447
    194          0.298114  -0.000001
    195          0.305763  -0.000001
    196          0.315566  -0.000000
    197          0.351933  -0.000000
    198          0.692744  -0.000000
    199          0.766238  -0.000000
    200          1.201311  -0.000000
    201          1.475931  -0.000000
    202          1.484713  -0.000000
    203          1.605634  -0.000000
    204          2.351548  -0.000000
    205          2.738126   0.000000
    206          2.922061   0.000000
    207          3.490623   0.000000
    208          3.656013   0.000000
    209          3.661955   0.000000
    210          3.756020   0.000000
    211          3.992252   0.000000
    212          4.358513   0.000000
    213          4.618485   0.000000
    214          4.712444   0.000000
    215          4.968066   0.000000
    216          4.991567   0.000000
    217          4.996130   0.000000
    218          5.120032   0.000000
    219          5.242474   0.000000
    220          5.480999   0.000000
    221          5.656255   0.000000
    222          5.724425   0.000000
    223          5.896979   0.000000
    224          5.921379   0.000000
    225          5.975921   0.000000
    226          6.161601   0.000000
    227          6.281549   0.000000
    228          6.326611   0.000000
    229          6.362476   0.000000
    230          6.538733   0.000000
    231          6.714129   0.000000
    232          6.738553   0.000000
    233          6.785433   0.000000
    234          6.889988   0.000000
    235          6.941566   0.000000
    236          7.074932   0.000000
    237          7.279096   0.000000
    238          7.493823   0.000000
    239          7.527504   0.000000
    240          7.624811   0.000000
 
  0.2000000E+00  0.2000000E+00  0.1276756E-14  0.8000000E-01
      1         -8.743822   1.000000
      2         -7.525444   1.000000
      3         -6.981854   1.000000
      4         -6.655237   1.000000
      5         -6.565870   1.000000
      6         -6.528100   1.000000
      7         -6.354340   1.000000
      8         -6.277297   1.000000
      9         -6.224227   1.000000
     10         -6.220321   1.000000
     11         -6.097310   1.000000
     12         -6.003199   1.000000
     13         -5.914398   1.000000
     14         -5.845413   1.000000
     15         -5.840667   1.000000
     16         -5.827168   1.000000
     17         -5.707637   1.000000
     18         -5.539314   1.000000
     19         -5.422659   1.000000
     20         -5.411860   1.000000
     21         -5.408424   1.000000
     22         -5.371491   1.000000
     23         -5.333171   1.000000
     24         -5.309984   1.000000
     25         -5.275218   1.000000
     26         -5.243920   1.000000
     27         -5.229901   1.000000
     28         -5.210957   1.000000
     29         -5.153281   1.000000
     30         -5.116049   1.000000
     31         -5.104910   1.000000
     32         -5.036094   1.000000
     33         -5.018954   1.000000
     34         -5.007296   1.000000
     35         -5.003863   1.000000
     36         -4.865501   1.000000
     37         -4.807274   1.000000
     38         -4.788970   1.000000
     39         -4.779788   1.000000
     40         -4.750280   1.000000
     41         -4.676039   1.000000
     42         -4.500898   1.000000
     43         -4.493986   1.000000
     44         -4.466335   1.000000
     45         -4.422839   1.000000
     46         -4.408932   1.000000
     47         -4.388891   1.000000
     48         -4.308233   1.000000
     49         -4.216064   1.000000
     50         -4.156318   1.000000
     51         -4.122284   1.000000
     52         -4.116665   1.000000
     53         -4.082817   1.000000
     54         -4.054265   1.000000
     55         -3.994736   1.000000
     56         -3.833324   1.000000
     57         -3.741570   1.000000
     58         -3.730091   1.000000
     59         -3.682665   1.000000
     60         -3.656989   1.000000
     61         -3.635514   1.000000
     62         -3.584120   1.000000
     63         -3.568986   1.000000
     64         -3.549991   1.000000
     65         -3.530368   1.000000
     66         -3.521211   1.000000
     67         -3.469246   1.000000
     68         -3.451499   1.000000
     69         -3.406223   1.000000
     70         -3.376304   1.000000
     71         -3.353856   1.000000
     72         -3.335713   1.000000
     73         -3.271284   1.000000
     74         -3.266016   1.000000
     75         -3.257840   1.000000
     76         -3.183581   1.000000
     77         -3.175224   1.000000
     78         -3.145473   1.000000
     79         -3.133734   1.000000
     80         -3.092835   1.000000
     81         -3.080586   1.000000
     82         -3.060962   1.000000
     83         -3.035534   1.000000
     84         -3.000891   1.000000
     85         -2.969069   1.000000
     86         -2.954590   1.000000
     87         -2.940831   1.000000
     88         -2.937416   1.000000
     89         -2.915775   1.000000
     90         -2.901444   1.000000
     91         -2.860473   1.000000
     92         -2.814827   1.000000
     93         -2.808217   1.000000
     94         -2.785653   1.000000
     95         -2.778817   1.000000
     96         -2.762693   1.000000
     97         -2.752747   1.000000
     98         -2.714985   1.000000
     99         -2.706627   1.000000
    100         -2.681592   1.000000
    101         -2.608960   1.000000
    102         -2.553931   1.000000
    103         -2.537983   1.000000
    104         -2.525799   1.000000
    105         -2.512057   1.000000
    106         -2.501282   1.000000
    107         -2.496420   1.000000
    108         -2.481889   1.000000
    109         -2.442613   1.000000
    110         -2.429438   1.000000
    111         -2.423321   1.000000
    112         -2.413202   1.000000
    113         -2.213061   1.000000
    114         -2.096584   1.000000
    115         -2.055427   1.000000
    116         -2.010112   1.000000
    117         -1.997935   1.000000
    118         -1.984009   1.000000
    119         -1.977833   1.000000
    120         -1.956803   1.000000
    121         -1.940180   1.000000
    122         -1.892402   1.000000
    123         -1.808970   1.000000
    124         -1.786099   1.000000
    125         -1.727775   1.000000
    126         -1.668986   1.000000
    127         -1.649155   1.000000
    128         -1.604768   1.000000
    129         -1.592767   1.000000
    130         -1.571237   1.000000
    131         -1.539702   1.000000
    132         -1.525391   1.000000
    133         -1.519482   1.000000
    134         -1.441036   1.000000
    135         -1.408618   1.000000
    136         -1.394525   1.000000
    137         -1.383969   1.000000
    138         -1.374572   1.000000
    139         -1.298220   1.000000
    140         -1.191057   1.000000
    141         -1.179886   1.000000
    142         -1.165849   1.000000
    143         -1.148258   1.000000
    144         -1.134450   1.000000
    145         -1.121922   1.000000
    146         -1.072143   1.000000
    147         -1.033962   1.000000
    148         -1.007282   1.000000
    149         -0.988972   1.000000
    150         -0.979088   1.000000
    151         -0.949581   1.000000
    152         -0.912269   1.000000
    153         -0.903636   1.000000
    154         -0.896748   1.000000
    155         -0.846387   1.000000
    156         -0.789414   1.000000
    157         -0.770289   1.000000
    158         -0.752707   1.000000
    159         -0.714051   1.000000
    160         -0.662476   1.000000
    161         -0.639093   1.000000
    162         -0.623271   1.000000
    163         -0.607370   1.000000
    164         -0.588495   1.000000
    165         -0.563280   1.000000
    166         -0.540533   1.000000
    167         -0.482957   1.000000
    168         -0.462937   1.000000
    169         -0.415911   1.000006
    170         -0.399032   1.000018
    171         -0.390682   1.000030
    172         -0.378008   1.000064
    173         -0.350268   1.000287
    174         -0.346624   1.000346
    175         -0.338948   1.000506
    176         -0.337614   1.000540
    177         -0.326296   1.000921
    178         -0.272603   1.007648
    179         -0.264734   1.009809
    180         -0.133260   0.928868
    181         -0.120321   0.865003
    182         -0.097941   0.717267
    183         -0.080316   0.576449
    184         -0.071783   0.504583
    185         -0.057987   0.388917
    186         -0.035340   0.216799
    187         -0.011747   0.082267
    188         -0.002706   0.045346
    189          0.013215  -0.000586
    190          0.082224  -0.026083
    191          0.114165  -0.012441
    192          0.132184  -0.007146
    193          0.176354  -0.001288
    194          0.294971  -0.000001
    195          0.307814  -0.000001
    196          0.313080  -0.000000
    197          0.359299  -0.000000
    198          0.677574  -0.000000
    199          0.757185  -0.000000
    200          1.222614  -0.000000
    201          1.468713  -0.000000
    202          1.487754  -0.000000
    203          1.608956  -0.000000
    204          2.335452  -0.000000
    205          2.787102   0.000000
    206          2.916446   0.000000
    207          3.478522   0.000000
    208          3.653818   0.000000
    209          3.667947   0.000000
    210          3.750068   0.000000
    211          3.959361   0.000000
    212          4.375134   0.000000
    213          4.612180   0.000000
    214          4.694842   0.000000
    215          4.962228   0.000000
    216          4.985668   0.000000
    217          5.004810   0.000000
    218          5.178987   0.000000
    219          5.243403   0.000000
    220          5.464580   0.000000
    221          5.622247   0.000000
    222          5.721261   0.000000
    223          5.823642   0.000000
    224          5.920068   0.000000
    225          6.061943   0.000000
    226          6.216093   0.000000
    227          6.286339   0.000000
    228          6.328245   0.000000
    229          6.347541   0.000000
    230          6.613118   0.000000
    231          6.697964   0.000000
    232          6.728072   0.000000
    233          6.784027   0.000000
    234          6.829786   0.000000
    235          6.947361   0.000000
    236          7.062675   0.000000
    237          7.223338   0.000000
    238          7.483480   0.000000
    239          7.572982   0.000000
    240          7.610025   0.000000
 
  0.1276756E-14  0.2000000E+00  0.1276756E-14  0.8000000E-01
      1         -8.743771   1.000000
      2         -7.525575   1.000000
      3         -6.980933   1.000000
      4         -6.652417   1.000000
      5         -6.565779   1.000000
      6         -6.533974   1.000000
      7         -6.353969   1.000000
      8         -6.272399   1.000000
      9         -6.227859   1.000000
     10         -6.221884   1.000000
     11         -6.101292   1.000000
     12         -6.004840   1.000000
     13         -5.907801   1.000000
     14         -5.840986   1.000000
     15         -5.838631   1.000000
     16         -5.827178   1.000000
     17         -5.713091   1.000000
     18         -5.541562   1.000000
     19         -5.421384   1.000000
     20         -5.413030   1.000000
     21         -5.407707   1.000000
     22         -5.365503   1.000000
     23         -5.333054   1.000000
     24         -5.308467   1.000000
     25         -5.275707   1.000000
     26         -5.248642   1.000000
     27         -5.226751   1.000000
     28         -5.210448   1.000000
     29         -5.148330   1.000000
     30         -5.118903   1.000000
     31         -5.106058   1.000000
     32         -5.030345   1.000000
     33         -5.018050   1.000000
     34         -5.007950   1.000000
     35         -5.004773   1.000000
     36         -4.863873   1.000000
     37         -4.808229   1.000000
     38         -4.791009   1.000000
     39         -4.778855   1.000000
     40         -4.756048   1.000000
     41         -4.677776   1.000000
     42         -4.500469   1.000000
     43         -4.497942   1.000000
     44         -4.468057   1.000000
     45         -4.420731   1.000000
     46         -4.410153   1.000000
     47         -4.389019   1.000000
     48         -4.305371   1.000000
     49         -4.218867   1.000000
     50         -4.154465   1.000000
     51         -4.121982   1.000000
     52         -4.118460   1.000000
     53         -4.082029   1.000000
     54         -4.053562   1.000000
     55         -3.995584   1.000000
     56         -3.839622   1.000000
     57         -3.741019   1.000000
     58         -3.727973   1.000000
     59         -3.687000   1.000000
     60         -3.663640   1.000000
     61         -3.639704   1.000000
     62         -3.593594   1.000000
     63         -3.561791   1.000000
     64         -3.545573   1.000000
     65         -3.526580   1.000000
     66         -3.518991   1.000000
     67         -3.468474   1.000000
     68         -3.451163   1.000000
     69         -3.409439   1.000000
     70         -3.379235   1.000000
     71         -3.359721   1.000000
     72         -3.336460   1.000000
     73         -3.267764   1.000000
     74         -3.252508   1.000000
     75         -3.241617   1.000000
     76         -3.184943   1.000000
     77         -3.179026   1.000000
     78         -3.149026   1.000000