 vasp.6.4.2 20Jul23 (build Mar 01 2024 16:46:03) complex                        
  
 executed on             LinuxIFC date 2025.01.12  03:11:56
 running   48 mpi-ranks, on    1 nodes
 distrk:  each k-point on   48 cores,    1 groups
 distr:  one band on NCORE=   1 cores,   48 groups


--------------------------------------------------------------------------------------------------------


 INCAR:
   ENCUT = 680.290000
   SIGMA = 0.100000
   ZAB_VDW = -1.886700
   EDIFF = 1.00e-05
   ALGO = Fast
   GGA = BF
   IBRION = -1
   ISMEAR = 1
   ISPIN = 1
   ISYM = 0
   LUSE_VDW = .TRUE.
   LREAL = Auto

 POTCAR:    PAW_PBE Pt 04Feb2005                  
 POTCAR:    PAW_PBE H 15Jun2001                   
 -----------------------------------------------------------------------------
|                                                                             |
|           W    W    AA    RRRRR   N    N  II  N    N   GGGG   !!!           |
|           W    W   A  A   R    R  NN   N  II  NN   N  G    G  !!!           |
|           W    W  A    A  R    R  N N  N  II  N N  N  G       !!!           |
|           W WW W  AAAAAA  RRRRR   N  N N  II  N  N N  G  GGG   !            |
|           WW  WW  A    A  R   R   N   NN  II  N   NN  G    G                |
|           W    W  A    A  R    R  N    N  II  N    N   GGGG   !!!           |
|                                                                             |
|     For optimal performance we recommend to set                             |
|       NCORE = 2 up to number-of-cores-per-socket                            |
|     NCORE specifies how many cores store one orbital (NPAR=cpu/NCORE).      |
|     This setting can greatly improve the performance of VASP for DFT.       |
|     The default, NCORE=1 might be grossly inefficient on modern             |
|     multi-core architectures or massively parallel machines. Do your        |
|     own testing! More info at https://www.vasp.at/wiki/index.php/NCORE      |
|     Unfortunately you need to use the default for GW and RPA                |
|     calculations (for HF NCORE is supported but not extensively tested      |
|     yet).                                                                   |
|                                                                             |
 -----------------------------------------------------------------------------

 -----------------------------------------------------------------------------
|                                                                             |
|               ----> ADVICE to this user running VASP <----                  |
|                                                                             |
|     You have switched on vdW-DFT.                                           |
|     This routine was written and supplied by Jiri Klimes. We recommend      |
|     that you carefully read and cite the following publications:            |
|       J. Klimes, D.R. Bowler, A. Michelides                                 |
|          J. Phys.: Cond Matt. 22 022201 (2010)                              |
|       J. Klimes, D.R. Bowler, A. Michelides                                 |
|          Phys. Rev. B. 83, 195131 (2011)                                    |
|     and references therein.                                                 |
|                                                                             |
 -----------------------------------------------------------------------------

 POTCAR:    PAW_PBE Pt 04Feb2005                  
   SHA256 =  3ed90460adef76debcff1cfb73ee1349b515b1a3db03439735b44de3a8db7dc8 Pt/POTCAR             
   COPYR  = (c) Copyright 04Feb2005 Georg Kresse                                                    
   COPYR  = This file is part of the software VASP. Any use, copying, and all other rights are regul
   COPYR  = If you do not have a valid VASP license, you may not use, copy or distribute this file. 
   VRHFIN =Pt: s1d9                                                                                 
   LEXCH  = PE                                                                                      
   EATOM  =   729.1176 eV,   53.5886 Ry                                                             
                                                                                                    
   TITEL  = PAW_PBE Pt 04Feb2005                                                                    
   LULTRA =        F    use ultrasoft PP ?                                                          
   IUNSCR =        1    unscreen: 0-lin 1-nonlin 2-no                                               
   RPACOR =    2.330    partial core radius                                                         
   POMASS =  195.080; ZVAL   =   10.000    mass and valenz                                          
   RCORE  =    2.600    outmost cutoff radius                                                       
   RWIGS  =    2.750; RWIGS  =    1.455    wigner-seitz radius (au A)                               
   ENMAX  =  230.283; ENMIN  =  172.712 eV                                                          
   ICORE  =        3    local potential                                                             
   LCOR   =        T    correct aug charges                                                         
   LPAW   =        T    paw PP                                                                      
   EAUG   =  358.966                                                                                
   DEXC   =    0.000                                                                                
   RMAX   =    2.658    core radius for proj-oper                                                   
   RAUG   =    1.300    factor for augmentation sphere                                              
   RDEP   =    2.761    radius for radial grids                                                     
   RDEPT  =    2.203    core radius for aug-charge                                                  
                                                                                                    
   Atomic configuration                                                                             
   16 entries                                                                                       
     n  l   j            E        occ.                                                              
     1  0  0.50    -78401.1885   2.0000                                                             
     2  0  0.50    -13770.7750   2.0000                                                             
     2  1  1.50    -11931.0468   6.0000                                                             
     3  0  0.50     -3234.7234   2.0000                                                             
     3  1  1.50     -2699.2216   6.0000                                                             
     3  2  2.50     -2119.5714  10.0000                                                             
     4  0  0.50      -695.1528   2.0000                                                             
     4  1  1.50      -519.6034   6.0000                                                             
     4  2  2.50      -306.6786  10.0000                                                             
     4  3  3.50       -70.1041  14.0000                                                             
     5  0  0.50      -101.7747   2.0000                                                             
     5  1  1.50       -55.9873   6.0000                                                             
     5  2  2.50        -6.1423   9.0000                                                             
     6  0  0.50        -5.6573   1.0000                                                             
     6  1  1.50        -6.8029   0.0000                                                             
     5  3  2.50        -1.3606   0.0000                                                             
   Description                                                                                      
     l       E           TYP  RCUT    TYP  RCUT                                                     
     2     -6.1423404     23  2.500                                                                 
     2     -7.5029230     23  2.500                                                                 
     0     -5.6573207     23  2.500                                                                 
     0      0.7416693     23  2.500                                                                 
     1     -2.7211652     23  2.600                                                                 
     1     20.4087390     23  2.600                                                                 
     3     -1.3605826     23  2.500                                                                 
  local pseudopotential read in
  partial core-charges read in
  partial kinetic energy density read in
  atomic valenz-charges read in
  non local Contribution for L=           2  read in
    real space projection operators read in
  non local Contribution for L=           2  read in
    real space projection operators read in
  non local Contribution for L=           0  read in
    real space projection operators read in
  non local Contribution for L=           0  read in
    real space projection operators read in
  non local Contribution for L=           1  read in
    real space projection operators read in
  non local Contribution for L=           1  read in
    real space projection operators read in
    PAW grid and wavefunctions read in
 
   number of l-projection  operators is LMAX  =           6
   number of lm-projection operators is LMMAX =          18
 
 POTCAR:    PAW_PBE H 15Jun2001                   
   SHA256 =  030f79b5d3ab3cf0e668861823c8fb652ff669f3e15e46930bd03bfd63a607b6 H/POTCAR              
   COPYR  = (c) Copyright 15Jun2001 Georg Kresse                                                    
   COPYR  = This file is part of the software VASP. Any use, copying, and all other rights are regul
   COPYR  = If you do not have a valid VASP license, you may not use, copy or distribute this file. 
   VRHFIN =H: ultrasoft test                                                                        
   LEXCH  = PE                                                                                      
   EATOM  =    12.4884 eV,    0.9179 Ry                                                             
                                                                                                    
   TITEL  = PAW_PBE H 15Jun2001                                                                     
   LULTRA =        F    use ultrasoft PP ?                                                          
   IUNSCR =        0    unscreen: 0-lin 1-nonlin 2-no                                               
   RPACOR =    0.000    partial core radius                                                         
   POMASS =    1.000; ZVAL   =    1.000    mass and valenz                                          
   RCORE  =    1.100    outmost cutoff radius                                                       
   RWIGS  =    0.700; RWIGS  =    0.370    wigner-seitz radius (au A)                               
   ENMAX  =  250.000; ENMIN  =  200.000 eV                                                          
   RCLOC  =    0.701    cutoff for local pot                                                        
   LCOR   =        T    correct aug charges                                                         
   LPAW   =        T    paw PP                                                                      
   EAUG   =  400.000                                                                                
   RMAX   =    1.123    core radius for proj-oper                                                   
   RAUG   =    1.200    factor for augmentation sphere                                              
   RDEP   =    1.112    radius for radial grids                                                     
   RDEPT  =    0.926    core radius for aug-charge                                                  
                                                                                                    
   Atomic configuration                                                                             
    2 entries                                                                                       
     n  l   j            E        occ.                                                              
     1  0  0.50        -6.4927   1.0000                                                             
     2  1  0.50        -3.4015   0.0000                                                             
   Description                                                                                      
     l       E           TYP  RCUT    TYP  RCUT                                                     
     0     -6.4927494     23  1.100                                                                 
     0      6.8029130     23  1.100                                                                 
     1     -4.0817478     23  1.100                                                                 
  local pseudopotential read in
  atomic valenz-charges read in
  non local Contribution for L=           0  read in
    real space projection operators read in
  non local Contribution for L=           0  read in
    real space projection operators read in
  non local Contribution for L=           1  read in
    real space projection operators read in
    PAW grid and wavefunctions read in
 
   number of l-projection  operators is LMAX  =           3
   number of lm-projection operators is LMMAX =           5
 
 Optimization of the real space projectors (new method)

 maximal supplied QI-value         = 14.36
 optimisation between [QCUT,QGAM] = [ 13.36, 26.71] = [ 49.96,199.83] Ry 
 Optimized for a Real-space Cutoff    1.42 Angstroem

   l    n(q)    QCUT    max X(q) W(low)/X(q) W(high)/X(q)  e(spline) 
   2     11    13.357    66.195    0.16E-03    0.81E-04    0.36E-06
   2     11    13.357    64.643    0.16E-03    0.82E-04    0.36E-06
   0     11    13.357    95.520    0.60E-04    0.72E-05    0.55E-06
   0     11    13.357    63.403    0.58E-04    0.70E-05    0.53E-06
   1     11    13.357    19.961    0.21E-03    0.56E-03    0.21E-05
   1     11    13.357    13.289    0.17E-03    0.46E-03    0.17E-05
 Optimization of the real space projectors (new method)

 maximal supplied QI-value         = 34.20
 optimisation between [QCUT,QGAM] = [ 13.34, 26.68] = [ 49.83,199.32] Ry 
 Optimized for a Real-space Cutoff    0.91 Angstroem

   l    n(q)    QCUT    max X(q) W(low)/X(q) W(high)/X(q)  e(spline) 
   0      7    13.340    19.460    0.48E-03    0.16E-03    0.16E-06
   0      7    13.340    12.209    0.46E-03    0.14E-03    0.15E-06
   1      7    13.340     4.655    0.46E-03    0.87E-03    0.11E-06
 -----------------------------------------------------------------------------
|                                                                             |
|               ----> ADVICE to this user running VASP <----                  |
|                                                                             |
|     You enforced a specific xc type in the INCAR file but a different       |
|     type was found in the POTCAR file.                                      |
|     I HOPE YOU KNOW WHAT YOU ARE DOING!                                     |
|                                                                             |
 -----------------------------------------------------------------------------

  PAW_PBE Pt 04Feb2005                  :
 energy of atom  1       EATOM= -729.1176
 kinetic energy error for atom=    0.0010 (will be added to EATOM!!)
  PAW_PBE H 15Jun2001                   :
 energy of atom  2       EATOM=  -12.4884
 kinetic energy error for atom=    0.0002 (will be added to EATOM!!)
 
 
 POSCAR: Pt  H
  positions in cartesian coordinates
  No initial velocities read in
 exchange correlation table for  LEXCH =       17
   RHO(1)=    0.500       N(1)  =     2000
   RHO(2)=  100.500       N(2)  =     4000
 


--------------------------------------------------------------------------------------------------------


 ion  position               nearest neighbor table
   1  0.000  0.000  0.340-   3 2.81   7 2.81   6 2.82   8 2.82  12 2.82  16 2.82   2 2.83   4 2.83
                            10 2.83
   2  0.334  0.000  0.340-   8 2.81   9 2.82  17 2.82   1 2.83   3 2.83   4 2.83   5 2.83  10 2.83
                            11 2.83
   3  0.668  0.000  0.340-   7 2.81   1 2.81   9 2.81  18 2.82   5 2.83   2 2.83   6 2.83  11 2.83
                            12 2.83
   4  0.000  0.334  0.340-   6 2.81   9 2.82  15 2.82   5 2.83   2 2.83   1 2.83   7 2.83  10 2.83
                            13 2.83
   5  0.334  0.334  0.340-   3 2.83   4 2.83   6 2.83   7 2.83   2 2.83   8 2.83  11 2.83  13 2.83
                            14 2.83
   6  0.668  0.334  0.340-   4 2.81   1 2.82   5 2.83   8 2.83   3 2.83   9 2.83  12 2.83  14 2.83
                            15 2.83
   7  0.000  0.668  0.340-   3 2.81   1 2.81   9 2.81  18 2.82   5 2.83   8 2.83   4 2.83  13 2.83
                            16 2.83
   8  0.334  0.668  0.340-   2 2.81   1 2.82   6 2.83   7 2.83   9 2.83   5 2.83  14 2.83  16 2.83
                            17 2.83
   9  0.668  0.668  0.340-   3 2.81   7 2.81   4 2.82   2 2.82   8 2.83   6 2.83  15 2.83  17 2.83
                            18 2.83
  10  0.111  0.111  0.433-  26 2.81  16 2.81  12 2.81  19 2.81  15 2.82  17 2.82  20 2.82  11 2.83
                            13 2.83   4 2.83   2 2.83   1 2.83
  11  0.445  0.111  0.433-  21 2.81  17 2.81  18 2.82  27 2.82  20 2.82  13 2.83  10 2.83  12 2.83
                            14 2.83   5 2.83   3 2.83   2 2.83
  12  0.779  0.111  0.433-  25 2.80  21 2.81  16 2.81  10 2.81  18 2.81  19 2.81   1 2.82  14 2.83
                            11 2.83  15 2.83   6 2.83   3 2.83
  13  0.111  0.445  0.433-  23 2.80  20 2.81  15 2.81  22 2.81  18 2.82  14 2.83  11 2.83  10 2.83
                            16 2.83   7 2.83   5 2.83   4 2.83
  14  0.445  0.445  0.433-  21 2.79  24 2.80  23 2.81  16 2.83  12 2.83  13 2.83  15 2.83  17 2.83
                            11 2.83   8 2.83   6 2.83   5 2.83
  15  0.779  0.445  0.433-  22 2.80  19 2.80  24 2.81  13 2.81  10 2.82   4 2.82  17 2.83  14 2.83
                            18 2.83  12 2.83   9 2.83   6 2.83
  16  0.111  0.779  0.433-  23 2.79  12 2.81  18 2.81  10 2.81  25 2.81  26 2.82   1 2.82  14 2.83
                            17 2.83  13 2.83   8 2.83   7 2.83
  17  0.445  0.779  0.433-  24 2.80  11 2.81  10 2.82   2 2.82  26 2.82  18 2.83  15 2.83  16 2.83
                            14 2.83   9 2.83   8 2.83  27 2.83
  18  0.779  0.779  0.433-  22 2.80  25 2.80  12 2.81  16 2.81  13 2.82  11 2.82   3 2.82   7 2.82
                            17 2.83  15 2.83   9 2.83  27 2.86
  19  0.889  0.225  0.525-  15 2.80  10 2.81  12 2.81  20 2.82  26 2.82  25 2.82  24 2.82  22 2.82
                            21 2.83  33 2.84  28 2.85  31 2.85
  20  0.222  0.225  0.525-  27 2.80  13 2.81  19 2.82  26 2.82  10 2.82  11 2.82  23 2.82  21 2.82
                            22 2.83  32 2.83  31 2.85  29 2.90
  21  0.555  0.225  0.524-  14 2.79  11 2.81  12 2.81  25 2.82  27 2.82  24 2.82  23 2.82  20 2.82
                            19 2.83  33 2.84  30 2.84  32 2.84
  22  0.888  0.559  0.524-  18 2.80  15 2.80  13 2.81  24 2.82  25 2.82  23 2.82  19 2.82  20 2.83
                            31 2.83  27 2.84  36 2.84  34 2.84
  23  0.221  0.558  0.524-  16 2.79  13 2.80  14 2.81  20 2.82  22 2.82  21 2.82  26 2.83  25 2.83
                            24 2.83  32 2.84  35 2.84  34 2.85
  24  0.555  0.558  0.524-  17 2.80  14 2.80  15 2.81  22 2.82  21 2.82  26 2.82  27 2.82  19 2.82
                            23 2.83  33 2.84  35 2.84  36 2.85
  25  0.888  0.892  0.525-  12 2.80  18 2.80  16 2.81  21 2.82  19 2.82  22 2.82  23 2.83  26 2.83
                            28 2.83  34 2.84  27 2.84  30 2.84
  26  0.222  0.892  0.525-  27 2.80  10 2.81  16 2.82  20 2.82  19 2.82  17 2.82  24 2.82  23 2.83
                            25 2.83  35 2.83  28 2.86  29 2.90
  27  0.551  0.893  0.526-  20 2.80  26 2.80  36 2.82  11 2.82  30 2.82  21 2.82  24 2.82  17 2.83
                            22 2.84  25 2.84  18 2.86  29 2.86
  28  0.996  0.002  0.618-  30 2.79  34 2.80  33 2.82  25 2.83  35 2.84  19 2.85  26 2.86  29 2.86
                            31 2.87
  29  0.333  0.003  0.621-  37 1.60  36 2.82  30 2.82  35 2.84  32 2.84  28 2.86  31 2.86  27 2.86
                            20 2.90  26 2.90
  30  0.665  0.004  0.618-  28 2.79  33 2.82  29 2.82  27 2.82  34 2.82  32 2.82  36 2.83  25 2.84
                            21 2.84
  31  0.996  0.341  0.618-  36 2.79  34 2.80  33 2.82  22 2.83  32 2.83  19 2.85  20 2.85  29 2.86
                            28 2.87
  32  0.332  0.338  0.617-  35 2.80  33 2.81  34 2.82  30 2.82  31 2.83  20 2.83  23 2.84  29 2.84
                            21 2.84
  33  0.664  0.338  0.617-  35 2.81  32 2.81  30 2.82  36 2.82  28 2.82  31 2.82  24 2.84  21 2.84
                            19 2.84
  34  0.999  0.670  0.618-  28 2.80  31 2.80  35 2.82  32 2.82  36 2.82  30 2.82  25 2.84  22 2.84
                            23 2.85
  35  0.332  0.668  0.617-  32 2.80  33 2.81  34 2.82  36 2.83  26 2.83  29 2.84  23 2.84  28 2.84
                            24 2.84
  36  0.665  0.670  0.618-  31 2.79  27 2.82  29 2.82  33 2.82  34 2.82  35 2.83  30 2.83  22 2.84
                            24 2.85
  37  0.191  0.069  0.670-  29 1.60
 

IMPORTANT INFORMATION: All symmetrisations will be switched off!
NOSYMM: (Re-)initialisation of all symmetry stuff for point group C_1.


----------------------------------------------------------------------------------------

                                     Primitive cell                                     

  volume of cell :    1550.4837

  direct lattice vectors                    reciprocal lattice vectors
     8.468310000  0.000000000  0.000000000     0.118087316 -0.068177744  0.000000000
     4.234155000  7.333771587  0.000000000     0.000000000  0.136355488  0.000000000
     0.000000000  0.000000000 24.965661990     0.000000000  0.000000000  0.040055016

  length of vectors
     8.468310000  8.468310000 24.965661990     0.136355488  0.136355488  0.040055016

  position of ions in fractional coordinates (direct lattice)
     0.000000000  0.000000000  0.340467639
     0.334001368  0.000000000  0.340467639
     0.668002736  0.000000000  0.340467639
     1.000000000  0.334001368  0.340467639
     0.334001368  0.334001368  0.340467639
     0.668002736  0.334001368  0.340467639
     1.000000000  0.668002736  0.340467639
     0.334001368  0.668002736  0.340467639
     0.668002736  0.668002736  0.340467639
     0.111333789  0.111333789  0.432970737
     0.445335157  0.111333789  0.432970737
     0.779336525  0.111333789  0.432970737
     0.111333789  0.445335157  0.432970737
     0.445335157  0.445335157  0.432970737
     0.779336525  0.445335157  0.432970737
     0.111333789  0.779336525  0.432970737
     0.445335157  0.779336525  0.432970737
     0.779336525  0.779336525  0.432970737
     0.888739860  0.224742905  0.524717924
     0.221667538  0.224617202  0.524938701
     0.555028946  0.224921244  0.524272554
     0.887586844  0.558845548  0.524430549
     0.221356256  0.558212850  0.524134355
     0.555180703  0.558179814  0.524184268
     0.887768219  0.892043898  0.524609010
     0.221786295  0.891638830  0.524995351
     0.551477840  0.893462852  0.526063599
     0.995966335  0.002421301  0.618241071
     0.333049408  0.002779548  0.621187423
     0.665378505  0.004118703  0.617856316
     0.996242868  0.340802670  0.617985204
     0.332178667  0.337986934  0.617494686
     0.664330542  0.337544643  0.617473402
     0.998650729  0.670400877  0.617744802
     0.332428425  0.668387619  0.617332284
     0.665455499  0.669987612  0.617761280
     0.191256751  0.069434397  0.670002926

  ion indices of the primitive-cell ions
   primitive index   ion index
                 1           1
                 2           2
                 3           3
                 4           4
                 5           5
                 6           6
                 7           7
                 8           8
                 9           9
                10          10
                11          11
                12          12
                13          13
                14          14
                15          15
                16          16
                17          17
                18          18
                19          19
                20          20
                21          21
                22          22
                23          23
                24          24
                25          25
                26          26
                27          27
                28          28
                29          29
                30          30
                31          31
                32          32
                33          33
                34          34
                35          35
                36          36
                37          37

----------------------------------------------------------------------------------------

 
 
 KPOINTS: KPOINTS created by Atomic Simulation Env

Automatic generation of k-mesh.
 Grid dimensions read from file:
 generate k-points for:    5    5    1

 Generating k-lattice:

  Cartesian coordinates                     Fractional coordinates (reciprocal lattice)
     0.023617463 -0.013635549  0.000000000     0.200000000 -0.000000000  0.000000000
     0.000000000  0.027271098  0.000000000     0.000000000  0.200000000  0.000000000
     0.000000000  0.000000000  0.040055016     0.000000000  0.000000000  1.000000000

  Length of vectors
     0.027271098  0.027271098  0.040055016

  Shift w.r.t. Gamma in fractional coordinates (k-lattice)
     0.000000000  0.000000000  0.000000000

 
 Subroutine IBZKPT returns following result:
 ===========================================
 
 Found     13 irreducible k-points:
 
 Following reciprocal coordinates:
            Coordinates               Weight
  0.000000  0.000000  0.000000      1.000000
  0.200000  0.000000  0.000000      2.000000
  0.200000  0.200000  0.000000      2.000000
  0.000000  0.200000  0.000000      2.000000
  0.400000  0.000000  0.000000      2.000000
  0.400000  0.400000  0.000000      2.000000
  0.000000  0.400000  0.000000      2.000000
  0.400000  0.200000  0.000000      2.000000
  0.200000  0.400000  0.000000      2.000000
 -0.200000  0.200000  0.000000      2.000000
 -0.400000  0.200000  0.000000      2.000000
  0.400000 -0.400000  0.000000      2.000000
 -0.200000  0.400000  0.000000      2.000000
 
 Following cartesian coordinates:
            Coordinates               Weight
  0.000000  0.000000  0.000000      1.000000
  0.023617 -0.013636  0.000000      2.000000
  0.023617  0.013636  0.000000      2.000000
  0.000000  0.027271  0.000000      2.000000
  0.047235 -0.027271  0.000000      2.000000
  0.047235  0.027271  0.000000      2.000000
  0.000000  0.054542  0.000000      2.000000
  0.047235  0.000000  0.000000      2.000000
  0.023617  0.040907  0.000000      2.000000
 -0.023617  0.040907  0.000000      2.000000
 -0.047235  0.054542  0.000000      2.000000
  0.047235 -0.081813  0.000000      2.000000
 -0.023617  0.068178  0.000000      2.000000
 


--------------------------------------------------------------------------------------------------------




 Dimension of arrays:
   k-points           NKPTS =     13   k-points in BZ     NKDIM =     13   number of bands    NBANDS=    240
   number of dos      NEDOS =    301   number of ions     NIONS =     37
   non local maximal  LDIM  =      6   non local SUM 2l+1 LMDIM =     18
   total plane-waves  NPLWV = 466560
   max r-space proj   IRMAX =   3679   max aug-charges    IRDMAX=  18423
   dimension x,y,z NGX =    54 NGY =   54 NGZ =  160
   dimension x,y,z NGXF=   108 NGYF=  108 NGZF=  320
   support grid    NGXF=   108 NGYF=  108 NGZF=  320
   ions per type =              36   1
   NGX,Y,Z   is equivalent  to a cutoff of  10.60, 10.60, 10.65 a.u.
   NGXF,Y,Z  is equivalent  to a cutoff of  21.20, 21.20, 21.31 a.u.

 SYSTEM =  unknown system                          
 POSCAR =  Pt  H                                   

 Startparameter for this run:
   NWRITE =      2    write-flag & timer
   PREC   = normal    normal or accurate (medium, high low for compatibility)
   ISTART =      1    job   : 0-new  1-cont  2-samecut
   ICHARG =      0    charge: 1-file 2-atom 10-const
   ISPIN  =      1    spin polarized calculation?
   LNONCOLLINEAR =      F non collinear calculations
   LSORBIT =      F    spin-orbit coupling
   INIWAV =      1    electr: 0-lowe 1-rand  2-diag
   LASPH  =      F    aspherical Exc in radial PAW
 Electronic Relaxation 1
   ENCUT  =  680.3 eV  50.00 Ry    7.07 a.u.  18.01 18.01 53.09*2*pi/ulx,y,z
   ENINI  =  680.3     initial cutoff
   ENAUG  =  400.0 eV  augmentation charge cutoff
   NELM   =     60;   NELMIN=  2; NELMDL=  0     # of ELM steps 
   EDIFF  = 0.1E-04   stopping-criterion for ELM
   LREAL  =      T    real-space projection
   NLSPLINE    = F    spline interpolate recip. space projectors
   LCOMPAT=      F    compatible to vasp.4.4
   GGA_COMPAT  = T    GGA compatible to vasp.4.4-vasp.4.6
   LMAXPAW     = -100 max onsite density
   LMAXMIX     =    2 max onsite mixed and CHGCAR
   VOSKOWN=      0    Vosko Wilk Nusair interpolation
   ROPT   =   -0.00050  -0.00050
 Ionic relaxation
   EDIFFG = 0.1E-03   stopping-criterion for IOM
   NSW    =      0    number of steps for IOM
   NBLOCK =      1;   KBLOCK =      1    inner block; outer block 
   IBRION =     -1    ionic relax: 0-MD 1-quasi-New 2-CG
   NFREE  =      0    steps in history (QN), initial steepest desc. (CG)
   ISIF   =      2    stress and relaxation
   IWAVPR =     10    prediction:  0-non 1-charg 2-wave 3-comb
   ISYM   =      0    0-nonsym 1-usesym 2-fastsym
   LCORR  =      T    Harris-Foulkes like correction to forces

   POTIM  = 0.5000    time-step for ionic-motion
   TEIN   =    0.0    initial temperature
   TEBEG  =    0.0;   TEEND  =   0.0 temperature during run
   SMASS  =  -3.00    Nose mass-parameter (am)
   estimated Nose-frequenzy (Omega)   =  0.10E-29 period in steps = 0.13E+47 mass=  -0.164E-26a.u.
   SCALEE = 1.0000    scale energy and forces
   NPACO  =    256;   APACO  = 10.0  distance and # of slots for P.C.
   PSTRESS=    0.0 pullay stress

  Mass of Ions in am
   POMASS = 195.08  1.00
  Ionic Valenz
   ZVAL   =  10.00  1.00
  Atomic Wigner-Seitz radii
   RWIGS  =  -1.00 -1.00
  virtual crystal weights 
   VCA    =   1.00  1.00
   NELECT =     361.0000    total number of electrons
   NUPDOWN=      -1.0000    fix difference up-down

 DOS related values:
   EMIN   =  10.00;   EMAX   =-10.00  energy-range for DOS
   EFERMI =   0.00;   METHOD = LEGACY      
   ISMEAR =     1;   SIGMA  =   0.10  broadening in eV -4-tet -1-fermi 0-gaus

 Electronic relaxation 2 (details)
   IALGO  =     68    algorithm
   LDIAG  =      T    sub-space diagonalisation (order eigenvalues)
   LSUBROT=      F    optimize rotation matrix (better conditioning)
   TURBO    =      0    0=normal 1=particle mesh
   IRESTART =      0    0=no restart 2=restart with 2 vectors
   NREBOOT  =      0    no. of reboots
   NMIN     =      0    reboot dimension
   EREF     =   0.00    reference energy to select bands
   IMIX   =      4    mixing-type and parameters
     AMIX     =   0.40;   BMIX     =  1.00
     AMIX_MAG =   1.60;   BMIX_MAG =  1.00
     AMIN     =   0.10
     WC   =   100.;   INIMIX=   1;  MIXPRE=   1;  MAXMIX= -45

 Intra band minimization:
   WEIMIN = 0.0000     energy-eigenvalue tresh-hold
   EBREAK =  0.10E-07  absolut break condition
   DEPER  =   0.30     relativ break condition  

   TIME   =   0.40     timestep for ELM

  volume/ion in A,a.u.               =      41.90       282.79
  Fermi-wavevector in a.u.,A,eV,Ry     =   1.007136  1.903211 13.800704  1.014323
  Thomas-Fermi vector in A             =   2.139922
 
 Write flags
   LWAVE        =      T    write WAVECAR
   LDOWNSAMPLE  =      F    k-point downsampling of WAVECAR
   LCHARG       =      T    write CHGCAR
   LVTOT        =      F    write LOCPOT, total local potential
   LVHAR        =      F    write LOCPOT, Hartree potential only
   LELF         =      F    write electronic localiz. function (ELF)
   LORBIT       =      0    0 simple, 1 ext, 2 COOP (PROOUT), +10 PAW based schemes


 Dipole corrections
   LMONO  =      F    monopole corrections only (constant potential shift)
   LDIPOL =      F    correct potential (dipole corrections)
   IDIPOL =      0    1-x, 2-y, 3-z, 4-all directions 
   EPSILON=  1.0000000 bulk dielectric constant

 Exchange correlation treatment:
   GGA     =    BF    GGA type
   LEXCH   =    17    internal setting for exchange type
   LIBXC   =     F    Libxc                    
   VOSKOWN =     0    Vosko Wilk Nusair interpolation
   LHFCALC =     F    Hartree Fock is set to
   LHFONE  =     F    Hartree Fock one center treatment
   AEXX    =    0.0000 exact exchange contribution

 vdW DFT:
   LUSE_VDW   =     T    switch on vdW DFT
   IVDW_NL    =     1    kernel type
   LSPIN_VDW  =     F    use spin-polarized vdW DFT
   Zab_VDW    =******    correlation parameter
   PARAM1     =0.1234
   PARAM2     =1.0000
   PARAM3     =0.0000
   -- rVV10 --
   BPARAM     = 6.3000
   CPARAM     = 0.0093

 Linear response parameters
   LEPSILON=     F    determine dielectric tensor
   LRPA    =     F    only Hartree local field effects (RPA)
   LNABLA  =     F    use nabla operator in PAW spheres
   LVEL    =     F    velocity operator in full k-point grid
   CSHIFT  =0.1000    complex shift for real part using Kramers Kronig
   OMEGAMAX=  -1.0    maximum frequency
   DEG_THRESHOLD= 0.2000000E-02 threshold for treating states as degnerate
   RTIME   =   -0.100 relaxation time in fs
  (WPLASMAI=    0.000 imaginary part of plasma frequency in eV, 0.658/RTIME)
   DFIELD  = 0.0000000 0.0000000 0.0000000 field for delta impulse in time
 
  Optional k-point grid parameters
   LKPOINTS_OPT  =     F    use optional k-point grid
   KPOINTS_OPT_MODE=     1    mode for optional k-point grid
 
 Orbital magnetization related:
   ORBITALMAG=     F  switch on orbital magnetization
   LCHIMAG   =     F  perturbation theory with respect to B field
   DQ        =  0.001000  dq finite difference perturbation B field
   LLRAUG    =     F  two centre corrections for induced B field
   LBONE     =     F  B-component reconstruction in AE one-centre
   LVGVCALC  =     T  calculate vGv susceptibility
   LVGVAPPL  =     F  apply vGv susceptibility instead of pGv for G=0

 Random number generation:
   RANDOM_GENERATOR = DEFAULT
   PCG_SEED         = not used


--------------------------------------------------------------------------------------------------------


 Static calculation
 charge density and potential will be updated during run
 non-spin polarized calculation
 RMM-DIIS sequential band-by-band and
  variant of blocked Davidson during initial phase
 perform sub-space diagonalisation
    before iterative eigenvector-optimisation
 modified Broyden-mixing scheme, WC =      100.0
 initial mixing is a Kerker type mixing with AMIX =  0.4000 and BMIX =      1.0000
 Hartree-type preconditioning will be used
 using additional bands           59
 real space projection scheme for non local part
 use partial core corrections
 calculate Harris-corrections to forces 
   (improved forces if not selfconsistent)
 use gradient corrections 
 use of overlap-Matrix (Vanderbilt PP)
 Methfessel and Paxton  Order N= 1 SIGMA  =   0.10


--------------------------------------------------------------------------------------------------------


  energy-cutoff  :      680.29
  volume of cell :     1550.48
      direct lattice vectors                 reciprocal lattice vectors
     8.468310000  0.000000000  0.000000000     0.118087316 -0.068177744  0.000000000
     4.234155000  7.333771587  0.000000000     0.000000000  0.136355488  0.000000000
     0.000000000  0.000000000 24.965661990     0.000000000  0.000000000  0.040055016

  length of vectors
     8.468310000  8.468310000 24.965661990     0.136355488  0.136355488  0.040055016


 
 old parameters found on file WAVECAR:
  energy-cutoff  :      680.29
  volume of cell :     1550.48
      direct lattice vectors                 reciprocal lattice vectors
     8.468310000  0.000000000  0.000000000     0.118087316 -0.068177744  0.000000000
     4.234155000  7.333771587  0.000000000     0.000000000  0.136355488  0.000000000
     0.000000000  0.000000000 24.965661990     0.000000000  0.000000000  0.040055016

  length of vectors

 
 k-points in units of 2pi/SCALE and weight: KPOINTS created by Atomic Simulation Env
   0.00000000  0.00000000  0.00000000       0.040
   0.02361746 -0.01363555  0.00000000       0.080
   0.02361746  0.01363555  0.00000000       0.080
   0.00000000  0.02727110  0.00000000       0.080
   0.04723493 -0.02727110  0.00000000       0.080
   0.04723493  0.02727110  0.00000000       0.080
   0.00000000  0.05454220  0.00000000       0.080
   0.04723493  0.00000000  0.00000000       0.080
   0.02361746  0.04090665  0.00000000       0.080
  -0.02361746  0.04090665  0.00000000       0.080
  -0.04723493  0.05454220  0.00000000       0.080
   0.04723493 -0.08181329  0.00000000       0.080
  -0.02361746  0.06817774  0.00000000       0.080
 
 k-points in reciprocal lattice and weights: KPOINTS created by Atomic Simulation Env
   0.00000000  0.00000000  0.00000000       0.040
   0.20000000  0.00000000  0.00000000       0.080
   0.20000000  0.20000000  0.00000000       0.080
   0.00000000  0.20000000  0.00000000       0.080
   0.40000000  0.00000000  0.00000000       0.080
   0.40000000  0.40000000  0.00000000       0.080
   0.00000000  0.40000000  0.00000000       0.080
   0.40000000  0.20000000  0.00000000       0.080
   0.20000000  0.40000000  0.00000000       0.080
  -0.20000000  0.20000000  0.00000000       0.080
  -0.40000000  0.20000000  0.00000000       0.080
   0.40000000 -0.40000000  0.00000000       0.080
  -0.20000000  0.40000000  0.00000000       0.080
 
 position of ions in fractional coordinates (direct lattice) 
   0.00000000  0.00000000  0.34046764
   0.33400137  0.00000000  0.34046764
   0.66800274  0.00000000  0.34046764
   0.00000000  0.33400137  0.34046764
   0.33400137  0.33400137  0.34046764
   0.66800274  0.33400137  0.34046764
   0.00000000  0.66800274  0.34046764
   0.33400137  0.66800274  0.34046764
   0.66800274  0.66800274  0.34046764
   0.11133379  0.11133379  0.43297074
   0.44533516  0.11133379  0.43297074
   0.77933653  0.11133379  0.43297074
   0.11133379  0.44533516  0.43297074
   0.44533516  0.44533516  0.43297074
   0.77933653  0.44533516  0.43297074
   0.11133379  0.77933653  0.43297074
   0.44533516  0.77933653  0.43297074
   0.77933653  0.77933653  0.43297074
   0.88873986  0.22474291  0.52471792
   0.22166754  0.22461720  0.52493870
   0.55502895  0.22492124  0.52427255
   0.88758684  0.55884555  0.52443055
   0.22135626  0.55821285  0.52413436
   0.55518070  0.55817981  0.52418427
   0.88776822  0.89204390  0.52460901
   0.22178629  0.89163883  0.52499535
   0.55147784  0.89346285  0.52606360
   0.99596634  0.00242130  0.61824107
   0.33304941  0.00277955  0.62118742
   0.66537850  0.00411870  0.61785632
   0.99624287  0.34080267  0.61798520
   0.33217867  0.33798693  0.61749469
   0.66433054  0.33754464  0.61747340
   0.99865073  0.67040088  0.61774480
   0.33242842  0.66838762  0.61733228
   0.66545550  0.66998761  0.61776128
   0.19125675  0.06943440  0.67000293
 
 position of ions in cartesian coordinates  (Angst):
   0.00000000  0.00000000  8.50000000
   2.82842712  0.00000000  8.50000000
   5.65685425  0.00000000  8.50000000
   1.41421356  2.44948974  8.50000000
   4.24264069  2.44948974  8.50000000
   7.07106781  2.44948974  8.50000000
   2.82842712  4.89897949  8.50000000
   5.65685425  4.89897949  8.50000000
   8.48528137  4.89897949  8.50000000
   1.41421356  0.81649658 10.80940108
   4.24264069  0.81649658 10.80940108
   7.07106781  0.81649658 10.80940108
   2.82842712  3.26598632 10.80940108
   5.65685425  3.26598632 10.80940108
   8.48528137  3.26598632 10.80940108
   4.24264069  5.71547607 10.80940108
   7.07106781  5.71547607 10.80940108
   9.89949494  5.71547607 10.80940108
   8.47772094  1.64821313 13.09993034
   2.82821348  1.64729125 13.10544218
   5.65250858  1.64952103 13.08881137
   9.88259922  4.09844560 13.09275583
   4.23807312  4.09380554 13.08536115
   7.06486215  4.09356326 13.08660724
  11.29494862  6.54204619 13.09721122
   5.65349211  6.53907551 13.10685648
   8.45314551  6.55245248 13.13352601
   8.44440384  0.01775727 15.43479761
   2.83213467  0.02038457 15.50835523
   5.65207067  0.03020563 15.42519193
   9.87950478  2.49936894 15.42840971
   4.24408100  2.47871897 15.41616361
   7.05497331  2.47547531 15.41563224
  11.29546518  4.91656691 15.42240793
   5.64516373  4.90180213 15.41210914
   8.47211485  4.91353611 15.42281931
   1.91361746  0.50921601 16.72706659
 


--------------------------------------------------------------------------------------------------------


 k-point   1 :   0.0000 0.0000 0.0000  plane waves:   62399
 k-point   2 :   0.2000 0.0000 0.0000  plane waves:   62407
 k-point   3 :   0.2000 0.2000 0.0000  plane waves:   62407
 k-point   4 :   0.0000 0.2000 0.0000  plane waves:   62407
 k-point   5 :   0.4000 0.0000 0.0000  plane waves:   62451
 k-point   6 :   0.4000 0.4000 0.0000  plane waves:   62451
 k-point   7 :   0.0000 0.4000 0.0000  plane waves:   62451
 k-point   8 :   0.4000 0.2000 0.0000  plane waves:   62510
 k-point   9 :   0.2000 0.4000 0.0000  plane waves:   62510
 k-point  10 :  -0.2000 0.2000 0.0000  plane waves:   62510
 k-point  11 :  -0.4000 0.2000 0.0000  plane waves:   62498
 k-point  12 :   0.4000-0.4000 0.0000  plane waves:   62498
 k-point  13 :  -0.2000 0.4000 0.0000  plane waves:   62498

 maximum and minimum number of plane-waves per node :     62510    62399

 maximum number of plane-waves:     62510
 maximum index in each direction: 
   IXMAX=   18   IYMAX=   18   IZMAX=   53
   IXMIN=  -18   IYMIN=  -18   IZMIN=  -53


 serial   3D FFT for wavefunctions
 parallel 3D FFT for charge:
    minimum data exchange during FFTs selected (reduces bandwidth)


 total amount of memory used by VASP MPI-rank0   148550. kBytes
=======================================================================

   base      :      30000. kBytes
   nonlr-proj:      22477. kBytes
   fftplans  :       5213. kBytes
   grid      :      24541. kBytes
   one-center:        575. kBytes
   wavefun   :      65744. kBytes
 
     INWAV:  cpu time      7.3795: real time     11.0121
 Broyden mixing: mesh for mixing (old mesh)
   NGX = 37   NGY = 37   NGZ =107
  (NGX  =108   NGY  =108   NGZ  =320)
  gives a total of 146483 points

 charge density for first step will be calculated from the start-wavefunctions


--------------------------------------------------------------------------------------------------------


 Maximum index for non-local projection operator         3550
 Maximum index for augmentation-charges         1179 (set IRDMAX)


--------------------------------------------------------------------------------------------------------


 initial charge from wavefunction
 First call to EWALD:  gamma=   0.153
 Maximum number of real-space cells 4x 4x 2
 Maximum number of reciprocal cells 2x 2x 5

    FEWALD:  cpu time      0.0256: real time      0.0258


--------------------------------------- Ionic step        1  -------------------------------------------




--------------------------------------- Iteration      1(   1)  ---------------------------------------


vdW kernel read from vdw_kernel.bindat
  0.0000  0.2424  0.5071  0.7962  1.1119  1.4567  1.8333  2.2446  2.6937  3.1842
  3.7199  4.3049  4.9438  5.6415  6.4036  7.2358  8.1446  9.1372 10.2212 11.4050
 12.6979 14.1099 15.6519 17.3360 19.1751 21.1837 23.3773 25.7729 28.3892 31.2465
 34.3669 37.7748 41.4965 45.5611 50.0000
 
    POTLOK:  cpu time      2.7627: real time      2.7917
    SETDIJ:  cpu time      0.0054: real time      0.0055
     EDDAV:  cpu time     15.3797: real time     15.5015
       DOS:  cpu time      0.0010: real time      0.0010
    CHARGE:  cpu time      0.7605: real time      0.7683
    MIXING:  cpu time      0.0030: real time      0.0030
    --------------------------------------------
      LOOP:  cpu time     18.9125: real time     19.0711

 eigenvalue-minimisations  :  6768
 total energy-change (2. order) :-0.1044943E+03  (-0.1840031E-01)
 number of electron     360.9999952 magnetization 
 augmentation part      114.1555910 magnetization 

 Broyden mixing:
  rms(total) = 0.79968E-01    rms(broyden)= 0.79968E-01
  rms(prec ) = 0.87927E-01
  weight for this iteration     100.00

 Free energy of the ion-electron system (eV)
  ---------------------------------------------------
  alpha Z        PSCENC =       797.33612757
  Ewald energy   TEWEN  =    132269.98922928
  -Hartree energ DENC   =   -159667.42804756
  -exchange      EXHF   =         0.00000000
  -V(xc)+E(xc)   XCENC  =        89.57350128
  PAW double counting   =     32170.20079058   -31172.62176569
  entropy T*S    EENTRO =        -0.08938223
  eigenvalues    EBANDS =     -1088.25789537
  atomic energy  EATOM  =     26496.80315902
  Solvation  Ediel_sol  =         0.00000000
  ---------------------------------------------------
  free energy    TOTEN  =      -104.49428311 eV

  energy without entropy =     -104.40490088  energy(sigma->0) =     -104.46448904


--------------------------------------------------------------------------------------------------------




--------------------------------------- Iteration      1(   2)  ---------------------------------------


    POTLOK:  cpu time      2.2870: real time      2.3037
    SETDIJ:  cpu time      0.0056: real time      0.0056
    EDDIAG:  cpu time      2.8538: real time      2.8861
  RMM-DIIS:  cpu time      7.5266: real time      7.5945
    ORTHCH:  cpu time      0.4647: real time      0.4683
       DOS:  cpu time      0.0013: real time      0.0013
    CHARGE:  cpu time      0.7708: real time      0.7777
    MIXING:  cpu time      0.0027: real time      0.0027
    --------------------------------------------
      LOOP:  cpu time     13.9123: real time     14.0398

 eigenvalue-minimisations  :  6385
 total energy-change (2. order) :-0.5107993E-01  (-0.5796317E-02)
 number of electron     360.9999952 magnetization 
 augmentation part      114.1517654 magnetization 

 Broyden mixing:
  rms(total) = 0.29604E+00    rms(broyden)= 0.29604E+00
  rms(prec ) = 0.32584E+00
  weight for this iteration     100.00

 eigenvalues of (default mixing * dielectric matrix)
  average eigenvalue GAMMA=   0.2041
  0.2041

 Free energy of the ion-electron system (eV)
  ---------------------------------------------------
  alpha Z        PSCENC =       797.33612757
  Ewald energy   TEWEN  =    132269.98922928
  -Hartree energ DENC   =   -159668.57349960
  -exchange      EXHF   =         0.00000000
  -V(xc)+E(xc)   XCENC  =        89.57685560
  PAW double counting   =     32171.13093125   -31173.54896498
  entropy T*S    EENTRO =        -0.08602369
  eigenvalues    EBANDS =     -1087.17317750
  atomic energy  EATOM  =     26496.80315902
  Solvation  Ediel_sol  =         0.00000000
  ---------------------------------------------------
  free energy    TOTEN  =      -104.54536305 eV

  energy without entropy =     -104.45933936  energy(sigma->0) =     -104.51668848


--------------------------------------------------------------------------------------------------------




--------------------------------------- Iteration      1(   3)  ---------------------------------------


    POTLOK:  cpu time      2.3497: real time      2.4044
    SETDIJ:  cpu time      0.0137: real time      0.0138
    EDDIAG:  cpu time      2.7532: real time      2.7771
  RMM-DIIS:  cpu time      8.3281: real time      8.3999
    ORTHCH:  cpu time      0.5261: real time      0.5309
       DOS:  cpu time      0.0011: real time      0.0011
    CHARGE:  cpu time      0.7519: real time      0.7607
    MIXING:  cpu time      0.0021: real time      0.0022
    --------------------------------------------
      LOOP:  cpu time     14.7260: real time     14.8900

 eigenvalue-minimisations  :  6590
 total energy-change (2. order) : 0.5203232E-01  (-0.2615434E-02)
 number of electron     360.9999952 magnetization 
 augmentation part      114.1505022 magnetization 

 Broyden mixing:
  rms(total) = 0.69510E-01    rms(broyden)= 0.69510E-01
  rms(prec ) = 0.97351E-01
  weight for this iteration     100.00

 eigenvalues of (default mixing * dielectric matrix)
  average eigenvalue GAMMA=   0.1860
  0.2088  0.1632

 Free energy of the ion-electron system (eV)
  ---------------------------------------------------
  alpha Z        PSCENC =       797.33612757
  Ewald energy   TEWEN  =    132269.98922928
  -Hartree energ DENC   =   -159668.56094506
  -exchange      EXHF   =         0.00000000
  -V(xc)+E(xc)   XCENC  =        89.57710345
  PAW double counting   =     32171.23829893   -31173.65791614
  entropy T*S    EENTRO =        -0.08937298
  eigenvalues    EBANDS =     -1087.12901479
  atomic energy  EATOM  =     26496.80315902
  Solvation  Ediel_sol  =         0.00000000
  ---------------------------------------------------
  free energy    TOTEN  =      -104.49333073 eV

  energy without entropy =     -104.40395774  energy(sigma->0) =     -104.46353973


--------------------------------------------------------------------------------------------------------




--------------------------------------- Iteration      1(   4)  ---------------------------------------


    POTLOK:  cpu time      2.2529: real time      2.2678
    SETDIJ:  cpu time      0.0043: real time      0.0043
    EDDIAG:  cpu time      2.7619: real time      2.9383
  RMM-DIIS:  cpu time      8.0850: real time      8.1737
    ORTHCH:  cpu time      0.4360: real time      0.4415
       DOS:  cpu time      0.0010: real time      0.0010
    CHARGE:  cpu time      0.7875: real time      0.7954
    MIXING:  cpu time      0.0024: real time      0.0024
    --------------------------------------------
      LOOP:  cpu time     14.3311: real time     14.6244

 eigenvalue-minimisations  :  6602
 total energy-change (2. order) : 0.3786497E-02  (-0.2492628E-03)
 number of electron     360.9999952 magnetization 
 augmentation part      114.1497645 magnetization 

 Broyden mixing:
  rms(total) = 0.38809E-01    rms(broyden)= 0.38809E-01
  rms(prec ) = 0.53519E-01
  weight for this iteration     100.00

 eigenvalues of (default mixing * dielectric matrix)
  average eigenvalue GAMMA=   0.3006
  0.5956  0.2175  0.0887

 Free energy of the ion-electron system (eV)
  ---------------------------------------------------
  alpha Z        PSCENC =       797.33612757
  Ewald energy   TEWEN  =    132269.98922928
  -Hartree energ DENC   =   -159668.61657289
  -exchange      EXHF   =         0.00000000
  -V(xc)+E(xc)   XCENC  =        89.57696870
  PAW double counting   =     32171.19515755   -31173.61493455
  entropy T*S    EENTRO =        -0.09008854
  eigenvalues    EBANDS =     -1087.06859037
  atomic energy  EATOM  =     26496.80315902
  Solvation  Ediel_sol  =         0.00000000
  ---------------------------------------------------
  free energy    TOTEN  =      -104.48954423 eV

  energy without entropy =     -104.39945569  energy(sigma->0) =     -104.45951471


--------------------------------------------------------------------------------------------------------




--------------------------------------- Iteration      1(   5)  ---------------------------------------


    POTLOK:  cpu time      2.4630: real time      2.4841
    SETDIJ:  cpu time      0.0043: real time      0.0043
    EDDIAG:  cpu time      2.7170: real time      2.7519
  RMM-DIIS:  cpu time      8.3849: real time      8.4567
    ORTHCH:  cpu time      0.4448: real time      0.4486
       DOS:  cpu time      0.0010: real time      0.0010
    CHARGE:  cpu time      0.7690: real time      0.7750
    MIXING:  cpu time      0.0022: real time      0.0022
    --------------------------------------------
      LOOP:  cpu time     14.7861: real time     14.9240

 eigenvalue-minimisations  :  6727
 total energy-change (2. order) : 0.9119034E-03  (-0.1236878E-03)
 number of electron     360.9999952 magnetization 
 augmentation part      114.1506078 magnetization 

 Broyden mixing:
  rms(total) = 0.22121E-01    rms(broyden)= 0.22121E-01
  rms(prec ) = 0.24303E-01
  weight for this iteration     100.00

 eigenvalues of (default mixing * dielectric matrix)
  average eigenvalue GAMMA=   0.5186
  1.4772  0.3045  0.2051  0.0875

 Free energy of the ion-electron system (eV)
  ---------------------------------------------------
  alpha Z        PSCENC =       797.33612757
  Ewald energy   TEWEN  =    132269.98922928
  -Hartree energ DENC   =   -159668.69900933
  -exchange      EXHF   =         0.00000000
  -V(xc)+E(xc)   XCENC  =        89.57658373
  PAW double counting   =     32170.94874714   -31173.37168536
  entropy T*S    EENTRO =        -0.08989812
  eigenvalues    EBANDS =     -1086.98188624
  atomic energy  EATOM  =     26496.80315902
  Solvation  Ediel_sol  =         0.00000000
  ---------------------------------------------------
  free energy    TOTEN  =      -104.48863232 eV

  energy without entropy =     -104.39873420  energy(sigma->0) =     -104.45866628


--------------------------------------------------------------------------------------------------------




--------------------------------------- Iteration      1(   6)  ---------------------------------------


    POTLOK:  cpu time      2.3117: real time      2.3685
    SETDIJ:  cpu time      0.0051: real time      0.0052
    EDDIAG:  cpu time      2.7383: real time      2.7645
  RMM-DIIS:  cpu time      8.7242: real time      8.7960
    ORTHCH:  cpu time      0.5354: real time      0.5404
       DOS:  cpu time      0.0009: real time      0.0009
    CHARGE:  cpu time      0.7570: real time      0.7646
    MIXING:  cpu time      0.0043: real time      0.0044
    --------------------------------------------
      LOOP:  cpu time     15.0770: real time     15.2445

 eigenvalue-minimisations  :  6854
 total energy-change (2. order) : 0.2780619E-03  (-0.5213124E-04)
 number of electron     360.9999952 magnetization 
 augmentation part      114.1517039 magnetization 

 Broyden mixing:
  rms(total) = 0.14178E-01    rms(broyden)= 0.14178E-01
  rms(prec ) = 0.15761E-01
  weight for this iteration     100.00

 eigenvalues of (default mixing * dielectric matrix)
  average eigenvalue GAMMA=   0.5437
  1.7663  0.0880  0.3776  0.2079  0.2787

 Free energy of the ion-electron system (eV)
  ---------------------------------------------------
  alpha Z        PSCENC =       797.33612757
  Ewald energy   TEWEN  =    132269.98922928
  -Hartree energ DENC   =   -159668.59338971
  -exchange      EXHF   =         0.00000000
  -V(xc)+E(xc)   XCENC  =        89.57696285
  PAW double counting   =     32170.49969649   -31172.92700809
  entropy T*S    EENTRO =        -0.08991172
  eigenvalues    EBANDS =     -1087.08321994
  atomic energy  EATOM  =     26496.80315902
  Solvation  Ediel_sol  =         0.00000000
  ---------------------------------------------------
  free energy    TOTEN  =      -104.48835426 eV

  energy without entropy =     -104.39844254  energy(sigma->0) =     -104.45838369


--------------------------------------------------------------------------------------------------------




--------------------------------------- Iteration      1(   7)  ---------------------------------------


    POTLOK:  cpu time      2.4105: real time      2.4273
    SETDIJ:  cpu time      0.0043: real time      0.0043
    EDDIAG:  cpu time      2.6990: real time      2.7253
  RMM-DIIS:  cpu time      8.7490: real time      8.8132
    ORTHCH:  cpu time      0.4728: real time      0.4767
       DOS:  cpu time      0.0011: real time      0.0011
    CHARGE:  cpu time      0.7576: real time      0.7648
    MIXING:  cpu time      0.0050: real time      0.0050
    --------------------------------------------
      LOOP:  cpu time     15.0993: real time     15.2176

 eigenvalue-minimisations  :  6894
 total energy-change (2. order) : 0.7948283E-04  (-0.2340234E-04)
 number of electron     360.9999952 magnetization 
 augmentation part      114.1514923 magnetization 

 Broyden mixing:
  rms(total) = 0.10244E-01    rms(broyden)= 0.10244E-01
  rms(prec ) = 0.11666E-01
  weight for this iteration     100.00

 eigenvalues of (default mixing * dielectric matrix)
  average eigenvalue GAMMA=   0.6341
  2.0875  0.8735  0.3353  0.0878  0.2026  0.2179

 Free energy of the ion-electron system (eV)
  ---------------------------------------------------
  alpha Z        PSCENC =       797.33612757
  Ewald energy   TEWEN  =    132269.98922928
  -Hartree energ DENC   =   -159668.69976522
  -exchange      EXHF   =         0.00000000
  -V(xc)+E(xc)   XCENC  =        89.57686650
  PAW double counting   =     32170.39426794   -31172.82233030
  entropy T*S    EENTRO =        -0.08990001
  eigenvalues    EBANDS =     -1086.97592956
  atomic energy  EATOM  =     26496.80315902
  Solvation  Ediel_sol  =         0.00000000
  ---------------------------------------------------
  free energy    TOTEN  =      -104.48827478 eV

  energy without entropy =     -104.39837477  energy(sigma->0) =     -104.45830811


--------------------------------------------------------------------------------------------------------




--------------------------------------- Iteration      1(   8)  ---------------------------------------


    POTLOK:  cpu time      2.3130: real time      2.3554
    SETDIJ:  cpu time      0.0045: real time      0.0045
    EDDIAG:  cpu time      2.7908: real time      2.8148
  RMM-DIIS:  cpu time      8.7413: real time      8.8019
    ORTHCH:  cpu time      0.4529: real time      0.4567
       DOS:  cpu time      0.0009: real time      0.0009
    CHARGE:  cpu time      0.7608: real time      0.7668
    MIXING:  cpu time      0.0036: real time      0.0036
    --------------------------------------------
      LOOP:  cpu time     15.0677: real time     15.2047

 eigenvalue-minimisations  :  6817
 total energy-change (2. order) : 0.2431122E-04  (-0.1079291E-04)
 number of electron     360.9999952 magnetization 
 augmentation part      114.1516405 magnetization 

 Broyden mixing:
  rms(total) = 0.69717E-02    rms(broyden)= 0.69717E-02
  rms(prec ) = 0.77207E-02
  weight for this iteration     100.00

 eigenvalues of (default mixing * dielectric matrix)
  average eigenvalue GAMMA=   0.6652
  2.3132  1.1693  0.3850  0.0879  0.2888  0.2118  0.2003

 Free energy of the ion-electron system (eV)
  ---------------------------------------------------
  alpha Z        PSCENC =       797.33612757
  Ewald energy   TEWEN  =    132269.98922928
  -Hartree energ DENC   =   -159668.65447915
  -exchange      EXHF   =         0.00000000
  -V(xc)+E(xc)   XCENC  =        89.57753154
  PAW double counting   =     32170.22421412   -31172.65217916
  entropy T*S    EENTRO =        -0.08999195
  eigenvalues    EBANDS =     -1087.02186174
  atomic energy  EATOM  =     26496.80315902
  Solvation  Ediel_sol  =         0.00000000
  ---------------------------------------------------
  free energy    TOTEN  =      -104.48825047 eV

  energy without entropy =     -104.39825852  energy(sigma->0) =     -104.45825315


--------------------------------------------------------------------------------------------------------




--------------------------------------- Iteration      1(   9)  ---------------------------------------


    POTLOK:  cpu time      2.2583: real time      2.2884
    SETDIJ:  cpu time      0.0042: real time      0.0043
    EDDIAG:  cpu time      2.8136: real time      2.8426
  RMM-DIIS:  cpu time      7.6723: real time      7.7333
    ORTHCH:  cpu time      0.4256: real time      0.4294
       DOS:  cpu time      0.0008: real time      0.0008
    CHARGE:  cpu time      0.7554: real time      0.7635
    MIXING:  cpu time      0.0027: real time      0.0027
    --------------------------------------------
      LOOP:  cpu time     13.9329: real time     14.0650

 eigenvalue-minimisations  :  5615
 total energy-change (2. order) : 0.4027814E-04  (-0.3937120E-05)
 number of electron     360.9999952 magnetization 
 augmentation part      114.1514241 magnetization 

 Broyden mixing:
  rms(total) = 0.17964E-02    rms(broyden)= 0.17964E-02
  rms(prec ) = 0.19215E-02
  weight for this iteration     100.00

 eigenvalues of (default mixing * dielectric matrix)
  average eigenvalue GAMMA=   0.6982
  2.4193  1.3362  0.6826  0.0879  0.3607  0.2873  0.2103  0.2010

 Free energy of the ion-electron system (eV)
  ---------------------------------------------------
  alpha Z        PSCENC =       797.33612757
  Ewald energy   TEWEN  =    132269.98922928
  -Hartree energ DENC   =   -159668.67351583
  -exchange      EXHF   =         0.00000000
  -V(xc)+E(xc)   XCENC  =        89.57785083
  PAW double counting   =     32170.14876208   -31172.57610485
  entropy T*S    EENTRO =        -0.08995737
  eigenvalues    EBANDS =     -1087.00376092
  atomic energy  EATOM  =     26496.80315902
  Solvation  Ediel_sol  =         0.00000000
  ---------------------------------------------------
  free energy    TOTEN  =      -104.48821019 eV

  energy without entropy =     -104.39825282  energy(sigma->0) =     -104.45822440


--------------------------------------------------------------------------------------------------------




--------------------------------------- Iteration      1(  10)  ---------------------------------------


    POTLOK:  cpu time      2.3087: real time      2.3272
    SETDIJ:  cpu time      0.0042: real time      0.0042
    EDDIAG:  cpu time      2.7090: real time      2.7398
  RMM-DIIS:  cpu time      6.3974: real time      6.4459
    ORTHCH:  cpu time      0.4538: real time      0.4575
       DOS:  cpu time      0.0009: real time      0.0009
    --------------------------------------------
      LOOP:  cpu time     11.8739: real time     11.9755

 eigenvalue-minimisations  :  4338
 total energy-change (2. order) :-0.3277972E-05  (-0.1287440E-05)
 number of electron     360.9999952 magnetization 
 augmentation part      114.1514241 magnetization 

 Free energy of the ion-electron system (eV)
  ---------------------------------------------------
  alpha Z        PSCENC =       797.33612757
  Ewald energy   TEWEN  =    132269.98922928
  -Hartree energ DENC   =   -159668.69528065
  -exchange      EXHF   =         0.00000000
  -V(xc)+E(xc)   XCENC  =        89.57792779
  PAW double counting   =     32170.12173468   -31172.54874467
  entropy T*S    EENTRO =        -0.08993950
  eigenvalues    EBANDS =     -1086.98242699
  atomic energy  EATOM  =     26496.80315902
  Solvation  Ediel_sol  =         0.00000000
  ---------------------------------------------------
  free energy    TOTEN  =      -104.48821347 eV

  energy without entropy =     -104.39827397  energy(sigma->0) =     -104.45823364


--------------------------------------------------------------------------------------------------------




 average (electrostatic) potential at core
  the test charge radii are     1.2059  0.5201
  (the norm of the test charge is              1.0000)
       1 -73.5443       2 -73.5322       3 -73.5451       4 -73.5330       5 -73.5164
       6 -73.5279       7 -73.5196       8 -73.5229       9 -73.5397      10 -73.9821
      11 -73.9765      12 -73.9937      13 -73.9679      14 -73.9860      15 -73.9903
      16 -73.9751      17 -73.9781      18 -73.9237      19 -73.9499      20 -73.9324
      21 -73.9659      22 -73.9803      23 -73.9732      24 -73.9703      25 -73.9792
      26 -73.9361      27 -73.9312      28 -73.5239      29 -73.8596      30 -73.5488
      31 -73.5229      32 -73.5225      33 -73.5389      34 -73.5389      35 -73.5257
      36 -73.5494      37 -38.1972
 
 
 
 E-fermi :  -0.0712     XC(G=0):  -5.8719     alpha+bet : -5.8354

 Fermi energy:        -0.0712413160

 k-point     1 :       0.0000    0.0000    0.0000
  band No.  band energies     occupation 
      1      -8.8920      2.00000
      2      -7.6662      2.00000
      3      -6.7542      2.00000
      4      -6.4964      2.00000
      5      -6.4688      2.00000
      6      -6.4612      2.00000
      7      -6.4578      2.00000
      8      -6.4523      2.00000
      9      -6.4416      2.00000
     10      -6.4334      2.00000
     11      -6.0533      2.00000
     12      -5.9194      2.00000
     13      -5.9149      2.00000
     14      -5.9090      2.00000
     15      -5.9023      2.00000
     16      -5.9008      2.00000
     17      -5.7672      2.00000
     18      -5.4701      2.00000
     19      -5.4561      2.00000
     20      -5.4526      2.00000
     21      -5.4496      2.00000
     22      -5.4446      2.00000
     23      -5.3579      2.00000
     24      -5.2347      2.00000
     25      -5.2273      2.00000
     26      -5.2261      2.00000
     27      -5.2203      2.00000
     28      -5.2177      2.00000
     29      -5.1189      2.00000
     30      -5.0282      2.00000
     31      -5.0227      2.00000
     32      -5.0203      2.00000
     33      -5.0171      2.00000
     34      -5.0087      2.00000
     35      -4.9752      2.00000
     36      -4.9639      2.00000
     37      -4.9635      2.00000
     38      -4.9572      2.00000
     39      -4.9327      2.00000
     40      -4.9135      2.00000
     41      -4.7162      2.00000
     42      -4.3779      2.00000
     43      -4.3753      2.00000
     44      -4.3613      2.00000
     45      -4.3448      2.00000
     46      -4.3221      2.00000
     47      -4.3138      2.00000
     48      -4.3029      2.00000
     49      -4.2956      2.00000
     50      -4.2926      2.00000
     51      -4.1591      2.00000
     52      -4.1369      2.00000
     53      -4.1092      2.00000
     54      -4.0477      2.00000
     55      -3.9985      2.00000
     56      -3.5931      2.00000
     57      -3.5800      2.00000
     58      -3.5633      2.00000
     59      -3.5615      2.00000
     60      -3.5594      2.00000
     61      -3.4980      2.00000
     62      -3.4924      2.00000
     63      -3.3835      2.00000
     64      -3.3761      2.00000
     65      -3.3749      2.00000
     66      -3.3683      2.00000
     67      -3.3641      2.00000
     68      -3.3561      2.00000
     69      -3.3440      2.00000
     70      -3.3294      2.00000
     71      -3.3130      2.00000
     72      -3.3075      2.00000
     73      -3.3007      2.00000
     74      -3.2904      2.00000
     75      -3.2672      2.00000
     76      -3.2620      2.00000
     77      -3.2360      2.00000
     78      -3.1579      2.00000
     79      -3.1499      2.00000
     80      -3.1436      2.00000
     81      -3.1395      2.00000
     82      -3.1324      2.00000
     83      -3.1148      2.00000
     84      -2.9408      2.00000
     85      -2.9354      2.00000
     86      -2.9315      2.00000
     87      -2.9240      2.00000
     88      -2.9093      2.00000
     89      -2.9044      2.00000
     90      -2.9016      2.00000
     91      -2.8895      2.00000
     92      -2.8360      2.00000
     93      -2.8167      2.00000
     94      -2.7757      2.00000
     95      -2.7604      2.00000
     96      -2.7391      2.00000
     97      -2.7308      2.00000
     98      -2.7119      2.00000
     99      -2.6884      2.00000
    100      -2.6833      2.00000
    101      -2.6287      2.00000
    102      -2.5332      2.00000
    103      -2.5263      2.00000
    104      -2.5105      2.00000
    105      -2.5059      2.00000
    106      -2.4984      2.00000
    107      -2.4942      2.00000
    108      -2.2241      2.00000
    109      -2.0321      2.00000
    110      -2.0040      2.00000
    111      -1.9961      2.00000
    112      -1.9946      2.00000
    113      -1.9894      2.00000
    114      -1.9879      2.00000
    115      -1.9825      2.00000
    116      -1.9687      2.00000
    117      -1.9527      2.00000
    118      -1.9468      2.00000
    119      -1.9440      2.00000
    120      -1.8741      2.00000
    121      -1.8564      2.00000
    122      -1.8133      2.00000
    123      -1.7338      2.00000
    124      -1.7294      2.00000
    125      -1.7129      2.00000
    126      -1.7081      2.00000
    127      -1.7050      2.00000
    128      -1.5978      2.00000
    129      -1.5907      2.00000
    130      -1.5346      2.00000
    131      -1.5325      2.00000
    132      -1.5241      2.00000
    133      -1.4878      2.00000
    134      -1.3461      2.00000
    135      -1.2850      2.00000
    136      -1.2659      2.00000
    137      -1.2650      2.00000
    138      -1.2504      2.00000
    139      -1.2441      2.00000
    140      -1.2031      2.00000
    141      -1.1785      2.00000
    142      -1.1603      2.00000
    143      -1.0311      2.00000
    144      -1.0293      2.00000
    145      -1.0213      2.00000
    146      -1.0163      2.00000
    147      -1.0127      2.00000
    148      -0.9558      2.00000
    149      -0.8692      2.00000
    150      -0.8612      2.00000
    151      -0.8381      2.00000
    152      -0.8305      2.00000
    153      -0.8272      2.00000
    154      -0.8133      2.00000
    155      -0.8082      2.00000
    156      -0.8062      2.00000
    157      -0.7995      2.00000
    158      -0.7975      2.00000
    159      -0.7933      2.00000
    160      -0.7223      2.00000
    161      -0.7028      2.00000
    162      -0.6844      2.00000
    163      -0.6745      2.00000
    164      -0.6645      2.00000
    165      -0.6560      2.00000
    166      -0.6452      2.00000
    167      -0.6334      2.00000
    168      -0.5985      2.00000
    169      -0.5898      2.00000
    170      -0.5636      2.00000
    171      -0.5574      2.00000
    172      -0.5528      2.00000
    173      -0.5412      2.00000
    174      -0.5401      2.00000
    175      -0.5367      2.00000
    176      -0.4562      2.00000
    177      -0.4427      2.00000
    178      -0.4372      2.00000
    179      -0.4340      2.00000
    180      -0.4330      2.00000
    181      -0.4202      2.00001
    182      -0.4171      2.00001
    183      -0.3513      2.00055
    184      -0.3296      2.00158
    185      -0.3195      2.00250
    186      -0.3178      2.00270
    187      -0.3066      2.00435
    188      -0.2999      2.00571
    189      -0.1197      1.72358
    190      -0.0938      1.37114
    191      -0.0240      0.29140
    192      -0.0091      0.14155
    193       0.0069      0.02952
    194       0.0116      0.00623
    195       0.0123      0.00274
    196       0.0175     -0.01842
    197       0.4435     -0.00000
    198       0.8159     -0.00000
    199       0.8638     -0.00000
    200       0.8864     -0.00000
    201       0.9016     -0.00000
    202       0.9058     -0.00000
    203       0.9082     -0.00000
    204       2.6484     -0.00000
    205       3.1530      0.00000
    206       3.1772      0.00000
    207       3.2093      0.00000
    208       3.2133      0.00000
    209       3.2328      0.00000
    210       4.4555      0.00000
    211       4.7511      0.00000
    212       4.7819      0.00000
    213       4.8092      0.00000
    214       4.8306      0.00000
    215       4.8330      0.00000
    216       4.8747      0.00000
    217       4.9886      0.00000
    218       5.1198      0.00000
    219       5.4829      0.00000
    220       5.5132      0.00000
    221       5.7902      0.00000
    222       5.8192      0.00000
    223       5.8420      0.00000
    224       5.8569      0.00000
    225       5.8727      0.00000
    226       6.1717      0.00000
    227       6.4363      0.00000
    228       6.6120      0.00000
    229       6.6262      0.00000
    230       6.6297      0.00000
    231       6.8091      0.00000
    232       6.9318      0.00000
    233       7.1231      0.00000
    234       7.1313      0.00000
    235       7.1603      0.00000
    236       7.1639      0.00000
    237       7.1693      0.00000
    238       7.1785      0.00000
    239       7.2979      0.00000
    240       7.6934      0.00000

 k-point     2 :       0.2000    0.0000    0.0000
  band No.  band energies     occupation 
      1      -8.7435      2.00000
      2      -7.5232      2.00000
      3      -6.9690      2.00000
      4      -6.6847      2.00000
      5      -6.5640      2.00000
      6      -6.5118      2.00000
      7      -6.3540      2.00000
      8      -6.2727      2.00000
      9      -6.2371      2.00000
     10      -6.2159      2.00000
     11      -6.0710      2.00000
     12      -6.0046      2.00000
     13      -5.9502      2.00000
     14      -5.8489      2.00000
     15      -5.8452      2.00000
     16      -5.8284      2.00000
     17      -5.6873      2.00000
     18      -5.5242      2.00000
     19      -5.4216      2.00000
     20      -5.4189      2.00000
     21      -5.4072      2.00000
     22      -5.3952      2.00000
     23      -5.3373      2.00000
     24      -5.3014      2.00000
     25      -5.2780      2.00000
     26      -5.2287      2.00000
     27      -5.2230      2.00000
     28      -5.2182      2.00000
     29      -5.1752      2.00000
     30      -5.1228      2.00000
     31      -5.0937      2.00000
     32      -5.0372      2.00000
     33      -5.0236      2.00000
     34      -5.0072      2.00000
     35      -5.0056      2.00000
     36      -4.8775      2.00000
     37      -4.8088      2.00000
     38      -4.7889      2.00000
     39      -4.7708      2.00000
     40      -4.7626      2.00000
     41      -4.6620      2.00000
     42      -4.5012      2.00000
     43      -4.4936      2.00000
     44      -4.4312      2.00000
     45      -4.4258      2.00000
     46      -4.4035      2.00000
     47      -4.3893      2.00000
     48      -4.3028      2.00000
     49      -4.2071      2.00000
     50      -4.1888      2.00000
     51      -4.1269      2.00000
     52      -4.1201      2.00000
     53      -4.0648      2.00000
     54      -4.0536      2.00000
     55      -4.0153      2.00000
     56      -3.8275      2.00000
     57      -3.7410      2.00000
     58      -3.7349      2.00000
     59      -3.6811      2.00000
     60      -3.6568      2.00000
     61      -3.6268      2.00000
     62      -3.5811      2.00000
     63      -3.5727      2.00000
     64      -3.5608      2.00000
     65      -3.5280      2.00000
     66      -3.5266      2.00000
     67      -3.4558      2.00000
     68      -3.4481      2.00000
     69      -3.3946      2.00000
     70      -3.3632      2.00000
     71      -3.3580      2.00000
     72      -3.3373      2.00000
     73      -3.2851      2.00000
     74      -3.2711      2.00000
     75      -3.2655      2.00000
     76      -3.1855      2.00000
     77      -3.1778      2.00000
     78      -3.1615      2.00000
     79      -3.1271      2.00000
     80      -3.0891      2.00000
     81      -3.0747      2.00000
     82      -3.0638      2.00000
     83      -3.0440      2.00000
     84      -2.9905      2.00000
     85      -2.9688      2.00000
     86      -2.9547      2.00000
     87      -2.9476      2.00000
     88      -2.9391      2.00000
     89      -2.9253      2.00000
     90      -2.8921      2.00000
     91      -2.8518      2.00000
     92      -2.8259      2.00000
     93      -2.8045      2.00000
     94      -2.7916      2.00000
     95      -2.7681      2.00000
     96      -2.7641      2.00000
     97      -2.7323      2.00000
     98      -2.7169      2.00000
     99      -2.7148      2.00000
    100      -2.6973      2.00000
    101      -2.6037      2.00000
    102      -2.5532      2.00000
    103      -2.5368      2.00000
    104      -2.5146      2.00000
    105      -2.5051      2.00000
    106      -2.5036      2.00000
    107      -2.4935      2.00000
    108      -2.4863      2.00000
    109      -2.4389      2.00000
    110      -2.4349      2.00000
    111      -2.4162      2.00000
    112      -2.4055      2.00000
    113      -2.1871      2.00000
    114      -2.0911      2.00000
    115      -2.0718      2.00000
    116      -2.0295      2.00000
    117      -1.9930      2.00000
    118      -1.9886      2.00000
    119      -1.9808      2.00000
    120      -1.9444      2.00000
    121      -1.9424      2.00000
    122      -1.8493      2.00000
    123      -1.7942      2.00000
    124      -1.7855      2.00000
    125      -1.7524      2.00000
    126      -1.6648      2.00000
    127      -1.6502      2.00000
    128      -1.6034      2.00000
    129      -1.5914      2.00000
    130      -1.5729      2.00000
    131      -1.5430      2.00000
    132      -1.5291      2.00000
    133      -1.5183      2.00000
    134      -1.4745      2.00000
    135      -1.4355      2.00000
    136      -1.3959      2.00000
    137      -1.3845      2.00000
    138      -1.3739      2.00000
    139      -1.3399      2.00000
    140      -1.1906      2.00000
    141      -1.1804      2.00000
    142      -1.1678      2.00000
    143      -1.1411      2.00000
    144      -1.1360      2.00000
    145      -1.1133      2.00000
    146      -1.0771      2.00000
    147      -1.0301      2.00000
    148      -0.9998      2.00000
    149      -0.9817      2.00000
    150      -0.9798      2.00000
    151      -0.9238      2.00000
    152      -0.9118      2.00000
    153      -0.9013      2.00000
    154      -0.8931      2.00000
    155      -0.8254      2.00000
    156      -0.7848      2.00000
    157      -0.7786      2.00000
    158      -0.7508      2.00000
    159      -0.7248      2.00000
    160      -0.6609      2.00000
    161      -0.6324      2.00000
    162      -0.6138      2.00000
    163      -0.6001      2.00000
    164      -0.5872      2.00000
    165      -0.5807      2.00000
    166      -0.5408      2.00000
    167      -0.4820      2.00000
    168      -0.4682      2.00000
    169      -0.4356      2.00000
    170      -0.3988      2.00004
    171      -0.3902      2.00006
    172      -0.3810      2.00011
    173      -0.3503      2.00058
    174      -0.3460      2.00071
    175      -0.3424      2.00085
    176      -0.3363      2.00115
    177      -0.3262      2.00185
    178      -0.2748      2.01423
    179      -0.2680      2.01775
    180      -0.1490      1.96803
    181      -0.1137      1.65178
    182      -0.0918      1.34007
    183      -0.0785      1.12280
    184      -0.0637      0.87297
    185      -0.0582      0.78097
    186      -0.0239      0.28934
    187      -0.0116      0.16332
    188       0.0077      0.02524
    189       0.0143     -0.00575
    190       0.0938     -0.04152
    191       0.1090     -0.02871
    192       0.1360     -0.01258
    193       0.1525     -0.00689
    194       0.2981     -0.00000
    195       0.3058     -0.00000
    196       0.3156     -0.00000
    197       0.3519     -0.00000
[...]
    148      -1.1033      2.00000
    149      -1.0944      2.00000
    150      -1.0708      2.00000
    151      -1.0634      2.00000
    152      -1.0409      2.00000
    153      -1.0218      2.00000
    154      -0.8863      2.00000
    155      -0.8437      2.00000
    156      -0.8234      2.00000
    157      -0.7590      2.00000
    158      -0.7030      2.00000
    159      -0.6302      2.00000
    160      -0.6181      2.00000
    161      -0.5717      2.00000
    162      -0.5298      2.00000
    163      -0.5002      2.00000
    164      -0.4892      2.00000
    165      -0.4229      2.00001
    166      -0.3792      2.00012
    167      -0.3195      2.00250
    168      -0.2914      2.00791
    169      -0.2786      2.01251
    170      -0.2691      2.01714
    171      -0.2621      2.02124
    172      -0.2384      2.03964
    173      -0.2136      2.06178
    174      -0.1800      2.06399
    175      -0.1128      1.64084
    176      -0.1047      1.53260
    177      -0.0833      1.20220
    178      -0.0644      0.88479
    179      -0.0481      0.62007
    180      -0.0451      0.57428
    181      -0.0367      0.45195
    182       0.0274     -0.04732
    183       0.1219     -0.01982
    184       0.1493     -0.00779
    185       0.1640     -0.00437
    186       0.1692     -0.00351
    187       0.1764     -0.00257
    188       0.2293     -0.00018
    189       0.2670     -0.00002
    190       0.3602     -0.00000
    191       0.4553     -0.00000
    192       1.1417     -0.00000
    193       1.3396     -0.00000
    194       1.3465     -0.00000
    195       1.5298     -0.00000
    196       1.5731     -0.00000
    197       1.6891     -0.00000
    198       1.7084     -0.00000
    199       1.7284     -0.00000
    200       2.0324     -0.00000
    201       2.3126     -0.00000
    202       2.3453     -0.00000
    203       2.5571     -0.00000
    204       2.7862      0.00000
    205       2.8109      0.00000
    206       2.8849      0.00000
    207       2.9360      0.00000
    208       3.0553      0.00000
    209       3.1491      0.00000
    210       3.2503      0.00000
    211       3.3147      0.00000
    212       3.5700      0.00000
    213       3.7063      0.00000
    214       3.7733      0.00000
    215       4.1358      0.00000
    216       4.3942      0.00000
    217       4.4357      0.00000
    218       4.6031      0.00000
    219       4.7545      0.00000
    220       5.2199      0.00000
    221       5.4983      0.00000
    222       5.5597      0.00000
    223       5.6983      0.00000
    224       5.7258      0.00000
    225       5.7875      0.00000
    226       5.9431      0.00000
    227       5.9581      0.00000
    228       5.9968      0.00000
    229       6.0091      0.00000
    230       6.0473      0.00000
    231       6.2819      0.00000
    232       6.4476      0.00000
    233       6.6063      0.00000
    234       6.7032      0.00000
    235       6.8008      0.00000
    236       6.9619      0.00000
    237       6.9782      0.00000
    238       7.0360      0.00000
    239       7.2228      0.00000
    240       7.3179      0.00000


--------------------------------------------------------------------------------------------------------


 soft charge-density along one line, spin component           1
         0         1         2         3         4         5         6         7         8         9
 total charge-density along one line
 
 pseudopotential strength for first ion, spin component:           1
 -6.579   0.001   0.000  -0.009  -0.000  -6.674   0.001   0.000
  0.001  -6.466   0.001  -0.000  -0.011   0.001  -6.563   0.001
  0.000   0.001  -6.454   0.000  -0.000   0.000   0.001  -6.552
 -0.009  -0.000   0.000  -6.465   0.001  -0.009  -0.000   0.000
 -0.000  -0.011  -0.000   0.001  -6.579  -0.000  -0.011  -0.000
 -6.674   0.001   0.000  -0.009  -0.000  -6.753   0.001   0.000
  0.001  -6.563   0.001  -0.000  -0.011   0.001  -6.645   0.001
  0.000   0.001  -6.552   0.000  -0.000   0.000   0.001  -6.634
 -0.009  -0.000   0.000  -6.563   0.001  -0.009  -0.000   0.000
 -0.000  -0.011  -0.000   0.001  -6.673  -0.000  -0.011  -0.000
  0.000  -0.001  -0.035  -0.000  -0.000   0.000  -0.001  -0.034
  0.000  -0.001  -0.052  -0.001  -0.000   0.000  -0.001  -0.051
  0.000  -0.004  -0.000  -0.000   0.000   0.000  -0.004  -0.000
 -0.000   0.000  -0.008   0.000   0.000  -0.000   0.000  -0.008
  0.001  -0.000   0.000  -0.004  -0.000   0.001  -0.000   0.000
 -0.000  -0.003  -0.000  -0.000   0.000  -0.000  -0.003  -0.000
 -0.000   0.000  -0.008  -0.000   0.000  -0.000   0.000  -0.008
  0.001  -0.000   0.000  -0.003  -0.000   0.001  -0.000   0.000
 total augmentation occupancy for first ion, spin component:           1
  3.228  -0.005   0.007  -0.260  -0.009  -1.897   0.004  -0.004   0.080   0.006   0.002  -0.000   0.005   0.001  -0.042  -0.000
 -0.005   4.211   0.023  -0.002  -0.273   0.005  -2.164  -0.014   0.004   0.098   0.008  -0.004  -0.243   0.000   0.002   0.014
  0.007   0.023   4.385   0.004   0.006  -0.004  -0.015  -2.565  -0.001  -0.003   0.847  -0.184  -0.004  -0.281  -0.004   0.000
 -0.260  -0.002   0.004   4.231   0.009   0.089   0.004  -0.001  -2.174  -0.005   0.008  -0.003   0.002   0.003  -0.243  -0.000
 -0.009  -0.273   0.006   0.009   3.260   0.006   0.089  -0.003  -0.005  -1.918   0.001  -0.000  -0.047  -0.000   0.006   0.004
 -1.897   0.005  -0.004   0.089   0.006   2.214  -0.004   0.001   0.039  -0.003  -0.003   0.001  -0.006  -0.001   0.041   0.000
  0.004  -2.164  -0.015   0.004   0.089  -0.004   1.964   0.009  -0.006   0.034  -0.005   0.002   0.235  -0.001  -0.002  -0.019
 -0.004  -0.014  -2.565  -0.001  -0.003   0.001   0.009   2.533  -0.001   0.002  -0.710   0.126   0.004   0.337   0.005  -0.000
  0.080   0.004  -0.001  -2.174  -0.005   0.039  -0.006  -0.001   1.968   0.003  -0.005   0.002  -0.002  -0.004   0.235   0.000
  0.006   0.098  -0.003  -0.005  -1.918  -0.003   0.034   0.002   0.003   2.228  -0.001   0.000   0.048  -0.000  -0.007  -0.004
  0.002   0.008   0.847   0.008   0.001  -0.003  -0.005  -0.710  -0.005  -0.001   2.506  -0.574  -0.003   0.191  -0.006   0.000
 -0.000  -0.004  -0.184  -0.003  -0.000   0.001   0.002   0.126   0.002   0.000  -0.574   0.148   0.001  -0.068   0.001  -0.000
  0.005  -0.243  -0.004   0.002  -0.047  -0.006   0.235   0.004  -0.002   0.048  -0.003   0.001   0.254   0.000  -0.000  -0.018
  0.001   0.000  -0.281   0.003  -0.000  -0.001  -0.001   0.337  -0.004  -0.000   0.191  -0.068   0.000   0.142  -0.000   0.000
 -0.042   0.002  -0.004  -0.243   0.006   0.041  -0.002   0.005   0.235  -0.007  -0.006   0.001  -0.000  -0.000   0.254   0.000
 -0.000   0.014   0.000  -0.000   0.004   0.000  -0.019  -0.000   0.000  -0.004   0.000  -0.000  -0.018   0.000   0.000   0.001
 -0.000   0.000   0.008  -0.000  -0.000   0.000   0.000  -0.023   0.000   0.000  -0.021   0.007   0.000  -0.011   0.000  -0.000
  0.004  -0.000   0.000   0.014  -0.000  -0.003   0.000  -0.000  -0.019   0.001   0.000  -0.000   0.000   0.000  -0.018  -0.000


------------------------ aborting loop because EDIFF is reached ----------------------------------------


    CHARGE:  cpu time      0.7584: real time      0.7657
    FORLOC:  cpu time      0.0169: real time      0.0169
    FORNL :  cpu time      2.6552: real time      2.6776
    STRESS:  cpu time      7.7256: real time      7.7861
    FORCOR:  cpu time      2.1831: real time      2.1958
    FORHAR:  cpu time      0.0157: real time      0.0158
    MIXING:  cpu time      0.0040: real time      0.0040
    OFIELD:  cpu time      0.0000: real time      0.0000

  FORCE on cell =-STRESS in cart. coord.  units (eV):
  Direction    XX          YY          ZZ          XY          YZ          ZX
  --------------------------------------------------------------------------------------
  Alpha Z   797.33613   797.33613   797.33613
  Ewald  151990.09087151988.98830************    -7.10290     2.89286   -14.76503
  Hartree157951.10728157951.54648************    -1.50984     0.42245    -2.87870
  E(xc)   -1657.78054 -1657.81912 -1666.53166    -0.09742    -0.01430    -0.10692
  Local  ************************321408.25313     6.87427    -3.58879    14.98932
  n-local   109.68831   110.14743    89.24390    -0.36846     0.57158    -1.73456
  augment  1891.95898  1891.61857  1952.64955     0.47260     0.21847     0.94204
  Kinetic  5211.31086  5211.92495  5365.22401     1.81633    -0.29380     3.20504
  Fock        0.00000     0.00000     0.00000     0.00000     0.00000     0.00000
  -------------------------------------------------------------------------------------
  Total     -33.17619   -32.93832     2.55529     0.08459     0.20845    -0.34880
  in kB     -34.28230   -34.03649     2.64049     0.08741     0.21540    -0.36043
  external pressure =      -21.89 kB  Pullay stress =        0.00 kB


 VOLUME and BASIS-vectors are now :
 -----------------------------------------------------------------------------
  energy-cutoff  :      680.29
  volume of cell :     1550.48
      direct lattice vectors                 reciprocal lattice vectors
     8.468310000  0.000000000  0.000000000     0.118087316 -0.068177744  0.000000000
     4.234155000  7.333771587  0.000000000     0.000000000  0.136355488  0.000000000
     0.000000000  0.000000000 24.965661990     0.000000000  0.000000000  0.040055016

  length of vectors
     8.468310000  8.468310000 24.965661990     0.136355488  0.136355488  0.040055016


 FORCES acting on ions
    electron-ion (+dipol)            ewald-force                    non-local-force                 convergence-correction
 -----------------------------------------------------------------------------------------------
   -.371E+01 -.205E+01 0.248E+04   0.364E+01 0.202E+01 -.248E+04   0.109E+00 0.659E-01 -.129E+01   0.299E-01 -.193E-01 0.994E-02
   -.579E+00 -.359E+01 0.248E+04   0.625E+00 0.356E+01 -.247E+04   0.176E-01 0.103E+00 -.127E+01   -.448E-01 -.299E-01 0.456E-02
   0.373E+01 -.551E+01 0.248E+04   -.374E+01 0.544E+01 -.247E+04   -.402E-01 0.124E+00 -.132E+01   0.155E-01 0.134E-02 -.453E-02
   -.348E+01 0.158E+01 0.248E+04   0.347E+01 -.156E+01 -.247E+04   0.938E-01 -.206E-01 -.129E+01   -.152E-01 -.143E-01 0.271E-02
   -.153E+00 0.917E-01 0.247E+04   0.149E+00 -.134E+00 -.247E+04   -.465E-02 0.100E-01 -.133E+01   0.139E-01 0.365E-01 0.138E-01
   0.346E+01 -.216E+01 0.248E+04   -.344E+01 0.212E+01 -.247E+04   -.707E-01 0.244E-01 -.131E+01   0.121E-02 0.272E-01 0.134E-01
   -.292E+01 0.563E+01 0.248E+04   0.297E+01 -.566E+01 -.248E+04   0.115E-01 -.597E-01 -.125E+01   0.404E-01 0.199E-02 0.414E-02
   -.300E+00 0.384E+01 0.247E+04   0.307E+00 -.385E+01 -.247E+04   -.247E-01 -.660E-01 -.131E+01   0.971E-03 0.103E-01 0.246E-01
   0.375E+01 0.179E+01 0.247E+04   -.367E+01 -.175E+01 -.247E+04   -.953E-01 -.635E-01 -.129E+01   -.414E-01 -.146E-01 -.137E-02
   -.478E+01 -.160E+01 0.835E+03   0.479E+01 0.160E+01 -.834E+03   0.788E-01 0.774E-01 -.321E+00   -.137E-01 -.300E-01 -.494E-02
   0.126E+01 -.998E+00 0.835E+03   -.125E+01 0.897E+00 -.834E+03   -.175E-01 0.930E-01 -.282E+00   -.101E-01 0.248E-01 0.139E-01
   0.292E+01 -.480E+01 0.835E+03   -.295E+01 0.474E+01 -.835E+03   -.578E-01 0.149E+00 -.332E+00   0.240E-01 0.198E-01 0.568E-02
   -.233E+01 0.353E+01 0.837E+03   0.227E+01 -.345E+01 -.837E+03   0.565E-01 -.750E-01 -.337E+00   0.334E-01 0.463E-02 0.222E-02
   0.430E+00 0.891E-01 0.840E+03   -.439E+00 -.136E+00 -.839E+03   -.666E-02 0.189E-01 -.395E+00   0.275E-02 0.370E-01 0.524E-02
   0.240E+01 -.157E+01 0.836E+03   -.233E+01 0.159E+01 -.836E+03   -.107E+00 0.140E-01 -.339E+00   -.360E-01 -.940E-02 -.973E-02
   -.393E+01 0.350E+01 0.835E+03   0.380E+01 -.352E+01 -.835E+03   0.101E+00 -.499E-01 -.311E+00   0.483E-01 -.137E-01 -.990E-02
   -.164E+01 0.550E+00 0.834E+03   0.176E+01 -.503E+00 -.833E+03   -.411E-01 -.410E-01 -.264E+00   -.592E-01 -.235E-01 -.142E-01
   0.689E+01 -.457E+00 0.830E+03   -.681E+01 0.426E+00 -.830E+03   -.155E+00 -.654E-02 -.272E+00   0.116E-01 -.992E-02 -.547E-02
   -.202E+01 0.575E+00 -.824E+03   0.210E+01 -.586E+00 0.823E+03   -.600E-01 0.261E-01 0.422E+00   -.148E-01 -.177E-01 -.163E-01
   0.168E+01 0.229E+01 -.827E+03   -.164E+01 -.241E+01 0.827E+03   -.483E-01 0.121E+00 0.490E+00   0.775E-02 -.198E-02 -.235E-01
   0.123E+01 0.110E+01 -.814E+03   -.125E+01 -.115E+01 0.813E+03   0.170E-01 0.179E-01 0.498E+00   0.637E-02 0.335E-01 -.133E-01
   0.228E+00 -.161E+01 -.816E+03   -.256E+00 0.162E+01 0.816E+03   0.183E-01 0.733E-03 0.491E+00   0.544E-02 -.118E-01 -.200E-01
   0.685E+00 0.381E-01 -.812E+03   -.735E+00 -.353E-01 0.811E+03   0.324E-02 -.284E-02 0.504E+00   0.421E-01 0.931E-03 -.332E-01
   -.785E+00 -.132E+01 -.812E+03   0.855E+00 0.136E+01 0.812E+03   -.266E-01 -.373E-01 0.512E+00   -.493E-01 -.101E-01 -.297E-01
   0.195E+01 0.122E+01 -.820E+03   -.198E+01 -.120E+01 0.820E+03   -.814E-02 -.336E-01 0.460E+00   0.354E-01 0.131E-01 -.120E-01
   -.147E+01 -.254E+01 -.829E+03   0.162E+01 0.259E+01 0.829E+03   -.132E+00 -.258E-01 0.506E+00   -.159E-01 -.204E-01 -.329E-01
   -.216E+01 0.149E+01 -.839E+03   0.166E+01 -.119E+01 0.839E+03   0.518E+00 -.315E+00 -.282E+00   -.213E-01 0.108E-01 -.125E-01
   0.427E+01 -.104E+01 -.245E+04   -.531E+01 0.748E+00 0.245E+04   0.105E+01 0.293E+00 0.141E+01   -.184E-02 -.221E-02 -.122E-01
   -.226E+02 0.115E+02 -.245E+04   0.208E+02 -.105E+02 0.245E+04   0.180E+01 -.961E+00 -.332E+01   -.164E-01 -.120E-01 -.690E-02
   -.892E+00 -.390E+00 -.246E+04   0.919E+00 0.393E+00 0.246E+04   -.451E-01 -.239E-01 0.122E+01   0.168E-01 0.221E-01 -.507E-02
   0.306E+01 -.324E+01 -.245E+04   -.326E+01 0.431E+01 0.245E+04   0.210E+00 -.106E+01 0.145E+01   -.954E-02 -.234E-02 -.155E-01
   -.112E+01 -.108E+01 -.245E+04   0.127E+01 0.125E+01 0.245E+04   -.173E+00 -.168E+00 0.127E+01   0.229E-01 0.623E-02 -.188E-01
   -.842E+00 0.115E+00 -.246E+04   0.803E+00 -.617E-01 0.245E+04   0.571E-01 -.495E-01 0.118E+01   -.168E-01 -.511E-02 -.184E-01
   0.231E+00 0.703E+00 -.246E+04   -.226E+00 -.705E+00 0.246E+04   -.358E-01 -.697E-02 0.116E+01   0.247E-01 0.752E-02 -.547E-02
   0.351E+00 0.179E+01 -.245E+04   -.396E+00 -.203E+01 0.245E+04   0.464E-01 0.267E+00 0.129E+01   -.706E-02 -.113E-01 -.248E-01
   -.360E+00 0.213E+01 -.246E+04   0.399E+00 -.213E+01 0.246E+04   -.222E-01 0.794E-02 0.122E+01   -.187E-01 -.894E-02 0.110E-02
   0.132E+02 -.722E+01 -.319E+03   -.145E+02 0.794E+01 0.321E+03   0.133E+01 -.720E+00 -.215E+01   -.210E-02 -.449E-03 0.196E-02
 -----------------------------------------------------------------------------------------------
   -.437E+01 0.238E+01 0.646E+01   -.480E-13 0.195E-12 0.875E-11   0.435E+01 -.237E+01 -.619E+01   -.107E-01 -.112E-01 -.247E+00
 
 
 POSITION                                       TOTAL-FORCE (eV/Angst)
 -----------------------------------------------------------------------------------
      0.00000      0.00000      8.50000         0.062336      0.015801     -0.123255
      2.82843      0.00000      8.50000         0.019657      0.045342     -0.079077
      5.65685      0.00000      8.50000        -0.034163      0.055589     -0.106565
      1.41421      2.44949      8.50000         0.065768     -0.014077     -0.086147
      4.24264      2.44949      8.50000         0.005918      0.004559     -0.082896
      7.07107      2.44949      8.50000        -0.042894      0.008463     -0.085690
      2.82843      4.89898      8.50000         0.095412     -0.095314     -0.189373
      5.65685      4.89898      8.50000        -0.015720     -0.058446     -0.093663
      8.48528      4.89898      8.50000        -0.059322     -0.035983     -0.082841
      1.41421      0.81650     10.80940         0.079293      0.046513      0.165312
      4.24264      0.81650     10.80940        -0.013859      0.016667      0.179030
      7.07107      0.81650     10.80940        -0.060887      0.101588      0.100328
      2.82843      3.26599     10.80940         0.038369      0.005897      0.008776
      5.65685      3.26599     10.80940        -0.011854      0.008756      0.025298
      8.48528      3.26599     10.80940        -0.073836      0.028487      0.082970
      4.24264      5.71548     10.80940         0.013991     -0.083231      0.043722
      7.07107      5.71548     10.80940         0.023578     -0.017569      0.188728
      9.89949      5.71548     10.80940        -0.059106     -0.047749      0.089349
      8.47772      1.64821     13.09993         0.000940     -0.002122      0.006190
      2.82821      1.64729     13.10544        -0.003256      0.000938     -0.003193
      5.65251      1.64952     13.08881        -0.000071     -0.003872      0.001664
      9.88260      4.09845     13.09276        -0.002711     -0.001263      0.005129
      4.23807      4.09381     13.08536        -0.003540      0.000819      0.001980
      7.06486      4.09356     13.08661        -0.005278     -0.004476      0.004743
     11.29495      6.54205     13.09721        -0.001204      0.000028      0.004172
      5.65349      6.53908     13.10686        -0.003297      0.007478      0.006385
      8.45315      6.55245     13.13353         0.002697     -0.002550     -0.006325
      8.44440      0.01776     15.43480         0.001929      0.003085      0.007784
      2.83213      0.02038     15.50836        -0.009340      0.004928      0.006478
      5.65207      0.03021     15.42519        -0.000976      0.001305      0.003796
      9.87950      2.49937     15.42841        -0.002780      0.006601      0.002783
      4.24408      2.47872     15.41616         0.001745      0.006371     -0.002756
      7.05497      2.47548     15.41563         0.001815     -0.001425      0.000265
     11.29547      4.91657     15.42241        -0.004420     -0.001535      0.003731
      5.64516      4.90180     15.41211        -0.004527      0.009167      0.000054
      8.47211      4.91354     15.42282        -0.001575     -0.003192      0.003793
      1.91362      0.50922     16.72707         0.001168     -0.005579     -0.000678
 -----------------------------------------------------------------------------------
    total drift:                               -0.033756      0.001839      0.026865


--------------------------------------------------------------------------------------------------------



  FREE ENERGIE OF THE ION-ELECTRON SYSTEM (eV)
  ---------------------------------------------------
  free  energy   TOTEN  =      -104.48821347 eV

  energy  without entropy=     -104.39827397  energy(sigma->0) =     -104.45823364
 


--------------------------------------------------------------------------------------------------------


    POTLOK:  cpu time      2.2378: real time      2.2657


--------------------------------------------------------------------------------------------------------


 writing wavefunctions
     LOOP+:  cpu time    174.4890: real time    176.9076
    4ORBIT:  cpu time      0.0000: real time      0.0000

 total amount of memory used by VASP MPI-rank0   148550. kBytes
=======================================================================

   base      :      30000. kBytes
   nonlr-proj:      22477. kBytes
   fftplans  :       5213. kBytes
   grid      :      24541. kBytes
   one-center:        575. kBytes
   wavefun   :      65744. kBytes
 
  
  
 General timing and accounting informations for this job:
 ========================================================
  
                  Total CPU time used (sec):      187.469
                            User time (sec):      184.314
                          System time (sec):        3.155
                         Elapsed time (sec):      194.280
  
                   Maximum memory used (kb):      629104.
                   Average memory used (kb):          N/A
  
                          Minor page faults:       193755
                          Major page faults:          702
                 Voluntary context switches:         5641
