 running   48 mpi-ranks, on    1 nodes
 distrk:  each k-point on   48 cores,    1 groups
 distr:  one band on    1 cores,   48 groups
 vasp.6.4.2 20Jul23 (build Mar 01 2024 16:46:03) complex                        
  
 POSCAR found type information on POSCAR PtH 
 POSCAR found :  2 types and      37 ions
 Reading from existing POTCAR
 scaLAPACK will be used
 -----------------------------------------------------------------------------
|                                                                             |
|           W    W    AA    RRRRR   N    N  II  N    N   GGGG   !!!           |
|           W    W   A  A   R    R  NN   N  II  NN   N  G    G  !!!           |
|           W    W  A    A  R    R  N N  N  II  N N  N  G       !!!           |
|           W WW W  AAAAAA  RRRRR   N  N N  II  N  N N  G  GGG   !            |
|           WW  WW  A    A  R   R   N   NN  II  N   NN  G    G                |
|           W    W  A    A  R    R  N    N  II  N    N   GGGG   !!!           |
|                                                                             |
|     For optimal performance we recommend to set                             |
|       NCORE = 2 up to number-of-cores-per-socket                            |
|     NCORE specifies how many cores store one orbital (NPAR=cpu/NCORE).      |
|     This setting can greatly improve the performance of VASP for DFT.       |
|     The default, NCORE=1 might be grossly inefficient on modern             |
|     multi-core architectures or massively parallel machines. Do your        |
|     own testing! More info at https://www.vasp.at/wiki/index.php/NCORE      |
|     Unfortunately you need to use the default for GW and RPA                |
|     calculations (for HF NCORE is supported but not extensively tested      |
|     yet).                                                                   |
|                                                                             |
 -----------------------------------------------------------------------------


     **************************************************************************
     Initializing libbeef V0.1.3 with the BEEF-vdW functional.
     Citation: Wellendorff et al., PRB 85, 235149 (2012).
     **************************************************************************

 -----------------------------------------------------------------------------
|                                                                             |
|               ----> ADVICE to this user running VASP <----                  |
|                                                                             |
|     You have switched on vdW-DFT.                                           |
|     This routine was written and supplied by Jiri Klimes. We recommend      |
|     that you carefully read and cite the following publications:            |
|       J. Klimes, D.R. Bowler, A. Michelides                                 |
|          J. Phys.: Cond Matt. 22 022201 (2010)                              |
|       J. Klimes, D.R. Bowler, A. Michelides                                 |
|          Phys. Rev. B. 83, 195131 (2011)                                    |
|     and references therein.                                                 |
|                                                                             |
 -----------------------------------------------------------------------------

 Reading from existing POTCAR
 -----------------------------------------------------------------------------
|                                                                             |
|               ----> ADVICE to this user running VASP <----                  |
|                                                                             |
|     You enforced a specific xc type in the INCAR file but a different       |
|     type was found in the POTCAR file.                                      |
|     I HOPE YOU KNOW WHAT YOU ARE DOING!                                     |
|                                                                             |
 -----------------------------------------------------------------------------

 LDA part: xc-table for Pade appr. of Perdew
 found WAVECAR, reading the header
 POSCAR, INCAR and KPOINTS ok, starting setup
 FFT: planning ... GRIDC
 FFT: planning ... GRID_SOFT
 FFT: planning ... GRID
 reading WAVECAR
 the WAVECAR file was read successfully
 initial charge from wavefunction
 entering main loop
       N       E                     dE             d eps       ncg     rms          rms(c)
Total vdW correction in eV:     51.9974710
DAV:   1    -0.104494283115E+03   -0.10449E+03   -0.18400E-01  6768   0.724E-01    0.800E-01
Total vdW correction in eV:     51.9969081
RMM:   2    -0.104545363046E+03   -0.51080E-01   -0.57963E-02  6385   0.400E-01    0.296E+00
Total vdW correction in eV:     51.9969114
RMM:   3    -0.104493330725E+03    0.52032E-01   -0.26154E-02  6590   0.305E-01    0.695E-01
Total vdW correction in eV:     51.9968975
RMM:   4    -0.104489544228E+03    0.37865E-02   -0.24926E-03  6602   0.812E-02    0.388E-01
Total vdW correction in eV:     51.9967369
RMM:   5    -0.104488632325E+03    0.91190E-03   -0.12369E-03  6727   0.586E-02    0.221E-01
Total vdW correction in eV:     51.9965733
RMM:   6    -0.104488354263E+03    0.27806E-03   -0.52131E-04  6854   0.383E-02    0.142E-01
Total vdW correction in eV:     51.9965694
RMM:   7    -0.104488274780E+03    0.79483E-04   -0.23402E-04  6894   0.265E-02    0.102E-01
Total vdW correction in eV:     51.9966715
RMM:   8    -0.104488250469E+03    0.24311E-04   -0.10793E-04  6817   0.179E-02    0.697E-02
Total vdW correction in eV:     51.9967657
RMM:   9    -0.104488210191E+03    0.40278E-04   -0.39371E-05  5615   0.117E-02    0.180E-02
Total vdW correction in eV:     51.9968115
RMM:  10    -0.104488213469E+03   -0.32780E-05   -0.12874E-05  4338   0.623E-03
Total vdW correction in eV:     51.9968646
Total vdW correction in eV:     51.9968328
   1 F= -.10448821E+03 E0= -.10445823E+03  d E =-.899395E-01
 writing wavefunctions
