unknown system                          
           1
     8.468310    0.000000    0.000000
     4.234155    7.333772    0.000000
     0.000000    0.000000   24.965662
   Pt   H 
    36     1
Direct configuration=     1
   0.00000000  0.00000000  0.34046764
   0.33400137  0.00000000  0.34046764
   0.66800274  0.00000000  0.34046764
   0.00000000  0.33400137  0.34046764
   0.33400137  0.33400137  0.34046764
   0.66800274  0.33400137  0.34046764
   0.00000000  0.66800274  0.34046764
   0.33400137  0.66800274  0.34046764
   0.66800274  0.66800274  0.34046764
   0.11133379  0.11133379  0.43297074
   0.44533516  0.11133379  0.43297074
   0.77933653  0.11133379  0.43297074
   0.11133379  0.44533516  0.43297074
   0.44533516  0.44533516  0.43297074
   0.77933653  0.44533516  0.43297074
   0.11133379  0.77933653  0.43297074
   0.44533516  0.77933653  0.43297074
   0.77933653  0.77933653  0.43297074
   0.88873986  0.22474291  0.52471792
   0.22166754  0.22461720  0.52493870
   0.55502895  0.22492124  0.52427255
   0.88758684  0.55884555  0.52443055
   0.22135626  0.55821285  0.52413436
   0.55518070  0.55817981  0.52418427
   0.88776822  0.89204390  0.52460901
   0.22178629  0.89163883  0.52499535
   0.55147784  0.89346285  0.52606360
   0.99596634  0.00242130  0.61824107
   0.33304941  0.00277955  0.62118742
   0.66537850  0.00411870  0.61785632
   0.99624287  0.34080267  0.61798520
   0.33217867  0.33798693  0.61749469
   0.66433054  0.33754464  0.61747340
   0.99865073  0.67040088  0.61774480
   0.33242842  0.66838762  0.61733228
   0.66545550  0.66998761  0.61776128
   0.19125675  0.06943440  0.67000293
