
     Program PWSCF v.7.1 starts on  7Nov2025 at 21:28:35 
        Git branch: heads/qe-7.1
        Last git commit: 48ba0178f8fede6d020eb786884699a9f063f55d-dirty
        Last git commit date: Fri Jan 27 14:22:33 2023 +0000
        Last git commit subject: Merge branch 'fix_hubbard' into 'develop'

     This program is part of the open-source Quantum ESPRESSO suite
     for quantum simulation of materials; please cite
         "P. Giannozzi et al., J. Phys.:Condens. Matter 21 395502 (2009);
         "P. Giannozzi et al., J. Phys.:Condens. Matter 29 465901 (2017);
         "P. Giannozzi et al., J. Chem. Phys. 152 154105 (2020);
          URL http://www.quantum-espresso.org", 
     in publications or presentations arising from this work. More details at
     http://www.quantum-espresso.org/quote

     Parallel version (MPI), running on    48 processors

     MPI processes distributed on     1 nodes
     117039 MiB available memory on the printing compute node when the environment starts

     Reading input from espresso.pwi
Warning: card &CELL ignored
Warning: card / ignored
Warning: card &FCP ignored
Warning: card / ignored
Warning: card &RISM ignored
Warning: card / ignored

     Current dimensions of program PWSCF are:
     Max number of different atomic species (ntypx) = 10
     Max number of k-points (npk) =  40000
     Max angular momentum in pseudopotentials (lmaxx) =  4
     file Pt.pbe-n-kjpaw_psl.1.0.0.UPF: wavefunction(s)  6S 5D renormalized
     file O.pbe-nl-kjpaw_psl.1.0.0.UPF: wavefunction(s)  2S 2P renormalized
     file H.pbe-kjpaw_psl.1.0.0.UPF: wavefunction(s)  1S renormalized

     **************************************************************************
     Initializing libbeef V0.1.2 with the BEEF-vdW functional.
     Citation: Wellendorff et al., PRB 85, 235149 (2012).
     **************************************************************************


     IMPORTANT: XC functional enforced from input :
     Exchange-correlation= BEEF-VDW
                           (   1   4  43  14   2   0   0)
     Any further DFT definition will be discarded
     Please, verify this is what you really want


     R & G space division:  proc/nbgrp/npool/nimage =      48
     Subspace diagonalization in iterative solution of the eigenvalue problem:
     one sub-group per band group will be used
     custom distributed-memory algorithm (size of sub-group:  2*  2 procs)


     Parallelization info
     --------------------
     sticks:   dense  smooth     PW     G-vecs:    dense   smooth      PW
     Min         151      59     16                29407     7165    1028
     Max         152      60     17                29420     7176    1042
     Sum        7267    2839    769              1411785   344073   49691

     Using Slab Decomposition



     bravais-lattice index     =            0
     lattice parameter (alat)  =      16.0349  a.u.
     unit-cell volume          =   10068.6169 (a.u.)^3
     number of atoms/cell      =           39
     number of atomic types    =            3
     number of electrons       =       368.00
     number of Kohn-Sham states=          221
     kinetic-energy cutoff     =      40.0000  Ry
     charge density cutoff     =     410.0000  Ry
     scf convergence threshold =      1.0E-06
     mixing beta               =       0.7000
     number of iterations used =            8  local-TF  mixing
     Exchange-correlation= BEEF-VDW
                           (   1   4  43  14   2   0   0)

     celldm(1)=  16.034858  celldm(2)=   0.000000  celldm(3)=   0.000000
     celldm(4)=   0.000000  celldm(5)=   0.000000  celldm(6)=   0.000000

     crystal axes: (cart. coord. in units of alat)
               a(1) = (   1.000000   0.000000   0.000000 )  
               a(2) = (   0.500000   0.866025   0.000000 )  
               a(3) = (   0.000000   0.000000   2.819966 )  

     reciprocal axes: (cart. coord. in units 2 pi/alat)
               b(1) = (  1.000000 -0.577350  0.000000 )  
               b(2) = (  0.000000  1.154701  0.000000 )  
               b(3) = (  0.000000  0.000000  0.354614 )  


     PseudoPot. # 1 for Pt read from file:
     /users/kbadger1/espresso/pseudo/pslibrary.1.0.0/pbe/PSEUDOPOTENTIALS/Pt.pbe-n-kjpaw_psl.1.0.0.UPF
     MD5 check sum: 2e24a0b5bf98a4ed1a57fa81bca8c143
     Pseudo is Projector augmented-wave + core cor, Zval = 10.0
     Generated using 'atomic' code by A. Dal Corso  v.7.0
     Shape of augmentation charge: PSQ
     Using radial grid of 1277 points,  6 beta functions with: 
                l(1) =   0
                l(2) =   0
                l(3) =   1
                l(4) =   1
                l(5) =   2
                l(6) =   2
     Q(r) pseudized with 0 coefficients 


     PseudoPot. # 2 for O  read from file:
     /users/kbadger1/espresso/pseudo/pslibrary.1.0.0/pbe/PSEUDOPOTENTIALS/O.pbe-nl-kjpaw_psl.1.0.0.UPF
     MD5 check sum: f0439fab3598ca4e468f064226030408
     Pseudo is Projector augmented-wave + core cor, Zval =  6.0
     Generated using 'atomic' code by A. Dal Corso  v.7.0
     Shape of augmentation charge: PSQ
     Using radial grid of 1095 points,  4 beta functions with: 
                l(1) =   0
                l(2) =   0
                l(3) =   1
                l(4) =   1
     Q(r) pseudized with 0 coefficients 


     PseudoPot. # 3 for H  read from file:
     /users/kbadger1/espresso/pseudo/pslibrary.1.0.0/pbe/PSEUDOPOTENTIALS/H.pbe-kjpaw_psl.1.0.0.UPF
     MD5 check sum: fe4c6fa958fa6d3815bf5d2419cbf1df
     Pseudo is Projector augmented-wave, Zval =  1.0
     Generated using 'atomic' code by A. Dal Corso  v.7.0
     Shape of augmentation charge: PSQ
     Using radial grid of  929 points,  2 beta functions with: 
                l(1) =   0
                l(2) =   0
     Q(r) pseudized with 0 coefficients 


     atomic species   valence    mass     pseudopotential
        Pt            10.00   195.08400     Pt( 1.00)
        O              6.00    15.99900     O ( 1.00)
        H              1.00     1.00800     H ( 1.00)

     No symmetry found



   Cartesian axes

     site n.     atom                  positions (alat units)
         1           Pt  tau(   1) = (   0.0000000   0.0000000   1.0017346  )
         2           Pt  tau(   2) = (   0.3333333   0.0000000   1.0017346  )
         3           Pt  tau(   3) = (   0.6666667   0.0000000   1.0017346  )
         4           Pt  tau(   4) = (   0.1666667   0.2886751   1.0017346  )
         5           Pt  tau(   5) = (   0.5000000   0.2886751   1.0017346  )
         6           Pt  tau(   6) = (   0.8333333   0.2886751   1.0017346  )
         7           Pt  tau(   7) = (   0.3333333   0.5773503   1.0017346  )
         8           Pt  tau(   8) = (   0.6666667   0.5773503   1.0017346  )
         9           Pt  tau(   9) = (   1.0000000   0.5773503   1.0017346  )
        10           Pt  tau(  10) = (   0.1666667   0.0962250   1.2739001  )
        11           Pt  tau(  11) = (   0.5000000   0.0962250   1.2739001  )
        12           Pt  tau(  12) = (   0.8333333   0.0962250   1.2739001  )
        13           Pt  tau(  13) = (   0.3333333   0.3849002   1.2739001  )
        14           Pt  tau(  14) = (   0.6666667   0.3849002   1.2739001  )
        15           Pt  tau(  15) = (   1.0000000   0.3849002   1.2739001  )
        16           Pt  tau(  16) = (   0.5000000   0.6735753   1.2739001  )
        17           Pt  tau(  17) = (   0.8333333   0.6735753   1.2739001  )
        18           Pt  tau(  18) = (   1.1666667   0.6735753   1.2739001  )
        19           Pt  tau(  19) = (  -0.0075374   0.1984261   1.5429742  )
        20           Pt  tau(  20) = (   0.3251319   0.1991342   1.5437001  )
        21           Pt  tau(  21) = (   0.6591964   0.1984648   1.5438056  )
        22           Pt  tau(  22) = (   0.1584485   0.4881313   1.5449405  )
        23           Pt  tau(  23) = (   0.4912800   0.4855517   1.5470278  )
        24           Pt  tau(  24) = (   0.8251908   0.4879587   1.5440118  )
        25           Pt  tau(  25) = (   0.3265867   0.7751471   1.5429345  )
        26           Pt  tau(  26) = (   0.6578049   0.7752811   1.5427022  )
        27           Pt  tau(  27) = (   0.9919055   0.7761324   1.5433732  )
        28           Pt  tau(  28) = (  -0.0160374   0.0134300   1.8194847  )
        29           Pt  tau(  29) = (   0.3158272   0.0106325   1.8150664  )
        30           Pt  tau(  30) = (   0.6527357   0.0093648   1.8157859  )
        31           Pt  tau(  31) = (   0.1488304   0.3021277   1.8186585  )
        32           Pt  tau(  32) = (   0.4823007   0.3063378   1.8180569  )
        33           Pt  tau(  33) = (   0.8195637   0.3024816   1.8170808  )
        34           Pt  tau(  34) = (   0.3161307   0.5928451   1.8217189  )
        35           Pt  tau(  35) = (   0.6515862   0.5920092   1.8202959  )
        36           Pt  tau(  36) = (   0.9836936   0.5905529   1.8207265  )
        37           O   tau(  37) = (   0.5112676   0.2322187   2.0900728  )
        38           H   tau(  38) = (   0.5923897   0.3054875   2.1238331  )
        39           H   tau(  39) = (   0.5686720   0.1373700   2.0549014  )

     number of k points=    13  Marzari-Vanderbilt smearing, width (Ry)=  0.0010
                       cart. coord. in units 2pi/alat
        k(    1) = (   0.0000000   0.0000000   0.0000000), wk =   0.0800000
        k(    2) = (   0.0000000   0.2309401   0.0000000), wk =   0.1600000
        k(    3) = (   0.0000000   0.4618802   0.0000000), wk =   0.1600000
        k(    4) = (   0.2000000  -0.1154701   0.0000000), wk =   0.1600000
        k(    5) = (   0.2000000   0.1154701   0.0000000), wk =   0.1600000
        k(    6) = (   0.2000000   0.3464102   0.0000000), wk =   0.1600000
        k(    7) = (   0.2000000  -0.5773503   0.0000000), wk =   0.1600000
        k(    8) = (   0.2000000  -0.3464102   0.0000000), wk =   0.1600000
        k(    9) = (   0.4000000  -0.2309401   0.0000000), wk =   0.1600000
        k(   10) = (   0.4000000  -0.0000000   0.0000000), wk =   0.1600000
        k(   11) = (   0.4000000   0.2309401   0.0000000), wk =   0.1600000
        k(   12) = (   0.4000000  -0.6928203   0.0000000), wk =   0.1600000
        k(   13) = (   0.4000000  -0.4618802   0.0000000), wk =   0.1600000

     Dense  grid:  1411785 G-vectors     FFT dimensions: ( 108, 108, 300)

     Smooth grid:   344073 G-vectors     FFT dimensions: (  72,  72, 192)

     Estimated max dynamical RAM per process >     207.10 MB

     Estimated total dynamical RAM >       9.71 GB

     Initial potential from superposition of free atoms

     starting charge     367.9939, renormalised to     368.0000

     negative rho (up, down):  3.067E-03 0.000E+00


     %%%%%%%%%%%%%%%%%%%%%%%%%%%%%%%%%%%%%%%%%%%%%%%%%%%%%%%%%%%%%%%%%%%%%%%%
     %                                                                      %
     % You are using vdW-DF, which was implemented by the Thonhauser group. %
     % Please cite the following two papers that made this development      %
     % possible and the two reviews that describe the various versions:     %
     %                                                                      %
     %   T. Thonhauser et al., PRL 115, 136402 (2015).                      %
     %   T. Thonhauser et al., PRB 76, 125112 (2007).                       %
     %   K. Berland et al., Rep. Prog. Phys. 78, 066501 (2015).             %
     %   D.C. Langreth et al., J. Phys.: Condens. Matter 21, 084203 (2009). %
     %                                                                      %
     % If you are calculating stress with vdW-DF, please also cite:         %
     %                                                                      %
     %   R. Sabatini et al., J. Phys.: Condens. Matter 24, 424209 (2012).   %
     %                                                                      %
     %%%%%%%%%%%%%%%%%%%%%%%%%%%%%%%%%%%%%%%%%%%%%%%%%%%%%%%%%%%%%%%%%%%%%%%%

     %%%%%%%%%%%%%%%%%%%%%%%%%%%%%%%%%%%%%%%%%%%%%%%%%%%%%%%%%%%%%%%%%%%%%%%%
     %                                                                      %
     %  vdW-DF NEWS:                                                        %
     %                                                                      %
     %  * vdW-DF3 is now available. DOI: 10.1021/acs.jctc.0c00471           %
     %    use with input_dft = 'vdW-DF3-opt1' or 'vdW-DF3-opt2'             %
     %                                                                      %
     %  * Unscreened and range-separated hybrid vdW-DF-cx functionals       %
     %    DOI: 10.1063/1.4986522 and 10.1088/1361-648X/ac2ad2               %
     %    use with input_dft = 'vdW-DF-cx0'    and 'vdW-DF-ahcx'            %
     %  * Unscreened and range-separated hybrid vdW-DF2-b86r functionals    %
     %    DOI: 10.1063/1.4986522 and DOI: 10.1103/PhysRevX.12.041003        %
     %    use with input_dft = 'vdW-DF2-br0' and 'vdW-DF2-ahbr'             %
     %                                                                      %
     %%%%%%%%%%%%%%%%%%%%%%%%%%%%%%%%%%%%%%%%%%%%%%%%%%%%%%%%%%%%%%%%%%%%%%%%


     Starting wfcs are  330 randomized atomic wfcs
     Checking if some PAW data can be deallocated... 

     total cpu time spent up to now is       21.5 secs

     per-process dynamical memory:   212.1 Mb

     Self-consistent Calculation

     iteration #  1     ecut=    40.00 Ry     beta= 0.70
     Davidson diagonalization with overlap
     ethr =  1.00E-02,  avg # of iterations =  2.2

     Threshold (ethr) on eigenvalues was too large:
     Diagonalizing with lowered threshold

     Davidson diagonalization with overlap
     ethr =  4.59E-04,  avg # of iterations =  4.1

     negative rho (up, down):  7.945E-03 0.000E+00

     total cpu time spent up to now is       63.5 secs

     total energy              =  -27798.96155796 Ry
     estimated scf accuracy    <       1.86907560 Ry

     iteration #  2     ecut=    40.00 Ry     beta= 0.70
     Davidson diagonalization with overlap
     ethr =  5.08E-04,  avg # of iterations =  3.6

     negative rho (up, down):  5.946E-03 0.000E+00

     total cpu time spent up to now is       87.7 secs

     total energy              =  -27799.11354185 Ry
     estimated scf accuracy    <       0.69028186 Ry

     iteration #  3     ecut=    40.00 Ry     beta= 0.70
     Davidson diagonalization with overlap
     ethr =  1.88E-04,  avg # of iterations =  4.3

     negative rho (up, down):  2.405E-03 0.000E+00

     total cpu time spent up to now is      112.1 secs

     total energy              =  -27799.16476701 Ry
     estimated scf accuracy    <       0.12908148 Ry

     iteration #  4     ecut=    40.00 Ry     beta= 0.70
     Davidson diagonalization with overlap
     c_bands:  1 eigenvalues not converged
     c_bands:  1 eigenvalues not converged
     c_bands:  1 eigenvalues not converged
     ethr =  3.51E-05,  avg # of iterations = 12.5

     negative rho (up, down):  6.982E-04 0.000E+00

     total cpu time spent up to now is      151.1 secs

     total energy              =  -27799.20497832 Ry
     estimated scf accuracy    <       0.08474820 Ry

     iteration #  5     ecut=    40.00 Ry     beta= 0.70
     Davidson diagonalization with overlap
     ethr =  2.30E-05,  avg # of iterations =  3.3

     negative rho (up, down):  1.891E-04 0.000E+00

     total cpu time spent up to now is      175.1 secs

     total energy              =  -27799.20912394 Ry
     estimated scf accuracy    <       0.03089530 Ry

     iteration #  6     ecut=    40.00 Ry     beta= 0.70
     Davidson diagonalization with overlap
     ethr =  8.40E-06,  avg # of iterations =  5.6

     negative rho (up, down):  6.523E-05 0.000E+00

     total cpu time spent up to now is      203.9 secs

     total energy              =  -27799.21245386 Ry
     estimated scf accuracy    <       0.00275482 Ry

     iteration #  7     ecut=    40.00 Ry     beta= 0.70
     Davidson diagonalization with overlap
     c_bands:  1 eigenvalues not converged
     ethr =  7.49E-07,  avg # of iterations = 11.8

     negative rho (up, down):  4.886E-05 0.000E+00

     total cpu time spent up to now is      259.2 secs

     total energy              =  -27799.21454366 Ry
     estimated scf accuracy    <       0.00167678 Ry

     iteration #  8     ecut=    40.00 Ry     beta= 0.70
     Davidson diagonalization with overlap
     ethr =  4.56E-07,  avg # of iterations =  3.6

     negative rho (up, down):  4.412E-05 0.000E+00

     total cpu time spent up to now is      273.3 secs

     total energy              =  -27799.21467408 Ry
     estimated scf accuracy    <       0.00059386 Ry

     iteration #  9     ecut=    40.00 Ry     beta= 0.70
     Davidson diagonalization with overlap
     ethr =  1.61E-07,  avg # of iterations =  2.0

     negative rho (up, down):  5.184E-05 0.000E+00

     total cpu time spent up to now is      298.9 secs

     total energy              =  -27799.21475392 Ry
     estimated scf accuracy    <       0.00033098 Ry

     iteration # 10     ecut=    40.00 Ry     beta= 0.70
     Davidson diagonalization with overlap
     ethr =  8.99E-08,  avg # of iterations =  3.7

     negative rho (up, down):  7.709E-05 0.000E+00

     total cpu time spent up to now is      324.0 secs

     total energy              =  -27799.21481774 Ry
     estimated scf accuracy    <       0.00019975 Ry

     iteration # 11     ecut=    40.00 Ry     beta= 0.70
     Davidson diagonalization with overlap
     ethr =  5.43E-08,  avg # of iterations =  1.5

     negative rho (up, down):  1.778E-04 0.000E+00

     total cpu time spent up to now is      347.5 secs

     total energy              =  -27799.21489437 Ry
     estimated scf accuracy    <       0.00021054 Ry

     iteration # 12     ecut=    40.00 Ry     beta= 0.70
     Davidson diagonalization with overlap
     ethr =  5.43E-08,  avg # of iterations =  6.6

     negative rho (up, down):  9.307E-04 0.000E+00

     total cpu time spent up to now is      364.8 secs

     total energy              =  -27799.21498623 Ry
     estimated scf accuracy    <       0.00016496 Ry

     iteration # 13     ecut=    40.00 Ry     beta= 0.70
     Davidson diagonalization with overlap
     ethr =  4.48E-08,  avg # of iterations =  4.5

     negative rho (up, down):  1.514E-03 0.000E+00

     total cpu time spent up to now is      389.3 secs

     total energy              =  -27799.21500420 Ry
     estimated scf accuracy    <       0.00009430 Ry

     iteration # 14     ecut=    40.00 Ry     beta= 0.70
     Davidson diagonalization with overlap
     ethr =  2.56E-08,  avg # of iterations =  1.2

     negative rho (up, down):  2.096E-03 0.000E+00

     total cpu time spent up to now is      411.8 secs

     total energy              =  -27799.21501203 Ry
     estimated scf accuracy    <       0.00006026 Ry

     iteration # 15     ecut=    40.00 Ry     beta= 0.70
     Davidson diagonalization with overlap
     ethr =  1.64E-08,  avg # of iterations =  1.5

     negative rho (up, down):  2.516E-03 0.000E+00

     total cpu time spent up to now is      424.4 secs

     total energy              =  -27799.21501306 Ry
     estimated scf accuracy    <       0.00003024 Ry

     iteration # 16     ecut=    40.00 Ry     beta= 0.70
     Davidson diagonalization with overlap
     ethr =  8.22E-09,  avg # of iterations =  1.3

     negative rho (up, down):  2.957E-03 0.000E+00

     total cpu time spent up to now is      447.4 secs

     total energy              =  -27799.21501261 Ry
     estimated scf accuracy    <       0.00000927 Ry

     iteration # 17     ecut=    40.00 Ry     beta= 0.70
     Davidson diagonalization with overlap
     ethr =  2.52E-09,  avg # of iterations =  4.1

     negative rho (up, down):  2.998E-03 0.000E+00

     total cpu time spent up to now is      474.1 secs

     total energy              =  -27799.21501364 Ry
     estimated scf accuracy    <       0.00000187 Ry

     iteration # 18     ecut=    40.00 Ry     beta= 0.70
     Davidson diagonalization with overlap
     ethr =  5.08E-10,  avg # of iterations =  4.1

     negative rho (up, down):  2.996E-03 0.000E+00

     total cpu time spent up to now is      505.7 secs

     total energy              =  -27799.21501433 Ry
     estimated scf accuracy    <       0.00000123 Ry

     iteration # 19     ecut=    40.00 Ry     beta= 0.70
     Davidson diagonalization with overlap
     ethr =  3.34E-10,  avg # of iterations =  1.5

     negative rho (up, down):  2.939E-03 0.000E+00

     total cpu time spent up to now is      528.6 secs

     End of self-consistent calculation

          k = 0.0000 0.0000 0.0000 ( 42913 PWs)   bands (ev):

   -18.8459  -6.5158  -6.0654  -4.7902  -3.7234  -3.6904  -3.6725  -3.6529
    -3.6361  -3.6321  -3.6282  -3.6114  -3.1703  -3.1035  -3.1019  -3.0977
    -3.0947  -3.0811  -2.9783  -2.6478  -2.6359  -2.6330  -2.6278  -2.6166
    -2.6099  -2.4526  -2.4122  -2.4066  -2.4038  -2.3988  -2.3921  -2.2087
    -2.2044  -2.1928  -2.1873  -2.1816  -2.1791  -2.1763  -2.1708  -2.1647
    -2.1595  -2.0807  -2.0752  -1.7433  -1.5741  -1.5676  -1.5467  -1.5271
    -1.4965  -1.4897  -1.4864  -1.4832  -1.4796  -1.4021  -1.3293  -1.3192
    -1.2379  -1.1728  -0.7984  -0.7839  -0.7744  -0.7712  -0.7395  -0.7307
    -0.7240  -0.5924  -0.5820  -0.5734  -0.5702  -0.5320  -0.5232  -0.5183
    -0.5115  -0.5052  -0.5025  -0.4841  -0.4756  -0.4551  -0.4500  -0.4116
    -0.3940  -0.3799  -0.3746  -0.3640  -0.2820  -0.2522  -0.1944  -0.1807
    -0.0992  -0.0836  -0.0594  -0.0467  -0.0334  -0.0326  -0.0053   0.0057
     0.0502   0.0585   0.0772   0.0816   0.1015   0.1275   0.1280   0.1533
     0.2422   0.2675   0.2794   0.2850   0.3181   0.3729   0.4598   0.7710
     0.7887   0.7997   0.8037   0.8139   0.8161   0.8354   0.8400   0.8556
     0.8600   0.8799   0.8863   0.9268   0.9367   1.0728   1.0891   1.0907
     1.0988   1.1223   1.1437   1.1684   1.2255   1.2549   1.2790   1.2834
     1.3751   1.5154   1.5188   1.5336   1.5377   1.5435   1.5462   1.5960
     1.6333   1.7479   1.7561   1.7893   1.8024   1.8059   1.8232   1.9221
     1.9373   1.9518   1.9580   1.9654   1.9751   1.9825   1.9858   1.9999
     2.0104   2.0338   2.0757   2.1122   2.1159   2.1257   2.1349   2.1395
     2.1571   2.1632   2.1866   2.1946   2.2089   2.2383   2.2535   2.2575
     2.2587   2.2704   2.2780   2.3346   2.3437   2.3567   2.3662   2.3734
     2.3815   2.4234   2.4367   2.4813   2.4878   2.4989   2.5155   2.5984
     2.6709   2.7549   2.7702   2.7739   2.7824   2.7856   2.8086   2.8188
     3.5521   3.6404   3.6425   3.6700   3.7001   3.7101   3.9809   5.8885
     5.9333   5.9645   6.0136   6.0304   6.2016   7.0952   7.5024   7.5359
     7.5923   7.6026   7.6625   7.6730   7.7250

          k = 0.0000 0.2309 0.0000 ( 42996 PWs)   bands (ev):

   -18.8459  -6.5148  -5.9190  -4.6452  -4.1495  -3.7888  -3.7510  -3.5740
    -3.5156  -3.4505  -3.4308  -3.3988  -3.2427  -3.1902  -3.0936  -3.0348
    -3.0261  -3.0128  -2.9382  -2.7314  -2.6108  -2.5926  -2.5831  -2.5658
    -2.5263  -2.5046  -2.4608  -2.4481  -2.4362  -2.3793  -2.3734  -2.3335
    -2.3093  -2.2301  -2.2058  -2.1965  -2.1846  -2.1736  -2.0026  -1.9844
    -1.9734  -1.9492  -1.9384  -1.7854  -1.6947  -1.6803  -1.6265  -1.5873
    -1.5764  -1.5675  -1.5056  -1.3984  -1.3828  -1.3421  -1.2917  -1.2654
    -1.2368  -1.1992  -1.0381  -0.9339  -0.9287  -0.9157  -0.8657  -0.8492
    -0.8177  -0.7259  -0.7123  -0.7021  -0.7003  -0.6823  -0.6418  -0.6205
    -0.6039  -0.5871  -0.5195  -0.4648  -0.4531  -0.4079  -0.3890  -0.3760
    -0.3693  -0.3251  -0.3171  -0.2952  -0.2645  -0.1763  -0.1683  -0.1572
    -0.1323  -0.1250  -0.1090  -0.0885  -0.0709  -0.0577  -0.0443   0.0081
     0.0430   0.0530   0.0767   0.0872   0.1016   0.1091   0.1678   0.2185
     0.2665   0.2733   0.3034   0.3104   0.3140   0.3234   0.3372   0.3712
     0.3902   0.3972   0.4041   0.4566   0.5995   0.7055   0.7793   0.7986
     0.8139   0.8237   0.8593   0.8681   0.8747   1.0052   1.0272   1.0340
     1.1019   1.1427   1.1620   1.1981   1.2754   1.2778   1.2829   1.3049
     1.3094   1.3735   1.3880   1.4104   1.4219   1.4430   1.5933   1.6282
     1.6439   1.6536   1.6706   1.6815   1.7009   1.7706   1.7957   1.8014
     1.8215   1.8399   1.8818   1.8864   1.9006   1.9114   2.0013   2.0225
     2.0373   2.0615   2.1441   2.1713   2.1821   2.1895   2.1946   2.2213
     2.2464   2.2976   2.3162   2.3289   2.3861   2.3979   2.4050   2.4206
     2.4400   2.4558   2.4598   2.4643   2.4922   2.5482   2.5792   2.6589
     2.6919   2.7013   2.7047   2.7123   2.7325   2.7410   2.7531   2.7916
     2.8041   2.9098   2.9171   2.9303   3.0685   3.0859   3.1072   3.1240
     3.2514   3.5099   3.5941   4.2332   4.2812   4.3336   4.4878   5.3011
     5.6527   5.7754   6.4287   6.4376   6.4940   6.6033   6.8605   7.1533
     7.3764   7.4036   7.5902   7.7745   7.8009

          k = 0.0000 0.4619 0.0000 ( 43046 PWs)   bands (ev):

   -18.8460  -6.5138  -5.4956  -4.8576  -4.2386  -3.8110  -3.7919  -3.6830
    -3.4098  -3.2766  -3.1711  -3.1399  -3.1226  -3.0721  -3.0274  -2.9062
    -2.8662  -2.8534  -2.8398  -2.8112  -2.7307  -2.6908  -2.6857  -2.6389
    -2.6119  -2.5986  -2.5603  -2.5061  -2.5007  -2.4896  -2.2603  -2.2465
    -2.2338  -2.2309  -2.2225  -2.2110  -2.0304  -1.9888  -1.9717  -1.9596
    -1.9484  -1.9276  -1.8001  -1.6953  -1.6598  -1.6487  -1.6196  -1.5963
    -1.5749  -1.5580  -1.5181  -1.4859  -1.4383  -1.4336  -1.4060  -1.2943
    -1.2773  -1.2614  -1.2338  -1.1498  -1.1294  -1.0976  -1.0647  -1.0289
    -0.9158  -0.8875  -0.8325  -0.8264  -0.8079  -0.7663  -0.7389  -0.6917
    -0.6064  -0.5842  -0.5751  -0.4993  -0.4949  -0.4859  -0.4647  -0.4460
    -0.4235  -0.4092  -0.3874  -0.3571  -0.3513  -0.3414  -0.3204  -0.3024
    -0.2720  -0.2463  -0.2069  -0.1811  -0.1684  -0.1515  -0.1438  -0.1333
    -0.0463   0.0249   0.0318   0.0636   0.0976   0.1104   0.1340   0.1747
     0.2082   0.2180   0.2722   0.2950   0.3314   0.3776   0.3864   0.4021
     0.5344   0.5440   0.5492   0.6381   0.6925   0.7096   0.7270   0.7437
     0.7506   0.7616   0.7712   0.8321   0.8362   0.8729   0.8864   0.9077
     0.9169   0.9242   0.9662   0.9764   1.0125   1.1126   1.1232   1.1316
     1.1929   1.2531   1.3151   1.3204   1.4146   1.4303   1.4844   1.5236
     1.5819   1.6050   1.6351   1.6511   1.6672   1.6911   1.7345   1.7503
     1.7697   1.7874   1.8471   1.8785   1.9111   1.9421   1.9482   1.9616
     1.9698   2.0837   2.1537   2.1651   2.2153   2.2297   2.2456   2.2587
     2.3390   2.3470   2.3536   2.4423   2.4496   2.4674   2.4926   2.5207
     2.5644   2.5727   2.5815   2.6697   2.6833   2.6875   2.6947   2.7110
     2.7170   2.7294   2.8246   2.9108   2.9161   2.9219   2.9638   2.9775
     3.1342   3.1708   3.5137   3.5591   3.6842   3.8902   4.0015   4.0064
     4.3777   4.4063   4.5990   4.7001   5.1910   5.2152   5.2250   5.3273
     5.4648   5.4974   5.5620   5.6855   5.8636   5.8965   6.4487   6.4814
     7.0144   7.0704   7.3863   7.4812   7.5741

          k = 0.2000-0.1155 0.0000 ( 42996 PWs)   bands (ev):

   -18.8459  -6.5145  -5.9200  -4.6464  -4.1811  -3.7528  -3.7436  -3.5770
    -3.5195  -3.4928  -3.3989  -3.3857  -3.2484  -3.1858  -3.0729  -3.0368
    -3.0349  -3.0229  -2.9725  -2.7046  -2.6108  -2.5972  -2.5910  -2.5770
    -2.5153  -2.4972  -2.4659  -2.4461  -2.4327  -2.4168  -2.3864  -2.3008
    -2.2981  -2.2604  -2.2283  -2.2025  -2.1720  -2.1619  -1.9836  -1.9758
    -1.9686  -1.9627  -1.9002  -1.7595  -1.6790  -1.6710  -1.6465  -1.6124
    -1.5960  -1.5724  -1.5001  -1.3820  -1.3626  -1.3201  -1.3061  -1.2738
    -1.2440  -1.1878  -0.9916  -0.9362  -0.9276  -0.8370  -0.8236  -0.8034
    -0.7999  -0.7938  -0.7757  -0.7139  -0.7006  -0.6801  -0.6330  -0.5864
    -0.5723  -0.5685  -0.5410  -0.5226  -0.4989  -0.4667  -0.3803  -0.3515
    -0.3324  -0.3121  -0.3025  -0.2772  -0.2653  -0.2395  -0.1664  -0.1324
    -0.1234  -0.1063  -0.0957  -0.0864  -0.0736  -0.0668  -0.0535  -0.0027
     0.0443   0.0489   0.0705   0.0796   0.0876   0.1037   0.1106   0.2196
     0.2610   0.2674   0.2826   0.2923   0.3110   0.3207   0.3281   0.3753
     0.3951   0.4016   0.4051   0.4326   0.7069   0.7413   0.7551   0.7873
     0.8020   0.8248   0.8272   0.8581   0.8683   0.9971   1.0021   1.0132
     1.1017   1.1199   1.1546   1.1749   1.2621   1.2733   1.2808   1.2861
     1.3026   1.3808   1.3913   1.4003   1.4400   1.4540   1.5881   1.6319
     1.6354   1.6568   1.6631   1.6789   1.7080   1.7671   1.8002   1.8054
     1.8171   1.8460   1.8838   1.8962   1.9059   1.9205   2.0164   2.0303
     2.0548   2.0670   2.1234   2.1540   2.1722   2.1885   2.1938   2.2033
     2.2498   2.2755   2.3198   2.3284   2.3804   2.3928   2.3967   2.4352
     2.4447   2.4518   2.4616   2.4737   2.4775   2.5129   2.5274   2.6358
     2.6448   2.7134   2.7401   2.7554   2.7623   2.7830   2.8030   2.8301
     2.8419   2.9033   2.9150   2.9317   3.0758   3.0889   3.1007   3.1340
     3.2044   3.5784   3.6708   4.2222   4.2429   4.3144   4.4732   5.2393
     5.7161   5.8107   6.4274   6.4299   6.5223   6.6094   6.8131   7.1420
     7.3547   7.3863   7.5311   7.8058   7.8156

          k = 0.2000 0.1155 0.0000 ( 42996 PWs)   bands (ev):

   -18.8459  -6.5148  -5.9191  -4.6455  -4.1539  -3.7891  -3.7450  -3.5750
    -3.5166  -3.4516  -3.4394  -3.3877  -3.2377  -3.1914  -3.1116  -3.0330
    -3.0251  -3.0102  -2.9335  -2.7286  -2.6158  -2.5970  -2.5799  -2.5716
    -2.5275  -2.4954  -2.4583  -2.4509  -2.4413  -2.3817  -2.3741  -2.3288
    -2.3022  -2.2331  -2.2123  -2.1962  -2.1847  -2.1674  -2.0046  -1.9906
    -1.9660  -1.9417  -1.9331  -1.7877  -1.6898  -1.6737  -1.6357  -1.5980
    -1.5786  -1.5709  -1.5022  -1.3979  -1.3743  -1.3392  -1.2812  -1.2697
    -1.2475  -1.1913  -1.0302  -0.9365  -0.9189  -0.9150  -0.8604  -0.8335
    -0.8000  -0.7387  -0.7251  -0.7128  -0.7060  -0.6881  -0.6462  -0.6193
    -0.6116  -0.5906  -0.5038  -0.4643  -0.4565  -0.4422  -0.3793  -0.3676
    -0.3599  -0.3236  -0.3082  -0.2937  -0.2217  -0.1806  -0.1742  -0.1692
    -0.1373  -0.1278  -0.1207  -0.0933  -0.0733  -0.0641  -0.0375   0.0112
     0.0349   0.0466   0.0804   0.0891   0.0949   0.1096   0.1725   0.2207
     0.2610   0.2780   0.3003   0.3096   0.3120   0.3179   0.3315   0.3675
     0.3831   0.3953   0.3999   0.4697   0.6250   0.7158   0.7742   0.7876
     0.8149   0.8237   0.8596   0.8657   0.8719   0.9999   1.0283   1.0319
     1.1046   1.1346   1.1598   1.2013   1.2647   1.2814   1.2887   1.2975
     1.3173   1.3770   1.3858   1.4048   1.4223   1.4537   1.5924   1.6276
     1.6342   1.6569   1.6731   1.6809   1.6912   1.7652   1.7922   1.8022
     1.8175   1.8359   1.8748   1.8831   1.9029   1.9158   2.0088   2.0269
     2.0423   2.0686   2.1455   2.1563   2.1793   2.1872   2.2059   2.2147
     2.2449   2.3087   2.3145   2.3333   2.3813   2.3998   2.4019   2.4161
     2.4403   2.4537   2.4594   2.4655   2.4917   2.5429   2.5589   2.6748
     2.6834   2.6942   2.7034   2.7091   2.7330   2.7540   2.7611   2.7993
     2.8154   2.9035   2.9197   2.9327   3.0783   3.0865   3.1085   3.1333
     3.2266   3.5209   3.6247   4.2217   4.2722   4.3393   4.4860   5.2792
     5.6726   5.7837   6.4267   6.4376   6.5008   6.6065   6.8431   7.1500
     7.3715   7.4021   7.5838   7.7756   7.8109

          k = 0.2000 0.3464 0.0000 ( 43046 PWs)   bands (ev):

   -18.8459  -6.5140  -5.6327  -4.4087  -4.4023  -4.3664  -3.3657  -3.3310
    -3.3214  -3.3106  -3.2905  -3.2842  -3.2744  -3.2538  -3.1525  -3.1418
    -3.0112  -2.7607  -2.7465  -2.7222  -2.7149  -2.6651  -2.6435  -2.5380
    -2.5167  -2.5039  -2.4961  -2.4921  -2.4358  -2.3625  -2.3597  -2.3487
    -2.3406  -2.2695  -2.2381  -2.2213  -2.1903  -2.1833  -2.0522  -1.8847
    -1.8362  -1.7714  -1.7490  -1.7286  -1.7096  -1.7002  -1.6867  -1.6273
    -1.6191  -1.5178  -1.4709  -1.4580  -1.4479  -1.3521  -1.3213  -1.2925
    -1.2765  -1.2384  -1.1768  -1.1594  -1.0296  -1.0252  -0.9920  -0.9711
    -0.9633  -0.8942  -0.8707  -0.8499  -0.8084  -0.7962  -0.6528  -0.6392
    -0.6267  -0.5838  -0.5762  -0.5585  -0.5206  -0.5098  -0.4553  -0.4309
    -0.4004  -0.3572  -0.3528  -0.3290  -0.3025  -0.2576  -0.2336  -0.2248
    -0.2041  -0.1671  -0.1540  -0.1174  -0.0700  -0.0585  -0.0447  -0.0284
     0.0335   0.0489   0.0739   0.0801   0.0879   0.1018   0.1211   0.1310
     0.1437   0.1510   0.1733   0.1998   0.2132   0.2306   0.3149   0.3629
     0.3784   0.4588   0.4672   0.4885   0.4991   0.6458   0.6530   0.7796
     0.8038   0.8361   0.8425   0.8568   0.8627   0.8798   0.9000   0.9182
     0.9539   0.9758   0.9843   0.9976   1.2006   1.2238   1.2358   1.2585
     1.2709   1.2925   1.3457   1.3645   1.4537   1.4665   1.4833   1.5383
     1.5436   1.6230   1.6449   1.6702   1.6909   1.7016   1.7429   1.7654
     1.7718   1.7798   1.7884   1.7970   1.8049   1.8215   1.8636   1.9632
     2.0175   2.0496   2.1665   2.1779   2.2053   2.3255   2.3363   2.3393
     2.3523   2.4355   2.4583   2.4820   2.4934   2.5059   2.5226   2.5345
     2.5627   2.5785   2.5826   2.6108   2.6289   2.6584   2.7299   2.7404
     2.7570   2.7691   2.7764   2.8369   2.9065   2.9552   2.9645   3.0440
     3.0804   3.0923   3.1398   3.2320   3.2491   3.6920   3.7718   3.7949
     4.2582   4.2768   4.2936   4.3669   4.9602   5.0283   5.1025   5.2242
     5.2595   5.3197   5.9178   6.3958   6.4184   6.4655   6.6863   6.9734
     7.1077   7.1981   7.2187   7.2457   7.2863

          k = 0.2000-0.5774 0.0000 ( 43014 PWs)   bands (ev):

   -18.8459  -6.5134  -5.1022  -5.0922  -4.4962  -3.8825  -3.8642  -3.3712
    -3.3114  -3.1963  -3.1655  -3.0999  -3.0501  -2.9986  -2.9354  -2.9200
    -2.8397  -2.8275  -2.8035  -2.7832  -2.7767  -2.7725  -2.7572  -2.6168
    -2.6020  -2.5926  -2.5861  -2.5229  -2.5015  -2.4124  -2.3688  -2.3360
    -2.2307  -2.2139  -2.2068  -2.1832  -2.1731  -2.1030  -2.0863  -1.9968
    -1.9692  -1.8276  -1.7764  -1.7503  -1.6604  -1.6362  -1.6043  -1.5735
    -1.5341  -1.4352  -1.3873  -1.3804  -1.3575  -1.3541  -1.3283  -1.3009
    -1.2628  -1.1746  -1.1658  -1.1487  -1.1410  -1.1403  -1.1118  -1.0786
    -1.0424  -1.0280  -0.9492  -0.9135  -0.8848  -0.8181  -0.7523  -0.7463
    -0.6703  -0.6530  -0.6330  -0.5997  -0.5695  -0.5442  -0.5386  -0.4977
    -0.4851  -0.4530  -0.4459  -0.4172  -0.3833  -0.3106  -0.2652  -0.2621
    -0.2491  -0.2269  -0.1349  -0.1182  -0.0881  -0.0595  -0.0358  -0.0083
     0.0049   0.0079   0.0247   0.0295   0.0573   0.0950   0.1126   0.1381
     0.1516   0.1643   0.1708   0.1751   0.1852   0.2133   0.2634   0.2758
     0.2923   0.4849   0.5176   0.5467   0.5742   0.6623   0.6886   0.6958
     0.7096   0.7361   0.7730   0.7943   0.8102   0.8282   0.8913   0.9121
     0.9679   0.9756   0.9959   1.0358   1.0803   1.1076   1.1702   1.2596
     1.3161   1.3336   1.3407   1.3498   1.4292   1.4458   1.4584   1.4845
     1.4916   1.5095   1.5279   1.5439   1.6384   1.6479   1.6675   1.7108
     1.7198   1.7434   1.7474   1.7814   1.8073   1.9142   2.0012   2.0360
     2.0839   2.0993   2.1474   2.1707   2.2464   2.2872   2.3008   2.3226
     2.4039   2.4388   2.4764   2.5163   2.5242   2.5310   2.5397   2.5700
     2.6019   2.6232   2.6770   2.7004   2.7172   2.7394   2.7524   2.7570
     2.8073   2.8561   2.9083   2.9340   2.9424   2.9685   2.9814   3.0306
     3.1056   3.1485   3.2801   4.1072   4.1145   4.2951   4.3264   4.4062
     4.4865   4.5113   4.5704   4.9251   5.1103   5.1315   5.5599   5.5804
     5.6426   5.6961   5.7469   5.8251   6.0118   6.0435   6.0785   6.4118
     6.5429   6.6036   6.9457   7.1914   7.2775

          k = 0.2000-0.3464 0.0000 ( 43046 PWs)   bands (ev):

   -18.8460  -6.5136  -5.6352  -4.4214  -4.4006  -4.3690  -3.3847  -3.3431
    -3.3241  -3.3107  -3.2955  -3.2620  -3.2499  -3.2417  -3.1501  -3.1413
    -3.0011  -2.7793  -2.7655  -2.7431  -2.7241  -2.6863  -2.6511  -2.5351
    -2.5093  -2.5029  -2.4973  -2.4851  -2.3787  -2.3573  -2.3481  -2.3390
    -2.3373  -2.2774  -2.2576  -2.2266  -2.1964  -2.1720  -2.1127  -1.8747
    -1.8206  -1.7551  -1.7444  -1.7239  -1.6991  -1.6859  -1.6616  -1.6452
    -1.6076  -1.5367  -1.4607  -1.4474  -1.4230  -1.3522  -1.3285  -1.2940
    -1.2608  -1.2341  -1.1806  -1.1713  -1.0214  -1.0042  -0.9900  -0.9026
    -0.8987  -0.8749  -0.8446  -0.8362  -0.8113  -0.7836  -0.7257  -0.6468
    -0.6244  -0.5995  -0.5655  -0.5505  -0.5416  -0.5209  -0.4778  -0.4189
    -0.3506  -0.3389  -0.3310  -0.3241  -0.3079  -0.2863  -0.2516  -0.2275
    -0.2175  -0.2084  -0.1767  -0.1330  -0.1147  -0.0840  -0.0472  -0.0184
     0.0217   0.0372   0.0460   0.0549   0.0921   0.1059   0.1155   0.1437
     0.1461   0.1627   0.1770   0.1914   0.2131   0.2261   0.3103   0.3552
     0.3923   0.4269   0.4563   0.4650   0.4995   0.6466   0.6675   0.7549
     0.7875   0.8088   0.8175   0.8528   0.8736   0.8884   0.9078   0.9268
     0.9575   0.9793   0.9990   1.0363   1.1640   1.1973   1.2534   1.2575
     1.2747   1.2949   1.3088   1.3608   1.4455   1.4607   1.4774   1.5268
     1.5476   1.5985   1.6655   1.6787   1.6830   1.7016   1.7540   1.7745
     1.7822   1.7934   1.7981   1.8150   1.8200   1.8379   1.8738   1.9472
     2.0158   2.0531   2.1512   2.1698   2.2028   2.3274   2.3381   2.3416
     2.3690   2.4399   2.4607   2.4799   2.4917   2.4968   2.5189   2.5369
     2.5387   2.5522   2.5692   2.5998   2.6462   2.6683   2.6819   2.7214
     2.7589   2.7766   2.7905   2.8323   2.9691   2.9839   3.0303   3.0634
     3.0757   3.0897   3.1651   3.2160   3.2388   3.6702   3.7492   3.7858
     4.2765   4.3073   4.3360   4.3875   4.9426   5.0121   5.0923   5.2335
     5.2610   5.3310   5.9235   6.4231   6.4409   6.4820   6.6530   6.9596
     7.0879   7.1851   7.2283   7.2353   7.3105

          k = 0.4000-0.2309 0.0000 ( 43046 PWs)   bands (ev):

   -18.8460  -6.5131  -5.5002  -4.8708  -4.2431  -3.7895  -3.7814  -3.6910
    -3.4621  -3.2794  -3.1926  -3.1456  -3.0859  -3.0466  -3.0060  -2.9195
    -2.9108  -2.8616  -2.8514  -2.8216  -2.7568  -2.6727  -2.6640  -2.6438
    -2.6345  -2.6070  -2.5945  -2.5076  -2.4858  -2.4819  -2.2602  -2.2297
    -2.2173  -2.2156  -2.1974  -2.1844  -2.0293  -1.9738  -1.9564  -1.9485
    -1.9272  -1.9097  -1.7723  -1.7144  -1.6622  -1.6363  -1.6301  -1.6191
    -1.5808  -1.5352  -1.5025  -1.4789  -1.4512  -1.4464  -1.3881  -1.2626
    -1.2510  -1.2461  -1.2325  -1.1093  -1.0582  -1.0385  -1.0233  -1.0043
    -0.9046  -0.8627  -0.8586  -0.8446  -0.8159  -0.7646  -0.7333  -0.6828
    -0.6675  -0.6361  -0.6177  -0.5949  -0.4823  -0.4676  -0.4456  -0.4357
    -0.4292  -0.3727  -0.3655  -0.3414  -0.3351  -0.3292  -0.3186  -0.3055
    -0.2916  -0.2682  -0.1915  -0.1625  -0.1554  -0.1488  -0.1251  -0.1017
    -0.0653  -0.0448   0.0148   0.0190   0.0301   0.1000   0.1037   0.1204
     0.1328   0.1525   0.2657   0.3147   0.3280   0.3659   0.3824   0.3967
     0.5229   0.5356   0.6173   0.6292   0.6826   0.6930   0.7230   0.7430
     0.7535   0.8085   0.8125   0.8311   0.8450   0.8550   0.8842   0.8888
     0.8952   0.9011   0.9253   1.0056   1.0446   1.0635   1.0986   1.1087
     1.1820   1.2570   1.2719   1.2817   1.4117   1.4234   1.5268   1.5588
     1.5779   1.6006   1.6030   1.6110   1.6903   1.7060   1.7392   1.7492
     1.8004   1.8086   1.8420   1.9127   1.9306   1.9510   1.9565   1.9691
     1.9870   2.0091   2.1343   2.1737   2.2045   2.2169   2.2307   2.2432
     2.3208   2.3457   2.3525   2.4232   2.4383   2.4404   2.4798   2.4988
     2.5112   2.5618   2.5859   2.6810   2.6918   2.7059   2.7144   2.7495
     2.7647   2.7743   2.7897   2.9061   2.9751   2.9922   2.9966   3.0305
     3.1261   3.1628   3.5759   3.5913   3.6528   3.8547   4.0011   4.0077
     4.3799   4.3987   4.5506   4.7760   5.2176   5.2233   5.2659   5.3083
     5.4353   5.4889   5.6246   5.7204   5.8603   5.8892   6.3691   6.5928
     6.9846   7.0383   7.4218   7.4653   7.5783

          k = 0.4000-0.0000 0.0000 ( 43046 PWs)   bands (ev):

   -18.8460  -6.5136  -5.6356  -4.4215  -4.4023  -4.3697  -3.3838  -3.3433
    -3.3267  -3.3176  -3.2997  -3.2636  -3.2480  -3.2277  -3.1546  -3.1393
    -3.0017  -2.7810  -2.7698  -2.7407  -2.7229  -2.6947  -2.6510  -2.5345
    -2.5150  -2.4993  -2.4936  -2.4897  -2.3682  -2.3555  -2.3488  -2.3431
    -2.3269  -2.2785  -2.2537  -2.2299  -2.1948  -2.1727  -2.1244  -1.8653
    -1.8077  -1.7485  -1.7391  -1.7170  -1.7031  -1.6896  -1.6589  -1.6497
    -1.6175  -1.5538  -1.4644  -1.4467  -1.4004  -1.3517  -1.3289  -1.2870
    -1.2638  -1.2331  -1.1872  -1.1675  -1.0150  -0.9920  -0.9799  -0.8976
    -0.8821  -0.8680  -0.8454  -0.8352  -0.8110  -0.7874  -0.7340  -0.6459
    -0.6313  -0.6056  -0.5806  -0.5594  -0.5354  -0.5197  -0.4725  -0.4292
    -0.3513  -0.3323  -0.3278  -0.3144  -0.3032  -0.2906  -0.2501  -0.2311
    -0.2224  -0.2115  -0.1750  -0.1564  -0.1189  -0.0755  -0.0458  -0.0169
     0.0104   0.0259   0.0366   0.0549   0.0947   0.1050   0.1113   0.1349
     0.1523   0.1640   0.1744   0.2029   0.2119   0.2167   0.3137   0.3574
     0.3873   0.4265   0.4563   0.4618   0.5016   0.6529   0.6704   0.7406
     0.7915   0.8063   0.8211   0.8521   0.8675   0.8906   0.9179   0.9317
     0.9608   0.9823   0.9974   1.0488   1.1582   1.1963   1.2464   1.2594
     1.2758   1.2836   1.3170   1.3557   1.4439   1.4619   1.4822   1.5251
     1.5412   1.5919   1.6529   1.6718   1.6844   1.7074   1.7563   1.7756
     1.7864   1.7915   1.7995   1.8198   1.8211   1.8450   1.8605   1.9622
     2.0162   2.0428   2.1504   2.1630   2.2140   2.3307   2.3371   2.3430
     2.3839   2.4318   2.4518   2.4793   2.4924   2.4965   2.5215   2.5339
     2.5404   2.5504   2.5662   2.5760   2.6284   2.6811   2.6917   2.7128
     2.7601   2.7711   2.7791   2.8180   2.9866   3.0050   3.0414   3.0672
     3.0755   3.0949   3.1860   3.2103   3.2427   3.6657   3.7468   3.7706
     4.2901   4.3187   4.3332   4.3999   4.9407   5.0075   5.0994   5.2346
     5.2536   5.3256   5.9244   6.4218   6.4442   6.5136   6.6494   6.9735
     7.0734   7.1341   7.2165   7.2373   7.3217

          k = 0.4000 0.2309 0.0000 ( 43046 PWs)   bands (ev):

   -18.8460  -6.5137  -5.4962  -4.8594  -4.2394  -3.8110  -3.7883  -3.6839
    -3.4201  -3.2800  -3.1807  -3.1432  -3.1128  -3.0574  -3.0393  -2.8963
    -2.8661  -2.8529  -2.8457  -2.8175  -2.7336  -2.6912  -2.6809  -2.6444
    -2.6148  -2.5983  -2.5652  -2.5088  -2.5012  -2.4861  -2.2538  -2.2414
    -2.2341  -2.2280  -2.2204  -2.2037  -2.0258  -1.9829  -1.9683  -1.9562
    -1.9464  -1.9261  -1.7885  -1.7032  -1.6601  -1.6465  -1.6224  -1.6092
    -1.5787  -1.5431  -1.5125  -1.4866  -1.4525  -1.4405  -1.3866  -1.2938
    -1.2689  -1.2618  -1.2279  -1.1398  -1.1128  -1.0934  -1.0552  -1.0294
    -0.9155  -0.8720  -0.8421  -0.8305  -0.8123  -0.7698  -0.7531  -0.6897
    -0.6249  -0.6076  -0.5678  -0.5059  -0.4941  -0.4886  -0.4650  -0.4420
    -0.4193  -0.4116  -0.3763  -0.3613  -0.3465  -0.3391  -0.3210  -0.2909
    -0.2734  -0.2401  -0.2174  -0.1807  -0.1703  -0.1558  -0.1478  -0.1064
    -0.0454   0.0144   0.0217   0.0680   0.0879   0.1068   0.1290   0.1782
     0.1882   0.2006   0.2777   0.2995   0.3189   0.3674   0.3879   0.3959
     0.5277   0.5491   0.5558   0.6403   0.6875   0.7079   0.7311   0.7446
     0.7516   0.7664   0.7723   0.8335   0.8547   0.8686   0.8887   0.9088
     0.9206   0.9324   0.9499   0.9687   1.0232   1.1032   1.1266   1.1363
     1.1887   1.2600   1.3084   1.3160   1.4100   1.4295   1.4842   1.5222
     1.5871   1.5985   1.6363   1.6406   1.6545   1.6998   1.7347   1.7454
     1.7660   1.7845   1.8412   1.8839   1.9210   1.9448   1.9513   1.9654
     1.9791   2.0616   2.1424   2.1714   2.2108   2.2218   2.2484   2.2554
     2.3372   2.3481   2.3597   2.4335   2.4504   2.4636   2.4861   2.5184
     2.5477   2.5648   2.5943   2.6639   2.6795   2.6946   2.7024   2.7126
     2.7244   2.7276   2.8267   2.9136   2.9184   2.9230   2.9790   3.0076
     3.1316   3.1692   3.5279   3.5916   3.6532   3.8829   3.9997   4.0115
     4.3722   4.4133   4.5873   4.7143   5.2068   5.2137   5.2280   5.3135
     5.4640   5.5068   5.5781   5.6890   5.8588   5.8963   6.4317   6.4944
     7.0117   7.0718   7.4087   7.4705   7.5881

          k = 0.4000-0.6928 0.0000 ( 43014 PWs)   bands (ev):

   -18.8459  -6.5133  -5.1010  -5.0953  -4.4947  -3.8820  -3.8666  -3.3728
    -3.3197  -3.2003  -3.1631  -3.0919  -3.0388  -3.0063  -2.9458  -2.9187
    -2.8401  -2.8248  -2.8124  -2.7818  -2.7752  -2.7687  -2.7578  -2.6109
    -2.6058  -2.5971  -2.5932  -2.5182  -2.5012  -2.4182  -2.3637  -2.3308
    -2.2322  -2.2105  -2.2072  -2.1819  -2.1628  -2.0965  -2.0845  -1.9954
    -1.9668  -1.8262  -1.7715  -1.7447  -1.6878  -1.6314  -1.6002  -1.5742
    -1.5354  -1.4434  -1.3887  -1.3843  -1.3618  -1.3346  -1.3064  -1.2921
    -1.2616  -1.1747  -1.1699  -1.1494  -1.1436  -1.1344  -1.1102  -1.0787
    -1.0413  -1.0286  -0.9461  -0.9153  -0.8884  -0.8028  -0.7527  -0.7408
    -0.6839  -0.6635  -0.6250  -0.6038  -0.5793  -0.5551  -0.5402  -0.5036
    -0.4805  -0.4520  -0.4374  -0.4127  -0.3904  -0.3042  -0.2644  -0.2611
    -0.2436  -0.2346  -0.1407  -0.1102  -0.0881  -0.0626  -0.0333  -0.0140
    -0.0086   0.0083   0.0137   0.0373   0.0806   0.0865   0.1044   0.1417
     0.1557   0.1651   0.1734   0.1754   0.1772   0.1993   0.2599   0.2689
     0.2790   0.4840   0.5077   0.5564   0.5696   0.6648   0.6952   0.7030
     0.7104   0.7515   0.7698   0.7895   0.8105   0.8359   0.8893   0.9036
     0.9718   0.9838   0.9968   1.0349   1.0755   1.1017   1.1642   1.2595
     1.3227   1.3285   1.3439   1.3531   1.4277   1.4389   1.4534   1.4746
     1.4914   1.5155   1.5248   1.5566   1.6451   1.6565   1.6747   1.7136
     1.7198   1.7301   1.7371   1.7783   1.8098   1.9135   1.9849   2.0336
     2.0872   2.0873   2.1512   2.1827   2.2521   2.2912   2.3046   2.3265
     2.4054   2.4295   2.4700   2.5104   2.5219   2.5269   2.5313   2.5591
     2.6111   2.6346   2.6748   2.6963   2.7182   2.7346   2.7399   2.7575
     2.8068   2.8461   2.9097   2.9310   2.9369   2.9796   3.0045   3.0351
     3.1270   3.1540   3.2821   4.1074   4.1147   4.2955   4.3228   4.4152
     4.4907   4.5162   4.5365   4.9398   5.1095   5.1390   5.5602   5.5823
     5.6202   5.6962   5.7490   5.8800   5.9992   6.0193   6.1049   6.4329
     6.5356   6.5946   6.9477   7.1738   7.2716

          k = 0.4000-0.4619 0.0000 ( 43014 PWs)   bands (ev):

   -18.8459  -6.5130  -5.1070  -5.1006  -4.4851  -3.8850  -3.8728  -3.3690
    -3.3510  -3.1972  -3.1531  -3.0822  -3.0300  -3.0030  -2.9487  -2.9397
    -2.8520  -2.8365  -2.7993  -2.7927  -2.7720  -2.7516  -2.7454  -2.6608
    -2.6051  -2.5976  -2.5715  -2.5567  -2.4998  -2.4176  -2.3409  -2.3071
    -2.2190  -2.2144  -2.2025  -2.1949  -2.1390  -2.0924  -2.0823  -1.9598
    -1.9395  -1.8397  -1.7650  -1.7479  -1.7086  -1.6365  -1.6013  -1.5849
    -1.5315  -1.4609  -1.4122  -1.3925  -1.3643  -1.3268  -1.2666  -1.2402
    -1.2390  -1.1607  -1.1525  -1.1355  -1.1210  -1.1160  -1.1081  -1.0785
    -1.0491  -1.0327  -0.9178  -0.8944  -0.8454  -0.8225  -0.7691  -0.7245
    -0.7123  -0.6658  -0.6588  -0.6351  -0.6208  -0.5649  -0.5222  -0.5077
    -0.4727  -0.4584  -0.4369  -0.3787  -0.3536  -0.3465  -0.2812  -0.2570
    -0.2071  -0.2035  -0.1941  -0.0862  -0.0673  -0.0496  -0.0411  -0.0226
    -0.0134  -0.0095  -0.0067   0.0107   0.0202   0.0598   0.0715   0.1005
     0.1359   0.1519   0.1671   0.1738   0.2241   0.2353   0.2396   0.2707
     0.2904   0.4290   0.4835   0.5567   0.5729   0.6671   0.6766   0.6845
     0.7386   0.7665   0.7735   0.7790   0.8324   0.8641   0.8920   0.9104
     0.9375   0.9875   1.0134   1.0463   1.0577   1.0775   1.1369   1.2520
     1.3176   1.3202   1.3587   1.3641   1.4200   1.4504   1.4634   1.4731
     1.4959   1.5089   1.5292   1.5483   1.6579   1.6643   1.6872   1.7151
     1.7225   1.7359   1.7496   1.7606   1.8037   1.9270   1.9353   2.0078
     2.0764   2.0981   2.1756   2.1888   2.2585   2.2900   2.3117   2.3364
     2.3990   2.4260   2.4616   2.4869   2.5037   2.5195   2.5324   2.5671
     2.5908   2.6580   2.6676   2.6943   2.7047   2.7375   2.7493   2.7542
     2.7982   2.8312   2.9223   2.9780   2.9839   2.9948   3.0158   3.0354
     3.1436   3.1859   3.2693   4.1105   4.1138   4.2466   4.3390   4.4383
     4.4727   4.4972   4.5215   4.9773   5.1256   5.1388   5.5505   5.5913
     5.6201   5.7049   5.7224   5.9501   6.0140   6.0737   6.1283   6.4560
     6.5168   6.5522   6.9841   7.1525   7.1722

     the Fermi energy is     2.7177 ev

!    total energy              =  -27799.21501401 Ry
     total all-electron energy =  -1326794.827321 Ry
     estimated scf accuracy    <       0.00000083 Ry
     smearing contrib. (-TS)   =       0.00004874 Ry
     internal energy E=F+TS    =  -27799.21506274 Ry

     The total energy is F=E-TS. E is the sum of the following terms:
     one-electron contribution =  -20651.17736496 Ry
     hartree contribution      =   10639.04955385 Ry
     xc contribution           =    -899.25399615 Ry
     ewald contribution        =    8596.27516947 Ry
     one-center paw contrib.   =  -25484.10842495 Ry

     convergence has been achieved in  19 iterations

     negative rho (up, down):  2.939E-03 0.000E+00

     Forces acting on atoms (cartesian axes, Ry/au):

     atom    1 type  1   force =     0.00176654   -0.00107580   -0.00925590
     atom    2 type  1   force =     0.00121204   -0.00131492   -0.00533281
     atom    3 type  1   force =     0.00245265   -0.00137877   -0.00522073
     atom    4 type  1   force =     0.00161740   -0.00142197   -0.00605144
     atom    5 type  1   force =     0.00192626   -0.00135533   -0.00543498
     atom    6 type  1   force =     0.00230249   -0.00150993   -0.00607359
     atom    7 type  1   force =     0.00236370   -0.00118554   -0.00490253
     atom    8 type  1   force =     0.00125912   -0.00093502   -0.00466629
     atom    9 type  1   force =     0.00191534   -0.00157264   -0.00510368
     atom   10 type  1   force =    -0.00184694    0.00093593    0.00198098
     atom   11 type  1   force =    -0.00200383    0.00298809    0.00379150
     atom   12 type  1   force =    -0.00154677    0.00128227    0.00240489
     atom   13 type  1   force =    -0.00072474    0.00120563    0.00617795
     atom   14 type  1   force =    -0.00318231    0.00103249    0.00556953
     atom   15 type  1   force =    -0.00128912    0.00206071    0.00427802
     atom   16 type  1   force =    -0.00140981   -0.00087509    0.00756755
     atom   17 type  1   force =    -0.00127262    0.00132861    0.00288611
     atom   18 type  1   force =    -0.00247161    0.00072562    0.00453820
     atom   19 type  1   force =    -0.00016128   -0.00017816    0.00004053
     atom   20 type  1   force =     0.00001001   -0.00013094   -0.00034208
     atom   21 type  1   force =    -0.00001381   -0.00001655   -0.00046627
     atom   22 type  1   force =    -0.00002549   -0.00024392    0.00000605
     atom   23 type  1   force =     0.00016544    0.00028885   -0.00092003
     atom   24 type  1   force =    -0.00034731   -0.00022279    0.00016357
     atom   25 type  1   force =     0.00034356   -0.00029346   -0.00049343
     atom   26 type  1   force =     0.00005646   -0.00003982    0.00026874
     atom   27 type  1   force =    -0.00026208   -0.00052674   -0.00040751
     atom   28 type  1   force =     0.00010845   -0.00031925    0.00002296
     atom   29 type  1   force =     0.00036662    0.00005816    0.00014626
     atom   30 type  1   force =     0.00007845   -0.00071288   -0.00281161
     atom   31 type  1   force =    -0.00003176   -0.00026991    0.00011853
     atom   32 type  1   force =    -0.00011897   -0.00061292   -0.00127366
     atom   33 type  1   force =    -0.00016840   -0.00023165    0.00014783
     atom   34 type  1   force =     0.00018722   -0.00072705   -0.00040846
     atom   35 type  1   force =    -0.00014043   -0.00015266    0.00010302
     atom   36 type  1   force =    -0.00013762   -0.00040802    0.00005591
     atom   37 type  2   force =     0.00030169    0.00059441    0.00532379
     atom   38 type  3   force =     0.00204012   -0.00025288    0.00318830
     atom   39 type  3   force =    -0.00331868    0.00546386    0.01038479
     The non-local contrib.  to forces
     atom    1 type  1   force =     0.00044181   -0.00104174   -0.01584371
     atom    2 type  1   force =    -0.00016960   -0.00001553   -0.01900824
     atom    3 type  1   force =    -0.00008818   -0.00007858   -0.01805580
     atom    4 type  1   force =    -0.00015160    0.00054489   -0.01980695
     atom    5 type  1   force =     0.00010775    0.00018057   -0.01822579
     atom    6 type  1   force =    -0.00000122    0.00067460   -0.01952908
     atom    7 type  1   force =    -0.00011541    0.00021938   -0.01939403
     atom    8 type  1   force =    -0.00023352    0.00060633   -0.01925561
     atom    9 type  1   force =    -0.00008219   -0.00009093   -0.02073420
     atom   10 type  1   force =    -0.00238552    0.00146084   -0.00111641
     atom   11 type  1   force =    -0.00280650    0.00305533    0.00072051
     atom   12 type  1   force =    -0.00248147    0.00163009   -0.00108067
     atom   13 type  1   force =    -0.00189911    0.00179714    0.00215967
     atom   14 type  1   force =    -0.00358959    0.00148246    0.00211145
     atom   15 type  1   force =    -0.00218538    0.00194068    0.00018694
     atom   16 type  1   force =    -0.00277122    0.00209544   -0.00020896
     atom   17 type  1   force =    -0.00243347    0.00281356   -0.00071465
     atom   18 type  1   force =    -0.00239502    0.00242334   -0.00059547
     atom   19 type  1   force =    -0.00019165    0.00061378    0.00543466
     atom   20 type  1   force =    -0.00303849   -0.00229929   -0.00203057
     atom   21 type  1   force =     0.00059195   -0.00039523    0.00056271
     atom   22 type  1   force =     0.00013628   -0.00042175    0.00285757
     atom   23 type  1   force =     0.00132420    0.01095613   -0.01002343
     atom   24 type  1   force =     0.00009533   -0.00003851    0.00312300
     atom   25 type  1   force =    -0.00151610    0.00024391    0.00712911
     atom   26 type  1   force =     0.00175362    0.00026043    0.00661192
     atom   27 type  1   force =    -0.00034150   -0.00084442    0.00218337
     atom   28 type  1   force =     0.00390662   -0.00365165    0.01354333
     atom   29 type  1   force =     0.01226258    0.01146104    0.02284840
     atom   30 type  1   force =    -0.00791940    0.01616813    0.00659633
     atom   31 type  1   force =     0.01212858   -0.00363766    0.02146013
     atom   32 type  1   force =     0.01565041   -0.03278043    0.06772053
     atom   33 type  1   force =    -0.01041081   -0.00531266    0.01673824
     atom   34 type  1   force =     0.00707419   -0.00972241    0.01616869
     atom   35 type  1   force =    -0.00174228   -0.00761072    0.01322034
     atom   36 type  1   force =     0.00289456   -0.00222008    0.01583326
     atom   37 type  2   force =     2.37494922   -0.11054230   -0.27662453
     atom   38 type  3   force =    -0.07835484   -0.07560603   -0.03482101
     atom   39 type  3   force =    -0.04879775    0.08803087    0.03210039
     The ionic contribution  to forces
     atom    1 type  1   force =    -0.00087804   -0.00436397  -94.25717881
     atom    2 type  1   force =     0.00090835   -0.00135722  -94.25553277
     atom    3 type  1   force =    -0.00037473   -0.00265830  -94.25395420
     atom    4 type  1   force =     0.00223965    0.01029677  -94.24541428
     atom    5 type  1   force =    -0.00052840    0.01126560  -94.24187008
     atom    6 type  1   force =    -0.00200556    0.00853498  -94.24685160
     atom    7 type  1   force =     0.00200940   -0.00773339  -94.23543480
     atom    8 type  1   force =    -0.00425082   -0.00776272  -94.23856134
     atom    9 type  1   force =     0.00189990   -0.00553164  -94.24195884
     atom   10 type  1   force =    -0.01134389    0.04697579  -33.18087069
     atom   11 type  1   force =    -0.02940449    0.04397271  -33.17865231
     atom   12 type  1   force =    -0.04909999    0.04209273  -33.17771740
     atom   13 type  1   force =    -0.01579898    0.10941335  -33.09794269
     atom   14 type  1   force =    -0.07023027    0.09164232  -33.09115728
     atom   15 type  1   force =    -0.01347424    0.07615290  -33.09238282
     atom   16 type  1   force =    -0.03755792   -0.12048616  -33.11280380
     atom   17 type  1   force =    -0.02829476   -0.02175024  -33.15606441
     atom   18 type  1   force =    -0.02835740   -0.03716786  -33.13014709
     atom   19 type  1   force =     0.03706517    0.02377812   28.59582395
     atom   20 type  1   force =    -0.19840965   -0.08526262   28.43118883
     atom   21 type  1   force =     0.14057181   -0.03427175   28.38446506
     atom   22 type  1   force =    -0.08523990    0.01747697   28.95242869
     atom   23 type  1   force =     0.04362509    0.37929997   28.94489615
     atom   24 type  1   force =     0.08950072    0.05089669   28.71021476
     atom   25 type  1   force =     0.07015690   -0.07003157   28.52271976
     atom   26 type  1   force =    -0.05562312   -0.05099510   28.53403334
     atom   27 type  1   force =    -0.01201369   -0.17978448   28.48025689
     atom   28 type  1   force =     0.31906433   -0.09870715   90.76980220
     atom   29 type  1   force =    -0.88318588   -0.72989915   88.99064101
     atom   30 type  1   force =     0.73766019   -1.15080905   88.22121478
     atom   31 type  1   force =    -0.70348937    0.03819398   90.22409695
     atom   32 type  1   force =    -0.69070173    0.95827807   85.32710303
     atom   33 type  1   force =     1.25676399    0.20810192   89.25513435
     atom   34 type  1   force =    -0.22211440    0.36979759   90.79904926
     atom   35 type  1   force =     0.27579219    0.83143271   90.41171395
     atom   36 type  1   force =     0.03932634   -0.31711735   90.95009823
     atom   37 type  2   force =    -4.06156543    0.12614207   63.02121759
     atom   38 type  3   force =     2.55601414    2.44907247   11.15478510
     atom   39 type  3   force =     1.63134448   -2.96712798    9.75361129
     The local contribution  to forces
     atom    1 type  1   force =     0.00222596    0.00438360   94.24674230
     atom    2 type  1   force =     0.00056721   -0.00007942   94.25229719
     atom    3 type  1   force =     0.00285160    0.00125063   94.24981945
     atom    4 type  1   force =    -0.00041153   -0.01213547   94.24232930
     atom    5 type  1   force =     0.00231902   -0.01265820   94.23775696
     atom    6 type  1   force =     0.00437251   -0.01055149   94.24345614
     atom    7 type  1   force =     0.00049265    0.00611139   94.23310117
     atom    8 type  1   force =     0.00589607    0.00602460   94.23623109
     atom    9 type  1   force =     0.00012476    0.00391897   94.24087183
     atom   10 type  1   force =     0.01194424   -0.04712917   33.18243706
     atom   11 type  1   force =     0.03005507   -0.04400567   33.18032491
     atom   12 type  1   force =     0.04962948   -0.04213849   33.17980065
     atom   13 type  1   force =     0.01664124   -0.10943517   33.10060877
     atom   14 type  1   force =     0.07051468   -0.09156823   33.09335160
     atom   15 type  1   force =     0.01419495   -0.07532026   33.09527101
     atom   16 type  1   force =     0.03871485    0.11664817   33.11935220
     atom   17 type  1   force =     0.02953256    0.02006230   33.15828783
     atom   18 type  1   force =     0.02776943    0.03525849   33.13410621
     atom   19 type  1   force =    -0.03721067   -0.02428930  -28.60017702
     atom   20 type  1   force =     0.20150293    0.08692026  -28.42852227
     atom   21 type  1   force =    -0.14109343    0.03434028  -28.38440288
     atom   22 type  1   force =     0.08476327   -0.01714273  -28.95455241
     atom   23 type  1   force =    -0.04436445   -0.38900327  -28.93599634
     atom   24 type  1   force =    -0.08961317   -0.05100238  -28.71236437
     atom   25 type  1   force =    -0.06884567    0.06959827  -28.52932378
     atom   26 type  1   force =     0.05421850    0.05053502  -28.53956222
     atom   27 type  1   force =     0.01231616    0.17973055  -28.48196331
     atom   28 type  1   force =    -0.32277699    0.10211984  -90.76766856
     atom   29 type  1   force =     0.87212084    0.71951617  -88.99763896
     atom   30 type  1   force =    -0.73005320    1.13472873  -88.21695883
     atom   31 type  1   force =     0.69201743   -0.03503635  -90.22950500
     atom   32 type  1   force =     0.67380363   -0.92635045  -85.38768783
     atom   33 type  1   force =    -1.24724097   -0.20348037  -89.25663998
     atom   34 type  1   force =     0.21526280   -0.36126939  -90.79993324
     atom   35 type  1   force =    -0.27406756   -0.82409981  -90.40921283
     atom   36 type  1   force =    -0.04224695    0.31896549  -90.95045047
     atom   37 type  2   force =     1.70807078   -0.01576070  -62.74156470
     atom   38 type  3   force =    -2.47557369   -2.37369035  -11.11663505
     atom   39 type  3   force =    -1.58582675    2.88449231   -9.77524137
     The core correction contribution to forces
     atom    1 type  1   force =     0.00000620   -0.00009826    0.01717510
     atom    2 type  1   force =    -0.00005575    0.00004023    0.01717098
     atom    3 type  1   force =     0.00001317    0.00002888    0.01723614
     atom    4 type  1   force =    -0.00005186    0.00008426    0.01713613
     atom    5 type  1   force =     0.00000250    0.00001412    0.01718734
     atom    6 type  1   force =    -0.00003215    0.00005827    0.01715117
     atom    7 type  1   force =    -0.00006334    0.00006015    0.01714618
     atom    8 type  1   force =    -0.00006949    0.00008736    0.01722458
     atom    9 type  1   force =    -0.00005294    0.00001622    0.01711959
     atom   10 type  1   force =     0.00002388   -0.00027769    0.00114210
     atom   11 type  1   force =     0.00018365   -0.00012499    0.00114986
     atom   12 type  1   force =     0.00030300   -0.00022051    0.00113676
     atom   13 type  1   force =     0.00020532   -0.00044543    0.00085864
     atom   14 type  1   force =     0.00027383   -0.00040393    0.00086015
     atom   15 type  1   force =     0.00016900   -0.00036058    0.00090917
     atom   16 type  1   force =     0.00020336    0.00068166    0.00079598
     atom   17 type  1   force =     0.00016747   -0.00006663    0.00116286
     atom   18 type  1   force =     0.00028494   -0.00002064    0.00100094
     atom   19 type  1   force =     0.00003879   -0.00005273   -0.00186247
     atom   20 type  1   force =    -0.00002423    0.00040372   -0.00193266
     atom   21 type  1   force =     0.00004615    0.00011655   -0.00195677
     atom   22 type  1   force =    -0.00004314    0.00009684   -0.00174188
     atom   23 type  1   force =    -0.00038456   -0.00090149   -0.00085883
     atom   24 type  1   force =     0.00000492    0.00007095   -0.00180147
     atom   25 type  1   force =     0.00019858   -0.00008777   -0.00180426
     atom   26 type  1   force =    -0.00004547    0.00003527   -0.00165622
     atom   27 type  1   force =    -0.00011013    0.00009031   -0.00172600
     atom   28 type  1   force =    -0.00020883   -0.00004609   -0.01600790
     atom   29 type  1   force =    -0.00072093   -0.00128136   -0.01620029
     atom   30 type  1   force =     0.00041246   -0.00103352   -0.01424854
     atom   31 type  1   force =    -0.00093574    0.00031142   -0.01633905
     atom   32 type  1   force =     0.00119610    0.00014255   -0.00901391
     atom   33 type  1   force =     0.00089774    0.00047867   -0.01560318
     atom   34 type  1   force =    -0.00033241    0.00072902   -0.01611639
     atom   35 type  1   force =     0.00014944    0.00025969   -0.01600794
     atom   36 type  1   force =    -0.00007427    0.00005711   -0.01601511
     atom   37 type  2   force =    -0.02117637    0.00067474    0.00251568
     atom   38 type  3   force =     0.00000000    0.00000000    0.00000000
     atom   39 type  3   force =     0.00000000    0.00000000    0.00000000
     The Hubbard contrib.    to forces
     atom    1 type  1   force =     0.00000000    0.00000000    0.00000000
     atom    2 type  1   force =     0.00000000    0.00000000    0.00000000
     atom    3 type  1   force =     0.00000000    0.00000000    0.00000000
     atom    4 type  1   force =     0.00000000    0.00000000    0.00000000
     atom    5 type  1   force =     0.00000000    0.00000000    0.00000000
     atom    6 type  1   force =     0.00000000    0.00000000    0.00000000
     atom    7 type  1   force =     0.00000000    0.00000000    0.00000000
     atom    8 type  1   force =     0.00000000    0.00000000    0.00000000
     atom    9 type  1   force =     0.00000000    0.00000000    0.00000000
     atom   10 type  1   force =     0.00000000    0.00000000    0.00000000
     atom   11 type  1   force =     0.00000000    0.00000000    0.00000000
     atom   12 type  1   force =     0.00000000    0.00000000    0.00000000
     atom   13 type  1   force =     0.00000000    0.00000000    0.00000000
     atom   14 type  1   force =     0.00000000    0.00000000    0.00000000
     atom   15 type  1   force =     0.00000000    0.00000000    0.00000000
     atom   16 type  1   force =     0.00000000    0.00000000    0.00000000
     atom   17 type  1   force =     0.00000000    0.00000000    0.00000000
     atom   18 type  1   force =     0.00000000    0.00000000    0.00000000
     atom   19 type  1   force =     0.00000000    0.00000000    0.00000000
     atom   20 type  1   force =     0.00000000    0.00000000    0.00000000
     atom   21 type  1   force =     0.00000000    0.00000000    0.00000000
     atom   22 type  1   force =     0.00000000    0.00000000    0.00000000
     atom   23 type  1   force =     0.00000000    0.00000000    0.00000000
     atom   24 type  1   force =     0.00000000    0.00000000    0.00000000
     atom   25 type  1   force =     0.00000000    0.00000000    0.00000000
     atom   26 type  1   force =     0.00000000    0.00000000    0.00000000
     atom   27 type  1   force =     0.00000000    0.00000000    0.00000000
     atom   28 type  1   force =     0.00000000    0.00000000    0.00000000
     atom   29 type  1   force =     0.00000000    0.00000000    0.00000000
     atom   30 type  1   force =     0.00000000    0.00000000    0.00000000
     atom   31 type  1   force =     0.00000000    0.00000000    0.00000000
     atom   32 type  1   force =     0.00000000    0.00000000    0.00000000
     atom   33 type  1   force =     0.00000000    0.00000000    0.00000000
     atom   34 type  1   force =     0.00000000    0.00000000    0.00000000
     atom   35 type  1   force =     0.00000000    0.00000000    0.00000000
     atom   36 type  1   force =     0.00000000    0.00000000    0.00000000
     atom   37 type  2   force =     0.00000000    0.00000000    0.00000000
     atom   38 type  3   force =     0.00000000    0.00000000    0.00000000
     atom   39 type  3   force =     0.00000000    0.00000000    0.00000000
     The SCF correction term to forces
     atom    1 type  1   force =    -0.00000000    0.00000000   -0.00000000
     atom    2 type  1   force =    -0.00000000    0.00000000   -0.00000000
     atom    3 type  1   force =     0.00000000    0.00000000   -0.00000000
     atom    4 type  1   force =    -0.00000000   -0.00000000   -0.00000000
     atom    5 type  1   force =     0.00000000   -0.00000000   -0.00000000
     atom    6 type  1   force =    -0.00000000   -0.00000000   -0.00000000
     atom    7 type  1   force =     0.00000000    0.00000000   -0.00000000
     atom    8 type  1   force =    -0.00000000    0.00000000   -0.00000000
     atom    9 type  1   force =     0.00000000    0.00000000   -0.00000000
     atom   10 type  1   force =    -0.00000000   -0.00000000    0.00000000
     atom   11 type  1   force =    -0.00000000    0.00000000    0.00000000
     atom   12 type  1   force =     0.00000000   -0.00000000    0.00000000
     atom   13 type  1   force =     0.00000000   -0.00000000    0.00000000
     atom   14 type  1   force =    -0.00000000   -0.00000000    0.00000000
     atom   15 type  1   force =     0.00000000   -0.00000000    0.00000000
     atom   16 type  1   force =     0.00000000    0.00000000    0.00000000
     atom   17 type  1   force =    -0.00000000    0.00000000    0.00000000
     atom   18 type  1   force =     0.00000000    0.00000000    0.00000000
     atom   19 type  1   force =     0.00014218   -0.00022853    0.00092521
     atom   20 type  1   force =    -0.00001545    0.00010649    0.00105838
     atom   21 type  1   force =    -0.00012518    0.00019312    0.00096941
     atom   22 type  1   force =     0.00036310   -0.00025375    0.00111788
     atom   23 type  1   force =    -0.00002974   -0.00006299    0.00116622
     atom   24 type  1   force =    -0.00033000   -0.00015004    0.00109546
     atom   25 type  1   force =     0.00035495   -0.00001680    0.00088954
     atom   26 type  1   force =    -0.00024196    0.00012407    0.00094572
     atom   27 type  1   force =    -0.00010780    0.00028080    0.00094533
     atom   28 type  1   force =     0.00012842   -0.00003470    0.00045770
     atom   29 type  1   force =    -0.00010489    0.00026095    0.00059989
     atom   30 type  1   force =    -0.00001650    0.00023233    0.00068845
     atom   31 type  1   force =     0.00025244   -0.00010180    0.00050930
     atom   32 type  1   force =    -0.00006227    0.00009683    0.00070831
     atom   33 type  1   force =    -0.00017324   -0.00001971    0.00062220
     atom   34 type  1   force =     0.00030214   -0.00026236    0.00052702
     atom   35 type  1   force =    -0.00026712   -0.00013504    0.00049329
     atom   36 type  1   force =    -0.00003219   -0.00009368    0.00069381
     atom   37 type  2   force =     0.00002859    0.00008011   -0.00011644
     atom   38 type  3   force =    -0.00004038   -0.00002946   -0.00003694
     atom   39 type  3   force =    -0.00003356    0.00006816    0.00001829

     Total force =     0.014367     Total SCF correction =     0.003717
     SCF correction compared to forces is large: reduce conv_thr to get better values

     Writing all to output data dir ./pwscf.save/

     init_run     :     20.28s CPU     21.26s WALL (       1 calls)
     electrons    :    468.50s CPU    507.38s WALL (       1 calls)
     forces       :      3.97s CPU      4.74s WALL (       1 calls)

     Called by init_run:
     wfcinit      :     15.41s CPU     16.26s WALL (       1 calls)
     potinit      :      3.25s CPU      3.32s WALL (       1 calls)
     hinit0       :      1.03s CPU      1.04s WALL (       1 calls)

     Called by electrons:
     c_bands      :    404.47s CPU    430.09s WALL (      20 calls)
     sum_band     :     38.94s CPU     43.57s WALL (      20 calls)
     v_of_rho     :     11.90s CPU     14.26s WALL (      20 calls)
     newd         :      3.12s CPU      3.87s WALL (      20 calls)
     PAW_pot      :      4.37s CPU      4.49s WALL (      20 calls)
     mix_rho      :      7.75s CPU     12.92s WALL (      20 calls)
     vdW_kernel   :      1.72s CPU      1.73s WALL (       1 calls)

     Called by c_bands:
     init_us_2    :      2.95s CPU      3.44s WALL (     546 calls)
     init_us_2:cp :      2.95s CPU      3.44s WALL (     546 calls)
     cegterg      :    395.22s CPU    418.24s WALL (     260 calls)

     Called by *egterg:
     cdiaghg      :     79.52s CPU     81.93s WALL (    1322 calls)
     h_psi        :    202.10s CPU    216.28s WALL (    1348 calls)
     s_psi        :     15.93s CPU     16.30s WALL (    1348 calls)
     g_psi        :      0.46s CPU      0.47s WALL (    1075 calls)

     Called by h_psi:
     h_psi:calbec :     28.27s CPU     31.02s WALL (    1348 calls)
     vloc_psi     :    156.45s CPU    167.07s WALL (    1348 calls)
     add_vuspsi   :     16.20s CPU     16.80s WALL (    1348 calls)

     General routines
     calbec       :     37.09s CPU     40.96s WALL (    1660 calls)
     fft          :      8.33s CPU     10.90s WALL (    1320 calls)
     ffts         :      3.67s CPU      5.43s WALL (    5308 calls)
     fftw         :    160.17s CPU    170.64s WALL (  335886 calls)
     interpolate  :      0.68s CPU      0.76s WALL (      20 calls)

     Parallel routines

     PWSCF        :   8m14.71s CPU   8m58.12s WALL


   This run was terminated on:  21:37:33   7Nov2025            

=------------------------------------------------------------------------------=
   JOB DONE.
=------------------------------------------------------------------------------=
