  37  37   0   0
  0.4190497E+02  0.8468310E-09  0.8468310E-09  0.2496566E-08  0.5000000E-15
  1.000000000000000E-004
  CAR 
 unknown system                          
      8.65636370     -9.89126527  301     -0.07431106      1.00000000
     -9.891  0.0000E+00  0.0000E+00
     -9.829  0.0000E+00  0.0000E+00
     -9.768  0.0000E+00  0.0000E+00
     -9.706 -0.4571E-28 -0.2826E-29
     -9.644 -0.6819E-24 -0.4216E-25
     -9.582 -0.4705E-20 -0.2909E-21
     -9.520 -0.1499E-16 -0.9271E-18
     -9.458 -0.2137E-13 -0.1322E-14
     -9.397 -0.1430E-10 -0.8853E-12
     -9.335 -0.4373E-08 -0.2713E-09
     -9.273 -0.6055E-06 -0.3771E-07
     -9.211 -0.3739E-04 -0.2349E-05
     -9.149 -0.9983E-03 -0.6407E-04
     -9.088 -0.1066E-01 -0.7232E-03
     -9.026 -0.3363E-01 -0.2802E-02
     -8.964  0.5585E-01  0.6511E-03
     -8.902  0.3361E+00  0.2143E-01
     -8.840  0.6167E+00  0.5956E-01
     -8.778  0.2090E+01  0.1888E+00
     -8.717  0.3816E+01  0.4247E+00
     -8.655  0.2194E+01  0.5603E+00
     -8.593 -0.4670E-01  0.5574E+00
     -8.531  0.2134E+00  0.5706E+00
     -8.469  0.2603E+01  0.7315E+00
     -8.407  0.3801E+01  0.9665E+00
     -8.346  0.3542E+01  0.1185E+01
     -8.284  0.3737E+01  0.1417E+01
     -8.222  0.1842E+01  0.1530E+01
     -8.160 -0.5728E-02  0.1530E+01
     -8.098 -0.3568E+00  0.1508E+01
     -8.037 -0.3207E+00  0.1488E+01
     -7.975  0.2066E+01  0.1616E+01
     -7.913  0.6820E+01  0.2038E+01
     -7.851  0.6074E+01  0.2413E+01
     -7.789  0.1345E+01  0.2496E+01
     -7.727  0.1387E+01  0.2582E+01
     -7.666  0.4322E+01  0.2849E+01
     -7.604  0.5144E+01  0.3167E+01
     -7.542  0.4084E+01  0.3420E+01
     -7.480  0.1399E+01  0.3506E+01
     -7.418  0.6436E+00  0.3546E+01
     -7.356  0.4293E+01  0.3811E+01
     -7.295  0.7602E+01  0.4281E+01
     -7.233  0.1010E+02  0.4906E+01
     -7.171  0.1123E+02  0.5600E+01
     -7.109  0.5164E+01  0.5920E+01
     -7.047  0.2214E+01  0.6057E+01
     -6.985  0.6299E+01  0.6446E+01
     -6.924  0.6133E+01  0.6825E+01
     -6.862  0.2375E+01  0.6972E+01
     -6.800  0.3505E+01  0.7189E+01
     -6.738  0.7770E+01  0.7669E+01
     -6.676  0.1048E+02  0.8317E+01
     -6.615  0.1246E+02  0.9087E+01
     -6.553  0.1547E+02  0.1004E+02
     -6.491  0.1264E+02  0.1083E+02
     -6.429  0.8411E+01  0.1135E+02
     -6.367  0.1042E+02  0.1199E+02
     -6.305  0.1131E+02  0.1269E+02
     -6.244  0.1267E+02  0.1347E+02
     -6.182  0.2121E+02  0.1478E+02
     -6.120  0.3345E+02  0.1685E+02
     -6.058  0.3597E+02  0.1908E+02
     -5.996  0.3010E+02  0.2094E+02
     -5.934  0.2981E+02  0.2278E+02
     -5.873  0.3338E+02  0.2484E+02
     -5.811  0.3450E+02  0.2698E+02
     -5.749  0.2851E+02  0.2874E+02
     -5.687  0.2769E+02  0.3045E+02
     -5.625  0.3510E+02  0.3262E+02
     -5.563  0.4102E+02  0.3516E+02
     -5.502  0.4398E+02  0.3788E+02
     -5.440  0.5342E+02  0.4118E+02
     -5.378  0.6287E+02  0.4507E+02
     -5.316  0.6145E+02  0.4887E+02
     -5.254  0.5407E+02  0.5221E+02
     -5.193  0.4731E+02  0.5513E+02
     -5.131  0.4335E+02  0.5781E+02
     -5.069  0.5248E+02  0.6106E+02
     -5.007  0.7003E+02  0.6539E+02
     -4.945  0.5706E+02  0.6892E+02
     -4.883  0.2907E+02  0.7071E+02
     -4.822  0.2772E+02  0.7243E+02
     -4.760  0.4281E+02  0.7507E+02
     -4.698  0.3523E+02  0.7725E+02
     -4.636  0.2103E+02  0.7855E+02
     -4.574  0.2818E+02  0.8029E+02
     -4.512  0.4637E+02  0.8316E+02
     -4.451  0.6042E+02  0.8690E+02
     -4.389  0.6114E+02  0.9068E+02
     -4.327  0.5188E+02  0.9388E+02
     -4.265  0.4686E+02  0.9678E+02
     -4.203  0.4500E+02  0.9956E+02
     -4.142  0.4677E+02  0.1025E+03
     -4.080  0.5826E+02  0.1061E+03
     -4.018  0.5697E+02  0.1096E+03
     -3.956  0.4441E+02  0.1123E+03
     -3.894  0.4011E+02  0.1148E+03
     -3.832  0.3878E+02  0.1172E+03
     -3.771  0.3601E+02  0.1194E+03
     -3.709  0.4454E+02  0.1222E+03
     -3.647  0.6200E+02  0.1260E+03
     -3.585  0.6377E+02  0.1300E+03
     -3.523  0.5717E+02  0.1335E+03
     -3.461  0.5901E+02  0.1371E+03
     -3.400  0.7122E+02  0.1415E+03
     -3.338  0.7764E+02  0.1463E+03
     -3.276  0.7310E+02  0.1509E+03
     -3.214  0.6799E+02  0.1551E+03
     -3.152  0.7539E+02  0.1597E+03
     -3.090  0.8700E+02  0.1651E+03
     -3.029  0.8032E+02  0.1701E+03
     -2.967  0.7529E+02  0.1747E+03
     -2.905  0.7797E+02  0.1795E+03
     -2.843  0.7659E+02  0.1843E+03
     -2.781  0.8899E+02  0.1898E+03
     -2.720  0.1059E+03  0.1963E+03
     -2.658  0.1012E+03  0.2026E+03
     -2.596  0.7436E+02  0.2072E+03
     -2.534  0.6055E+02  0.2109E+03
     -2.472  0.6491E+02  0.2149E+03
     -2.410  0.5676E+02  0.2185E+03
     -2.349  0.3930E+02  0.2209E+03
     -2.287  0.2734E+02  0.2226E+03
     -2.225  0.2627E+02  0.2242E+03
     -2.163  0.3482E+02  0.2264E+03
     -2.101  0.4979E+02  0.2294E+03
     -2.039  0.7162E+02  0.2339E+03
     -1.978  0.9033E+02  0.2394E+03
     -1.916  0.8878E+02  0.2449E+03
     -1.854  0.7370E+02  0.2495E+03
     -1.792  0.5438E+02  0.2529E+03
     -1.730  0.4336E+02  0.2555E+03
     -1.668  0.4469E+02  0.2583E+03
     -1.607  0.5028E+02  0.2614E+03
     -1.545  0.5739E+02  0.2650E+03
     -1.483  0.5747E+02  0.2685E+03
     -1.421  0.5628E+02  0.2720E+03
     -1.359  0.5995E+02  0.2757E+03
     -1.298  0.5735E+02  0.2792E+03
     -1.236  0.5107E+02  0.2824E+03
     -1.174  0.5992E+02  0.2861E+03
     -1.112  0.7839E+02  0.2909E+03
     -1.050  0.8643E+02  0.2963E+03
     -0.988  0.8177E+02  0.3013E+03
     -0.927  0.6437E+02  0.3053E+03
     -0.865  0.5686E+02  0.3088E+03
     -0.803  0.5711E+02  0.3124E+03
     -0.741  0.4692E+02  0.3153E+03
     -0.679  0.4264E+02  0.3179E+03
     -0.617  0.5663E+02  0.3214E+03
     -0.556  0.6345E+02  0.3253E+03
     -0.494  0.5944E+02  0.3290E+03
     -0.432  0.6215E+02  0.3328E+03
     -0.370  0.7469E+02  0.3375E+03
     -0.308  0.9190E+02  0.3431E+03
     -0.246  0.8901E+02  0.3487E+03
     -0.185  0.6256E+02  0.3525E+03
     -0.123  0.6379E+02  0.3565E+03
     -0.061  0.9519E+02  0.3623E+03
      0.001  0.8454E+02  0.3676E+03
      0.063  0.4163E+02  0.3701E+03
      0.124  0.3711E+02  0.3724E+03
      0.186  0.5770E+02  0.3760E+03
      0.248  0.5208E+02  0.3792E+03
      0.310  0.4066E+02  0.3817E+03
      0.372  0.3405E+02  0.3838E+03
      0.434  0.2151E+02  0.3852E+03
      0.495  0.1015E+02  0.3858E+03
      0.557  0.4076E+01  0.3861E+03
      0.619  0.3033E+01  0.3862E+03
      0.681  0.6457E+01  0.3866E+03
      0.743  0.1347E+02  0.3875E+03
      0.805  0.1461E+02  0.3884E+03
      0.866  0.8782E+01  0.3889E+03
      0.928  0.8311E+01  0.3894E+03
      0.990  0.1165E+02  0.3902E+03
      1.052  0.7525E+01  0.3906E+03
      1.114  0.3251E+01  0.3908E+03
      1.175  0.6940E+01  0.3913E+03
      1.237  0.1213E+02  0.3920E+03
      1.299  0.1214E+02  0.3928E+03
      1.361  0.1087E+02  0.3934E+03
      1.423  0.1010E+02  0.3941E+03
      1.485  0.1851E+02  0.3952E+03
      1.546  0.2808E+02  0.3969E+03
      1.608  0.2311E+02  0.3984E+03
      1.670  0.1739E+02  0.3994E+03
      1.732  0.1470E+02  0.4003E+03
      1.794  0.6265E+01  0.4007E+03
      1.856  0.6927E+00  0.4008E+03
      1.917  0.4033E+01  0.4010E+03
      1.979  0.7850E+01  0.4015E+03
      2.041  0.6447E+01  0.4019E+03
      2.103  0.3383E+01  0.4021E+03
      2.165  0.5060E+01  0.4024E+03
      2.227  0.1054E+02  0.4031E+03
      2.288  0.1123E+02  0.4038E+03
      2.350  0.1191E+02  0.4045E+03
      2.412  0.1758E+02  0.4056E+03
      2.474  0.2251E+02  0.4070E+03
      2.536  0.1678E+02  0.4080E+03
      2.597  0.7939E+01  0.4085E+03
      2.659  0.6379E+01  0.4089E+03
      2.721  0.8971E+01  0.4095E+03
      2.783  0.1607E+02  0.4105E+03
      2.845  0.1920E+02  0.4116E+03
      2.907  0.1454E+02  0.4125E+03
      2.968  0.9353E+01  0.4131E+03
      3.030  0.8221E+01  0.4136E+03
      3.092  0.1392E+02  0.4145E+03
      3.154  0.1472E+02  0.4154E+03
      3.216  0.1064E+02  0.4161E+03
      3.278  0.8739E+01  0.4166E+03
      3.339  0.5566E+01  0.4169E+03
      3.401  0.2226E+01  0.4171E+03
      3.463  0.4260E+01  0.4173E+03
      3.525  0.9018E+01  0.4179E+03
      3.587  0.1360E+02  0.4187E+03
      3.649  0.1986E+02  0.4200E+03
      3.710  0.2337E+02  0.4214E+03
      3.772  0.1751E+02  0.4225E+03
      3.834  0.8071E+01  0.4230E+03
      3.896  0.3831E+01  0.4232E+03
      3.958  0.4003E+01  0.4235E+03
      4.019  0.5890E+01  0.4238E+03
      4.081  0.7710E+01  0.4243E+03
      4.143  0.7774E+01  0.4248E+03
      4.205  0.5989E+01  0.4252E+03
      4.267  0.4106E+01  0.4254E+03
      4.329  0.7321E+01  0.4259E+03
      4.390  0.2021E+02  0.4271E+03
      4.452  0.2557E+02  0.4287E+03
      4.514  0.1449E+02  0.4296E+03
      4.576  0.7325E+01  0.4301E+03
      4.638  0.9450E+01  0.4306E+03
      4.700  0.1322E+02  0.4315E+03
      4.761  0.1415E+02  0.4323E+03
      4.823  0.9828E+01  0.4329E+03
      4.885  0.5656E+01  0.4333E+03
      4.947  0.6350E+01  0.4337E+03
      5.009  0.1064E+02  0.4343E+03
      5.070  0.1053E+02  0.4350E+03
      5.132  0.7171E+01  0.4354E+03
      5.194  0.8184E+01  0.4359E+03
      5.256  0.1284E+02  0.4367E+03
      5.318  0.1384E+02  0.4376E+03
      5.380  0.9083E+01  0.4382E+03
      5.441  0.8696E+01  0.4387E+03
      5.503  0.1734E+02  0.4398E+03
      5.565  0.2364E+02  0.4412E+03
      5.627  0.2373E+02  0.4427E+03
      5.689  0.2465E+02  0.4442E+03
      5.751  0.2703E+02  0.4459E+03
      5.812  0.2227E+02  0.4473E+03
      5.874  0.1391E+02  0.4481E+03
      5.936  0.1551E+02  0.4491E+03
      5.998  0.2736E+02  0.4508E+03
      6.060  0.3257E+02  0.4528E+03
      6.122  0.2344E+02  0.4542E+03
      6.183  0.1577E+02  0.4552E+03
      6.245  0.1738E+02  0.4563E+03
      6.307  0.2464E+02  0.4578E+03
      6.369  0.3154E+02  0.4598E+03
      6.431  0.2389E+02  0.4612E+03
      6.492  0.1335E+02  0.4621E+03
      6.554  0.1778E+02  0.4632E+03
      6.616  0.2591E+02  0.4648E+03
      6.678  0.2603E+02  0.4664E+03
      6.740  0.2417E+02  0.4679E+03
      6.802  0.2329E+02  0.4693E+03
      6.863  0.2155E+02  0.4706E+03
      6.925  0.1700E+02  0.4717E+03
      6.987  0.1137E+02  0.4724E+03
      7.049  0.1238E+02  0.4732E+03
      7.111  0.2060E+02  0.4744E+03
      7.173  0.2375E+02  0.4759E+03
      7.234  0.2069E+02  0.4772E+03
      7.296  0.1405E+02  0.4781E+03
      7.358  0.5921E+01  0.4784E+03
      7.420  0.2089E+01  0.4785E+03
      7.482  0.4534E+01  0.4788E+03
      7.544  0.6975E+01  0.4793E+03
      7.605  0.6310E+01  0.4796E+03
      7.667  0.4460E+01  0.4799E+03
      7.729  0.1514E+01  0.4800E+03
      7.791 -0.1027E+00  0.4800E+03
      7.853 -0.1523E+00  0.4800E+03
      7.914 -0.2705E-01  0.4800E+03
      7.976 -0.1863E-02  0.4800E+03
      8.038 -0.5692E-04  0.4800E+03
      8.100 -0.8023E-06  0.4800E+03
      8.162 -0.5273E-08  0.4800E+03
      8.224 -0.1619E-10  0.4800E+03
      8.285 -0.2270E-13  0.4800E+03
      8.347  0.0000E+00  0.4800E+03
      8.409  0.0000E+00  0.4800E+03
      8.471  0.0000E+00  0.4800E+03
      8.533  0.0000E+00  0.4800E+03
      8.595  0.0000E+00  0.4800E+03
      8.656  0.0000E+00  0.4800E+03
