   37   37    1    1
  0.4190497E+02  0.8468310E-09  0.8468310E-09  0.2496566E-08  0.5000000E-15
  1.000000000000000E-004
  CAR 
 unknown system                          
    361     13    240
 
  0.1276756E-14  0.1276756E-14  0.1276756E-14  0.4000000E-01
      1         -8.891265   1.000000
      2         -7.711599   1.000000
      3         -6.898947   1.000000
      4         -6.497450   1.000000
      5         -6.471806   1.000000
      6         -6.455994   1.000000
      7         -6.449152   1.000000
      8         -6.444697   1.000000
      9         -6.432519   1.000000
     10         -6.422864   1.000000
     11         -6.131728   1.000000
     12         -5.917059   1.000000
     13         -5.914538   1.000000
     14         -5.900824   1.000000
     15         -5.895865   1.000000
     16         -5.890469   1.000000
     17         -5.813453   1.000000
     18         -5.459638   1.000000
     19         -5.457172   1.000000
     20         -5.451506   1.000000
     21         -5.447787   1.000000
     22         -5.446258   1.000000
     23         -5.336523   1.000000
     24         -5.225660   1.000000
     25         -5.222520   1.000000
     26         -5.221712   1.000000
     27         -5.217512   1.000000
     28         -5.211892   1.000000
     29         -5.121821   1.000000
     30         -5.029858   1.000000
     31         -5.021699   1.000000
     32         -5.019255   1.000000
     33         -5.015750   1.000000
     34         -5.013080   1.000000
     35         -4.965019   1.000000
     36         -4.958546   1.000000
     37         -4.955121   1.000000
     38         -4.944956   1.000000
     39         -4.915367   1.000000
     40         -4.908848   1.000000
     41         -4.617534   1.000000
     42         -4.380761   1.000000
     43         -4.377844   1.000000
     44         -4.344967   1.000000
     45         -4.337279   1.000000
     46         -4.321454   1.000000
     47         -4.317895   1.000000
     48         -4.301511   1.000000
     49         -4.287169   1.000000
     50         -4.282542   1.000000
     51         -4.200264   1.000000
     52         -4.134710   1.000000
     53         -4.130897   1.000000
     54         -4.039651   1.000000
     55         -4.029121   1.000000
     56         -3.591350   1.000000
     57         -3.575265   1.000000
     58         -3.564020   1.000000
     59         -3.556499   1.000000
     60         -3.554931   1.000000
     61         -3.494528   1.000000
     62         -3.479550   1.000000
     63         -3.383373   1.000000
     64         -3.381531   1.000000
     65         -3.372617   1.000000
     66         -3.372031   1.000000
     67         -3.364424   1.000000
     68         -3.363933   1.000000
     69         -3.346230   1.000000
     70         -3.320632   1.000000
     71         -3.303336   1.000000
     72         -3.300092   1.000000
     73         -3.294563   1.000000
     74         -3.288859   1.000000
     75         -3.266551   1.000000
     76         -3.259560   1.000000
     77         -3.255856   1.000000
     78         -3.157926   1.000000
     79         -3.150287   1.000000
     80         -3.142325   1.000000
     81         -3.136974   1.000000
     82         -3.130604   1.000000
     83         -3.092105   1.000000
     84         -2.941692   1.000000
     85         -2.932842   1.000000
     86         -2.929796   1.000000
     87         -2.920566   1.000000
     88         -2.914089   1.000000
     89         -2.899942   1.000000
     90         -2.889536   1.000000
     91         -2.878970   1.000000
     92         -2.842271   1.000000
     93         -2.818003   1.000000
     94         -2.780775   1.000000
     95         -2.780347   1.000000
     96         -2.740895   1.000000
     97         -2.738075   1.000000
     98         -2.692259   1.000000
     99         -2.688698   1.000000
    100         -2.685777   1.000000
    101         -2.611669   1.000000
    102         -2.537806   1.000000
    103         -2.526308   1.000000
    104         -2.513582   1.000000
    105         -2.506629   1.000000
    106         -2.497985   1.000000
    107         -2.493659   1.000000
    108         -2.260145   1.000000
    109         -2.028942   1.000000
    110         -2.003294   1.000000
    111         -1.998084   1.000000
    112         -1.993374   1.000000
    113         -1.984100   1.000000
    114         -1.979894   1.000000
    115         -1.979295   1.000000
    116         -1.965922   1.000000
    117         -1.957264   1.000000
    118         -1.950676   1.000000
    119         -1.945071   1.000000
    120         -1.875729   1.000000
    121         -1.863473   1.000000
    122         -1.818436   1.000000
    123         -1.732886   1.000000
    124         -1.721148   1.000000
    125         -1.718299   1.000000
    126         -1.708142   1.000000
    127         -1.706230   1.000000
    128         -1.622775   1.000000
    129         -1.583325   1.000000
    130         -1.535610   1.000000
    131         -1.535083   1.000000
    132         -1.519912   1.000000
    133         -1.493651   1.000000
    134         -1.317769   1.000000
    135         -1.275625   1.000000
    136         -1.269005   1.000000
    137         -1.259661   1.000000
    138         -1.253432   1.000000
    139         -1.243692   1.000000
    140         -1.191233   1.000000
    141         -1.178455   1.000000
    142         -1.105924   1.000000
    143         -1.038929   1.000000
    144         -1.031047   1.000000
    145         -1.027819   1.000000
    146         -1.024655   1.000000
    147         -1.011193   1.000000
    148         -0.908506   1.000000
    149         -0.864584   1.000000
    150         -0.856866   1.000000
    151         -0.847057   1.000000
    152         -0.831788   1.000000
    153         -0.829220   1.000000
    154         -0.815848   1.000000
    155         -0.813567   1.000000
    156         -0.809235   1.000000
    157         -0.803377   1.000000
    158         -0.800033   1.000000
    159         -0.796458   1.000000
    160         -0.732051   1.000000
    161         -0.707791   1.000000
    162         -0.695650   1.000000
    163         -0.680706   1.000000
    164         -0.663205   1.000000
    165         -0.658776   1.000000
    166         -0.645234   1.000000
    167         -0.636270   1.000000
    168         -0.600099   1.000000
    169         -0.593737   1.000000
    170         -0.569617   1.000000
    171         -0.562115   1.000000
    172         -0.551595   1.000000
    173         -0.549262   1.000000
    174         -0.542683   1.000000
    175         -0.537219   1.000000
    176         -0.461749   1.000000
    177         -0.452139   1.000001
    178         -0.445283   1.000001
    179         -0.436147   1.000002
    180         -0.430390   1.000003
    181         -0.424342   1.000004
    182         -0.409430   1.000011
    183         -0.352497   1.000300
    184         -0.334091   1.000740
    185         -0.322874   1.001234
    186         -0.319304   1.001444
    187         -0.309634   1.002175
    188         -0.307050   1.002418
    189         -0.119668   0.843539
    190         -0.102135   0.725661
    191         -0.019088   0.102574
    192         -0.015661   0.086133
    193         -0.000100   0.026278
    194          0.005373   0.010765
    195          0.007955   0.004380
    196          0.013424  -0.007276
    197          0.476532  -0.000000
    198          0.815666  -0.000000
    199          0.849443  -0.000000
    200          0.867303  -0.000000
    201          0.893982  -0.000000
    202          0.903863  -0.000000
    203          0.908685  -0.000000
    204          2.717639   0.000000
    205          3.126554   0.000000
    206          3.166353   0.000000
    207          3.204076   0.000000
    208          3.211020   0.000000
    209          3.223581   0.000000
    210          4.519883   0.000000
    211          4.744758   0.000000
    212          4.760630   0.000000
    213          4.814771   0.000000
    214          4.824611   0.000000
    215          4.832100   0.000000
    216          4.919714   0.000000
    217          5.069148   0.000000
    218          5.139656   0.000000
    219          5.466841   0.000000
    220          5.502335   0.000000
    221          5.781087   0.000000
    222          5.812598   0.000000
    223          5.855702   0.000000
    224          5.857420   0.000000
    225          5.867894   0.000000
    226          6.035345   0.000000
    227          6.367627   0.000000
    228          6.617837   0.000000
    229          6.620986   0.000000
    230          6.628986   0.000000
    231          6.812316   0.000000
    232          6.956647   0.000000
    233          7.131172   0.000000
    234          7.147821   0.000000
    235          7.173227   0.000000
    236          7.175142   0.000000
    237          7.182978   0.000000
    238          7.207472   0.000000
    239          7.286790   0.000000
    240          7.656364   0.000000
 
  0.2000000E+00  0.1278043E-14  0.1276756E-14  0.8000000E-01
      1         -8.742887   1.000000
      2         -7.573340   1.000000
      3         -6.974940   1.000000
      4         -6.808328   1.000000
      5         -6.553171   1.000000
      6         -6.541194   1.000000
      7         -6.356640   1.000000
      8         -6.266262   1.000000
      9         -6.215725   1.000000
     10         -6.209145   1.000000
     11         -6.106257   1.000000
     12         -6.010628   1.000000
     13         -5.976338   1.000000
     14         -5.844207   1.000000
     15         -5.831675   1.000000
     16         -5.821683   1.000000
     17         -5.718175   1.000000
     18         -5.532415   1.000000
     19         -5.422301   1.000000
     20         -5.411695   1.000000
     21         -5.405066   1.000000
     22         -5.389545   1.000000
     23         -5.329354   1.000000
     24         -5.299461   1.000000
     25         -5.271833   1.000000
     26         -5.224591   1.000000
     27         -5.217849   1.000000
     28         -5.208718   1.000000
     29         -5.147512   1.000000
     30         -5.111502   1.000000
     31         -5.107034   1.000000
     32         -5.037872   1.000000
     33         -5.017429   1.000000
     34         -5.007504   1.000000
     35         -5.006340   1.000000
     36         -4.867744   1.000000
     37         -4.808860   1.000000
     38         -4.777005   1.000000
     39         -4.766675   1.000000
     40         -4.744412   1.000000
     41         -4.618895   1.000000
     42         -4.493847   1.000000
     43         -4.491803   1.000000
     44         -4.455009   1.000000
     45         -4.411658   1.000000
     46         -4.393384   1.000000
     47         -4.386083   1.000000
     48         -4.319873   1.000000
     49         -4.207996   1.000000
     50         -4.197389   1.000000
     51         -4.118291   1.000000
     52         -4.111730   1.000000
     53         -4.069186   1.000000
     54         -4.051340   1.000000
     55         -4.038522   1.000000
     56         -3.824973   1.000000
     57         -3.739598   1.000000
     58         -3.731936   1.000000
     59         -3.671145   1.000000
     60         -3.656096   1.000000
     61         -3.609128   1.000000
     62         -3.576881   1.000000
     63         -3.566740   1.000000
     64         -3.556796   1.000000
     65         -3.533576   1.000000
     66         -3.526727   1.000000
     67         -3.487040   1.000000
     68         -3.446953   1.000000
     69         -3.401118   1.000000
     70         -3.366237   1.000000
     71         -3.360804   1.000000
     72         -3.322874   1.000000
     73         -3.277069   1.000000
     74         -3.269755   1.000000
     75         -3.265407   1.000000
     76         -3.177597   1.000000
     77         -3.167918   1.000000
     78         -3.154874   1.000000
     79         -3.132342   1.000000
     80         -3.095736   1.000000
     81         -3.070759   1.000000
     82         -3.061679   1.000000
     83         -3.036114   1.000000
     84         -2.989620   1.000000
     85         -2.963829   1.000000
     86         -2.958045   1.000000
     87         -2.939490   1.000000
     88         -2.930938   1.000000
     89         -2.910097   1.000000
     90         -2.893591   1.000000
     91         -2.862565   1.000000
     92         -2.829083   1.000000
     93         -2.797834   1.000000
     94         -2.792431   1.000000
     95         -2.767327   1.000000
     96         -2.756055   1.000000
     97         -2.728793   1.000000
     98         -2.727815   1.000000
     99         -2.698965   1.000000
    100         -2.688680   1.000000
    101         -2.608459   1.000000
    102         -2.553461   1.000000
    103         -2.547273   1.000000
    104         -2.518140   1.000000
    105         -2.507111   1.000000
    106         -2.500953   1.000000
    107         -2.494318   1.000000
    108         -2.491613   1.000000
    109         -2.442327   1.000000
    110         -2.429409   1.000000
    111         -2.424098   1.000000
    112         -2.414183   1.000000
    113         -2.213609   1.000000
    114         -2.070518   1.000000
    115         -2.043476   1.000000
    116         -2.025909   1.000000
    117         -1.998284   1.000000
    118         -1.990984   1.000000
    119         -1.979151   1.000000
    120         -1.962818   1.000000
    121         -1.937187   1.000000
    122         -1.858413   1.000000
    123         -1.792704   1.000000
    124         -1.782655   1.000000
    125         -1.728542   1.000000
    126         -1.664409   1.000000
    127         -1.648719   1.000000
    128         -1.611756   1.000000
    129         -1.589108   1.000000
    130         -1.574433   1.000000
    131         -1.544942   1.000000
    132         -1.535876   1.000000
    133         -1.516598   1.000000
    134         -1.437758   1.000000
    135         -1.430468   1.000000
    136         -1.391770   1.000000
    137         -1.385597   1.000000
    138         -1.370227   1.000000
    139         -1.294996   1.000000
    140         -1.194838   1.000000
    141         -1.168582   1.000000
    142         -1.164234   1.000000
    143         -1.143312   1.000000
    144         -1.136442   1.000000
    145         -1.121949   1.000000
    146         -1.060634   1.000000
    147         -1.031147   1.000000
    148         -0.998526   1.000000
    149         -0.996882   1.000000
    150         -0.984947   1.000000
    151         -0.952838   1.000000
    152         -0.915422   1.000000
    153         -0.905870   1.000000
    154         -0.887733   1.000000
    155         -0.838822   1.000000
    156         -0.786061   1.000000
    157         -0.775102   1.000000
    158         -0.755970   1.000000
    159         -0.733417   1.000000
    160         -0.660422   1.000000
    161         -0.635318   1.000000
    162         -0.634563   1.000000
    163         -0.599484   1.000000
    164         -0.588761   1.000000
    165         -0.567992   1.000000
    166         -0.544052   1.000000
    167         -0.488160   1.000000
    168         -0.466520   1.000000
    169         -0.413405   1.000009
    170         -0.399343   1.000022
    171         -0.393593   1.000031
    172         -0.386686   1.000046
    173         -0.357458   1.000232
    174         -0.351038   1.000323
    175         -0.346015   1.000416
    176         -0.341072   1.000530
    177         -0.326885   1.001031
    178         -0.276527   1.007437
    179         -0.269444   1.009326
    180         -0.126507   0.881921
    181         -0.124236   0.869684
    182         -0.094730   0.668872
    183         -0.084386   0.584780
    184         -0.073890   0.496440
    185         -0.065349   0.424489
    186         -0.028752   0.155261
    187         -0.014676   0.081632
    188         -0.009558   0.059798
    189          0.012364  -0.005209
    190          0.054603  -0.034873
    191          0.107326  -0.013810
    192          0.135029  -0.005844
    193          0.182114  -0.000865
    194          0.296792  -0.000001
    195          0.297652  -0.000001
    196          0.315649  -0.000000
    197          0.347460  -0.000000
    198          0.673690  -0.000000
    199          0.760804  -0.000000
    200          1.219652  -0.000000
    201          1.470012  -0.000000
    202          1.483018  -0.000000
    203          1.599664  -0.000000
    204          2.363520  -0.000000
    205          2.766538   0.000000
    206          2.916073   0.000000
    207          3.504394   0.000000
    208          3.654860   0.000000
    209          3.656707   0.000000
    210          3.746779   0.000000
    211          3.983622   0.000000
    212          4.377965   0.000000
    213          4.612394   0.000000
    214          4.723137   0.000000
    215          4.955928   0.000000
    216          4.998291   0.000000
    217          5.019234   0.000000
    218          5.177941   0.000000
    219          5.257562   0.000000
    220          5.474620   0.000000
    221          5.645700   0.000000
    222          5.716584   0.000000
    223          5.764777   0.000000
    224          5.914269   0.000000
    225          6.110694   0.000000
    226          6.150051   0.000000
    227          6.236617   0.000000
    228          6.339367   0.000000
    229          6.351756   0.000000
    230          6.660875   0.000000
    231          6.685479   0.000000
    232          6.740195   0.000000
    233          6.801360   0.000000
    234          6.866758   0.000000
    235          6.915994   0.000000
    236          7.057838   0.000000
    237          7.236898   0.000000
    238          7.483014   0.000000
    239          7.487127   0.000000
    240          7.626044   0.000000
 
  0.2000000E+00  0.2000000E+00  0.1276756E-14  0.8000000E-01
      1         -8.743263   1.000000
      2         -7.577611   1.000000
      3         -6.990116   1.000000
      4         -6.787115   1.000000
      5         -6.559670   1.000000
      6         -6.546126   1.000000
      7         -6.356875   1.000000
      8         -6.262171   1.000000
      9         -6.218370   1.000000
     10         -6.211079   1.000000
     11         -6.132902   1.000000
     12         -6.001718   1.000000
     13         -5.924764   1.000000
     14         -5.847113   1.000000
     15         -5.827904   1.000000
     16         -5.820771   1.000000
     17         -5.751089   1.000000
     18         -5.532002   1.000000
     19         -5.419575   1.000000
     20         -5.409910   1.000000
     21         -5.403624   1.000000
     22         -5.368440   1.000000
     23         -5.330359   1.000000
     24         -5.294366   1.000000
     25         -5.272507   1.000000
     26         -5.244444   1.000000
     27         -5.217797   1.000000
     28         -5.207388   1.000000
     29         -5.144896   1.000000
     30         -5.109011   1.000000
     31         -5.105776   1.000000
     32         -5.031369   1.000000
     33         -5.014981   1.000000
     34         -5.006551   1.000000
     35         -5.003937   1.000000
     36         -4.858470   1.000000
     37         -4.806806   1.000000
     38         -4.778239   1.000000
     39         -4.768958   1.000000
     40         -4.752628   1.000000
     41         -4.617390   1.000000
     42         -4.495109   1.000000
     43         -4.488529   1.000000
     44         -4.460400   1.000000
     45         -4.413186   1.000000
     46         -4.398658   1.000000
     47         -4.383516   1.000000
     48         -4.325463   1.000000
     49         -4.208225   1.000000
     50         -4.174868   1.000000
     51         -4.124838   1.000000
     52         -4.106560   1.000000
     53         -4.075044   1.000000
     54         -4.050021   1.000000
     55         -4.043104   1.000000
     56         -3.830688   1.000000
     57         -3.736939   1.000000
     58         -3.728529   1.000000
     59         -3.679054   1.000000
     60         -3.655338   1.000000
     61         -3.617855   1.000000
     62         -3.583804   1.000000
     63         -3.566719   1.000000
     64         -3.545167   1.000000
     65         -3.527828   1.000000
     66         -3.523597   1.000000
     67         -3.488638   1.000000
     68         -3.445542   1.000000
     69         -3.401333   1.000000
     70         -3.374648   1.000000
     71         -3.364520   1.000000
     72         -3.347796   1.000000
     73         -3.269925   1.000000
     74         -3.263579   1.000000
     75         -3.247199   1.000000
     76         -3.181719   1.000000
     77         -3.169258   1.000000
     78         -3.153614   1.000000
     79         -3.132831   1.000000
     80         -3.092349   1.000000
     81         -3.077119   1.000000
     82         -3.064395   1.000000
     83         -3.028798   1.000000
     84         -3.001094   1.000000
     85         -2.963422   1.000000
     86         -2.960221   1.000000
     87         -2.935396   1.000000
     88         -2.928905   1.000000
     89         -2.908053   1.000000
     90         -2.897190   1.000000
     91         -2.866835   1.000000
     92         -2.820154   1.000000
     93         -2.803909   1.000000
     94         -2.782842   1.000000
     95         -2.773746   1.000000
     96         -2.753621   1.000000
     97         -2.728877   1.000000
     98         -2.719759   1.000000
     99         -2.703928   1.000000
    100         -2.686124   1.000000
    101         -2.612280   1.000000
    102         -2.561246   1.000000
    103         -2.544418   1.000000
    104         -2.523906   1.000000
    105         -2.511441   1.000000
    106         -2.503955   1.000000
    107         -2.497102   1.000000
    108         -2.488473   1.000000
    109         -2.446418   1.000000
    110         -2.431189   1.000000
    111         -2.427708   1.000000
    112         -2.418466   1.000000
    113         -2.175084   1.000000
    114         -2.091579   1.000000
    115         -2.055896   1.000000
    116         -2.013157   1.000000
    117         -2.000605   1.000000
    118         -1.989856   1.000000
    119         -1.980134   1.000000
    120         -1.945160   1.000000
    121         -1.940064   1.000000
    122         -1.884686   1.000000
    123         -1.806327   1.000000
    124         -1.784439   1.000000
    125         -1.715792   1.000000
    126         -1.662466   1.000000
    127         -1.649734   1.000000
    128         -1.613123   1.000000
    129         -1.596500   1.000000
    130         -1.570719   1.000000
    131         -1.544337   1.000000
    132         -1.530648   1.000000
    133         -1.524840   1.000000
    134         -1.443521   1.000000
    135         -1.410007   1.000000
    136         -1.394324   1.000000
    137         -1.384400   1.000000
    138         -1.375294   1.000000
    139         -1.282167   1.000000
    140         -1.196230   1.000000
    141         -1.179403   1.000000
    142         -1.166503   1.000000
    143         -1.154466   1.000000
    144         -1.141746   1.000000
    145         -1.115138   1.000000
    146         -1.069637   1.000000
    147         -1.032995   1.000000
    148         -1.007170   1.000000
    149         -0.990391   1.000000
    150         -0.981708   1.000000
    151         -0.931965   1.000000
    152         -0.913801   1.000000
    153         -0.906863   1.000000
    154         -0.900338   1.000000
    155         -0.819936   1.000000
    156         -0.791674   1.000000
    157         -0.775049   1.000000
    158         -0.757780   1.000000
    159         -0.714787   1.000000
    160         -0.669560   1.000000
    161         -0.642937   1.000000
    162         -0.621906   1.000000
    163         -0.608365   1.000000
    164         -0.596292   1.000000
    165         -0.566723   1.000000
    166         -0.542216   1.000000
    167         -0.483062   1.000000
    168         -0.471901   1.000000
    169         -0.421856   1.000005
    170         -0.405429   1.000015
    171         -0.389329   1.000039
    172         -0.382207   1.000060
    173         -0.357315   1.000234
    174         -0.349220   1.000354
    175         -0.347486   1.000387
    176         -0.337693   1.000624
    177         -0.328878   1.000942
    178         -0.273013   1.008335
    179         -0.268878   1.009491
    180         -0.135371   0.924713
    181         -0.121860   0.856340
    182         -0.101752   0.722813
    183         -0.083884   0.580607
    184         -0.067911   0.445962
    185         -0.064282   0.415597
    186         -0.032299   0.176869
    187         -0.017884   0.096664
    188         -0.001860   0.031860
    189          0.007694   0.005000
    190          0.075911  -0.027552
    191          0.108832  -0.013253
    192          0.130533  -0.006815
    193          0.186775  -0.000696
    194          0.293399  -0.000001
    195          0.297305  -0.000001
    196          0.312165  -0.000000
    197          0.354723  -0.000000
    198          0.691012  -0.000000
    199          0.747227  -0.000000
    200          1.226812  -0.000000
    201          1.459116  -0.000000
    202          1.485064  -0.000000
    203          1.606341  -0.000000
    204          2.350608  -0.000000
    205          2.798282   0.000000
    206          2.903010   0.000000
    207          3.508161   0.000000
    208          3.652133   0.000000
    209          3.664956   0.000000
    210          3.737144   0.000000
    211          3.956686   0.000000
    212          4.384693   0.000000
    213          4.606635   0.000000
    214          4.723425   0.000000
    215          4.963141   0.000000
    216          4.995703   0.000000
    217          5.021510   0.000000
    218          5.216734   0.000000
    219          5.262766   0.000000
    220          5.458241   0.000000
    221          5.634177   0.000000
    222          5.712224   0.000000
    223          5.827336   0.000000
    224          5.902953   0.000000
    225          6.092729   0.000000
    226          6.150441   0.000000
    227          6.216967   0.000000
    228          6.338421   0.000000
    229          6.348431   0.000000
    230          6.574009   0.000000
    231          6.699183   0.000000
    232          6.750285   0.000000
    233          6.798452   0.000000
    234          6.858385   0.000000
    235          6.921934   0.000000
    236          7.060875   0.000000
    237          7.234368   0.000000
    238          7.474814   0.000000
    239          7.539284   0.000000
    240          7.612397   0.000000
 
  0.1276756E-14  0.2000000E+00  0.1276756E-14  0.8000000E-01
      1         -8.743201   1.000000
      2         -7.577633   1.000000
      3         -6.987181   1.000000
      4         -6.788084   1.000000
      5         -6.560844   1.000000
      6         -6.547798   1.000000
      7         -6.356623   1.000000
      8         -6.258253   1.000000
      9         -6.219394   1.000000
     10         -6.213824   1.000000
     11         -6.133099   1.000000
     12         -6.001390   1.000000
     13         -5.924355   1.000000
     14         -5.846497   1.000000
     15         -5.828512   1.000000
     16         -5.819480   1.000000
     17         -5.750032   1.000000
     18         -5.533764   1.000000
     19         -5.418307   1.000000
     20         -5.409788   1.000000
     21         -5.401184   1.000000
     22         -5.370068   1.000000
     23         -5.331097   1.000000
     24         -5.297296   1.000000
     25         -5.272552   1.000000
     26         -5.243264   1.000000
     27         -5.214701   1.000000
     28         -5.209468   1.000000
     29         -5.144449   1.000000
     30         -5.111844   1.000000
     31         -5.104730   1.000000
     32         -5.027893   1.000000
     33         -5.014205   1.000000
     34         -5.006962   1.000000
     35         -5.004331   1.000000
     36         -4.860086   1.000000
     37         -4.806793   1.000000
     38         -4.777727   1.000000
     39         -4.769715   1.000000
     40         -4.754661   1.000000
     41         -4.618126   1.000000
     42         -4.497527   1.000000
     43         -4.491792   1.000000
     44         -4.458053   1.000000
     45         -4.411429   1.000000
     46         -4.395542   1.000000
     47         -4.384641   1.000000
     48         -4.325981   1.000000
     49         -4.209631   1.000000
     50         -4.176282   1.000000
     51         -4.124837   1.000000
     52         -4.107677   1.000000
     53         -4.073422   1.000000
     54         -4.050178   1.000000
     55         -4.041789   1.000000
     56         -3.834684   1.000000
     57         -3.735477   1.000000
     58         -3.729576   1.000000
     59         -3.683249   1.000000
     60         -3.658243   1.000000
     61         -3.620485   1.000000
     62         -3.589310   1.000000
     63         -3.561827   1.000000
     64         -3.544014   1.000000
     65         -3.526116   1.000000
     66         -3.521693   1.000000
     67         -3.485686   1.000000
     68         -3.445185   1.000000
     69         -3.404364   1.000000
     70         -3.377600   1.000000
     71         -3.363613   1.000000
     72         -3.350841   1.000000
     73         -3.266210   1.000000
     74         -3.256175   1.000000
     75         -3.233143   1.000000
     76         -3.182029   1.000000
     77         -3.172622   1.000000
     78         -3.155774   1.000000