 running   48 mpi-ranks, on    1 nodes
 distrk:  each k-point on   48 cores,    1 groups
 distr:  one band on    1 cores,   48 groups
 vasp.6.4.2 20Jul23 (build Mar 01 2024 16:46:03) complex                        
  
 POSCAR found type information on POSCAR PtH 
 POSCAR found :  2 types and      37 ions
 Reading from existing POTCAR
 scaLAPACK will be used
 -----------------------------------------------------------------------------
|                                                                             |
|           W    W    AA    RRRRR   N    N  II  N    N   GGGG   !!!           |
|           W    W   A  A   R    R  NN   N  II  NN   N  G    G  !!!           |
|           W    W  A    A  R    R  N N  N  II  N N  N  G       !!!           |
|           W WW W  AAAAAA  RRRRR   N  N N  II  N  N N  G  GGG   !            |
|           WW  WW  A    A  R   R   N   NN  II  N   NN  G    G                |
|           W    W  A    A  R    R  N    N  II  N    N   GGGG   !!!           |
|                                                                             |
|     For optimal performance we recommend to set                             |
|       NCORE = 2 up to number-of-cores-per-socket                            |
|     NCORE specifies how many cores store one orbital (NPAR=cpu/NCORE).      |
|     This setting can greatly improve the performance of VASP for DFT.       |
|     The default, NCORE=1 might be grossly inefficient on modern             |
|     multi-core architectures or massively parallel machines. Do your        |
|     own testing! More info at https://www.vasp.at/wiki/index.php/NCORE      |
|     Unfortunately you need to use the default for GW and RPA                |
|     calculations (for HF NCORE is supported but not extensively tested      |
|     yet).                                                                   |
|                                                                             |
 -----------------------------------------------------------------------------


     **************************************************************************
     Initializing libbeef V0.1.3 with the BEEF-vdW functional.
     Citation: Wellendorff et al., PRB 85, 235149 (2012).
     **************************************************************************

 -----------------------------------------------------------------------------
|                                                                             |
|               ----> ADVICE to this user running VASP <----                  |
|                                                                             |
|     You have switched on vdW-DFT.                                           |
|     This routine was written and supplied by Jiri Klimes. We recommend      |
|     that you carefully read and cite the following publications:            |
|       J. Klimes, D.R. Bowler, A. Michelides                                 |
|          J. Phys.: Cond Matt. 22 022201 (2010)                              |
|       J. Klimes, D.R. Bowler, A. Michelides                                 |
|          Phys. Rev. B. 83, 195131 (2011)                                    |
|     and references therein.                                                 |
|                                                                             |
 -----------------------------------------------------------------------------

 Reading from existing POTCAR
 -----------------------------------------------------------------------------
|                                                                             |
|               ----> ADVICE to this user running VASP <----                  |
|                                                                             |
|     You enforced a specific xc type in the INCAR file but a different       |
|     type was found in the POTCAR file.                                      |
|     I HOPE YOU KNOW WHAT YOU ARE DOING!                                     |
|                                                                             |
 -----------------------------------------------------------------------------

 LDA part: xc-table for Pade appr. of Perdew
 found WAVECAR, reading the header
 POSCAR, INCAR and KPOINTS ok, starting setup
 FFT: planning ... GRIDC
 FFT: planning ... GRID_SOFT
 FFT: planning ... GRID
 reading WAVECAR
 the WAVECAR file was read successfully
 initial charge from wavefunction
 entering main loop
       N       E                     dE             d eps       ncg     rms          rms(c)
Total vdW correction in eV:     52.0109928
DAV:   1    -0.104844093381E+03   -0.10484E+03   -0.31813E+00  6864   0.294E+00    0.615E+00
Total vdW correction in eV:     52.0042220
RMM:   2    -0.132264237385E+03   -0.27420E+02   -0.51771E+00  6799   0.332E+00    0.440E+01
Total vdW correction in eV:     51.9908349
RMM:   3    -0.104737422998E+03    0.27527E+02   -0.34114E+00  6821   0.317E+00    0.565E+00
Total vdW correction in eV:     51.9964660
RMM:   4    -0.104482355345E+03    0.25507E+00   -0.33588E-01  6897   0.936E-01    0.196E+00
Total vdW correction in eV:     52.0041886
RMM:   5    -0.104494009070E+03   -0.11654E-01   -0.59959E-02  6963   0.390E-01    0.201E+00
Total vdW correction in eV:     52.0069686
RMM:   6    -0.104469094806E+03    0.24914E-01   -0.15627E-02  7061   0.194E-01    0.112E+00
Total vdW correction in eV:     52.0112594
RMM:   7    -0.104466516498E+03    0.25783E-02   -0.73058E-03  7046   0.130E-01    0.813E-01
Total vdW correction in eV:     52.0155579
RMM:   8    -0.104462677322E+03    0.38392E-02   -0.36466E-03  7091   0.979E-02    0.319E-01
Total vdW correction in eV:     52.0162945
RMM:   9    -0.104462208577E+03    0.46874E-03   -0.13123E-03  7010   0.584E-02    0.151E-01
Total vdW correction in eV:     52.0164288
RMM:  10    -0.104462173622E+03    0.34955E-04   -0.42666E-04  7087   0.321E-02    0.123E-01
Total vdW correction in eV:     52.0164903
RMM:  11    -0.104462177394E+03   -0.37718E-05   -0.15818E-04  7009   0.201E-02    0.859E-02
Total vdW correction in eV:     52.0165155
RMM:  12    -0.104462250756E+03   -0.73362E-04   -0.84770E-05  6874   0.146E-02    0.726E-02
Total vdW correction in eV:     52.0164150
RMM:  13    -0.104462325264E+03   -0.74508E-04   -0.48312E-05  6063   0.115E-02    0.560E-02
Total vdW correction in eV:     52.0161873
RMM:  14    -0.104462350639E+03   -0.25375E-04   -0.17811E-05  4745   0.690E-03    0.320E-02
Total vdW correction in eV:     52.0159901
RMM:  15    -0.104462376631E+03   -0.25992E-04   -0.74705E-06  4453   0.451E-03    0.965E-03
Total vdW correction in eV:     52.0159490
RMM:  16    -0.104462388601E+03   -0.11970E-04   -0.18898E-06  3779   0.224E-03    0.489E-03
Total vdW correction in eV:     52.0158642
RMM:  17    -0.104462421008E+03   -0.32407E-04   -0.21086E-06  3304   0.201E-03    0.306E-03
Total vdW correction in eV:     52.0158065
RMM:  18    -0.104462442996E+03   -0.21988E-04   -0.16924E-06  3283   0.184E-03    0.262E-03
Total vdW correction in eV:     52.0157222
RMM:  19    -0.104462472323E+03   -0.29328E-04   -0.27713E-06  3546   0.206E-03    0.227E-03
Total vdW correction in eV:     52.0156881
RMM:  20    -0.104462482096E+03   -0.97728E-05   -0.73951E-07  2293   0.136E-03
Total vdW correction in eV:     52.0154465
Total vdW correction in eV:     52.0156237
   1 F= -.10446248E+03 E0= -.10443165E+03  d E =-.925067E-01
 writing wavefunctions
