unknown system                          
           1
     8.468310    0.000000    0.000000
     4.234155    7.333772    0.000000
     0.000000    0.000000   24.965662
   Pt   H 
    36     1
Direct configuration=     1
   0.00000000  0.00000000  0.34046764
   0.33400137  0.00000000  0.34046764
   0.66800274  0.00000000  0.34046764
   0.00000000  0.33400137  0.34046764
   0.33400137  0.33400137  0.34046764
   0.66800274  0.33400137  0.34046764
   0.00000000  0.66800274  0.34046764
   0.33400137  0.66800274  0.34046764
   0.66800274  0.66800274  0.34046764
   0.11133379  0.11133379  0.43297074
   0.44533516  0.11133379  0.43297074
   0.77933653  0.11133379  0.43297074
   0.11133379  0.44533516  0.43297074
   0.44533516  0.44533516  0.43297074
   0.77933653  0.44533516  0.43297074
   0.11133379  0.77933653  0.43297074
   0.44533516  0.77933653  0.43297074
   0.77933653  0.77933653  0.43297074
   0.88885855  0.22597893  0.52530051
   0.22142828  0.22448645  0.52583286
   0.55461097  0.22482668  0.52451937
   0.88872119  0.55624717  0.52536936
   0.22148876  0.55723466  0.52448738
   0.55470872  0.55793537  0.52420675
   0.88821896  0.89135641  0.52407316
   0.22167361  0.89176979  0.52472380
   0.55459649  0.89104948  0.52466097
   0.99736858  0.00225013  0.61743032
   0.33470441  0.00005404  0.61938544
   0.66573883  0.00288412  0.61754688
   0.99744283  0.33672626  0.62185310
   0.33465936  0.33705405  0.61913755
   0.66503313  0.33673647  0.61774805
   0.99746541  0.67149985  0.61740949
   0.33163650  0.66995065  0.61740632
   0.66496948  0.66972499  0.61779453
   0.16426473  0.25334215  0.66516978
