
     Program PWSCF v.7.1 starts on  7Nov2025 at 12:53:31 
        Git branch: heads/qe-7.1
        Last git commit: 48ba0178f8fede6d020eb786884699a9f063f55d-dirty
        Last git commit date: Fri Jan 27 14:22:33 2023 +0000
        Last git commit subject: Merge branch 'fix_hubbard' into 'develop'

     This program is part of the open-source Quantum ESPRESSO suite
     for quantum simulation of materials; please cite
         "P. Giannozzi et al., J. Phys.:Condens. Matter 21 395502 (2009);
         "P. Giannozzi et al., J. Phys.:Condens. Matter 29 465901 (2017);
         "P. Giannozzi et al., J. Chem. Phys. 152 154105 (2020);
          URL http://www.quantum-espresso.org", 
     in publications or presentations arising from this work. More details at
     http://www.quantum-espresso.org/quote

     Parallel version (MPI), running on    48 processors

     MPI processes distributed on     1 nodes
     271670 MiB available memory on the printing compute node when the environment starts

     Reading input from espresso.pwi
Warning: card &CELL ignored
Warning: card / ignored
Warning: card &FCP ignored
Warning: card / ignored
Warning: card &RISM ignored
Warning: card / ignored

     Current dimensions of program PWSCF are:
     Max number of different atomic species (ntypx) = 10
     Max number of k-points (npk) =  40000
     Max angular momentum in pseudopotentials (lmaxx) =  4
     file Pt.pbe-n-kjpaw_psl.1.0.0.UPF: wavefunction(s)  6S 5D renormalized
     file C.pbe-n-kjpaw_psl.1.0.0.UPF: wavefunction(s)  2S 2P renormalized
     file H.pbe-kjpaw_psl.1.0.0.UPF: wavefunction(s)  1S renormalized

     **************************************************************************
     Initializing libbeef V0.1.2 with the BEEF-vdW functional.
     Citation: Wellendorff et al., PRB 85, 235149 (2012).
     **************************************************************************


     IMPORTANT: XC functional enforced from input :
     Exchange-correlation= BEEF-VDW
                           (   1   4  43  14   2   0   0)
     Any further DFT definition will be discarded
     Please, verify this is what you really want


     R & G space division:  proc/nbgrp/npool/nimage =      48
     Subspace diagonalization in iterative solution of the eigenvalue problem:
     one sub-group per band group will be used
     custom distributed-memory algorithm (size of sub-group:  2*  2 procs)


     Parallelization info
     --------------------
     sticks:   dense  smooth     PW     G-vecs:    dense   smooth      PW
     Min         151      59     16                29407     7165    1028
     Max         152      60     17                29420     7176    1042
     Sum        7267    2839    769              1411785   344073   49691

     Using Slab Decomposition



     bravais-lattice index     =            0
     lattice parameter (alat)  =      16.0349  a.u.
     unit-cell volume          =   10068.6169 (a.u.)^3
     number of atoms/cell      =           38
     number of atomic types    =            3
     number of electrons       =       365.00
     number of Kohn-Sham states=          220
     kinetic-energy cutoff     =      40.0000  Ry
     charge density cutoff     =     410.0000  Ry
     scf convergence threshold =      1.0E-06
     mixing beta               =       0.7000
     number of iterations used =            8  local-TF  mixing
     Exchange-correlation= BEEF-VDW
                           (   1   4  43  14   2   0   0)

     celldm(1)=  16.034858  celldm(2)=   0.000000  celldm(3)=   0.000000
     celldm(4)=   0.000000  celldm(5)=   0.000000  celldm(6)=   0.000000

     crystal axes: (cart. coord. in units of alat)
               a(1) = (   1.000000   0.000000   0.000000 )  
               a(2) = (   0.500000   0.866025   0.000000 )  
               a(3) = (   0.000000   0.000000   2.819966 )  

     reciprocal axes: (cart. coord. in units 2 pi/alat)
               b(1) = (  1.000000 -0.577350  0.000000 )  
               b(2) = (  0.000000  1.154701  0.000000 )  
               b(3) = (  0.000000  0.000000  0.354614 )  


     PseudoPot. # 1 for Pt read from file:
     /users/kbadger1/espresso/pseudo/pslibrary.1.0.0/pbe/PSEUDOPOTENTIALS/Pt.pbe-n-kjpaw_psl.1.0.0.UPF
     MD5 check sum: 2e24a0b5bf98a4ed1a57fa81bca8c143
     Pseudo is Projector augmented-wave + core cor, Zval = 10.0
     Generated using 'atomic' code by A. Dal Corso  v.7.0
     Shape of augmentation charge: PSQ
     Using radial grid of 1277 points,  6 beta functions with: 
                l(1) =   0
                l(2) =   0
                l(3) =   1
                l(4) =   1
                l(5) =   2
                l(6) =   2
     Q(r) pseudized with 0 coefficients 


     PseudoPot. # 2 for C  read from file:
     /users/kbadger1/espresso/pseudo/pslibrary.1.0.0/pbe/PSEUDOPOTENTIALS/C.pbe-n-kjpaw_psl.1.0.0.UPF
     MD5 check sum: 6408e75cdba28732cea38a4db8498ce4
     Pseudo is Projector augmented-wave + core cor, Zval =  4.0
     Generated using 'atomic' code by A. Dal Corso  v.7.0
     Shape of augmentation charge: PSQ
     Using radial grid of 1073 points,  4 beta functions with: 
                l(1) =   0
                l(2) =   0
                l(3) =   1
                l(4) =   1
     Q(r) pseudized with 0 coefficients 


     PseudoPot. # 3 for H  read from file:
     /users/kbadger1/espresso/pseudo/pslibrary.1.0.0/pbe/PSEUDOPOTENTIALS/H.pbe-kjpaw_psl.1.0.0.UPF
     MD5 check sum: fe4c6fa958fa6d3815bf5d2419cbf1df
     Pseudo is Projector augmented-wave, Zval =  1.0
     Generated using 'atomic' code by A. Dal Corso  v.7.0
     Shape of augmentation charge: PSQ
     Using radial grid of  929 points,  2 beta functions with: 
                l(1) =   0
                l(2) =   0
     Q(r) pseudized with 0 coefficients 


     atomic species   valence    mass     pseudopotential
        Pt            10.00   195.08400     Pt( 1.00)
        C              4.00    12.01100     C ( 1.00)
        H              1.00     1.00800     H ( 1.00)

     No symmetry found



   Cartesian axes

     site n.     atom                  positions (alat units)
         1           Pt  tau(   1) = (   0.0000000   0.0000000   1.0017346  )
         2           Pt  tau(   2) = (   0.3333333   0.0000000   1.0017346  )
         3           Pt  tau(   3) = (   0.6666667   0.0000000   1.0017346  )
         4           Pt  tau(   4) = (   0.1666667   0.2886751   1.0017346  )
         5           Pt  tau(   5) = (   0.5000000   0.2886751   1.0017346  )
         6           Pt  tau(   6) = (   0.8333333   0.2886751   1.0017346  )
         7           Pt  tau(   7) = (   0.3333333   0.5773503   1.0017346  )
         8           Pt  tau(   8) = (   0.6666667   0.5773503   1.0017346  )
         9           Pt  tau(   9) = (   1.0000000   0.5773503   1.0017346  )
        10           Pt  tau(  10) = (   0.1666667   0.0962250   1.2739001  )
        11           Pt  tau(  11) = (   0.5000000   0.0962250   1.2739001  )
        12           Pt  tau(  12) = (   0.8333333   0.0962250   1.2739001  )
        13           Pt  tau(  13) = (   0.3333333   0.3849002   1.2739001  )
        14           Pt  tau(  14) = (   0.6666667   0.3849002   1.2739001  )
        15           Pt  tau(  15) = (   1.0000000   0.3849002   1.2739001  )
        16           Pt  tau(  16) = (   0.5000000   0.6735753   1.2739001  )
        17           Pt  tau(  17) = (   0.8333333   0.6735753   1.2739001  )
        18           Pt  tau(  18) = (   1.1666667   0.6735753   1.2739001  )
        19           Pt  tau(  19) = (   0.0017691   0.1939617   1.5488646  )
        20           Pt  tau(  20) = (   0.3315667   0.1939710   1.5488570  )
        21           Pt  tau(  21) = (   0.6666576   0.1949987   1.5420926  )
        22           Pt  tau(  22) = (   0.1666750   0.4790671   1.5504673  )
        23           Pt  tau(  23) = (   0.4994582   0.4833041   1.5415947  )
        24           Pt  tau(  24) = (   0.8338639   0.4833084   1.5416102  )
        25           Pt  tau(  25) = (   0.3345773   0.7729941   1.5463470  )
        26           Pt  tau(  26) = (   0.6666630   0.7732784   1.5466221  )
        27           Pt  tau(  27) = (   0.9987538   0.7730067   1.5463508  )
        28           Pt  tau(  28) = (  -0.0145586  -0.0037239   1.8320426  )
        29           Pt  tau(  29) = (   0.3478863  -0.0037221   1.8320263  )
        30           Pt  tau(  30) = (   0.6666641   0.0059291   1.8192242  )
        31           Pt  tau(  31) = (   0.1666709   0.3074922   1.8483419  )
        32           Pt  tau(  32) = (   0.5030985   0.2956169   1.8148969  )
        33           Pt  tau(  33) = (   0.8302307   0.2956122   1.8149023  )
        34           Pt  tau(  34) = (   0.3336607   0.5824953   1.8185937  )
        35           Pt  tau(  35) = (   0.6666555   0.5782094   1.8136067  )
        36           Pt  tau(  36) = (   0.9996798   0.5824997   1.8185932  )
        37           C   tau(  37) = (   0.1666675   0.0864049   1.9221660  )
        38           H   tau(  38) = (   0.1666827   0.2720264   2.0319386  )

     number of k points=    13  Marzari-Vanderbilt smearing, width (Ry)=  0.0010
                       cart. coord. in units 2pi/alat
        k(    1) = (   0.0000000   0.0000000   0.0000000), wk =   0.0800000
        k(    2) = (   0.0000000   0.2309401   0.0000000), wk =   0.1600000
        k(    3) = (   0.0000000   0.4618802   0.0000000), wk =   0.1600000
        k(    4) = (   0.2000000  -0.1154701   0.0000000), wk =   0.1600000
        k(    5) = (   0.2000000   0.1154701   0.0000000), wk =   0.1600000
        k(    6) = (   0.2000000   0.3464102   0.0000000), wk =   0.1600000
        k(    7) = (   0.2000000  -0.5773503   0.0000000), wk =   0.1600000
        k(    8) = (   0.2000000  -0.3464102   0.0000000), wk =   0.1600000
        k(    9) = (   0.4000000  -0.2309401   0.0000000), wk =   0.1600000
        k(   10) = (   0.4000000  -0.0000000   0.0000000), wk =   0.1600000
        k(   11) = (   0.4000000   0.2309401   0.0000000), wk =   0.1600000
        k(   12) = (   0.4000000  -0.6928203   0.0000000), wk =   0.1600000
        k(   13) = (   0.4000000  -0.4618802   0.0000000), wk =   0.1600000

     Dense  grid:  1411785 G-vectors     FFT dimensions: ( 108, 108, 300)

     Smooth grid:   344073 G-vectors     FFT dimensions: (  72,  72, 192)

     Estimated max dynamical RAM per process >     206.88 MB

     Estimated total dynamical RAM >       9.70 GB

     Initial potential from superposition of free atoms

     starting charge     364.9938, renormalised to     365.0000

     negative rho (up, down):  3.299E-03 0.000E+00


     %%%%%%%%%%%%%%%%%%%%%%%%%%%%%%%%%%%%%%%%%%%%%%%%%%%%%%%%%%%%%%%%%%%%%%%%
     %                                                                      %
     % You are using vdW-DF, which was implemented by the Thonhauser group. %
     % Please cite the following two papers that made this development      %
     % possible and the two reviews that describe the various versions:     %
     %                                                                      %
     %   T. Thonhauser et al., PRL 115, 136402 (2015).                      %
     %   T. Thonhauser et al., PRB 76, 125112 (2007).                       %
     %   K. Berland et al., Rep. Prog. Phys. 78, 066501 (2015).             %
     %   D.C. Langreth et al., J. Phys.: Condens. Matter 21, 084203 (2009). %
     %                                                                      %
     % If you are calculating stress with vdW-DF, please also cite:         %
     %                                                                      %
     %   R. Sabatini et al., J. Phys.: Condens. Matter 24, 424209 (2012).   %
     %                                                                      %
     %%%%%%%%%%%%%%%%%%%%%%%%%%%%%%%%%%%%%%%%%%%%%%%%%%%%%%%%%%%%%%%%%%%%%%%%

     %%%%%%%%%%%%%%%%%%%%%%%%%%%%%%%%%%%%%%%%%%%%%%%%%%%%%%%%%%%%%%%%%%%%%%%%
     %                                                                      %
     %  vdW-DF NEWS:                                                        %
     %                                                                      %
     %  * vdW-DF3 is now available. DOI: 10.1021/acs.jctc.0c00471           %
     %    use with input_dft = 'vdW-DF3-opt1' or 'vdW-DF3-opt2'             %
     %                                                                      %
     %  * Unscreened and range-separated hybrid vdW-DF-cx functionals       %
     %    DOI: 10.1063/1.4986522 and 10.1088/1361-648X/ac2ad2               %
     %    use with input_dft = 'vdW-DF-cx0'    and 'vdW-DF-ahcx'            %
     %  * Unscreened and range-separated hybrid vdW-DF2-b86r functionals    %
     %    DOI: 10.1063/1.4986522 and DOI: 10.1103/PhysRevX.12.041003        %
     %    use with input_dft = 'vdW-DF2-br0' and 'vdW-DF2-ahbr'             %
     %                                                                      %
     %%%%%%%%%%%%%%%%%%%%%%%%%%%%%%%%%%%%%%%%%%%%%%%%%%%%%%%%%%%%%%%%%%%%%%%%


     Starting wfcs are  329 randomized atomic wfcs
     Checking if some PAW data can be deallocated... 

     total cpu time spent up to now is       19.2 secs

     per-process dynamical memory:   211.8 Mb

     Self-consistent Calculation

     iteration #  1     ecut=    40.00 Ry     beta= 0.70
     Davidson diagonalization with overlap
     ethr =  1.00E-02,  avg # of iterations =  2.0

     Threshold (ethr) on eigenvalues was too large:
     Diagonalizing with lowered threshold

     Davidson diagonalization with overlap
     ethr =  5.04E-04,  avg # of iterations =  3.8

     negative rho (up, down):  1.472E-02 0.000E+00

     total cpu time spent up to now is       57.8 secs

     total energy              =  -27774.04302595 Ry
     estimated scf accuracy    <       2.10193628 Ry

     iteration #  2     ecut=    40.00 Ry     beta= 0.70
     Davidson diagonalization with overlap
     ethr =  5.76E-04,  avg # of iterations =  2.0

     negative rho (up, down):  1.222E-02 0.000E+00

     total cpu time spent up to now is       78.6 secs

     total energy              =  -27774.26636348 Ry
     estimated scf accuracy    <       0.77648507 Ry

     iteration #  3     ecut=    40.00 Ry     beta= 0.70
     Davidson diagonalization with overlap
     ethr =  2.13E-04,  avg # of iterations =  2.0

     negative rho (up, down):  8.187E-03 0.000E+00

     total cpu time spent up to now is       99.6 secs

     total energy              =  -27774.33062440 Ry
     estimated scf accuracy    <       0.15831501 Ry

     iteration #  4     ecut=    40.00 Ry     beta= 0.70
     Davidson diagonalization with overlap
     c_bands:  1 eigenvalues not converged
     ethr =  4.34E-05,  avg # of iterations = 10.8

     negative rho (up, down):  4.167E-03 0.000E+00

     total cpu time spent up to now is      132.5 secs

     total energy              =  -27774.37668711 Ry
     estimated scf accuracy    <       0.07057148 Ry

     iteration #  5     ecut=    40.00 Ry     beta= 0.70
     Davidson diagonalization with overlap
     ethr =  1.93E-05,  avg # of iterations =  5.2

     negative rho (up, down):  2.692E-03 0.000E+00

     total cpu time spent up to now is      149.2 secs

     total energy              =  -27774.38213878 Ry
     estimated scf accuracy    <       0.03406870 Ry

     iteration #  6     ecut=    40.00 Ry     beta= 0.70
     Davidson diagonalization with overlap
     ethr =  9.33E-06,  avg # of iterations =  6.4

     negative rho (up, down):  9.310E-04 0.000E+00

     total cpu time spent up to now is      173.2 secs

     total energy              =  -27774.38330887 Ry
     estimated scf accuracy    <       0.00624231 Ry

     iteration #  7     ecut=    40.00 Ry     beta= 0.70
     Davidson diagonalization with overlap
     c_bands:  1 eigenvalues not converged
     ethr =  1.71E-06,  avg # of iterations = 12.2

     negative rho (up, down):  5.146E-04 0.000E+00

     total cpu time spent up to now is      222.2 secs

     total energy              =  -27774.38463298 Ry
     estimated scf accuracy    <       0.00230011 Ry

     iteration #  8     ecut=    40.00 Ry     beta= 0.70
     Davidson diagonalization with overlap
     ethr =  6.30E-07,  avg # of iterations =  2.5

     negative rho (up, down):  3.928E-04 0.000E+00

     total cpu time spent up to now is      239.9 secs

     total energy              =  -27774.38492728 Ry
     estimated scf accuracy    <       0.00036566 Ry

     iteration #  9     ecut=    40.00 Ry     beta= 0.70
     Davidson diagonalization with overlap
     ethr =  1.00E-07,  avg # of iterations =  5.1

     negative rho (up, down):  3.275E-04 0.000E+00

     total cpu time spent up to now is      279.2 secs

     total energy              =  -27774.38505842 Ry
     estimated scf accuracy    <       0.00031267 Ry

     iteration # 10     ecut=    40.00 Ry     beta= 0.70
     Davidson diagonalization with overlap
     c_bands:  1 eigenvalues not converged
     ethr =  8.57E-08,  avg # of iterations =  2.8

     negative rho (up, down):  3.565E-04 0.000E+00

     total cpu time spent up to now is      293.0 secs

     total energy              =  -27774.38508220 Ry
     estimated scf accuracy    <       0.00017783 Ry

     iteration # 11     ecut=    40.00 Ry     beta= 0.70
     Davidson diagonalization with overlap
     ethr =  4.87E-08,  avg # of iterations =  1.8

     negative rho (up, down):  4.993E-04 0.000E+00

     total cpu time spent up to now is      315.2 secs

     total energy              =  -27774.38511356 Ry
     estimated scf accuracy    <       0.00011264 Ry

     iteration # 12     ecut=    40.00 Ry     beta= 0.70
     Davidson diagonalization with overlap
     ethr =  3.09E-08,  avg # of iterations =  1.3

     negative rho (up, down):  8.996E-04 0.000E+00

     total cpu time spent up to now is      327.0 secs

     total energy              =  -27774.38514487 Ry
     estimated scf accuracy    <       0.00006352 Ry

     iteration # 13     ecut=    40.00 Ry     beta= 0.70
     Davidson diagonalization with overlap
     ethr =  1.74E-08,  avg # of iterations =  2.4

     negative rho (up, down):  1.530E-03 0.000E+00

     total cpu time spent up to now is      348.1 secs

     total energy              =  -27774.38516278 Ry
     estimated scf accuracy    <       0.00002385 Ry

     iteration # 14     ecut=    40.00 Ry     beta= 0.70
     Davidson diagonalization with overlap
     ethr =  6.53E-09,  avg # of iterations =  2.0

     negative rho (up, down):  1.815E-03 0.000E+00

     total cpu time spent up to now is      370.6 secs

     total energy              =  -27774.38517108 Ry
     estimated scf accuracy    <       0.00001246 Ry

     iteration # 15     ecut=    40.00 Ry     beta= 0.70
     Davidson diagonalization with overlap
     ethr =  3.41E-09,  avg # of iterations =  1.9

     negative rho (up, down):  2.559E-03 0.000E+00

     total cpu time spent up to now is      383.2 secs

     total energy              =  -27774.38517146 Ry
     estimated scf accuracy    <       0.00000476 Ry

     iteration # 16     ecut=    40.00 Ry     beta= 0.70
     Davidson diagonalization with overlap
     ethr =  1.31E-09,  avg # of iterations =  3.3

     negative rho (up, down):  2.862E-03 0.000E+00

     total cpu time spent up to now is      407.9 secs

     total energy              =  -27774.38517062 Ry
     estimated scf accuracy    <       0.00000175 Ry

     iteration # 17     ecut=    40.00 Ry     beta= 0.70
     Davidson diagonalization with overlap
     ethr =  4.78E-10,  avg # of iterations =  4.1

     negative rho (up, down):  3.129E-03 0.000E+00

     total cpu time spent up to now is      434.8 secs

     End of self-consistent calculation

          k = 0.0000 0.0000 0.0000 ( 42913 PWs)   bands (ev):

    -9.8035  -6.0869  -4.8037  -4.6749  -4.2232  -3.7894  -3.7410  -3.7204
    -3.6971  -3.6730  -3.6409  -3.6006  -3.5743  -3.4029  -3.1775  -3.1768
    -3.1765  -3.0996  -3.0949  -3.0688  -2.7569  -2.7492  -2.7084  -2.6167
    -2.5428  -2.5369  -2.5209  -2.5034  -2.4731  -2.4462  -2.4209  -2.4088
    -2.3397  -2.3348  -2.2684  -2.2398  -2.2230  -2.2128  -2.1797  -2.1606
    -2.1412  -2.0397  -1.9273  -1.8093  -1.7852  -1.7280  -1.6599  -1.6452
    -1.6267  -1.6211  -1.5927  -1.5206  -1.5155  -1.4549  -1.3975  -1.3714
    -1.3346  -1.2804  -1.0009  -0.9824  -0.9740  -0.8759  -0.8575  -0.8170
    -0.7719  -0.7357  -0.7310  -0.6889  -0.6564  -0.6468  -0.6377  -0.6271
    -0.6160  -0.6019  -0.5583  -0.5491  -0.5476  -0.5297  -0.5233  -0.5112
    -0.4704  -0.4701  -0.4588  -0.4267  -0.4170  -0.3628  -0.3291  -0.2919
    -0.2443  -0.2250  -0.2200  -0.1935  -0.1748  -0.1509  -0.1164  -0.1132
    -0.0960  -0.0559  -0.0087  -0.0024   0.0173   0.0443   0.0468   0.0530
     0.1251   0.1417   0.1701   0.2012   0.2189   0.2657   0.4166   0.4836
     0.5159   0.5567   0.6461   0.6628   0.6891   0.6980   0.7187   0.7459
     0.8143   0.8370   0.8535   0.8949   0.9059   0.9109   0.9224   0.9228
     0.9831   1.0378   1.1419   1.1508   1.1865   1.2037   1.2282   1.2512
     1.2695   1.3365   1.3923   1.4018   1.4326   1.4517   1.4817   1.5006
     1.5035   1.5513   1.6062   1.6645   1.7056   1.7154   1.7181   1.7545
     1.8025   1.8682   1.8736   1.8764   1.8901   1.8938   1.8952   1.9172
     1.9237   1.9297   1.9686   1.9725   1.9925   2.0107   2.0186   2.0311
     2.0823   2.0832   2.1077   2.1105   2.1204   2.1621   2.1661   2.1948
     2.2464   2.2479   2.2585   2.2674   2.2695   2.2982   2.3211   2.3458
     2.3738   2.3755   2.4109   2.4176   2.5382   2.5416   2.6476   2.6589
     2.6662   2.7029   2.7048   2.7277   2.8882   2.9427   3.3170   3.3967
     3.5650   3.5715   3.6147   4.3487   4.4441   4.7603   5.6696   5.8486
     5.8553   5.9494   6.1398   6.2405   6.6462   7.5066   7.5132   7.5135
     7.5311   7.5704   7.7156   7.7386

          k = 0.0000 0.2309 0.0000 ( 42996 PWs)   bands (ev):

    -9.7963  -5.9470  -4.7994  -4.5798  -4.1888  -4.1531  -3.7876  -3.7153
    -3.6394  -3.5936  -3.4908  -3.4418  -3.4152  -3.3657  -3.2461  -3.1895
    -3.1068  -3.0862  -3.0189  -3.0057  -2.7626  -2.7045  -2.6643  -2.6603
    -2.5890  -2.5827  -2.5458  -2.4932  -2.4765  -2.4463  -2.4186  -2.3949
    -2.3629  -2.3407  -2.2932  -2.2616  -2.2294  -2.2159  -2.1311  -2.0453
    -2.0214  -2.0119  -1.8910  -1.8668  -1.8175  -1.7836  -1.7355  -1.7268
    -1.7014  -1.6883  -1.5907  -1.5399  -1.4646  -1.4324  -1.3978  -1.3411
    -1.3282  -1.2849  -1.1036  -1.0624  -1.0455  -1.0102  -0.9958  -0.9280
    -0.9172  -0.8925  -0.8691  -0.8296  -0.7876  -0.7653  -0.7169  -0.7091
    -0.6843  -0.6514  -0.6331  -0.5727  -0.5307  -0.5262  -0.4857  -0.4844
    -0.4403  -0.4303  -0.4092  -0.3964  -0.3798  -0.3443  -0.2941  -0.2892
    -0.2534  -0.2435  -0.2405  -0.2017  -0.1894  -0.1730  -0.1509  -0.1211
    -0.0722  -0.0713  -0.0350  -0.0340  -0.0203   0.0103   0.0132   0.0774
     0.0843   0.1744   0.1749   0.2139   0.2347   0.2368   0.2865   0.2917
     0.3172   0.3463   0.3678   0.4841   0.5212   0.6159   0.6255   0.6818
     0.7140   0.7317   0.7500   0.7520   0.8794   0.9395   0.9602   0.9648
     1.0216   1.0230   1.0524   1.0551   1.1042   1.1133   1.1554   1.1946
     1.2413   1.3066   1.3210   1.3268   1.3619   1.3934   1.4263   1.4563
     1.4685   1.5340   1.5393   1.5990   1.6377   1.6545   1.6766   1.7125
     1.7196   1.7515   1.7946   1.8425   1.8536   1.8896   1.8961   1.9396
     1.9660   2.0253   2.0292   2.0733   2.0773   2.1138   2.1539   2.1668
     2.2066   2.2411   2.2472   2.2717   2.3268   2.3317   2.3416   2.3587
     2.3755   2.4132   2.4248   2.4616   2.4796   2.5499   2.5523   2.5824
     2.6091   2.6243   2.6405   2.6796   2.6840   2.7054   2.7698   2.7719
     2.8269   2.8293   2.9238   2.9765   3.0091   3.2858   3.2985   3.4543
     3.7158   4.0074   4.2163   4.2563   4.8163   4.8375   5.3804   5.6058
     5.8336   5.9718   6.3482   6.5088   6.5909   6.5996   6.9269   7.3203
     7.5114   7.6684   7.7498   7.8407

          k = 0.0000 0.4619 0.0000 ( 43046 PWs)   bands (ev):

    -9.7846  -5.5518  -4.9962  -4.6408  -4.2059  -4.1327  -3.8251  -3.7007
    -3.6804  -3.4876  -3.3772  -3.3118  -3.2104  -3.1199  -3.1026  -3.0905
    -2.9620  -2.9499  -2.8904  -2.8722  -2.8459  -2.7992  -2.7330  -2.7180
    -2.6878  -2.6691  -2.6457  -2.6300  -2.5581  -2.5362  -2.3942  -2.3780
    -2.3098  -2.3062  -2.2725  -2.2300  -2.1975  -2.1370  -2.0975  -2.0496
    -2.0140  -2.0074  -1.9797  -1.8527  -1.8200  -1.7883  -1.7526  -1.7372
    -1.6367  -1.6297  -1.5970  -1.5693  -1.5509  -1.5426  -1.4560  -1.4154
    -1.3964  -1.3425  -1.2867  -1.2153  -1.1855  -1.1848  -1.1473  -1.0877
    -1.0287  -0.9859  -0.9564  -0.9521  -0.8673  -0.8669  -0.8312  -0.8114
    -0.7586  -0.6940  -0.6760  -0.6724  -0.6160  -0.6142  -0.5386  -0.5327
    -0.5256  -0.4904  -0.4791  -0.4609  -0.4120  -0.4079  -0.3915  -0.3580
    -0.3530  -0.3031  -0.2640  -0.2565  -0.2358  -0.2210  -0.1943  -0.1835
    -0.1219  -0.0982  -0.0577  -0.0509  -0.0195   0.0021   0.0200   0.0497
     0.0634   0.0685   0.1710   0.1842   0.2104   0.2528   0.2657   0.3468
     0.3864   0.3907   0.4716   0.4815   0.5099   0.5499   0.5910   0.6048
     0.6196   0.6680   0.6742   0.7402   0.7512   0.7619   0.7741   0.7976
     0.8291   0.9019   0.9054   0.9558   0.9855   0.9946   1.0584   1.0705
     1.1975   1.2260   1.2385   1.3063   1.3070   1.3614   1.3798   1.4194
     1.4962   1.5188   1.5657   1.5701   1.5737   1.5971   1.6219   1.6578
     1.7135   1.7626   1.7813   1.7855   1.8555   1.8599   1.9039   1.9166
     1.9822   2.0156   2.0498   2.0866   2.1342   2.1473   2.2457   2.2467
     2.2721   2.3009   2.3341   2.3690   2.3936   2.3987   2.4594   2.4986
     2.5029   2.5433   2.5630   2.5825   2.5946   2.6372   2.6627   2.7308
     2.7572   2.8347   2.8396   2.8498   2.8911   2.9241   3.0804   3.2050
     3.2856   3.3808   3.5574   3.8003   3.8386   4.0334   4.1184   4.3504
     4.4420   4.6578   4.6733   4.7895   5.1190   5.1410   5.2708   5.3583
     5.4807   5.5157   5.6162   5.9783   6.1443   6.2644   6.5233   6.9241
     6.9632   7.2930   7.4956   7.6154

          k = 0.2000-0.1155 0.0000 ( 42996 PWs)   bands (ev):

    -9.7957  -5.9466  -4.7386  -4.6137  -4.3268  -4.0437  -3.7863  -3.7428
    -3.6113  -3.5830  -3.5029  -3.4477  -3.4200  -3.3707  -3.2547  -3.1721
    -3.1166  -3.0780  -3.0257  -3.0118  -2.7768  -2.7220  -2.6609  -2.6478
    -2.5949  -2.5686  -2.5401  -2.4872  -2.4685  -2.4487  -2.4125  -2.3951
    -2.3709  -2.3481  -2.2913  -2.2728  -2.2456  -2.1922  -2.1408  -2.0823
    -2.0304  -1.9778  -1.8649  -1.8477  -1.8236  -1.7755  -1.7572  -1.7278
    -1.6998  -1.6516  -1.6333  -1.5100  -1.4511  -1.4201  -1.3837  -1.3602
    -1.3233  -1.2849  -1.1215  -1.0655  -1.0261  -0.9940  -0.9923  -0.9371
    -0.9180  -0.8940  -0.8696  -0.8208  -0.7925  -0.7453  -0.7161  -0.6985
    -0.6740  -0.6510  -0.6218  -0.5927  -0.5644  -0.5315  -0.4999  -0.4672
    -0.4378  -0.4244  -0.3985  -0.3891  -0.3843  -0.3530  -0.3145  -0.2876
    -0.2720  -0.2488  -0.2208  -0.2112  -0.1934  -0.1653  -0.1434  -0.1139
    -0.0915  -0.0753  -0.0455  -0.0298  -0.0180  -0.0017   0.0225   0.0597
     0.0799   0.1259   0.1738   0.2204   0.2324   0.2469   0.2825   0.2940
     0.3115   0.3744   0.3982   0.4917   0.5456   0.5850   0.6394   0.6644
     0.6747   0.7288   0.7486   0.8013   0.8772   0.8864   0.9347   0.9848
     1.0112   1.0292   1.0723   1.0840   1.1048   1.1253   1.1316   1.1639
     1.2397   1.2953   1.3101   1.3284   1.3490   1.4024   1.4279   1.4487
     1.4922   1.5141   1.5608   1.5888   1.6469   1.6846   1.6899   1.7157
     1.7321   1.7425   1.8139   1.8453   1.8666   1.8809   1.9135   1.9412
     1.9709   2.0011   2.0407   2.0685   2.0873   2.1262   2.1590   2.1687
     2.2121   2.2274   2.2469   2.2599   2.3188   2.3271   2.3440   2.3631
     2.3787   2.4048   2.4227   2.4515   2.4799   2.5362   2.5529   2.5804
     2.6131   2.6191   2.6449   2.6809   2.6880   2.7097   2.7586   2.7760
     2.8306   2.8890   2.9429   2.9682   3.0067   3.1396   3.3105   3.5860
     3.7760   3.8996   4.2270   4.3485   4.6092   4.8740   5.3714   5.6722
     5.8316   6.1005   6.2911   6.4539   6.5557   6.6749   6.8265   7.3206
     7.4830   7.6357   7.7266   7.8154

          k = 0.2000 0.1155 0.0000 ( 42996 PWs)   bands (ev):

    -9.7957  -5.9466  -4.7386  -4.6137  -4.3268  -4.0438  -3.7863  -3.7428
    -3.6113  -3.5830  -3.5028  -3.4477  -3.4200  -3.3707  -3.2547  -3.1721
    -3.1166  -3.0780  -3.0257  -3.0118  -2.7768  -2.7220  -2.6610  -2.6478
    -2.5949  -2.5686  -2.5401  -2.4872  -2.4685  -2.4487  -2.4125  -2.3952
    -2.3710  -2.3481  -2.2913  -2.2728  -2.2456  -2.1922  -2.1408  -2.0824
    -2.0304  -1.9779  -1.8649  -1.8477  -1.8236  -1.7755  -1.7572  -1.7278
    -1.6998  -1.6516  -1.6333  -1.5100  -1.4512  -1.4201  -1.3837  -1.3602
    -1.3233  -1.2848  -1.1216  -1.0655  -1.0261  -0.9940  -0.9923  -0.9371
    -0.9180  -0.8940  -0.8696  -0.8207  -0.7925  -0.7453  -0.7161  -0.6985
    -0.6740  -0.6510  -0.6218  -0.5927  -0.5643  -0.5315  -0.4999  -0.4672
    -0.4378  -0.4244  -0.3985  -0.3891  -0.3843  -0.3531  -0.3145  -0.2876
    -0.2720  -0.2488  -0.2208  -0.2112  -0.1934  -0.1653  -0.1434  -0.1139
    -0.0915  -0.0753  -0.0455  -0.0299  -0.0180  -0.0017   0.0225   0.0597
     0.0799   0.1259   0.1739   0.2204   0.2324   0.2469   0.2825   0.2940
     0.3115   0.3744   0.3982   0.4917   0.5456   0.5850   0.6394   0.6643
     0.6747   0.7287   0.7486   0.8014   0.8771   0.8864   0.9347   0.9848
     1.0112   1.0292   1.0723   1.0840   1.1049   1.1253   1.1316   1.1639
     1.2397   1.2953   1.3101   1.3284   1.3490   1.4025   1.4279   1.4487
     1.4921   1.5140   1.5608   1.5888   1.6469   1.6846   1.6899   1.7157
     1.7321   1.7425   1.8139   1.8453   1.8666   1.8810   1.9135   1.9412
     1.9709   2.0011   2.0407   2.0685   2.0873   2.1262   2.1590   2.1687
     2.2121   2.2274   2.2469   2.2599   2.3188   2.3271   2.3441   2.3631
     2.3787   2.4048   2.4227   2.4515   2.4799   2.5362   2.5529   2.5804
     2.6130   2.6191   2.6449   2.6809   2.6880   2.7097   2.7586   2.7760
     2.8306   2.8890   2.9429   2.9682   3.0067   3.1396   3.3106   3.5859
     3.7760   3.8996   4.2270   4.3485   4.6092   4.8741   5.3715   5.6722
     5.8316   6.1005   6.2911   6.4539   6.5557   6.6749   6.8265   7.3206
     7.4829   7.6357   7.7270   7.8148

          k = 0.2000 0.3464 0.0000 ( 43046 PWs)   bands (ev):

    -9.7862  -5.6770  -4.8040  -4.5291  -4.3663  -4.3020  -4.0011  -3.5245
    -3.4135  -3.3924  -3.3504  -3.3317  -3.2869  -3.2710  -3.2338  -3.2129
    -3.1613  -3.0724  -2.8432  -2.8201  -2.7947  -2.7771  -2.7344  -2.6810
    -2.6408  -2.6215  -2.5435  -2.5183  -2.4845  -2.4764  -2.4449  -2.4175
    -2.3850  -2.3356  -2.3216  -2.2793  -2.2563  -2.2114  -2.1623  -2.0815
    -2.0012  -1.9078  -1.8751  -1.8495  -1.8083  -1.7650  -1.7481  -1.7180
    -1.6790  -1.6506  -1.5928  -1.5428  -1.5338  -1.4700  -1.4269  -1.3644
    -1.3328  -1.3166  -1.2605  -1.2012  -1.1587  -1.1437  -1.1095  -1.0459
    -1.0128  -0.9663  -0.9440  -0.9246  -0.9073  -0.8468  -0.8044  -0.7717
    -0.7451  -0.7171  -0.7030  -0.6711  -0.6056  -0.5839  -0.5485  -0.5235
    -0.4885  -0.4768  -0.4592  -0.4427  -0.4187  -0.3889  -0.3533  -0.3355
    -0.3007  -0.2820  -0.2668  -0.2489  -0.2116  -0.1950  -0.1772  -0.1336
    -0.1227  -0.0791  -0.0570  -0.0380  -0.0231  -0.0003   0.0098   0.0310
     0.0486   0.0835   0.0944   0.1288   0.1809   0.2056   0.2404   0.2793
     0.3046   0.3497   0.3593   0.4575   0.5160   0.5642   0.5768   0.6044
     0.6571   0.6975   0.7171   0.7422   0.7817   0.7988   0.8274   0.8595
     0.8788   0.9063   0.9369   0.9988   1.0263   1.0947   1.1123   1.1373
     1.1880   1.2381   1.2704   1.2884   1.2995   1.3183   1.3524   1.4323
     1.4615   1.4900   1.5297   1.5583   1.6164   1.6346   1.6437   1.6764
     1.6979   1.7077   1.7394   1.7472   1.7904   1.8277   1.8772   1.9711
     2.0029   2.0493   2.1214   2.1708   2.1912   2.2301   2.2474   2.2857
     2.3403   2.3598   2.3762   2.4097   2.4251   2.4424   2.4565   2.4751
     2.4982   2.5115   2.5507   2.5737   2.6000   2.6216   2.6563   2.6879
     2.7156   2.7639   2.8128   2.8505   2.8950   2.9243   2.9657   2.9960
     3.0887   3.1178   3.4326   3.5779   3.6762   3.8153   3.8972   4.0925
     4.1888   4.3089   4.6657   4.8020   4.9517   5.1343   5.2377   5.2607
     5.4093   5.9489   6.1483   6.2957   6.3949   6.6178   6.6820   6.9921
     7.0859   7.1561   7.2270   7.4817

          k = 0.2000-0.5774 0.0000 ( 43014 PWs)   bands (ev):

    -9.7803  -5.2476  -5.1195  -4.6915  -4.5051  -4.0321  -3.8932  -3.7899
    -3.4078  -3.3492  -3.3252  -3.2423  -3.1781  -3.1020  -3.0734  -3.0009
    -2.9676  -2.8805  -2.8784  -2.8562  -2.8368  -2.8119  -2.7797  -2.7562
    -2.6829  -2.6659  -2.6474  -2.6332  -2.6042  -2.5377  -2.4411  -2.4058
    -2.3974  -2.3499  -2.2931  -2.2623  -2.2282  -2.2054  -2.2000  -2.0807
    -2.0441  -1.9545  -1.8643  -1.8548  -1.8084  -1.7688  -1.7603  -1.7194
    -1.6800  -1.5616  -1.5352  -1.4713  -1.4602  -1.4080  -1.3916  -1.3639
    -1.3473  -1.3147  -1.2898  -1.2852  -1.2298  -1.1866  -1.1620  -1.1490
    -1.1059  -1.0856  -1.0338  -1.0065  -0.9394  -0.9341  -0.8854  -0.8376
    -0.8039  -0.7770  -0.7599  -0.7342  -0.6989  -0.6720  -0.6495  -0.6217
    -0.5873  -0.5413  -0.5273  -0.4920  -0.4462  -0.4245  -0.3839  -0.3580
    -0.3299  -0.3080  -0.2864  -0.2216  -0.2001  -0.1534  -0.1345  -0.1230
    -0.0956  -0.0767  -0.0602  -0.0400  -0.0192  -0.0020   0.0235   0.0495
     0.0573   0.0821   0.0950   0.1207   0.1376   0.1384   0.1685   0.2364
     0.2684   0.3261   0.4105   0.4846   0.4886   0.5280   0.5429   0.5934
     0.6185   0.6583   0.6650   0.6869   0.7168   0.7538   0.7734   0.8044
     0.8875   0.9080   0.9302   0.9532   0.9785   1.0313   1.0909   1.1462
     1.1858   1.2364   1.2648   1.2843   1.3133   1.3583   1.3681   1.3693
     1.3995   1.4624   1.4664   1.4971   1.5020   1.5725   1.5886   1.6279
     1.6598   1.6903   1.7671   1.7907   1.8285   1.9146   1.9398   2.0068
     2.0415   2.0760   2.1096   2.1609   2.1800   2.2282   2.2623   2.3014
     2.3593   2.3666   2.4096   2.4330   2.4489   2.4815   2.5170   2.5253
     2.5495   2.5566   2.5843   2.6341   2.6532   2.6838   2.7408   2.7699
     2.8182   2.8523   2.8641   2.8852   2.9107   2.9329   3.0939   3.1517
     3.3867   3.7534   3.9943   4.0157   4.1556   4.2648   4.2882   4.4460
     4.5608   4.6090   4.8342   5.0270   5.0933   5.1639   5.4478   5.5300
     5.6004   5.7289   5.7677   5.9173   6.1484   6.2066   6.3003   6.4215
     6.6829   6.9774   7.1051   7.1523

          k = 0.2000-0.3464 0.0000 ( 43046 PWs)   bands (ev):

    -9.7862  -5.6770  -4.8040  -4.5291  -4.3663  -4.3020  -4.0011  -3.5245
    -3.4135  -3.3924  -3.3505  -3.3317  -3.2868  -3.2710  -3.2338  -3.2130
    -3.1614  -3.0724  -2.8432  -2.8201  -2.7947  -2.7771  -2.7344  -2.6810
    -2.6408  -2.6215  -2.5435  -2.5183  -2.4845  -2.4765  -2.4448  -2.4175
    -2.3850  -2.3355  -2.3217  -2.2793  -2.2563  -2.2114  -2.1623  -2.0815
    -2.0012  -1.9078  -1.8750  -1.8495  -1.8083  -1.7650  -1.7481  -1.7180
    -1.6790  -1.6506  -1.5927  -1.5429  -1.5338  -1.4700  -1.4269  -1.3644
    -1.3328  -1.3166  -1.2605  -1.2012  -1.1588  -1.1437  -1.1095  -1.0458
    -1.0128  -0.9663  -0.9440  -0.9246  -0.9073  -0.8468  -0.8044  -0.7718
    -0.7451  -0.7171  -0.7030  -0.6711  -0.6057  -0.5839  -0.5485  -0.5235
    -0.4885  -0.4768  -0.4592  -0.4427  -0.4188  -0.3890  -0.3533  -0.3355
    -0.3007  -0.2820  -0.2668  -0.2489  -0.2116  -0.1950  -0.1773  -0.1336
    -0.1227  -0.0790  -0.0570  -0.0380  -0.0231  -0.0004   0.0098   0.0310
     0.0486   0.0835   0.0944   0.1288   0.1809   0.2056   0.2404   0.2793
     0.3046   0.3497   0.3593   0.4576   0.5160   0.5643   0.5767   0.6044
     0.6571   0.6975   0.7171   0.7423   0.7816   0.7988   0.8274   0.8595
     0.8788   0.9062   0.9369   0.9988   1.0264   1.0947   1.1123   1.1373
     1.1880   1.2381   1.2704   1.2884   1.2995   1.3183   1.3524   1.4323
     1.4615   1.4900   1.5297   1.5583   1.6164   1.6346   1.6437   1.6764
     1.6979   1.7077   1.7394   1.7473   1.7904   1.8277   1.8771   1.9710
     2.0029   2.0493   2.1215   2.1708   2.1912   2.2301   2.2474   2.2857
     2.3403   2.3598   2.3762   2.4097   2.4251   2.4424   2.4565   2.4751
     2.4982   2.5115   2.5507   2.5737   2.6000   2.6216   2.6563   2.6879
     2.7156   2.7639   2.8128   2.8505   2.8949   2.9243   2.9657   2.9960
     3.0887   3.1178   3.4327   3.5779   3.6762   3.8153   3.8972   4.0925
     4.1888   4.3089   4.6657   4.8020   4.9517   5.1343   5.2376   5.2607
     5.4093   5.9489   6.1483   6.2957   6.3949   6.6177   6.6820   6.9921
     7.0858   7.1562   7.2269   7.4816

          k = 0.4000-0.2309 0.0000 ( 43046 PWs)   bands (ev):

    -9.7829  -5.5479  -4.9645  -4.6002  -4.3739  -4.0864  -3.8011  -3.7675
    -3.6047  -3.4968  -3.4052  -3.2874  -3.2127  -3.1322  -3.1028  -3.0925
    -2.9726  -2.9419  -2.9037  -2.8795  -2.8639  -2.8049  -2.7304  -2.7237
    -2.6924  -2.6822  -2.6533  -2.6172  -2.5440  -2.5260  -2.4098  -2.3618
    -2.3292  -2.2932  -2.2456  -2.2180  -2.1847  -2.1373  -2.1094  -2.0775
    -2.0270  -1.9971  -1.9560  -1.8861  -1.8184  -1.7653  -1.7372  -1.6789
    -1.6371  -1.6247  -1.5955  -1.5597  -1.5468  -1.5400  -1.4619  -1.4023
    -1.3791  -1.3547  -1.2562  -1.2079  -1.1908  -1.1630  -1.1576  -1.0830
    -1.0271  -0.9931  -0.9593  -0.9253  -0.8883  -0.8545  -0.8316  -0.7970
    -0.7687  -0.7169  -0.6926  -0.6523  -0.6146  -0.6086  -0.5637  -0.5318
    -0.4926  -0.4821  -0.4767  -0.4545  -0.4341  -0.4110  -0.3879  -0.3697
    -0.3578  -0.3254  -0.3097  -0.2542  -0.2268  -0.2138  -0.2063  -0.1705
    -0.1408  -0.0797  -0.0726  -0.0543  -0.0388  -0.0005   0.0244   0.0449
     0.0709   0.1132   0.1435   0.1824   0.2129   0.2525   0.2743   0.3167
     0.3530   0.3916   0.4226   0.4818   0.5388   0.5683   0.5878   0.5955
     0.6305   0.6668   0.6966   0.7156   0.7421   0.7671   0.7737   0.7808
     0.8204   0.9001   0.9345   0.9583   0.9716   0.9954   1.0167   1.0860
     1.1493   1.2289   1.2380   1.2796   1.3191   1.3640   1.3794   1.4560
     1.5054   1.5197   1.5542   1.5661   1.5879   1.5970   1.6476   1.6619
     1.7230   1.7675   1.7805   1.8164   1.8471   1.8661   1.8949   1.9184
     1.9923   2.0300   2.0659   2.0890   2.1383   2.1983   2.2345   2.2486
     2.2597   2.2929   2.3317   2.3689   2.3968   2.4075   2.4412   2.4841
     2.5105   2.5483   2.5567   2.5783   2.5986   2.6508   2.6725   2.7344
     2.7629   2.8264   2.8413   2.8635   2.9150   2.9342   3.0778   3.1104
     3.2862   3.4675   3.6054   3.7999   3.8671   4.0288   4.0735   4.3346
     4.4478   4.5404   4.6829   4.8834   5.0736   5.1731   5.2225   5.3014
     5.4828   5.5743   5.6216   5.9975   6.1545   6.3212   6.4307   6.7695
     7.0185   7.2166   7.4969   7.5757

          k = 0.4000-0.0000 0.0000 ( 43046 PWs)   bands (ev):

    -9.7852  -5.6751  -4.7281  -4.5841  -4.3822  -4.3419  -3.9951  -3.5022
    -3.4233  -3.3874  -3.3510  -3.3275  -3.3023  -3.2617  -3.2537  -3.2306
    -3.1416  -3.0725  -2.8557  -2.8271  -2.8080  -2.7840  -2.7120  -2.6807
    -2.6461  -2.6308  -2.5388  -2.5005  -2.4962  -2.4756  -2.4446  -2.4255
    -2.3836  -2.3335  -2.3136  -2.2913  -2.2347  -2.2095  -2.1875  -2.0842
    -1.9761  -1.9287  -1.8683  -1.8280  -1.8217  -1.7867  -1.7294  -1.6872
    -1.6664  -1.5859  -1.5793  -1.5757  -1.4957  -1.4619  -1.4474  -1.3695
    -1.3446  -1.3219  -1.2663  -1.2438  -1.1576  -1.1185  -1.0694  -1.0284
    -1.0237  -0.9631  -0.9508  -0.9121  -0.9050  -0.8729  -0.7850  -0.7509
    -0.7478  -0.7121  -0.7066  -0.6436  -0.6210  -0.5819  -0.5723  -0.5265
    -0.5128  -0.4858  -0.4427  -0.4300  -0.4042  -0.3893  -0.3732  -0.3526
    -0.3227  -0.2872  -0.2530  -0.2335  -0.2249  -0.1943  -0.1651  -0.1416
    -0.1319  -0.0917  -0.0751  -0.0529  -0.0211  -0.0039   0.0158   0.0356
     0.0468   0.0675   0.0874   0.1124   0.1757   0.1995   0.2642   0.3047
     0.3121   0.3204   0.3880   0.4431   0.4889   0.5281   0.5841   0.5957
     0.6364   0.6824   0.7242   0.7444   0.7786   0.8128   0.8476   0.8569
     0.8700   0.9160   0.9437   0.9809   1.0233   1.0969   1.1017   1.1485
     1.2065   1.2356   1.2693   1.2860   1.3017   1.3244   1.3751   1.4140
     1.4326   1.4771   1.5609   1.5799   1.6240   1.6464   1.6616   1.6833
     1.6893   1.7083   1.7379   1.7494   1.7899   1.8531   1.8938   1.9462
     2.0090   2.0390   2.1321   2.1801   2.2034   2.2303   2.2644   2.2886
     2.3414   2.3717   2.3774   2.3875   2.4265   2.4387   2.4529   2.4667
     2.4974   2.5026   2.5507   2.5571   2.5935   2.6132   2.6599   2.6889
     2.7187   2.8033   2.8200   2.8476   2.9005   2.9390   2.9870   3.0103
     3.0929   3.1249   3.3331   3.5956   3.6469   3.7875   3.8975   4.1737
     4.1959   4.3785   4.5947   4.8285   5.0085   5.0328   5.1827   5.3119
     5.3836   6.0227   6.0897   6.2618   6.4352   6.6249   6.6417   6.8938
     7.1048   7.1735   7.2352   7.4363

          k = 0.4000 0.2309 0.0000 ( 43046 PWs)   bands (ev):

    -9.7829  -5.5479  -4.9645  -4.6002  -4.3739  -4.0864  -3.8011  -3.7675
    -3.6047  -3.4968  -3.4052  -3.2874  -3.2127  -3.1322  -3.1029  -3.0925
    -2.9725  -2.9419  -2.9037  -2.8796  -2.8639  -2.8049  -2.7304  -2.7237
    -2.6924  -2.6822  -2.6533  -2.6172  -2.5440  -2.5260  -2.4098  -2.3618
    -2.3293  -2.2933  -2.2455  -2.2180  -2.1847  -2.1373  -2.1094  -2.0775
    -2.0270  -1.9971  -1.9560  -1.8861  -1.8184  -1.7653  -1.7372  -1.6789
    -1.6371  -1.6247  -1.5955  -1.5597  -1.5468  -1.5400  -1.4618  -1.4023
    -1.3791  -1.3546  -1.2562  -1.2079  -1.1908  -1.1630  -1.1576  -1.0830
    -1.0271  -0.9931  -0.9593  -0.9253  -0.8883  -0.8544  -0.8316  -0.7970
    -0.7687  -0.7169  -0.6926  -0.6522  -0.6146  -0.6086  -0.5637  -0.5318
    -0.4926  -0.4821  -0.4766  -0.4545  -0.4341  -0.4109  -0.3879  -0.3698
    -0.3578  -0.3254  -0.3097  -0.2542  -0.2268  -0.2137  -0.2063  -0.1705
    -0.1407  -0.0796  -0.0726  -0.0543  -0.0387  -0.0005   0.0244   0.0449
     0.0709   0.1132   0.1434   0.1824   0.2129   0.2526   0.2742   0.3167
     0.3530   0.3915   0.4226   0.4818   0.5388   0.5683   0.5877   0.5955
     0.6305   0.6668   0.6966   0.7156   0.7421   0.7671   0.7737   0.7808
     0.8204   0.9001   0.9345   0.9583   0.9716   0.9954   1.0167   1.0860
     1.1493   1.2288   1.2380   1.2796   1.3191   1.3641   1.3794   1.4560
     1.5055   1.5197   1.5541   1.5660   1.5879   1.5970   1.6476   1.6619
     1.7230   1.7675   1.7804   1.8164   1.8471   1.8661   1.8949   1.9184
     1.9923   2.0300   2.0659   2.0891   2.1384   2.1983   2.2345   2.2486
     2.2598   2.2929   2.3317   2.3690   2.3968   2.4075   2.4412   2.4841
     2.5105   2.5483   2.5567   2.5783   2.5986   2.6508   2.6725   2.7344
     2.7629   2.8263   2.8413   2.8635   2.9151   2.9342   3.0778   3.1104
     3.2862   3.4675   3.6055   3.7999   3.8671   4.0287   4.0735   4.3346
     4.4478   4.5404   4.6829   4.8834   5.0735   5.1731   5.2225   5.3014
     5.4828   5.5743   5.6216   5.9975   6.1546   6.3212   6.4307   6.7694
     7.0185   7.2166   7.4969   7.5757

          k = 0.4000-0.6928 0.0000 ( 43014 PWs)   bands (ev):

    -9.7793  -5.2264  -5.1276  -4.7124  -4.4248  -4.1965  -3.8869  -3.6959
    -3.4602  -3.3571  -3.3265  -3.2062  -3.1684  -3.0976  -3.0881  -2.9945
    -2.9572  -2.9155  -2.8827  -2.8541  -2.8437  -2.8261  -2.7911  -2.7556
    -2.6786  -2.6612  -2.6506  -2.6374  -2.6023  -2.5276  -2.4526  -2.4035
    -2.3951  -2.3482  -2.3002  -2.2546  -2.2204  -2.2036  -2.1296  -2.0813
    -2.0536  -2.0101  -1.8774  -1.8460  -1.8176  -1.7725  -1.7518  -1.6833
    -1.6383  -1.5562  -1.5343  -1.4994  -1.4536  -1.4266  -1.3690  -1.3578
    -1.3418  -1.2978  -1.2885  -1.2703  -1.2150  -1.1815  -1.1562  -1.1456
    -1.1221  -1.0721  -1.0341  -1.0044  -0.9576  -0.9326  -0.8826  -0.8422
    -0.8022  -0.7787  -0.7669  -0.7516  -0.7097  -0.6855  -0.6308  -0.5926
    -0.5820  -0.5422  -0.5273  -0.5006  -0.4596  -0.4069  -0.3792  -0.3622
    -0.3539  -0.3007  -0.2609  -0.2361  -0.1938  -0.1812  -0.1481  -0.1208
    -0.1000  -0.0813  -0.0610  -0.0503  -0.0282  -0.0126   0.0158   0.0495
     0.0627   0.0744   0.0927   0.1131   0.1295   0.1497   0.1749   0.2437
     0.3086   0.3319   0.3681   0.4467   0.4811   0.5202   0.5494   0.5945
     0.6383   0.6533   0.6626   0.7039   0.7237   0.7448   0.7764   0.7996
     0.8755   0.9066   0.9382   0.9481   0.9681   1.0645   1.0754   1.1278
     1.1454   1.2415   1.2698   1.2780   1.3188   1.3578   1.3709   1.3838
     1.4038   1.4512   1.4869   1.4961   1.5321   1.5761   1.5916   1.6337
     1.6630   1.6953   1.7520   1.7778   1.8462   1.9304   1.9463   1.9773
     2.0430   2.0778   2.1051   2.1807   2.2041   2.2336   2.2645   2.2927
     2.3336   2.3749   2.4121   2.4364   2.4514   2.4839   2.5153   2.5281
     2.5534   2.5717   2.5850   2.6259   2.6465   2.6888   2.7378   2.7711
     2.8029   2.8526   2.8701   2.8906   2.9204   2.9506   3.0804   3.2436
     3.3608   3.6925   3.9769   4.0151   4.1853   4.2283   4.2881   4.4001
     4.5594   4.7345   4.8401   5.0525   5.1102   5.1500   5.3115   5.5226
     5.6213   5.7335   5.8626   5.9241   6.0021   6.1593   6.3661   6.4822
     6.6447   6.8692   7.0879   7.1864

          k = 0.4000-0.4619 0.0000 ( 43014 PWs)   bands (ev):

    -9.7793  -5.2263  -5.1277  -4.7124  -4.4248  -4.1965  -3.8870  -3.6958
    -3.4602  -3.3572  -3.3266  -3.2061  -3.1684  -3.0976  -3.0881  -2.9944
    -2.9572  -2.9155  -2.8827  -2.8540  -2.8436  -2.8261  -2.7911  -2.7556
    -2.6786  -2.6612  -2.6506  -2.6374  -2.6023  -2.5276  -2.4526  -2.4035
    -2.3951  -2.3482  -2.3002  -2.2546  -2.2204  -2.2036  -2.1296  -2.0813
    -2.0535  -2.0101  -1.8774  -1.8461  -1.8176  -1.7725  -1.7518  -1.6833
    -1.6383  -1.5561  -1.5343  -1.4994  -1.4536  -1.4266  -1.3690  -1.3577
    -1.3418  -1.2978  -1.2885  -1.2703  -1.2150  -1.1815  -1.1562  -1.1457
    -1.1221  -1.0721  -1.0341  -1.0044  -0.9575  -0.9326  -0.8827  -0.8422
    -0.8022  -0.7786  -0.7669  -0.7516  -0.7097  -0.6855  -0.6308  -0.5925
    -0.5820  -0.5422  -0.5273  -0.5007  -0.4595  -0.4069  -0.3791  -0.3622
    -0.3539  -0.3007  -0.2609  -0.2361  -0.1938  -0.1813  -0.1481  -0.1208
    -0.1000  -0.0813  -0.0610  -0.0504  -0.0282  -0.0127   0.0158   0.0496
     0.0627   0.0745   0.0926   0.1131   0.1295   0.1497   0.1749   0.2437
     0.3087   0.3319   0.3681   0.4468   0.4811   0.5202   0.5494   0.5945
     0.6382   0.6532   0.6626   0.7038   0.7237   0.7448   0.7764   0.7996
     0.8754   0.9066   0.9381   0.9481   0.9681   1.0645   1.0754   1.1278
     1.1455   1.2414   1.2698   1.2780   1.3188   1.3578   1.3709   1.3838
     1.4038   1.4512   1.4868   1.4961   1.5321   1.5761   1.5916   1.6337
     1.6630   1.6953   1.7520   1.7778   1.8462   1.9304   1.9463   1.9773
     2.0430   2.0778   2.1050   2.1808   2.2041   2.2336   2.2645   2.2928
     2.3336   2.3748   2.4121   2.4364   2.4514   2.4838   2.5153   2.5281
     2.5534   2.5717   2.5850   2.6259   2.6465   2.6888   2.7378   2.7711
     2.8029   2.8526   2.8700   2.8906   2.9204   2.9506   3.0804   3.2436
     3.3608   3.6925   3.9769   4.0151   4.1853   4.2283   4.2881   4.4001
     4.5594   4.7345   4.8401   5.0525   5.1102   5.1500   5.3115   5.5226
     5.6213   5.7335   5.8626   5.9242   6.0021   6.1593   6.3661   6.4822
     6.6447   6.8692   7.0880   7.1865

     the Fermi energy is     2.6319 ev

!    total energy              =  -27774.38516901 Ry
     total all-electron energy =  -1326718.914683 Ry
     estimated scf accuracy    <       0.00000075 Ry
     smearing contrib. (-TS)   =       0.00003853 Ry
     internal energy E=F+TS    =  -27774.38520754 Ry

     The total energy is F=E-TS. E is the sum of the following terms:
     one-electron contribution =  -20728.30206441 Ry
     hartree contribution      =   10674.07747387 Ry
     xc contribution           =    -895.56463284 Ry
     ewald contribution        =    8656.01712605 Ry
     one-center paw contrib.   =  -25480.61311022 Ry

     convergence has been achieved in  17 iterations

     negative rho (up, down):  3.129E-03 0.000E+00

     Forces acting on atoms (cartesian axes, Ry/au):

     atom    1 type  1   force =    -0.00007528   -0.00063484   -0.00394747
     atom    2 type  1   force =     0.00006934   -0.00058433   -0.00395652
     atom    3 type  1   force =     0.00000884   -0.00222923   -0.00980867
     atom    4 type  1   force =     0.00004565   -0.00009896   -0.00334457
     atom    5 type  1   force =    -0.00056471   -0.00112991   -0.00614431
     atom    6 type  1   force =     0.00052367   -0.00115875   -0.00615710
     atom    7 type  1   force =    -0.00143663    0.00095980   -0.00748738
     atom    8 type  1   force =    -0.00004560    0.00020449   -0.00618883
     atom    9 type  1   force =     0.00148914    0.00098861   -0.00752210
     atom   10 type  1   force =     0.00000705    0.00293310    0.01877595
     atom   11 type  1   force =     0.00079525   -0.00187571    0.00437372
     atom   12 type  1   force =    -0.00080839   -0.00192555    0.00437398
     atom   13 type  1   force =    -0.00262773    0.00105741    0.00787855
     atom   14 type  1   force =    -0.00004500    0.00107014   -0.00182541
     atom   15 type  1   force =     0.00266951    0.00102859    0.00790064
     atom   16 type  1   force =    -0.00240422    0.00113047    0.00341943
     atom   17 type  1   force =     0.00235979    0.00116419    0.00343307
     atom   18 type  1   force =     0.00004269   -0.00161115    0.00482680
     atom   19 type  1   force =     0.00029445   -0.00018344    0.00088916
     atom   20 type  1   force =    -0.00028164   -0.00018192    0.00088906
     atom   21 type  1   force =     0.00000063   -0.00002869    0.00000931
     atom   22 type  1   force =     0.00000823   -0.00093241   -0.00006354
     atom   23 type  1   force =     0.00002808   -0.00031938   -0.00014304
     atom   24 type  1   force =    -0.00004003   -0.00031755   -0.00015081
     atom   25 type  1   force =    -0.00013258   -0.00038800   -0.00025537
     atom   26 type  1   force =    -0.00000536   -0.00020660    0.00008998
     atom   27 type  1   force =     0.00013871   -0.00038586   -0.00025233
     atom   28 type  1   force =    -0.00226766   -0.00264743   -0.00051973
     atom   29 type  1   force =     0.00226312   -0.00264010   -0.00052349
     atom   30 type  1   force =    -0.00000302   -0.00074316   -0.00043018
     atom   31 type  1   force =     0.00000654   -0.00192624    0.00667377
     atom   32 type  1   force =    -0.00032094   -0.00081500    0.00002836
     atom   33 type  1   force =     0.00030980   -0.00081382    0.00005364
     atom   34 type  1   force =    -0.00062367   -0.00192729   -0.00082363
     atom   35 type  1   force =     0.00000564   -0.00084774   -0.00027352
     atom   36 type  1   force =     0.00061927   -0.00192285   -0.00080278
     atom   37 type  2   force =    -0.00000198   -0.00566689   -0.00798419
     atom   38 type  3   force =    -0.00000095    0.02360600    0.00498955
     The non-local contrib.  to forces
     atom    1 type  1   force =     0.00052025    0.00011995   -0.01878399
     atom    2 type  1   force =    -0.00052881    0.00016741   -0.01879209
     atom    3 type  1   force =     0.00000974   -0.00187263   -0.01845175
     atom    4 type  1   force =     0.00004140   -0.00007709   -0.01802787
     atom    5 type  1   force =    -0.00025727    0.00020615   -0.02101560
     atom    6 type  1   force =     0.00021911    0.00017749   -0.02102938
     atom    7 type  1   force =    -0.00136851    0.00081197   -0.02000887
     atom    8 type  1   force =    -0.00004564    0.00051644   -0.02215888
     atom    9 type  1   force =     0.00141907    0.00083732   -0.02003088
     atom   10 type  1   force =     0.00001256    0.00149197    0.00398302
     atom   11 type  1   force =    -0.00304795    0.00349401    0.00016642
     atom   12 type  1   force =     0.00302969    0.00343427    0.00015513
     atom   13 type  1   force =     0.00114409   -0.00270252    0.00142742
     atom   14 type  1   force =    -0.00005886    0.00162288   -0.00444791
     atom   15 type  1   force =    -0.00109082   -0.00273116    0.00142763
     atom   16 type  1   force =     0.00326941    0.00136212   -0.00096735
     atom   17 type  1   force =    -0.00332022    0.00140713   -0.00096259
     atom   18 type  1   force =     0.00004819   -0.00077218    0.00561001
     atom   19 type  1   force =    -0.00919887   -0.00383292    0.00953780
     atom   20 type  1   force =     0.00922976   -0.00381923    0.00953321
     atom   21 type  1   force =    -0.00001797    0.00365328    0.00753258
     atom   22 type  1   force =     0.00002951    0.01812021   -0.00854965
     atom   23 type  1   force =     0.00425126   -0.00049753    0.00723566
     atom   24 type  1   force =    -0.00428521   -0.00048659    0.00722618
     atom   25 type  1   force =    -0.00382602   -0.00495819    0.00145739
     atom   26 type  1   force =    -0.00000649   -0.00429291    0.01443131
     atom   27 type  1   force =     0.00383420   -0.00493153    0.00146116
     atom   28 type  1   force =     0.08124034    0.03997680   -0.01392425
     atom   29 type  1   force =    -0.08124345    0.04000088   -0.01392466
     atom   30 type  1   force =    -0.00000823   -0.00097530    0.01302256
     atom   31 type  1   force =     0.00001109   -0.12649737   -0.05847219
     atom   32 type  1   force =    -0.01941000   -0.01010603    0.02279816
     atom   33 type  1   force =     0.01938750   -0.01009932    0.02284981
     atom   34 type  1   force =     0.00101252   -0.00464736    0.01379144
     atom   35 type  1   force =     0.00001014    0.02647087    0.02340725
     atom   36 type  1   force =    -0.00102111   -0.00463449    0.01383426
     atom   37 type  2   force =     0.00000052    0.18890673   -0.13061501
     atom   38 type  3   force =    -0.00000268    0.00576708   -0.03823481
     The ionic contribution  to forces
     atom    1 type  1   force =     0.00356323    0.01164271  -93.88916177
     atom    2 type  1   force =    -0.00357831    0.01151177  -93.88918787
     atom    3 type  1   force =     0.00001505   -0.02506498  -93.89768578
     atom    4 type  1   force =    -0.00012152    0.00255143  -93.86389609
     atom    5 type  1   force =    -0.03262675   -0.01379506  -93.92636976
     atom    6 type  1   force =     0.03274809   -0.01373859  -93.92612389
     atom    7 type  1   force =    -0.03151063    0.00201769  -93.88624099
     atom    8 type  1   force =     0.00010908    0.02314806  -93.94185350
     atom    9 type  1   force =     0.03140152    0.00193695  -93.88602104
     atom   10 type  1   force =    -0.00033474    0.10771649  -32.36404274
     atom   11 type  1   force =    -0.16640035   -0.06596954  -32.48726623
     atom   12 type  1   force =     0.16669865   -0.06515388  -32.48631692
     atom   13 type  1   force =    -0.27142442   -0.04674431  -32.41368802
     atom   14 type  1   force =     0.00097671   -0.01657919  -32.80496477
     atom   15 type  1   force =     0.27043953   -0.04657661  -32.41179651
     atom   16 type  1   force =    -0.08129282    0.17307838  -32.55594566
     atom   17 type  1   force =     0.08184541    0.17227286  -32.55505151
     atom   18 type  1   force =    -0.00057761   -0.13149817  -32.19475466
     atom   19 type  1   force =     0.35629609   -0.00566172   30.31820165
     atom   20 type  1   force =    -0.35828399   -0.00741914   30.31661428
     atom   21 type  1   force =     0.00206882   -0.21947693   28.54523849
     atom   22 type  1   force =    -0.00261295    0.01550948   30.06945772
     atom   23 type  1   force =    -0.26043507    0.06193647   28.43812779
     atom   24 type  1   force =     0.26294975    0.06099021   28.44100357
     atom   25 type  1   force =    -0.17942954   -0.11994416   29.11784720
     atom   26 type  1   force =     0.00032316    0.31790541   29.73039592
     atom   27 type  1   force =     0.17911514   -0.12274408   29.11794645
     atom   28 type  1   force =    -2.47361008   -1.28769431   90.55940853
     atom   29 type  1   force =     2.47318683   -1.28879185   90.55711190
     atom   30 type  1   force =     0.00027178    0.18184679   91.20975889
     atom   31 type  1   force =    -0.00117636    2.78813874   91.36104059
     atom   32 type  1   force =     0.33141608    0.13051310   90.36394758
     atom   33 type  1   force =    -0.33027637    0.13164041   90.36402885
     atom   34 type  1   force =     0.19281100   -0.08000160   90.87104953
     atom   35 type  1   force =     0.00172639   -0.31612081   90.37050701
     atom   36 type  1   force =    -0.19443683   -0.08112679   90.87056274
     atom   37 type  2   force =     0.00005841   -0.44357345   44.32358360
     atom   38 type  3   force =     0.00010763    0.20331825   12.43453540
     The local contribution  to forces
     atom    1 type  1   force =    -0.00428433   -0.01219823   93.88710646
     atom    2 type  1   force =     0.00433535   -0.01224837   93.88718466
     atom    3 type  1   force =    -0.00005051    0.02469833   93.88935465
     atom    4 type  1   force =    -0.00002508   -0.00256250   93.86168881
     atom    5 type  1   force =     0.03237159    0.01211088   93.92464532
     atom    6 type  1   force =    -0.03234605    0.01218617   93.92444075
     atom    7 type  1   force =     0.03117984   -0.00183388   93.88164879
     atom    8 type  1   force =     0.00006923   -0.02346944   93.94102064
     atom    9 type  1   force =    -0.03124591   -0.00182317   93.88149626
     atom   10 type  1   force =     0.00028795   -0.10582798   32.37906362
     atom   11 type  1   force =     0.17011686    0.06036575   32.49169097
     atom   12 type  1   force =    -0.17037144    0.05976080   32.49080337
     atom   13 type  1   force =     0.26664065    0.05019472   32.42037482
     atom   14 type  1   force =    -0.00075264    0.01548888   32.80656435
     atom   15 type  1   force =    -0.26587918    0.05013283   32.41854077
     atom   16 type  1   force =     0.07520331   -0.17249411   32.55999543
     atom   17 type  1   force =    -0.07557015   -0.17186879   32.55909815
     atom   18 type  1   force =     0.00039256    0.13047457   32.19530017
     atom   19 type  1   force =    -0.34612491    0.00926202  -30.32373427
     atom   20 type  1   force =     0.34793915    0.01086521  -30.32211336
     atom   21 type  1   force =    -0.00190054    0.21466139  -28.55157105
     atom   22 type  1   force =     0.00238170   -0.03401411  -30.06028582
     atom   23 type  1   force =     0.25548219   -0.06175788  -28.44419081
     atom   24 type  1   force =    -0.25776353   -0.06088294  -28.44717231
     atom   25 type  1   force =     0.18200191    0.12448468  -29.11892713
     atom   26 type  1   force =    -0.00028630   -0.31268456  -29.74204766
     atom   27 type  1   force =    -0.18172665    0.12705288  -29.11911316
     atom   28 type  1   force =     2.36934208    1.23565330  -90.54357614
     atom   29 type  1   force =    -2.36894442    1.23667099  -90.54123805
     atom   30 type  1   force =    -0.00023307   -0.18124968  -91.20736497
     atom   31 type  1   force =     0.00111104   -2.63990543  -91.31208287
     atom   32 type  1   force =    -0.31401895   -0.12262321  -90.37027335
     atom   33 type  1   force =     0.31296684   -0.12373219  -90.37052419
     atom   34 type  1   force =    -0.19460807    0.08205867  -90.86962811
     atom   35 type  1   force =    -0.00167060    0.29085560  -90.37727277
     atom   36 type  1   force =     0.19618134    0.08310546  -90.86925816
     atom   37 type  2   force =    -0.00007912    0.25278765  -44.20395276
     atom   38 type  3   force =    -0.00010738   -0.18547810  -12.39134695
     The core correction contribution to forces
     atom    1 type  1   force =    -0.00003373    0.00002327    0.01709743
     atom    2 type  1   force =     0.00003353    0.00002362    0.01709736
     atom    3 type  1   force =     0.00000019    0.00000288    0.01731887
     atom    4 type  1   force =     0.00000028   -0.00002344    0.01715272
     atom    5 type  1   force =    -0.00006289    0.00000729    0.01686914
     atom    6 type  1   force =     0.00006256    0.00000713    0.01686871
     atom    7 type  1   force =    -0.00004137    0.00009269    0.01721574
     atom    8 type  1   force =    -0.00000047    0.00008692    0.01683140
     atom    9 type  1   force =     0.00004168    0.00009259    0.01721500
     atom   10 type  1   force =     0.00000065   -0.00015692   -0.00000946
     atom   11 type  1   force =     0.00041567    0.00013748    0.00016272
     atom   12 type  1   force =    -0.00041604    0.00013590    0.00016019
     atom   13 type  1   force =     0.00071749    0.00006296    0.00012901
     atom   14 type  1   force =    -0.00000203   -0.00005237    0.00142361
     atom   15 type  1   force =    -0.00071525    0.00006249    0.00012376
     atom   16 type  1   force =     0.00014238   -0.00052521    0.00054202
     atom   17 type  1   force =    -0.00014348   -0.00052327    0.00053943
     atom   18 type  1   force =     0.00000144    0.00040592   -0.00095085
     atom   19 type  1   force =    -0.00088638    0.00023860   -0.00329501
     atom   20 type  1   force =     0.00089196    0.00024407   -0.00329576
     atom   21 type  1   force =    -0.00000582    0.00070662   -0.00145327
     atom   22 type  1   force =     0.00000742   -0.00060852   -0.00069712
     atom   23 type  1   force =     0.00045529   -0.00029228   -0.00139527
     atom   24 type  1   force =    -0.00046195   -0.00028952   -0.00139072
     atom   25 type  1   force =     0.00067114    0.00039809   -0.00064046
     atom   26 type  1   force =    -0.00000082   -0.00080133   -0.00278451
     atom   27 type  1   force =    -0.00067025    0.00040635   -0.00063741
     atom   28 type  1   force =     0.02021059    0.00945776   -0.00243562
     atom   29 type  1   force =    -0.02020890    0.00945956   -0.00243426
     atom   30 type  1   force =    -0.00000099   -0.00040150   -0.01582473
     atom   31 type  1   force =     0.00000367   -0.02333186    0.01584383
     atom   32 type  1   force =     0.00172071    0.00109554   -0.01629452
     atom   33 type  1   force =    -0.00172293    0.00109224   -0.01629289
     atom   34 type  1   force =    -0.00021724    0.00079590   -0.01587014
     atom   35 type  1   force =    -0.00000488   -0.00211740   -0.01655896
     atom   36 type  1   force =     0.00022197    0.00079923   -0.01586924
     atom   37 type  2   force =    -0.00000017   -0.00377200    0.00302229
     atom   38 type  3   force =     0.00000000    0.00000000    0.00000000
     The Hubbard contrib.    to forces
     atom    1 type  1   force =     0.00000000    0.00000000    0.00000000
     atom    2 type  1   force =     0.00000000    0.00000000    0.00000000
     atom    3 type  1   force =     0.00000000    0.00000000    0.00000000
     atom    4 type  1   force =     0.00000000    0.00000000    0.00000000
     atom    5 type  1   force =     0.00000000    0.00000000    0.00000000
     atom    6 type  1   force =     0.00000000    0.00000000    0.00000000
     atom    7 type  1   force =     0.00000000    0.00000000    0.00000000
     atom    8 type  1   force =     0.00000000    0.00000000    0.00000000
     atom    9 type  1   force =     0.00000000    0.00000000    0.00000000
     atom   10 type  1   force =     0.00000000    0.00000000    0.00000000
     atom   11 type  1   force =     0.00000000    0.00000000    0.00000000
     atom   12 type  1   force =     0.00000000    0.00000000    0.00000000
     atom   13 type  1   force =     0.00000000    0.00000000    0.00000000
     atom   14 type  1   force =     0.00000000    0.00000000    0.00000000
     atom   15 type  1   force =     0.00000000    0.00000000    0.00000000
     atom   16 type  1   force =     0.00000000    0.00000000    0.00000000
     atom   17 type  1   force =     0.00000000    0.00000000    0.00000000
     atom   18 type  1   force =     0.00000000    0.00000000    0.00000000
     atom   19 type  1   force =     0.00000000    0.00000000    0.00000000
     atom   20 type  1   force =     0.00000000    0.00000000    0.00000000
     atom   21 type  1   force =     0.00000000    0.00000000    0.00000000
     atom   22 type  1   force =     0.00000000    0.00000000    0.00000000
     atom   23 type  1   force =     0.00000000    0.00000000    0.00000000
     atom   24 type  1   force =     0.00000000    0.00000000    0.00000000
     atom   25 type  1   force =     0.00000000    0.00000000    0.00000000
     atom   26 type  1   force =     0.00000000    0.00000000    0.00000000
     atom   27 type  1   force =     0.00000000    0.00000000    0.00000000
     atom   28 type  1   force =     0.00000000    0.00000000    0.00000000
     atom   29 type  1   force =     0.00000000    0.00000000    0.00000000
     atom   30 type  1   force =     0.00000000    0.00000000    0.00000000
     atom   31 type  1   force =     0.00000000    0.00000000    0.00000000
     atom   32 type  1   force =     0.00000000    0.00000000    0.00000000
     atom   33 type  1   force =     0.00000000    0.00000000    0.00000000
     atom   34 type  1   force =     0.00000000    0.00000000    0.00000000
     atom   35 type  1   force =     0.00000000    0.00000000    0.00000000
     atom   36 type  1   force =     0.00000000    0.00000000    0.00000000
     atom   37 type  2   force =     0.00000000    0.00000000    0.00000000
     atom   38 type  3   force =     0.00000000    0.00000000    0.00000000
     The SCF correction term to forces
     atom    1 type  1   force =     0.00000000   -0.00000000   -0.00000000
     atom    2 type  1   force =    -0.00000000   -0.00000000   -0.00000000
     atom    3 type  1   force =     0.00000000    0.00000000   -0.00000000
     atom    4 type  1   force =     0.00000000    0.00000000   -0.00000000
     atom    5 type  1   force =     0.00000000    0.00000000   -0.00000000
     atom    6 type  1   force =    -0.00000000    0.00000000   -0.00000000
     atom    7 type  1   force =     0.00000000   -0.00000000   -0.00000000
     atom    8 type  1   force =    -0.00000000   -0.00000000   -0.00000000
     atom    9 type  1   force =    -0.00000000   -0.00000000   -0.00000000
     atom   10 type  1   force =     0.00000000   -0.00000000   -0.00000000
     atom   11 type  1   force =    -0.00000000    0.00000000   -0.00000000
     atom   12 type  1   force =     0.00000000   -0.00000000   -0.00000000
     atom   13 type  1   force =     0.00000000    0.00000000   -0.00000000
     atom   14 type  1   force =    -0.00000000    0.00000000   -0.00000000
     atom   15 type  1   force =    -0.00000000    0.00000000   -0.00000000
     atom   16 type  1   force =     0.00000000   -0.00000000   -0.00000000
     atom   17 type  1   force =    -0.00000000   -0.00000000   -0.00000000
     atom   18 type  1   force =     0.00000000   -0.00000000   -0.00000000
     atom   19 type  1   force =     0.00020830   -0.00019441    0.00014232
     atom   20 type  1   force =    -0.00005874   -0.00005781    0.00011401
     atom   21 type  1   force =    -0.00014409    0.00042197    0.00022588
     atom   22 type  1   force =     0.00020232    0.00005554   -0.00002534
     atom   23 type  1   force =     0.00027419    0.00028685    0.00004292
     atom   24 type  1   force =    -0.00047930    0.00034630    0.00014580
     atom   25 type  1   force =     0.00044970   -0.00037340   -0.00002905
     atom   26 type  1   force =    -0.00003514   -0.00033819    0.00005825
     atom   27 type  1   force =    -0.00041396   -0.00017446    0.00005396
     atom   28 type  1   force =     0.00054919   -0.00004597   -0.00002891
     atom   29 type  1   force =    -0.00052717    0.00001533   -0.00007509
     atom   30 type  1   force =    -0.00003274    0.00003156   -0.00005861
     atom   31 type  1   force =     0.00005688   -0.00033530    0.00030774
     atom   32 type  1   force =    -0.00002900    0.00030062   -0.00018619
     atom   33 type  1   force =    -0.00004546    0.00028006   -0.00004461
     atom   34 type  1   force =     0.00037789   -0.00013790   -0.00020302
     atom   35 type  1   force =    -0.00005564    0.00005901   -0.00039273
     atom   36 type  1   force =    -0.00032631   -0.00007124   -0.00010905
     atom   37 type  2   force =     0.00001815   -0.00002080   -0.00005897
     atom   38 type  3   force =     0.00000125   -0.00000622   -0.00000077

     Total force =     0.027696     Total SCF correction =     0.001765

     Writing all to output data dir ./pwscf.save/

     init_run     :     18.54s CPU     18.96s WALL (       1 calls)
     electrons    :    401.05s CPU    415.91s WALL (       1 calls)
     forces       :      5.86s CPU      6.40s WALL (       1 calls)

     Called by init_run:
     wfcinit      :      5.71s CPU      5.89s WALL (       1 calls)
     potinit      :      3.35s CPU      3.44s WALL (       1 calls)
     hinit0       :      8.88s CPU      8.98s WALL (       1 calls)

     Called by electrons:
     c_bands      :    315.85s CPU    325.46s WALL (      18 calls)
     sum_band     :     47.42s CPU     48.97s WALL (      18 calls)
     v_of_rho     :     22.79s CPU     25.29s WALL (      18 calls)
     newd         :      4.75s CPU      5.50s WALL (      18 calls)
     PAW_pot      :      7.71s CPU      7.84s WALL (      18 calls)
     mix_rho      :      3.85s CPU      3.94s WALL (      18 calls)
     vdW_kernel   :      1.73s CPU      1.74s WALL (       1 calls)

     Called by c_bands:
     init_us_2    :      2.60s CPU      2.84s WALL (     494 calls)
     init_us_2:cp :      2.59s CPU      2.84s WALL (     494 calls)
     cegterg      :    307.68s CPU    316.76s WALL (     234 calls)

     Called by *egterg:
     cdiaghg      :     76.17s CPU     77.02s WALL (    1150 calls)
     h_psi        :    147.27s CPU    153.50s WALL (    1176 calls)
     s_psi        :     14.08s CPU     14.23s WALL (    1176 calls)
     g_psi        :      0.41s CPU      0.42s WALL (     929 calls)

     Called by h_psi:
     h_psi:calbec :     21.86s CPU     22.24s WALL (    1176 calls)
     vloc_psi     :    110.27s CPU    115.96s WALL (    1176 calls)
     add_vuspsi   :     14.07s CPU     14.23s WALL (    1176 calls)

     General routines
     calbec       :     32.54s CPU     33.35s WALL (    1462 calls)
     fft          :     27.86s CPU     29.94s WALL (    1194 calls)
     ffts         :      2.26s CPU      2.30s WALL (    4352 calls)
     fftw         :    119.43s CPU    124.78s WALL (  302534 calls)
     interpolate  :      1.39s CPU      1.44s WALL (      18 calls)

     Parallel routines

     PWSCF        :   7m 7.29s CPU   7m26.22s WALL


   This run was terminated on:  13: 0:57   7Nov2025            

=------------------------------------------------------------------------------=
   JOB DONE.
=------------------------------------------------------------------------------=
