
     Program PWSCF v.7.1 starts on 23Feb2025 at 20:39:33 
        Git branch: heads/qe-7.1
        Last git commit: 48ba0178f8fede6d020eb786884699a9f063f55d-dirty
        Last git commit date: Fri Jan 27 14:22:33 2023 +0000
        Last git commit subject: Merge branch 'fix_hubbard' into 'develop'

     This program is part of the open-source Quantum ESPRESSO suite
     for quantum simulation of materials; please cite
         "P. Giannozzi et al., J. Phys.:Condens. Matter 21 395502 (2009);
         "P. Giannozzi et al., J. Phys.:Condens. Matter 29 465901 (2017);
         "P. Giannozzi et al., J. Chem. Phys. 152 154105 (2020);
          URL http://www.quantum-espresso.org", 
     in publications or presentations arising from this work. More details at
     http://www.quantum-espresso.org/quote

     Parallel version (MPI), running on    48 processors

     MPI processes distributed on     1 nodes
     39707 MiB available memory on the printing compute node when the environment starts

     Reading input from espresso.pwi
Warning: card &CELL ignored
Warning: card / ignored
Warning: card &FCP ignored
Warning: card / ignored
Warning: card &RISM ignored
Warning: card / ignored

     Current dimensions of program PWSCF are:
     Max number of different atomic species (ntypx) = 10
     Max number of k-points (npk) =  40000
     Max angular momentum in pseudopotentials (lmaxx) =  4
     file Pt.pbe-n-kjpaw_psl.1.0.0.UPF: wavefunction(s)  6S 5D renormalized
     file H.pbe-kjpaw_psl.1.0.0.UPF: wavefunction(s)  1S renormalized

     **************************************************************************
     Initializing libbeef V0.1.2 with the BEEF-vdW functional.
     Citation: Wellendorff et al., PRB 85, 235149 (2012).
     **************************************************************************


     IMPORTANT: XC functional enforced from input :
     Exchange-correlation= BEEF-VDW
                           (   1   4  43  14   2   0   0)
     Any further DFT definition will be discarded
     Please, verify this is what you really want


     R & G space division:  proc/nbgrp/npool/nimage =      48
     Subspace diagonalization in iterative solution of the eigenvalue problem:
     one sub-group per band group will be used
     custom distributed-memory algorithm (size of sub-group:  2*  2 procs)


     Parallelization info
     --------------------
     sticks:   dense  smooth     PW     G-vecs:    dense   smooth      PW
     Min         151      59     16                29407     7165    1028
     Max         152      60     17                29420     7176    1042
     Sum        7267    2839    769              1411785   344073   49691

     Using Slab Decomposition



     bravais-lattice index     =            0
     lattice parameter (alat)  =      16.0349  a.u.
     unit-cell volume          =   10068.6169 (a.u.)^3
     number of atoms/cell      =           37
     number of atomic types    =            2
     number of electrons       =       361.00
     number of Kohn-Sham states=          217
     kinetic-energy cutoff     =      40.0000  Ry
     charge density cutoff     =     410.0000  Ry
     scf convergence threshold =      1.0E-08
     mixing beta               =       0.7000
     number of iterations used =            8  local-TF  mixing
     Exchange-correlation= BEEF-VDW
                           (   1   4  43  14   2   0   0)

     celldm(1)=  16.034858  celldm(2)=   0.000000  celldm(3)=   0.000000
     celldm(4)=   0.000000  celldm(5)=   0.000000  celldm(6)=   0.000000

     crystal axes: (cart. coord. in units of alat)
               a(1) = (   1.000000   0.000000   0.000000 )  
               a(2) = (   0.500000   0.866025   0.000000 )  
               a(3) = (   0.000000   0.000000   2.819966 )  

     reciprocal axes: (cart. coord. in units 2 pi/alat)
               b(1) = (  1.000000 -0.577350  0.000000 )  
               b(2) = (  0.000000  1.154701  0.000000 )  
               b(3) = (  0.000000  0.000000  0.354614 )  


     PseudoPot. # 1 for Pt read from file:
     /users/kbadger1/espresso/pseudo/pslibrary.1.0.0/pbe/PSEUDOPOTENTIALS/Pt.pbe-n-kjpaw_psl.1.0.0.UPF
     MD5 check sum: 2e24a0b5bf98a4ed1a57fa81bca8c143
     Pseudo is Projector augmented-wave + core cor, Zval = 10.0
     Generated using 'atomic' code by A. Dal Corso  v.7.0
     Shape of augmentation charge: PSQ
     Using radial grid of 1277 points,  6 beta functions with: 
                l(1) =   0
                l(2) =   0
                l(3) =   1
                l(4) =   1
                l(5) =   2
                l(6) =   2
     Q(r) pseudized with 0 coefficients 


     PseudoPot. # 2 for H  read from file:
     /users/kbadger1/espresso/pseudo/pslibrary.1.0.0/pbe/PSEUDOPOTENTIALS/H.pbe-kjpaw_psl.1.0.0.UPF
     MD5 check sum: fe4c6fa958fa6d3815bf5d2419cbf1df
     Pseudo is Projector augmented-wave, Zval =  1.0
     Generated using 'atomic' code by A. Dal Corso  v.7.0
     Shape of augmentation charge: PSQ
     Using radial grid of  929 points,  2 beta functions with: 
                l(1) =   0
                l(2) =   0
     Q(r) pseudized with 0 coefficients 


     atomic species   valence    mass     pseudopotential
        Pt            10.00   195.08400     Pt( 1.00)
        H              1.00     1.00800     H ( 1.00)

     No symmetry found



   Cartesian axes

     site n.     atom                  positions (alat units)
         1           Pt  tau(   1) = (   0.0000000   0.0000000   1.0017346  )
         2           Pt  tau(   2) = (   0.3333333   0.0000000   1.0017346  )
         3           Pt  tau(   3) = (   0.6666667   0.0000000   1.0017346  )
         4           Pt  tau(   4) = (   0.1666667   0.2886751   1.0017346  )
         5           Pt  tau(   5) = (   0.5000000   0.2886751   1.0017346  )
         6           Pt  tau(   6) = (   0.8333333   0.2886751   1.0017346  )
         7           Pt  tau(   7) = (   0.3333333   0.5773503   1.0017346  )
         8           Pt  tau(   8) = (   0.6666667   0.5773503   1.0017346  )
         9           Pt  tau(   9) = (   1.0000000   0.5773503   1.0017346  )
        10           Pt  tau(  10) = (   0.1666667   0.0962250   1.2739001  )
        11           Pt  tau(  11) = (   0.5000000   0.0962250   1.2739001  )
        12           Pt  tau(  12) = (   0.8333333   0.0962250   1.2739001  )
        13           Pt  tau(  13) = (   0.3333333   0.3849002   1.2739001  )
        14           Pt  tau(  14) = (   0.6666667   0.3849002   1.2739001  )
        15           Pt  tau(  15) = (   1.0000000   0.3849002   1.2739001  )
        16           Pt  tau(  16) = (   0.5000000   0.6735753   1.2739001  )
        17           Pt  tau(  17) = (   0.8333333   0.6735753   1.2739001  )
        18           Pt  tau(  18) = (   1.1666667   0.6735753   1.2739001  )
        19           Pt  tau(  19) = (   0.0005893   0.1925273   1.5440615  )
        20           Pt  tau(  20) = (   0.3329074   0.1922449   1.5449860  )
        21           Pt  tau(  21) = (   0.6667719   0.1923552   1.5423211  )
        22           Pt  tau(  22) = (   0.1665417   0.4799807   1.5441514  )
        23           Pt  tau(  23) = (   0.4999423   0.4813230   1.5423054  )
        24           Pt  tau(  24) = (   0.8334384   0.4812253   1.5424814  )
        25           Pt  tau(  25) = (   0.3332318   0.7697829   1.5425097  )
        26           Pt  tau(  26) = (   0.6669960   0.7703324   1.5440603  )
        27           Pt  tau(  27) = (   0.9989078   0.7703325   1.5441485  )
        28           Pt  tau(  28) = (  -0.0036589  -0.0020245   1.8181833  )
        29           Pt  tau(  29) = (   0.3367250  -0.0018247   1.8244748  )
        30           Pt  tau(  30) = (   0.6671552   0.0003344   1.8172447  )
        31           Pt  tau(  31) = (   0.1667079   0.2926466   1.8244947  )
        32           Pt  tau(  32) = (   0.5028844   0.2904351   1.8163747  )
        33           Pt  tau(  33) = (   0.8328465   0.2893184   1.8168842  )
        34           Pt  tau(  34) = (   0.3337970   0.5777264   1.8172571  )
        35           Pt  tau(  35) = (   0.6668994   0.5767299   1.8168859  )
        36           Pt  tau(  36) = (   1.0001961   0.5775470   1.8172180  )
        37           H   tau(  37) = (   0.2076033   0.1199329   1.9361183  )

     number of k points=    13  Marzari-Vanderbilt smearing, width (Ry)=  0.0200
                       cart. coord. in units 2pi/alat
        k(    1) = (   0.0000000   0.0000000   0.0000000), wk =   0.0800000
        k(    2) = (   0.0000000   0.2309401   0.0000000), wk =   0.1600000
        k(    3) = (   0.0000000   0.4618802   0.0000000), wk =   0.1600000
        k(    4) = (   0.2000000  -0.1154701   0.0000000), wk =   0.1600000
        k(    5) = (   0.2000000   0.1154701   0.0000000), wk =   0.1600000
        k(    6) = (   0.2000000   0.3464102   0.0000000), wk =   0.1600000
        k(    7) = (   0.2000000  -0.5773503   0.0000000), wk =   0.1600000
        k(    8) = (   0.2000000  -0.3464102   0.0000000), wk =   0.1600000
        k(    9) = (   0.4000000  -0.2309401   0.0000000), wk =   0.1600000
        k(   10) = (   0.4000000  -0.0000000   0.0000000), wk =   0.1600000
        k(   11) = (   0.4000000   0.2309401   0.0000000), wk =   0.1600000
        k(   12) = (   0.4000000  -0.6928203   0.0000000), wk =   0.1600000
        k(   13) = (   0.4000000  -0.4618802   0.0000000), wk =   0.1600000

     Dense  grid:  1411785 G-vectors     FFT dimensions: ( 108, 108, 300)

     Smooth grid:   344073 G-vectors     FFT dimensions: (  72,  72, 192)

     Estimated max dynamical RAM per process >     203.68 MB

     Estimated total dynamical RAM >       9.55 GB

     Initial potential from superposition of free atoms

     starting charge     360.9939, renormalised to     361.0000

     negative rho (up, down):  3.362E-03 0.000E+00


     %%%%%%%%%%%%%%%%%%%%%%%%%%%%%%%%%%%%%%%%%%%%%%%%%%%%%%%%%%%%%%%%%%%%%%%%
     %                                                                      %
     % You are using vdW-DF, which was implemented by the Thonhauser group. %
     % Please cite the following two papers that made this development      %
     % possible and the two reviews that describe the various versions:     %
     %                                                                      %
     %   T. Thonhauser et al., PRL 115, 136402 (2015).                      %
     %   T. Thonhauser et al., PRB 76, 125112 (2007).                       %
     %   K. Berland et al., Rep. Prog. Phys. 78, 066501 (2015).             %
     %   D.C. Langreth et al., J. Phys.: Condens. Matter 21, 084203 (2009). %
     %                                                                      %
     % If you are calculating stress with vdW-DF, please also cite:         %
     %                                                                      %
     %   R. Sabatini et al., J. Phys.: Condens. Matter 24, 424209 (2012).   %
     %                                                                      %
     %%%%%%%%%%%%%%%%%%%%%%%%%%%%%%%%%%%%%%%%%%%%%%%%%%%%%%%%%%%%%%%%%%%%%%%%

     %%%%%%%%%%%%%%%%%%%%%%%%%%%%%%%%%%%%%%%%%%%%%%%%%%%%%%%%%%%%%%%%%%%%%%%%
     %                                                                      %
     %  vdW-DF NEWS:                                                        %
     %                                                                      %
     %  * vdW-DF3 is now available. DOI: 10.1021/acs.jctc.0c00471           %
     %    use with input_dft = 'vdW-DF3-opt1' or 'vdW-DF3-opt2'             %
     %                                                                      %
     %  * Unscreened and range-separated hybrid vdW-DF-cx functionals       %
     %    DOI: 10.1063/1.4986522 and 10.1088/1361-648X/ac2ad2               %
     %    use with input_dft = 'vdW-DF-cx0'    and 'vdW-DF-ahcx'            %
     %  * Unscreened and range-separated hybrid vdW-DF2-b86r functionals    %
     %    DOI: 10.1063/1.4986522 and DOI: 10.1103/PhysRevX.12.041003        %
     %    use with input_dft = 'vdW-DF2-br0' and 'vdW-DF2-ahbr'             %
     %                                                                      %
     %%%%%%%%%%%%%%%%%%%%%%%%%%%%%%%%%%%%%%%%%%%%%%%%%%%%%%%%%%%%%%%%%%%%%%%%


     Starting wfcs are  325 randomized atomic wfcs
     Checking if some PAW data can be deallocated... 

     total cpu time spent up to now is       10.6 secs

     per-process dynamical memory:   207.7 Mb

     Self-consistent Calculation

     iteration #  1     ecut=    40.00 Ry     beta= 0.70
     Davidson diagonalization with overlap
     ethr =  1.00E-02,  avg # of iterations =  2.0

     Threshold (ethr) on eigenvalues was too large:
     Diagonalizing with lowered threshold

     Davidson diagonalization with overlap
     ethr =  3.71E-04,  avg # of iterations =  3.6

     negative rho (up, down):  1.759E-02 0.000E+00

     total cpu time spent up to now is       41.3 secs

     total energy              =  -27755.28576555 Ry
     estimated scf accuracy    <       1.54003373 Ry

     iteration #  2     ecut=    40.00 Ry     beta= 0.70
     Davidson diagonalization with overlap
     ethr =  4.27E-04,  avg # of iterations =  2.0

     negative rho (up, down):  1.577E-02 0.000E+00

     total cpu time spent up to now is       53.9 secs

     total energy              =  -27755.38396828 Ry
     estimated scf accuracy    <       0.80126150 Ry

     iteration #  3     ecut=    40.00 Ry     beta= 0.70
     Davidson diagonalization with overlap
     ethr =  2.22E-04,  avg # of iterations =  2.0

     negative rho (up, down):  1.039E-02 0.000E+00

     total cpu time spent up to now is       66.3 secs

     total energy              =  -27755.43517762 Ry
     estimated scf accuracy    <       0.09107249 Ry

     iteration #  4     ecut=    40.00 Ry     beta= 0.70
     Davidson diagonalization with overlap
     c_bands:  2 eigenvalues not converged
     c_bands:  1 eigenvalues not converged
     c_bands:  1 eigenvalues not converged
     c_bands:  1 eigenvalues not converged
     ethr =  2.52E-05,  avg # of iterations = 14.8

     negative rho (up, down):  7.489E-03 0.000E+00

     total cpu time spent up to now is       98.6 secs

     total energy              =  -27755.48447845 Ry
     estimated scf accuracy    <       0.07694239 Ry

     iteration #  5     ecut=    40.00 Ry     beta= 0.70
     Davidson diagonalization with overlap
     c_bands:  1 eigenvalues not converged
     ethr =  2.13E-05,  avg # of iterations =  3.4

     negative rho (up, down):  3.370E-03 0.000E+00

     total cpu time spent up to now is      112.1 secs

     total energy              =  -27755.48441125 Ry
     estimated scf accuracy    <       0.02913905 Ry

     iteration #  6     ecut=    40.00 Ry     beta= 0.70
     Davidson diagonalization with overlap
     c_bands:  1 eigenvalues not converged
     c_bands:  1 eigenvalues not converged
     c_bands:  1 eigenvalues not converged
     c_bands:  1 eigenvalues not converged
     ethr =  8.07E-06,  avg # of iterations =  8.2

     negative rho (up, down):  1.629E-03 0.000E+00

     total cpu time spent up to now is      127.3 secs

     total energy              =  -27755.48646278 Ry
     estimated scf accuracy    <       0.00246738 Ry

     iteration #  7     ecut=    40.00 Ry     beta= 0.70
     Davidson diagonalization with overlap
     c_bands:  3 eigenvalues not converged
     c_bands:  2 eigenvalues not converged
     c_bands:  1 eigenvalues not converged
     ethr =  6.83E-07,  avg # of iterations = 11.8

     negative rho (up, down):  1.259E-03 0.000E+00

     total cpu time spent up to now is      153.9 secs

     total energy              =  -27755.48692126 Ry
     estimated scf accuracy    <       0.00182858 Ry

     iteration #  8     ecut=    40.00 Ry     beta= 0.70
     Davidson diagonalization with overlap
     ethr =  5.07E-07,  avg # of iterations =  3.2

     negative rho (up, down):  1.100E-03 0.000E+00

     total cpu time spent up to now is      166.8 secs

     total energy              =  -27755.48706750 Ry
     estimated scf accuracy    <       0.00021281 Ry

     iteration #  9     ecut=    40.00 Ry     beta= 0.70
     Davidson diagonalization with overlap
     ethr =  5.89E-08,  avg # of iterations =  5.4

     negative rho (up, down):  8.963E-04 0.000E+00

     total cpu time spent up to now is      190.7 secs

     total energy              =  -27755.48717888 Ry
     estimated scf accuracy    <       0.00008754 Ry

     iteration # 10     ecut=    40.00 Ry     beta= 0.70
     Davidson diagonalization with overlap
     c_bands:  1 eigenvalues not converged
     ethr =  2.42E-08,  avg # of iterations =  6.3

     negative rho (up, down):  8.738E-04 0.000E+00

     total cpu time spent up to now is      214.1 secs

     total energy              =  -27755.48719908 Ry
     estimated scf accuracy    <       0.00008440 Ry

     iteration # 11     ecut=    40.00 Ry     beta= 0.70
     Davidson diagonalization with overlap
     ethr =  2.34E-08,  avg # of iterations =  1.2

     negative rho (up, down):  9.565E-04 0.000E+00

     total cpu time spent up to now is      225.1 secs

     total energy              =  -27755.48720353 Ry
     estimated scf accuracy    <       0.00005633 Ry

     iteration # 12     ecut=    40.00 Ry     beta= 0.70
     Davidson diagonalization with overlap
     ethr =  1.56E-08,  avg # of iterations =  1.4

     negative rho (up, down):  1.177E-03 0.000E+00

     total cpu time spent up to now is      236.6 secs

     total energy              =  -27755.48720997 Ry
     estimated scf accuracy    <       0.00002062 Ry

     iteration # 13     ecut=    40.00 Ry     beta= 0.70
     Davidson diagonalization with overlap
     ethr =  5.71E-09,  avg # of iterations =  2.3

     negative rho (up, down):  1.642E-03 0.000E+00

     total cpu time spent up to now is      249.6 secs

     total energy              =  -27755.48721517 Ry
     estimated scf accuracy    <       0.00001171 Ry

     iteration # 14     ecut=    40.00 Ry     beta= 0.70
     Davidson diagonalization with overlap
     ethr =  3.24E-09,  avg # of iterations =  2.0

     negative rho (up, down):  1.920E-03 0.000E+00

     total cpu time spent up to now is      262.8 secs

     total energy              =  -27755.48721826 Ry
     estimated scf accuracy    <       0.00000675 Ry

     iteration # 15     ecut=    40.00 Ry     beta= 0.70
     Davidson diagonalization with overlap
     ethr =  1.87E-09,  avg # of iterations =  1.9

     negative rho (up, down):  2.790E-03 0.000E+00

     total cpu time spent up to now is      275.0 secs

     total energy              =  -27755.48721542 Ry
     estimated scf accuracy    <       0.00000595 Ry

     iteration # 16     ecut=    40.00 Ry     beta= 0.70
     Davidson diagonalization with overlap
     ethr =  1.65E-09,  avg # of iterations =  2.0

     negative rho (up, down):  2.909E-03 0.000E+00

     total cpu time spent up to now is      286.8 secs

     total energy              =  -27755.48721547 Ry
     estimated scf accuracy    <       0.00000055 Ry

     iteration # 17     ecut=    40.00 Ry     beta= 0.70
     Davidson diagonalization with overlap
     ethr =  1.53E-10,  avg # of iterations =  6.5

     negative rho (up, down):  2.976E-03 0.000E+00

     total cpu time spent up to now is      316.0 secs

     total energy              =  -27755.48721563 Ry
     estimated scf accuracy    <       0.00000055 Ry

     iteration # 18     ecut=    40.00 Ry     beta= 0.70
     Davidson diagonalization with overlap
     c_bands:  1 eigenvalues not converged
     ethr =  1.52E-10,  avg # of iterations =  3.4

     negative rho (up, down):  3.016E-03 0.000E+00

     total cpu time spent up to now is      330.3 secs

     total energy              =  -27755.48721544 Ry
     estimated scf accuracy    <       0.00000016 Ry

     iteration # 19     ecut=    40.00 Ry     beta= 0.70
     Davidson diagonalization with overlap
     ethr =  4.53E-11,  avg # of iterations =  2.0

     negative rho (up, down):  3.101E-03 0.000E+00

     total cpu time spent up to now is      342.2 secs

     total energy              =  -27755.48721496 Ry
     estimated scf accuracy    <       0.00000007 Ry

     iteration # 20     ecut=    40.00 Ry     beta= 0.70
     Davidson diagonalization with overlap
     ethr =  1.88E-11,  avg # of iterations =  2.8

     negative rho (up, down):  3.145E-03 0.000E+00

     total cpu time spent up to now is      355.9 secs

     total energy              =  -27755.48721473 Ry
     estimated scf accuracy    <       0.00000002 Ry

     iteration # 21     ecut=    40.00 Ry     beta= 0.70
     Davidson diagonalization with overlap
     ethr =  5.84E-12,  avg # of iterations =  3.2

     negative rho (up, down):  3.150E-03 0.000E+00

     total cpu time spent up to now is      371.3 secs

     End of self-consistent calculation

          k = 0.0000 0.0000 0.0000 ( 42913 PWs)   bands (ev):

    -6.3085  -5.1781  -4.4513  -3.8903  -3.8779  -3.8731  -3.8675  -3.8539
    -3.8478  -3.8474  -3.5214  -3.3181  -3.3156  -3.3121  -3.3074  -3.3039
    -3.2200  -2.8625  -2.8580  -2.8440  -2.8386  -2.8345  -2.7481  -2.6313
    -2.6301  -2.6274  -2.6262  -2.6179  -2.5159  -2.4147  -2.4141  -2.4000
    -2.3963  -2.3874  -2.3856  -2.3754  -2.3654  -2.3645  -2.3415  -2.3358
    -1.9806  -1.7865  -1.7844  -1.7568  -1.7412  -1.7203  -1.7116  -1.6918
    -1.6917  -1.6850  -1.5485  -1.5458  -1.4740  -1.4399  -1.4388  -0.9771
    -0.9728  -0.9659  -0.9558  -0.9510  -0.8986  -0.8690  -0.7875  -0.7834
    -0.7821  -0.7686  -0.7619  -0.7550  -0.7515  -0.7288  -0.7204  -0.7185
    -0.7174  -0.7151  -0.6791  -0.6748  -0.6684  -0.5542  -0.5500  -0.5450
    -0.5425  -0.5371  -0.5362  -0.3773  -0.3640  -0.3616  -0.3505  -0.3455
    -0.3361  -0.3054  -0.3051  -0.2237  -0.2139  -0.1633  -0.1605  -0.1277
    -0.1196  -0.0968  -0.0860  -0.0807  -0.0196   0.0746   0.0747   0.0825
     0.0873   0.0934   0.0936   0.3398   0.5561   0.5775   0.5804   0.5885
     0.5887   0.6014   0.6200   0.6276   0.6418   0.6471   0.6569   0.7238
     0.7328   0.7892   0.8657   0.8683   0.8782   0.8841   0.8947   0.9939
     1.0092   1.0545   1.0574   1.0600   1.0612   1.2899   1.3057   1.3064
     1.3219   1.3265   1.3282   1.3868   1.3969   1.5415   1.5417   1.5669
     1.5692   1.5702   1.5746   1.6786   1.7090   1.7241   1.7462   1.7578
     1.7584   1.7612   1.7684   1.7806   1.7809   1.7867   1.7891   1.8595
     1.8737   1.8959   1.9046   1.9188   1.9282   1.9413   1.9444   1.9869
     2.0019   2.0216   2.0306   2.0354   2.0482   2.0625   2.0651   2.1279
     2.1400   2.1402   2.1539   2.1558   2.1572   2.2114   2.2379   2.2473
     2.2579   2.2582   2.2677   2.2751   2.4601   2.4673   2.5578   2.5661
     2.5706   2.5860   2.5872   2.5899   3.1252   3.4221   3.4266   3.4558
     3.4730   3.4787   3.4830   5.4413   5.7195   5.7572   5.7924   5.8104
     5.8109   7.1940   7.3091   7.3783   7.3983   7.4044   7.4049   7.5365
     7.6264

          k = 0.0000 0.2309 0.0000 ( 42996 PWs)   bands (ev):

    -6.1616  -5.0527  -4.4285  -4.3228  -3.9798  -3.9627  -3.7474  -3.6730
    -3.6335  -3.6265  -3.4989  -3.4010  -3.3767  -3.2489  -3.2426  -3.2341
    -3.1368  -2.9426  -2.8199  -2.8107  -2.7996  -2.7849  -2.7307  -2.6976
    -2.6699  -2.6362  -2.6326  -2.6107  -2.5505  -2.5315  -2.5206  -2.4333
    -2.4234  -2.4028  -2.3879  -2.2529  -2.1997  -2.1933  -2.1809  -2.1451
    -1.9827  -1.9039  -1.8985  -1.8445  -1.8223  -1.8041  -1.7847  -1.6892
    -1.6076  -1.5487  -1.5312  -1.5141  -1.4709  -1.4515  -1.4068  -1.2391
    -1.1451  -1.1403  -1.0814  -1.0626  -1.0314  -0.9884  -0.9615  -0.9520
    -0.9282  -0.9203  -0.8584  -0.8409  -0.7997  -0.7740  -0.7623  -0.7239
    -0.6788  -0.6697  -0.6610  -0.5970  -0.5925  -0.5745  -0.5343  -0.4892
    -0.4818  -0.4753  -0.4692  -0.3964  -0.3816  -0.3673  -0.3629  -0.3568
    -0.3145  -0.2939  -0.2601  -0.2327  -0.2118  -0.1971  -0.1791  -0.1623
    -0.1484  -0.1134  -0.1011  -0.0944  -0.0100   0.0474   0.0595   0.0816
     0.0877   0.0932   0.1016   0.1204   0.1585   0.1656   0.1810   0.1958
     0.3951   0.5032   0.5519   0.5756   0.5947   0.6017   0.6084   0.6366
     0.6384   0.7275   0.7969   0.8087   0.8902   0.9429   0.9463   0.9730
     0.9880   1.0123   1.0503   1.0656   1.0755   1.1543   1.1805   1.1925
     1.2028   1.2090   1.3156   1.4013   1.4116   1.4159   1.4335   1.4450
     1.4629   1.5207   1.5517   1.5793   1.5981   1.6057   1.6596   1.6764
     1.6836   1.6921   1.7676   1.7925   1.8116   1.8269   1.8587   1.9254
     1.9571   1.9689   1.9825   1.9927   2.0162   2.0347   2.1034   2.1118
     2.1584   2.1710   2.1819   2.1951   2.2242   2.2274   2.2373   2.2435
     2.2474   2.3072   2.3099   2.4451   2.4589   2.4742   2.4923   2.5082
     2.5090   2.5398   2.5653   2.5791   2.5917   2.6640   2.6937   2.7175
     2.7683   2.8782   2.8906   2.8998   2.9325   3.2774   3.3287   3.8408
     4.0481   4.0769   4.1865   4.9878   5.3928   5.4954   6.1380   6.2138
     6.2398   6.3381   6.5868   7.0061   7.1738   7.3448   7.5333   7.5784
     7.6321

          k = 0.0000 0.4619 0.0000 ( 43046 PWs)   bands (ev):

    -5.7394  -5.1097  -4.7305  -4.2201  -4.0138  -3.9939  -3.7928  -3.6351
    -3.4911  -3.3637  -3.2907  -3.2851  -3.2289  -3.1231  -3.0759  -3.0645
    -3.0590  -3.0458  -2.9124  -2.8990  -2.8858  -2.8522  -2.8437  -2.8119
    -2.7405  -2.7149  -2.7098  -2.6404  -2.4559  -2.4495  -2.4428  -2.4333
    -2.4268  -2.3384  -2.2044  -2.1926  -2.1717  -2.1480  -2.1398  -2.0495
    -1.9396  -1.8714  -1.8620  -1.8430  -1.8096  -1.7877  -1.7426  -1.7184
    -1.7088  -1.6794  -1.6437  -1.5427  -1.5013  -1.4955  -1.4641  -1.3977
    -1.3418  -1.3128  -1.2809  -1.2683  -1.2447  -1.1207  -1.0619  -1.0563
    -1.0462  -1.0333  -0.9526  -0.9352  -0.9051  -0.8151  -0.8073  -0.8042
    -0.7401  -0.6871  -0.6840  -0.6629  -0.6574  -0.6085  -0.5814  -0.5779
    -0.5606  -0.5519  -0.5408  -0.5363  -0.5297  -0.5012  -0.4207  -0.4025
    -0.3959  -0.3712  -0.3686  -0.3591  -0.3257  -0.2265  -0.2128  -0.1775
    -0.1515  -0.1412  -0.1149  -0.0895  -0.0638  -0.0568   0.0261   0.0655
     0.0880   0.1167   0.1407   0.1651   0.1917   0.3210   0.3449   0.4101
     0.4280   0.4816   0.4936   0.5228   0.5346   0.5384   0.5418   0.5896
     0.6188   0.6445   0.6568   0.6613   0.6908   0.7071   0.7105   0.7403
     0.7532   0.8578   0.8806   0.9005   0.9617   0.9857   1.0753   1.0793
     1.1753   1.1927   1.2349   1.2866   1.3543   1.3651   1.4091   1.4210
     1.4523   1.4650   1.4896   1.5185   1.5637   1.5726   1.6176   1.6624
     1.6779   1.7154   1.7317   1.7373   1.7525   1.8004   1.8854   1.9265
     1.9904   2.0114   2.0223   2.0298   2.0735   2.1292   2.1391   2.1978
     2.2155   2.2300   2.2399   2.2853   2.3187   2.3335   2.3437   2.4554
     2.4621   2.4786   2.4904   2.4950   2.4994   2.5200   2.5240   2.7033
     2.7261   2.7350   2.7429   2.7491   2.9064   2.9571   3.2010   3.3353
     3.3829   3.5738   3.7777   3.7885   4.0675   4.1696   4.2881   4.4793
     4.7690   5.0006   5.0052   5.1003   5.2159   5.2553   5.3539   5.3931
     5.6025   5.6543   6.1977   6.2872   6.7023   6.8193   7.1712   7.3019
     7.7390

          k = 0.2000-0.1155 0.0000 ( 42996 PWs)   bands (ev):

    -6.1616  -5.0527  -4.4286  -4.3229  -3.9796  -3.9627  -3.7474  -3.6732
    -3.6335  -3.6264  -3.4989  -3.4010  -3.3767  -3.2490  -3.2427  -3.2341
    -3.1368  -2.9426  -2.8199  -2.8107  -2.7997  -2.7849  -2.7306  -2.6976
    -2.6698  -2.6363  -2.6326  -2.6108  -2.5505  -2.5314  -2.5206  -2.4334
    -2.4234  -2.4028  -2.3878  -2.2528  -2.1997  -2.1932  -2.1809  -2.1449
    -1.9827  -1.9038  -1.8984  -1.8445  -1.8224  -1.8041  -1.7847  -1.6892
    -1.6076  -1.5487  -1.5313  -1.5141  -1.4710  -1.4516  -1.4068  -1.2389
    -1.1451  -1.1403  -1.0811  -1.0624  -1.0312  -0.9882  -0.9618  -0.9523
    -0.9283  -0.9203  -0.8584  -0.8409  -0.7996  -0.7739  -0.7622  -0.7239
    -0.6790  -0.6702  -0.6614  -0.5969  -0.5924  -0.5744  -0.5344  -0.4890
    -0.4815  -0.4751  -0.4691  -0.3964  -0.3818  -0.3673  -0.3628  -0.3569
    -0.3144  -0.2939  -0.2601  -0.2330  -0.2118  -0.1970  -0.1789  -0.1623
    -0.1485  -0.1134  -0.1012  -0.0945  -0.0100   0.0475   0.0596   0.0815
     0.0874   0.0930   0.1016   0.1204   0.1585   0.1657   0.1810   0.1958
     0.3954   0.5034   0.5519   0.5756   0.5947   0.6017   0.6082   0.6365
     0.6383   0.7274   0.7969   0.8085   0.8900   0.9428   0.9463   0.9736
     0.9876   1.0123   1.0503   1.0655   1.0755   1.1543   1.1804   1.1925
     1.2028   1.2091   1.3156   1.4012   1.4117   1.4158   1.4335   1.4451
     1.4630   1.5206   1.5517   1.5793   1.5981   1.6057   1.6597   1.6765
     1.6836   1.6921   1.7676   1.7925   1.8117   1.8270   1.8586   1.9254
     1.9571   1.9688   1.9824   1.9925   2.0161   2.0347   2.1034   2.1118
     2.1583   2.1711   2.1818   2.1951   2.2242   2.2275   2.2374   2.2435
     2.2474   2.3070   2.3097   2.4449   2.4589   2.4743   2.4923   2.5084
     2.5090   2.5400   2.5655   2.5793   2.5918   2.6640   2.6937   2.7175
     2.7682   2.8782   2.8908   2.8997   2.9323   3.2776   3.3290   3.8407
     4.0481   4.0768   4.1865   4.9876   5.3929   5.4957   6.1379   6.2138
     6.2398   6.3382   6.5867   7.0061   7.1738   7.3444   7.5333   7.5785
     7.6319

          k = 0.2000 0.1155 0.0000 ( 42996 PWs)   bands (ev):

    -6.1625  -5.0623  -4.4677  -4.2780  -3.9813  -3.9714  -3.7476  -3.6750
    -3.6278  -3.6273  -3.5328  -3.4027  -3.3013  -3.2497  -3.2422  -3.2367
    -3.1816  -2.9401  -2.8172  -2.8148  -2.7969  -2.7467  -2.7295  -2.6967
    -2.6678  -2.6445  -2.6394  -2.6300  -2.5297  -2.5284  -2.5043  -2.4287
    -2.4214  -2.3949  -2.3858  -2.2376  -2.1992  -2.1879  -2.1874  -2.1565
    -1.9710  -1.9021  -1.8998  -1.8436  -1.8202  -1.8138  -1.7886  -1.7006
    -1.6111  -1.5490  -1.5319  -1.5234  -1.4674  -1.4477  -1.3881  -1.2377
    -1.1442  -1.1388  -1.0768  -1.0680  -1.0345  -0.9873  -0.9659  -0.9493
    -0.9285  -0.9183  -0.8726  -0.8437  -0.7892  -0.7778  -0.7655  -0.7339
    -0.6792  -0.6716  -0.6630  -0.5971  -0.5891  -0.5762  -0.5343  -0.4848
    -0.4777  -0.4764  -0.4722  -0.3905  -0.3860  -0.3667  -0.3609  -0.3572
    -0.3041  -0.3020  -0.2565  -0.2346  -0.2124  -0.1996  -0.1926  -0.1581
    -0.1574  -0.1171  -0.1009  -0.0893  -0.0140   0.0517   0.0605   0.0692
     0.0816   0.0937   0.1061   0.1091   0.1504   0.1696   0.1752   0.1888
     0.4066   0.4998   0.5423   0.5803   0.5974   0.6006   0.6050   0.6341
     0.6478   0.6864   0.7827   0.8062   0.8938   0.9380   0.9470   0.9762
     0.9851   0.9999   1.0469   1.0663   1.0665   1.1572   1.1884   1.1940
     1.2068   1.2113   1.3809   1.3916   1.4110   1.4269   1.4279   1.4472
     1.4616   1.5310   1.5437   1.5635   1.6007   1.6021   1.6550   1.6690
     1.6846   1.6852   1.7636   1.7845   1.8176   1.8277   1.8751   1.9248
     1.9278   1.9631   1.9809   1.9818   2.0243   2.0371   2.0995   2.1128
     2.1667   2.1707   2.1849   2.2133   2.2183   2.2329   2.2366   2.2446
     2.2460   2.3057   2.3117   2.4507   2.4613   2.4690   2.4984   2.5094
     2.5130   2.5388   2.5741   2.5762   2.5922   2.6845   2.6899   2.7165
     2.7720   2.8806   2.8869   2.8982   2.9371   3.2821   3.3178   3.8549
     4.0380   4.0767   4.1925   4.9621   5.4475   5.4906   6.1073   6.2146
     6.2663   6.3296   6.5472   6.9955   7.1759   7.3358   7.5536   7.5842
     7.6308

          k = 0.2000 0.3464 0.0000 ( 43046 PWs)   bands (ev):

    -5.8783  -4.8840  -4.6305  -4.6168  -4.2033  -3.5491  -3.5463  -3.5403
    -3.5230  -3.4824  -3.4804  -3.4630  -3.3639  -3.3561  -3.1706  -2.9814
    -2.9709  -2.9615  -2.9588  -2.8946  -2.8715  -2.7423  -2.7252  -2.7151
    -2.7079  -2.6354  -2.6157  -2.5725  -2.5615  -2.5531  -2.4905  -2.4782
    -2.4565  -2.4063  -2.3952  -2.3129  -2.1366  -2.0612  -1.9725  -1.9635
    -1.9320  -1.9170  -1.9050  -1.8982  -1.8422  -1.8182  -1.7676  -1.6802
    -1.6691  -1.5795  -1.5746  -1.5451  -1.4954  -1.4866  -1.4307  -1.3926
    -1.3729  -1.2323  -1.2088  -1.1919  -1.1301  -1.1169  -1.0897  -1.0826
    -1.0646  -1.0123  -0.9797  -0.8613  -0.8487  -0.8369  -0.8300  -0.7844
    -0.7731  -0.7249  -0.7039  -0.6855  -0.6343  -0.5684  -0.5537  -0.5321
    -0.5174  -0.5084  -0.5008  -0.4732  -0.4559  -0.4399  -0.3994  -0.3857
    -0.3581  -0.3504  -0.2707  -0.2654  -0.2334  -0.2067  -0.1780  -0.1716
    -0.1465  -0.1235  -0.1060  -0.0976  -0.0966  -0.0838  -0.0709  -0.0548
    -0.0147  -0.0013   0.0853   0.1067   0.1493   0.2114   0.2293   0.2341
     0.2503   0.4236   0.4390   0.4686   0.5625   0.5741   0.6132   0.6188
     0.6445   0.6508   0.6883   0.6957   0.7280   0.7361   0.7575   0.8267
     0.9294   0.9653   0.9997   1.0121   1.0411   1.0604   1.0872   1.1343
     1.1966   1.2404   1.2520   1.2865   1.3207   1.3592   1.3985   1.4407
     1.4506   1.4676   1.5270   1.5356   1.5473   1.5650   1.5705   1.5848
     1.5959   1.6029   1.6156   1.7011   1.7719   1.8047   1.9257   1.9445
     1.9666   2.0998   2.1033   2.1216   2.1289   2.2050   2.2309   2.2511
     2.2608   2.2797   2.3011   2.3143   2.3279   2.3344   2.3465   2.3856
     2.4013   2.4137   2.4880   2.5134   2.5194   2.5462   2.5538   2.6005
     2.7187   2.7495   2.7850   2.8078   2.8597   2.8679   2.8764   2.9713
     3.0197   3.3558   3.5340   3.5530   3.9390   4.0856   4.0943   4.1028
     4.5953   4.7904   4.8179   4.9799   5.0160   5.0624   5.6624   6.1083
     6.2112   6.2212   6.4020   6.6668   6.9240   6.9837   7.0073   7.0252
     7.0513

          k = 0.2000-0.5774 0.0000 ( 43014 PWs)   bands (ev):

    -5.3643  -5.3232  -4.7772  -4.5437  -4.0859  -3.8582  -3.5453  -3.4837
    -3.4097  -3.3734  -3.2622  -3.2541  -3.1589  -3.1535  -3.0587  -3.0325
    -3.0217  -2.9985  -2.9949  -2.9774  -2.8615  -2.8280  -2.8203  -2.7912
    -2.7779  -2.7715  -2.7028  -2.6118  -2.5647  -2.4594  -2.4305  -2.4242
    -2.4079  -2.3924  -2.3485  -2.2935  -2.1826  -2.1716  -2.0899  -1.9946
    -1.9831  -1.9127  -1.8453  -1.8185  -1.7894  -1.7349  -1.6596  -1.6201
    -1.5860  -1.5643  -1.5440  -1.5117  -1.4996  -1.4615  -1.3838  -1.3717
    -1.3523  -1.3469  -1.3386  -1.3306  -1.2743  -1.2622  -1.2489  -1.1374
    -1.1168  -1.0645  -1.0363  -0.9630  -0.9188  -0.9049  -0.8792  -0.8502
    -0.8237  -0.8133  -0.7494  -0.7440  -0.7180  -0.6940  -0.6615  -0.6084
    -0.5952  -0.5380  -0.5059  -0.4914  -0.4826  -0.4757  -0.4006  -0.3443
    -0.3021  -0.2970  -0.2793  -0.2464  -0.2231  -0.2208  -0.2127  -0.1808
    -0.1725  -0.1571  -0.1345  -0.0961  -0.0789  -0.0710  -0.0650  -0.0552
    -0.0502  -0.0308   0.0089   0.0315   0.0488   0.2303   0.2654   0.3362
     0.3550   0.4015   0.4506   0.4710   0.4868   0.5132   0.5512   0.5675
     0.5688   0.5822   0.6393   0.6867   0.7042   0.7207   0.7701   0.7813
     0.8415   0.8554   0.8997   1.0083   1.0390   1.1002   1.1224   1.1391
     1.1832   1.2084   1.2350   1.2555   1.2646   1.2750   1.2926   1.3047
     1.4013   1.4303   1.4355   1.4746   1.4942   1.5114   1.5263   1.5453
     1.5523   1.6890   1.7274   1.7766   1.8435   1.8657   1.9488   1.9589
     1.9976   2.0666   2.0785   2.0911   2.1766   2.1789   2.2597   2.2729
     2.3012   2.3092   2.3137   2.3441   2.3594   2.3978   2.4689   2.4724
     2.4926   2.5084   2.5207   2.5256   2.5337   2.6005   2.7005   2.7338
     2.7373   2.7457   2.7506   2.8107   2.8522   2.9339   3.0475   3.7710
     3.8982   3.9199   4.0895   4.1521   4.2240   4.2779   4.2950   4.6373
     4.8751   4.9057   5.0983   5.3569   5.3733   5.4625   5.4952   5.6564
     5.7735   5.8470   5.8912   6.1629   6.2894   6.3320   6.7858   6.9675
     6.9889

          k = 0.2000-0.3464 0.0000 ( 43046 PWs)   bands (ev):

    -5.8755  -4.8565  -4.6330  -4.6170  -4.2043  -3.5474  -3.5442  -3.5411
    -3.5302  -3.4867  -3.4807  -3.4583  -3.3620  -3.3561  -3.1977  -2.9742
    -2.9644  -2.9612  -2.9507  -2.8953  -2.8687  -2.7382  -2.7268  -2.7112
    -2.7072  -2.6749  -2.6131  -2.5740  -2.5615  -2.5479  -2.5133  -2.4794
    -2.4573  -2.4189  -2.3987  -2.3122  -2.2361  -2.0566  -1.9689  -1.9651
    -1.9247  -1.9184  -1.9013  -1.8959  -1.8410  -1.8156  -1.7662  -1.6811
    -1.6667  -1.5862  -1.5509  -1.5210  -1.4989  -1.4883  -1.4134  -1.4004
    -1.3913  -1.2236  -1.2016  -1.1973  -1.1249  -1.1187  -1.0893  -1.0787
    -1.0619  -1.0093  -0.9861  -0.8530  -0.8388  -0.8359  -0.8243  -0.7926
    -0.7722  -0.7229  -0.6970  -0.6876  -0.6275  -0.5668  -0.5516  -0.5286
    -0.5222  -0.5086  -0.5020  -0.4684  -0.4431  -0.4323  -0.3911  -0.3809
    -0.3609  -0.3228  -0.2693  -0.2537  -0.2366  -0.2078  -0.1806  -0.1667
    -0.1600  -0.1166  -0.1030  -0.0930  -0.0872  -0.0809  -0.0748  -0.0606
    -0.0288   0.0086   0.0914   0.1262   0.1472   0.1984   0.2308   0.2355
     0.2510   0.4223   0.4378   0.5088   0.5543   0.5780   0.6091   0.6185
     0.6302   0.6544   0.6723   0.7047   0.7264   0.7389   0.7617   0.8304
     0.8979   0.9676   1.0047   1.0082   1.0325   1.0640   1.1001   1.1325
     1.2010   1.2279   1.2431   1.2608   1.3244   1.3455   1.3958   1.4518
     1.4636   1.4734   1.5184   1.5313   1.5529   1.5621   1.5700   1.5893
     1.5960   1.6029   1.6207   1.7217   1.7770   1.8086   1.9336   1.9401
     1.9647   2.0795   2.1189   2.1249   2.1272   2.2098   2.2206   2.2523
     2.2657   2.2838   2.2978   2.3137   2.3300   2.3342   2.3456   2.3853
     2.4050   2.4152   2.4852   2.5116   2.5184   2.5458   2.5571   2.5994
     2.7305   2.7660   2.7898   2.8032   2.8615   2.8693   2.8785   2.9854
     3.0211   3.3186   3.5093   3.5584   3.9011   4.0883   4.0959   4.1092
     4.5990   4.7948   4.8113   4.9536   5.0098   5.0675   5.6395   6.0766
     6.2070   6.2473   6.4337   6.7228   6.9393   6.9777   7.0118   7.0173
     7.0523

          k = 0.4000-0.2309 0.0000 ( 43046 PWs)   bands (ev):

    -5.7394  -5.1098  -4.7305  -4.2201  -4.0137  -3.9939  -3.7928  -3.6353
    -3.4911  -3.3638  -3.2906  -3.2850  -3.2290  -3.1232  -3.0760  -3.0645
    -3.0591  -3.0459  -2.9124  -2.8989  -2.8858  -2.8523  -2.8438  -2.8119
    -2.7406  -2.7148  -2.7098  -2.6405  -2.4558  -2.4494  -2.4427  -2.4332
    -2.4267  -2.3384  -2.2043  -2.1926  -2.1716  -2.1480  -2.1397  -2.0495
    -1.9396  -1.8714  -1.8620  -1.8430  -1.8096  -1.7877  -1.7426  -1.7183
    -1.7089  -1.6794  -1.6438  -1.5426  -1.5012  -1.4954  -1.4640  -1.3977
    -1.3417  -1.3125  -1.2807  -1.2683  -1.2446  -1.1207  -1.0619  -1.0564
    -1.0463  -1.0334  -0.9527  -0.9349  -0.9053  -0.8153  -0.8078  -0.8045
    -0.7401  -0.6870  -0.6840  -0.6628  -0.6574  -0.6085  -0.5813  -0.5778
    -0.5604  -0.5519  -0.5410  -0.5363  -0.5296  -0.5013  -0.4207  -0.4023
    -0.3959  -0.3710  -0.3686  -0.3589  -0.3259  -0.2266  -0.2130  -0.1776
    -0.1519  -0.1414  -0.1147  -0.0896  -0.0641  -0.0571   0.0261   0.0654
     0.0881   0.1168   0.1406   0.1650   0.1917   0.3210   0.3450   0.4102
     0.4280   0.4816   0.4936   0.5228   0.5346   0.5387   0.5421   0.5896
     0.6188   0.6445   0.6566   0.6613   0.6908   0.7069   0.7103   0.7402
     0.7535   0.8577   0.8804   0.9004   0.9616   0.9856   1.0751   1.0792
     1.1753   1.1926   1.2351   1.2868   1.3543   1.3651   1.4089   1.4208
     1.4523   1.4652   1.4897   1.5185   1.5639   1.5727   1.6176   1.6625
     1.6780   1.7154   1.7318   1.7372   1.7525   1.8002   1.8853   1.9264
     1.9904   2.0113   2.0223   2.0297   2.0734   2.1293   2.1391   2.1977
     2.2155   2.2299   2.2398   2.2854   2.3185   2.3333   2.3437   2.4554
     2.4621   2.4787   2.4904   2.4950   2.4995   2.5203   2.5242   2.7033
     2.7262   2.7352   2.7432   2.7493   2.9063   2.9571   3.2011   3.3357
     3.3827   3.5737   3.7776   3.7885   4.0674   4.1696   4.2879   4.4795
     4.7692   5.0006   5.0052   5.1003   5.2157   5.2552   5.3541   5.3934
     5.6025   5.6544   6.1975   6.2874   6.7021   6.8193   7.1711   7.3019
     7.7392

          k = 0.4000-0.0000 0.0000 ( 43046 PWs)   bands (ev):

    -5.8783  -4.8840  -4.6305  -4.6168  -4.2033  -3.5492  -3.5463  -3.5403
    -3.5230  -3.4822  -3.4804  -3.4628  -3.3639  -3.3561  -3.1707  -2.9816
    -2.9710  -2.9614  -2.9588  -2.8947  -2.8714  -2.7423  -2.7252  -2.7150
    -2.7080  -2.6354  -2.6154  -2.5724  -2.5614  -2.5532  -2.4906  -2.4781
    -2.4566  -2.4062  -2.3952  -2.3132  -2.1366  -2.0612  -1.9724  -1.9634
    -1.9319  -1.9169  -1.9050  -1.8982  -1.8422  -1.8182  -1.7675  -1.6802
    -1.6691  -1.5794  -1.5746  -1.5451  -1.4953  -1.4867  -1.4307  -1.3926
    -1.3729  -1.2322  -1.2087  -1.1918  -1.1298  -1.1167  -1.0896  -1.0826
    -1.0645  -1.0123  -0.9797  -0.8613  -0.8489  -0.8370  -0.8302  -0.7844
    -0.7732  -0.7249  -0.7040  -0.6856  -0.6343  -0.5682  -0.5537  -0.5320
    -0.5174  -0.5083  -0.5009  -0.4732  -0.4561  -0.4398  -0.3995  -0.3860
    -0.3582  -0.3506  -0.2708  -0.2654  -0.2334  -0.2068  -0.1781  -0.1717
    -0.1467  -0.1234  -0.1060  -0.0975  -0.0966  -0.0837  -0.0709  -0.0548
    -0.0148  -0.0014   0.0854   0.1067   0.1494   0.2113   0.2291   0.2341
     0.2503   0.4236   0.4390   0.4686   0.5622   0.5741   0.6131   0.6187
     0.6446   0.6508   0.6884   0.6958   0.7281   0.7360   0.7575   0.8270
     0.9292   0.9652   0.9996   1.0121   1.0411   1.0604   1.0872   1.1342
     1.1966   1.2404   1.2520   1.2865   1.3207   1.3591   1.3984   1.4408
     1.4506   1.4676   1.5271   1.5357   1.5473   1.5651   1.5706   1.5848
     1.5960   1.6029   1.6158   1.7010   1.7719   1.8048   1.9257   1.9445
     1.9666   2.0998   2.1033   2.1216   2.1289   2.2050   2.2308   2.2512
     2.2609   2.2798   2.3011   2.3142   2.3278   2.3343   2.3464   2.3855
     2.4013   2.4139   2.4879   2.5132   2.5193   2.5462   2.5538   2.6005
     2.7190   2.7497   2.7852   2.8080   2.8597   2.8680   2.8764   2.9712
     3.0196   3.3556   3.5339   3.5530   3.9391   4.0857   4.0946   4.1029
     4.5953   4.7903   4.8178   4.9799   5.0160   5.0624   5.6625   6.1085
     6.2113   6.2214   6.4020   6.6667   6.9240   6.9836   7.0072   7.0252
     7.0512

          k = 0.4000 0.2309 0.0000 ( 43046 PWs)   bands (ev):

    -5.7441  -5.1291  -4.7499  -4.2152  -4.0159  -4.0067  -3.7804  -3.6222
    -3.4899  -3.3627  -3.2865  -3.2850  -3.2103  -3.1196  -3.0943  -3.0681
    -3.0670  -3.0540  -2.9128  -2.9004  -2.8943  -2.8532  -2.8447  -2.8006
    -2.7373  -2.7132  -2.7112  -2.4986  -2.4555  -2.4500  -2.4439  -2.4285
    -2.4257  -2.2942  -2.2022  -2.1900  -2.1723  -2.1404  -2.1403  -2.0467
    -1.9385  -1.8658  -1.8630  -1.8468  -1.8233  -1.7873  -1.7562  -1.7135
    -1.7101  -1.6787  -1.6425  -1.5591  -1.5036  -1.4938  -1.4643  -1.4240
    -1.3383  -1.3082  -1.2748  -1.2708  -1.2411  -1.1189  -1.0733  -1.0500
    -1.0495  -1.0289  -0.9426  -0.9371  -0.9251  -0.8255  -0.8065  -0.8049
    -0.7553  -0.6898  -0.6858  -0.6596  -0.6593  -0.6212  -0.5950  -0.5693
    -0.5637  -0.5491  -0.5437  -0.5395  -0.5282  -0.4977  -0.4015  -0.3965
    -0.3912  -0.3805  -0.3696  -0.3565  -0.3272  -0.2835  -0.2158  -0.1933
    -0.1560  -0.1303  -0.1065  -0.0899  -0.0811  -0.0645   0.0215   0.0555
     0.0876   0.0935   0.1503   0.1511   0.1786   0.3153   0.3522   0.3856
     0.4209   0.4689   0.5098   0.5168   0.5351   0.5423   0.5484   0.5708
     0.6132   0.6457   0.6528   0.6734   0.6771   0.7054   0.7190   0.7447
     0.7672   0.8556   0.8752   0.8897   0.9643   1.0048   1.0814   1.0821
     1.1849   1.2011   1.2439   1.2930   1.3495   1.3704   1.3888   1.4238
     1.4580   1.4614   1.4973   1.5177   1.5566   1.5721   1.6073   1.6662
     1.6688   1.7068   1.7247   1.7429   1.7471   1.8142   1.8755   1.9104
     1.9634   2.0057   2.0075   2.0348   2.0885   2.1244   2.1363   2.2143
     2.2213   2.2324   2.2357   2.2960   2.3204   2.3309   2.3433   2.4534
     2.4653   2.4805   2.4869   2.4944   2.4994   2.5223   2.5249   2.7043
     2.7290   2.7367   2.7435   2.7448   2.9099   2.9576   3.2450   3.3258
     3.3976   3.5557   3.7848   3.7867   4.0866   4.1718   4.2849   4.5071
     4.8137   5.0027   5.0039   5.0813   5.2176   5.2430   5.3810   5.3932
     5.5998   5.6564   6.1744   6.2975   6.6768   6.8115   7.2121   7.2874
     7.7715

          k = 0.4000-0.6928 0.0000 ( 43014 PWs)   bands (ev):

    -5.3767  -5.3255  -4.7561  -4.5901  -4.0829  -3.8268  -3.5532  -3.4892
    -3.4067  -3.3754  -3.2651  -3.2577  -3.1600  -3.1534  -3.0579  -3.0342
    -3.0176  -2.9986  -2.9932  -2.9776  -2.8497  -2.8285  -2.8180  -2.7970
    -2.7830  -2.7786  -2.6749  -2.5862  -2.5571  -2.4399  -2.4232  -2.4163
    -2.4099  -2.3825  -2.3398  -2.2849  -2.1829  -2.1791  -2.0728  -1.9940
    -1.9803  -1.9240  -1.8452  -1.8057  -1.7833  -1.7492  -1.6581  -1.6209
    -1.5979  -1.5653  -1.5498  -1.5116  -1.4889  -1.4444  -1.3857  -1.3833
    -1.3622  -1.3453  -1.3350  -1.3268  -1.2929  -1.2585  -1.2371  -1.1415
    -1.1217  -1.0700  -1.0351  -0.9684  -0.9159  -0.9067  -0.8925  -0.8484
    -0.8302  -0.8188  -0.7592  -0.7443  -0.7203  -0.6954  -0.6616  -0.6201
    -0.5853  -0.5376  -0.5270  -0.4863  -0.4799  -0.4748  -0.4185  -0.3497
    -0.3072  -0.3005  -0.2762  -0.2670  -0.2228  -0.2179  -0.2072  -0.1867
    -0.1746  -0.1679  -0.1340  -0.0903  -0.0842  -0.0740  -0.0660  -0.0575
    -0.0472  -0.0332  -0.0131   0.0384   0.0484   0.2344   0.2585   0.3393
     0.3601   0.4223   0.4561   0.4642   0.4921   0.5087   0.5534   0.5708
     0.5756   0.5861   0.6423   0.6880   0.7055   0.7362   0.7677   0.7782
     0.8384   0.8547   0.8794   0.9598   1.0480   1.1104   1.1138   1.1438
     1.1899   1.2148   1.2307   1.2483   1.2678   1.2694   1.2945   1.3053
     1.3975   1.4379   1.4398   1.4822   1.4885   1.5008   1.5243   1.5369
     1.5519   1.7043   1.7418   1.7729   1.8208   1.8750   1.9480   1.9607
     2.0210   2.0629   2.0736   2.0932   2.1657   2.1927   2.2577   2.2833
     2.2898   2.3072   2.3129   2.3355   2.3604   2.3968   2.4688   2.4724
     2.4975   2.5078   2.5186   2.5266   2.5339   2.6003   2.7082   2.7297
     2.7416   2.7445   2.7463   2.8097   2.8480   2.9240   3.0179   3.8034
     3.8969   3.9176   4.1037   4.1460   4.2582   4.2771   4.2986   4.6518
     4.8583   4.9117   5.1444   5.3538   5.3792   5.4391   5.5064   5.6843
     5.7637   5.8200   5.9037   6.1548   6.2535   6.3471   6.7991   6.9430
     6.9909

          k = 0.4000-0.4619 0.0000 ( 43014 PWs)   bands (ev):

    -5.3643  -5.3232  -4.7772  -4.5437  -4.0860  -3.8582  -3.5454  -3.4837
    -3.4097  -3.3734  -3.2621  -3.2541  -3.1589  -3.1535  -3.0588  -3.0325
    -3.0217  -2.9985  -2.9948  -2.9773  -2.8617  -2.8280  -2.8202  -2.7912
    -2.7780  -2.7715  -2.7028  -2.6118  -2.5646  -2.4593  -2.4305  -2.4243
    -2.4078  -2.3922  -2.3484  -2.2935  -2.1825  -2.1715  -2.0899  -1.9948
    -1.9829  -1.9127  -1.8453  -1.8185  -1.7894  -1.7349  -1.6598  -1.6202
    -1.5861  -1.5642  -1.5439  -1.5114  -1.4994  -1.4615  -1.3837  -1.3717
    -1.3522  -1.3468  -1.3385  -1.3306  -1.2743  -1.2622  -1.2490  -1.1374
    -1.1169  -1.0645  -1.0362  -0.9631  -0.9185  -0.9051  -0.8794  -0.8502
    -0.8240  -0.8136  -0.7493  -0.7440  -0.7181  -0.6940  -0.6615  -0.6083
    -0.5950  -0.5381  -0.5058  -0.4913  -0.4826  -0.4757  -0.4006  -0.3446
    -0.3022  -0.2967  -0.2792  -0.2463  -0.2232  -0.2209  -0.2128  -0.1811
    -0.1727  -0.1572  -0.1347  -0.0956  -0.0790  -0.0710  -0.0652  -0.0553
    -0.0501  -0.0305   0.0087   0.0314   0.0489   0.2302   0.2652   0.3361
     0.3550   0.4015   0.4506   0.4710   0.4869   0.5133   0.5511   0.5675
     0.5687   0.5825   0.6394   0.6868   0.7042   0.7205   0.7700   0.7814
     0.8415   0.8553   0.8994   1.0083   1.0389   1.1002   1.1225   1.1392
     1.1832   1.2084   1.2350   1.2555   1.2645   1.2750   1.2926   1.3047
     1.4014   1.4304   1.4356   1.4746   1.4942   1.5114   1.5263   1.5453
     1.5522   1.6890   1.7272   1.7764   1.8435   1.8657   1.9489   1.9590
     1.9977   2.0666   2.0785   2.0911   2.1766   2.1789   2.2596   2.2728
     2.3011   2.3091   2.3137   2.3441   2.3594   2.3979   2.4689   2.4724
     2.4925   2.5084   2.5207   2.5256   2.5337   2.6005   2.7005   2.7340
     2.7374   2.7459   2.7507   2.8108   2.8524   2.9339   3.0475   3.7710
     3.8982   3.9199   4.0893   4.1522   4.2240   4.2778   4.2948   4.6375
     4.8752   4.9057   5.0983   5.3569   5.3733   5.4625   5.4952   5.6570
     5.7735   5.8469   5.8910   6.1629   6.2894   6.3320   6.7860   6.9670
     6.9889

     the Fermi energy is     2.5139 ev

!    total energy              =  -27755.48721470 Ry
     total all-electron energy =  -1326642.252631 Ry
     estimated scf accuracy    <          4.7E-09 Ry
     smearing contrib. (-TS)   =       0.00325277 Ry
     internal energy E=F+TS    =  -27755.49046747 Ry

     The total energy is F=E-TS. E is the sum of the following terms:
     one-electron contribution =  -20682.78672483 Ry
     hartree contribution      =   10648.53296650 Ry
     xc contribution           =    -890.71961929 Ry
     ewald contribution        =    8643.46369044 Ry
     one-center paw contrib.   =  -25473.98078028 Ry

     convergence has been achieved in  21 iterations

     negative rho (up, down):  3.150E-03 0.000E+00

     Forces acting on atoms (cartesian axes, Ry/au):

     atom    1 type  1   force =    -0.00016852   -0.00010770   -0.00330850
     atom    2 type  1   force =     0.00024139   -0.00007433   -0.00319333
     atom    3 type  1   force =     0.00000017    0.00093400   -0.00378046
     atom    4 type  1   force =     0.00006438    0.00023852   -0.00319316
     atom    5 type  1   force =    -0.00014368   -0.00009010   -0.00366436
     atom    6 type  1   force =    -0.00008496   -0.00014845   -0.00367258
     atom    7 type  1   force =     0.00081491   -0.00047668   -0.00378189
     atom    8 type  1   force =    -0.00016546   -0.00000535   -0.00367507
     atom    9 type  1   force =    -0.00002069   -0.00001776   -0.00311155
     atom   10 type  1   force =     0.00015983    0.00010632    0.00651994
     atom   11 type  1   force =    -0.00038713   -0.00116695    0.00413869
     atom   12 type  1   force =     0.00030822   -0.00040642    0.00253389
     atom   13 type  1   force =    -0.00122457    0.00026710    0.00413891
     atom   14 type  1   force =    -0.00006850   -0.00003596    0.00231415
     atom   15 type  1   force =     0.00109581    0.00016487    0.00460277
     atom   16 type  1   force =    -0.00021054    0.00050334    0.00252862
     atom   17 type  1   force =     0.00067791    0.00088973    0.00460007
     atom   18 type  1   force =     0.00018371    0.00012365    0.00037366
     atom   19 type  1   force =    -0.00001662    0.00000535    0.00006533
     atom   20 type  1   force =    -0.00002874   -0.00000324   -0.00001249
     atom   21 type  1   force =     0.00006836    0.00002975   -0.00005811
     atom   22 type  1   force =    -0.00003290    0.00001214    0.00003906
     atom   23 type  1   force =     0.00003886    0.00004505   -0.00001517
     atom   24 type  1   force =     0.00003852    0.00002048    0.00014077
     atom   25 type  1   force =     0.00000828   -0.00001483    0.00003544
     atom   26 type  1   force =    -0.00001810   -0.00002700    0.00006433
     atom   27 type  1   force =     0.00000255   -0.00006799    0.00003163
     atom   28 type  1   force =    -0.00001713   -0.00002241    0.00007260
     atom   29 type  1   force =     0.00002528   -0.00001757   -0.00003882
     atom   30 type  1   force =     0.00003693    0.00005126    0.00000175
     atom   31 type  1   force =    -0.00000199    0.00003441   -0.00006457
     atom   32 type  1   force =     0.00005402    0.00000983    0.00000961
     atom   33 type  1   force =    -0.00004386   -0.00007974   -0.00007291
     atom   34 type  1   force =     0.00006250    0.00000944   -0.00002763
     atom   35 type  1   force =    -0.00007453    0.00000754   -0.00008187
     atom   36 type  1   force =     0.00003247    0.00001121   -0.00004703
     atom   37 type  2   force =    -0.00120619   -0.00070151   -0.00041173
     The non-local contrib.  to forces
     atom    1 type  1   force =     0.00018954    0.00011087   -0.01777971
     atom    2 type  1   force =    -0.00064084    0.00043563   -0.01825306
     atom    3 type  1   force =     0.00061142   -0.00089312   -0.01857020
     atom    4 type  1   force =     0.00005495   -0.00077115   -0.01825410
     atom    5 type  1   force =    -0.00003351   -0.00001809   -0.01782480
     atom    6 type  1   force =    -0.00010100    0.00016788   -0.01813833
     atom    7 type  1   force =    -0.00046784    0.00097882   -0.01856863
     atom    8 type  1   force =     0.00009338   -0.00017061   -0.01813649
     atom    9 type  1   force =     0.00002451    0.00001587   -0.01878494
     atom   10 type  1   force =    -0.00017209   -0.00008534    0.00033083
     atom   11 type  1   force =    -0.00072592    0.00065826    0.00077417
     atom   12 type  1   force =     0.00112118    0.00081607    0.00010101
     atom   13 type  1   force =     0.00019155   -0.00093005    0.00076915
     atom   14 type  1   force =     0.00018765    0.00012422   -0.00074816
     atom   15 type  1   force =    -0.00042051   -0.00048624    0.00036165
     atom   16 type  1   force =     0.00125467    0.00059265    0.00009397
     atom   17 type  1   force =    -0.00064891   -0.00009224    0.00036246
     atom   18 type  1   force =    -0.00100512   -0.00056393    0.00020716
     atom   19 type  1   force =    -0.00224675   -0.00009922    0.00198271
     atom   20 type  1   force =     0.00109212    0.00063226    0.00454368
     atom   21 type  1   force =     0.00082755    0.00098801    0.00245299
     atom   22 type  1   force =     0.00066665    0.00306643   -0.00098147
     atom   23 type  1   force =     0.00125482    0.00022457    0.00249267
     atom   24 type  1   force =    -0.00124967   -0.00071838    0.00294700
     atom   25 type  1   force =    -0.00019480   -0.00011937    0.00311551
     atom   26 type  1   force =    -0.00121520   -0.00189824    0.00197849
     atom   27 type  1   force =     0.00299946   -0.00097957   -0.00098894
     atom   28 type  1   force =     0.04281816    0.02468669    0.03087562
     atom   29 type  1   force =    -0.02403221    0.02127459   -0.00110861
     atom   30 type  1   force =     0.00063219   -0.00054528    0.01528667
     atom   31 type  1   force =     0.00642388   -0.03146862   -0.00111455
     atom   32 type  1   force =    -0.01069335   -0.00622921    0.02160459
     atom   33 type  1   force =     0.00127123   -0.00072815    0.01697762
     atom   34 type  1   force =    -0.00014553    0.00081647    0.01527158
     atom   35 type  1   force =     0.00004795    0.00145655    0.01697078
     atom   36 type  1   force =    -0.00044667   -0.00026699    0.01650019
     atom   37 type  2   force =     0.00552608    0.00319084   -0.02097075
     The ionic contribution  to forces
     atom    1 type  1   force =     0.00657467    0.00383239  -93.41417731
     atom    2 type  1   force =    -0.00119627    0.00415455  -93.40490322
     atom    3 type  1   force =    -0.00541879   -0.00465143  -93.41742998
     atom    4 type  1   force =     0.00296933   -0.00309782  -93.40484743
     atom    5 type  1   force =    -0.01052887   -0.00609366  -93.41876941
     atom    6 type  1   force =     0.00757444   -0.00195406  -93.42428423
     atom    7 type  1   force =    -0.00678004   -0.00237549  -93.41744397
     atom    8 type  1   force =     0.00210917    0.00750979  -93.42435621
     atom    9 type  1   force =     0.00468793    0.00267543  -93.41214425
     atom   10 type  1   force =     0.03114048    0.01839040  -31.47471788
     atom   11 type  1   force =    -0.07735189   -0.01879213  -31.50952873
     atom   12 type  1   force =     0.05105273    0.00195195  -31.56388452
     atom   13 type  1   force =    -0.05563581   -0.05743766  -31.50932219
     atom   14 type  1   force =    -0.00510500   -0.00325310  -31.61744903
     atom   15 type  1   force =     0.05947415   -0.01372919  -31.53814339
     atom   16 type  1   force =     0.02682795    0.04386068  -31.56412518
     atom   17 type  1   force =     0.01780250    0.05843153  -31.53845662
     atom   18 type  1   force =    -0.05109672   -0.02943776  -31.48131692
     atom   19 type  1   force =     0.13093959   -0.02737463   31.25984712
     atom   20 type  1   force =    -0.10204678   -0.05784907   31.48085310
     atom   21 type  1   force =    -0.02253837   -0.05340695   30.74890210
     atom   22 type  1   force =     0.00915513    0.01256355   31.11340768
     atom   23 type  1   force =    -0.05863428    0.00744684   30.74647338
     atom   24 type  1   force =     0.04665616    0.02675657   30.80181578
     atom   25 type  1   force =    -0.04134914   -0.02463633   30.75379327
     atom   26 type  1   force =     0.04078929    0.12687288   31.25979699
     atom   27 type  1   force =     0.01586184    0.00044181   31.11223547
     atom   28 type  1   force =    -0.07193111   -0.04222643   92.39906610
     atom   29 type  1   force =     0.44329595   -0.52615997   92.76546018
     atom   30 type  1   force =     0.02048802    0.01085769   92.65560885
     atom   31 type  1   force =    -0.23377489    0.64681783   92.76757777
     atom   32 type  1   force =    -0.02797107   -0.01746142   92.41449085
     atom   33 type  1   force =     0.05205854   -0.02573093   92.60709682
     atom   34 type  1   force =     0.01944025    0.01286943   92.65622728
     atom   35 type  1   force =     0.00466026    0.05856938   92.60710865
     atom   36 type  1   force =    -0.01994227   -0.01142512   92.60178453
     atom   37 type  2   force =    -0.20225711   -0.11690954   11.78375452
     The local contribution  to forces
     atom    1 type  1   force =    -0.00689815   -0.00402629   93.41137218
     atom    2 type  1   force =     0.00206899   -0.00464282   93.40272579
     atom    3 type  1   force =     0.00479203    0.00646717   93.41486083
     atom    4 type  1   force =    -0.00294926    0.00408892   93.40267238
     atom    5 type  1   force =     0.01041076    0.00601629   93.41566132
     atom    6 type  1   force =    -0.00753484    0.00168822   93.42150772
     atom    7 type  1   force =     0.00804162    0.00091011   93.41487241
     atom    8 type  1   force =    -0.00231133   -0.00735388   93.42157421
     atom    9 type  1   force =    -0.00467382   -0.00267813   93.41062273
     atom   10 type  1   force =    -0.03071555   -0.01813752   31.47995364
     atom   11 type  1   force =     0.07756734    0.01688153   31.51178993
     atom   12 type  1   force =    -0.05182765   -0.00313442   31.56500149
     atom   13 type  1   force =     0.05407821    0.05857113   31.51159073
     atom   14 type  1   force =     0.00486151    0.00309696   31.61909285
     atom   15 type  1   force =    -0.05786545    0.01437763   31.54121427
     atom   16 type  1   force =    -0.02824585   -0.04393555   31.56524381
     atom   17 type  1   force =    -0.01642829   -0.05737203   31.54152164
     atom   18 type  1   force =     0.05213310    0.03003645   31.48067260
     atom   19 type  1   force =    -0.12852823    0.02748258  -31.25930103
     atom   20 type  1   force =     0.10077526    0.05713553  -31.48288673
     atom   21 type  1   force =     0.02181149    0.05239078  -30.74943272
     atom   22 type  1   force =    -0.00986117   -0.01542814  -31.11038850
     atom   23 type  1   force =     0.05737569   -0.00756945  -30.74699204
     atom   24 type  1   force =    -0.04532912   -0.02599880  -30.80265428
     atom   25 type  1   force =     0.04126631    0.02457271  -30.75498584
     atom   26 type  1   force =    -0.03950634   -0.12484567  -31.25924494
     atom   27 type  1   force =    -0.01869269    0.00036183  -31.10921809
     atom   28 type  1   force =     0.02888797    0.01739493  -92.41488593
     atom   29 type  1   force =    -0.41413218    0.49954744  -92.75370343
     atom   30 type  1   force =    -0.02130910   -0.01015730  -92.65436600
     atom   31 type  1   force =     0.22529480   -0.60823125  -92.75584504
     atom   32 type  1   force =     0.03782756    0.02318458  -92.41980440
     atom   33 type  1   force =    -0.05269353    0.02618624  -92.60773148
     atom   34 type  1   force =    -0.01925466   -0.01392445  -92.65500428
     atom   35 type  1   force =    -0.00460982   -0.05933271  -92.60774446
     atom   36 type  1   force =     0.02030346    0.01163314  -92.60178991
     atom   37 type  2   force =     0.19552432    0.11301725  -11.76319933
     The core correction contribution to forces
     atom    1 type  1   force =    -0.00002946   -0.00001689    0.01728437
     atom    2 type  1   force =     0.00003015   -0.00002133    0.01725803
     atom    3 type  1   force =    -0.00001088   -0.00000012    0.01738104
     atom    4 type  1   force =    -0.00000350    0.00003707    0.01725806
     atom    5 type  1   force =    -0.00000372   -0.00000196    0.01729173
     atom    6 type  1   force =    -0.00001977   -0.00003262    0.01727288
     atom    7 type  1   force =    -0.00000574   -0.00000897    0.01738100
     atom    8 type  1   force =    -0.00003824   -0.00000054    0.01727291
     atom    9 type  1   force =    -0.00005173   -0.00002971    0.01723728
     atom   10 type  1   force =    -0.00007925   -0.00004674    0.00094615
     atom   11 type  1   force =     0.00012870    0.00006926    0.00109667
     atom   12 type  1   force =    -0.00005786   -0.00001878    0.00132885
     atom   13 type  1   force =     0.00012653    0.00007600    0.00109684
     atom   14 type  1   force =     0.00000985    0.00000664    0.00144608
     atom   15 type  1   force =    -0.00010060    0.00004478    0.00119593
     atom   16 type  1   force =    -0.00004423   -0.00004321    0.00133015
     atom   17 type  1   force =    -0.00001105   -0.00011020    0.00119664
     atom   18 type  1   force =     0.00011222    0.00006371    0.00082282
     atom   19 type  1   force =    -0.00020771    0.00004385   -0.00241348
     atom   20 type  1   force =     0.00015752    0.00008777   -0.00248090
     atom   21 type  1   force =    -0.00001375    0.00008179   -0.00192944
     atom   22 type  1   force =    -0.00003468   -0.00016653   -0.00196343
     atom   23 type  1   force =     0.00006813   -0.00005448   -0.00193517
     atom   24 type  1   force =    -0.00002411   -0.00001433   -0.00192711
     atom   25 type  1   force =     0.00025868    0.00015155   -0.00182772
     atom   26 type  1   force =    -0.00006272   -0.00020155   -0.00241343
     atom   27 type  1   force =    -0.00016270    0.00005716   -0.00196105
     atom   28 type  1   force =     0.00019919    0.00011725   -0.01499212
     atom   29 type  1   force =    -0.00509874    0.00529882   -0.01069531
     atom   30 type  1   force =     0.00022589   -0.00011313   -0.01654485
     atom   31 type  1   force =     0.00203928   -0.00706492   -0.01069443
     atom   32 type  1   force =     0.00090924    0.00053007   -0.01629333
     atom   33 type  1   force =    -0.00068308    0.00021496   -0.01645014
     atom   34 type  1   force =     0.00001636    0.00025021   -0.01654110
     atom   35 type  1   force =    -0.00015893   -0.00070132   -0.01644905
     atom   36 type  1   force =     0.00010951    0.00006349   -0.01658739
     atom   37 type  2   force =     0.00000000    0.00000000    0.00000000
     The Hubbard contrib.    to forces
     atom    1 type  1   force =     0.00000000    0.00000000    0.00000000
     atom    2 type  1   force =     0.00000000    0.00000000    0.00000000
     atom    3 type  1   force =     0.00000000    0.00000000    0.00000000
     atom    4 type  1   force =     0.00000000    0.00000000    0.00000000
     atom    5 type  1   force =     0.00000000    0.00000000    0.00000000
     atom    6 type  1   force =     0.00000000    0.00000000    0.00000000
     atom    7 type  1   force =     0.00000000    0.00000000    0.00000000
     atom    8 type  1   force =     0.00000000    0.00000000    0.00000000
     atom    9 type  1   force =     0.00000000    0.00000000    0.00000000
     atom   10 type  1   force =     0.00000000    0.00000000    0.00000000
     atom   11 type  1   force =     0.00000000    0.00000000    0.00000000
     atom   12 type  1   force =     0.00000000    0.00000000    0.00000000
     atom   13 type  1   force =     0.00000000    0.00000000    0.00000000
     atom   14 type  1   force =     0.00000000    0.00000000    0.00000000
     atom   15 type  1   force =     0.00000000    0.00000000    0.00000000
     atom   16 type  1   force =     0.00000000    0.00000000    0.00000000
     atom   17 type  1   force =     0.00000000    0.00000000    0.00000000
     atom   18 type  1   force =     0.00000000    0.00000000    0.00000000
     atom   19 type  1   force =     0.00000000    0.00000000    0.00000000
     atom   20 type  1   force =     0.00000000    0.00000000    0.00000000
     atom   21 type  1   force =     0.00000000    0.00000000    0.00000000
     atom   22 type  1   force =     0.00000000    0.00000000    0.00000000
     atom   23 type  1   force =     0.00000000    0.00000000    0.00000000
     atom   24 type  1   force =     0.00000000    0.00000000    0.00000000
     atom   25 type  1   force =     0.00000000    0.00000000    0.00000000
     atom   26 type  1   force =     0.00000000    0.00000000    0.00000000
     atom   27 type  1   force =     0.00000000    0.00000000    0.00000000
     atom   28 type  1   force =     0.00000000    0.00000000    0.00000000
     atom   29 type  1   force =     0.00000000    0.00000000    0.00000000
     atom   30 type  1   force =     0.00000000    0.00000000    0.00000000
     atom   31 type  1   force =     0.00000000    0.00000000    0.00000000
     atom   32 type  1   force =     0.00000000    0.00000000    0.00000000
     atom   33 type  1   force =     0.00000000    0.00000000    0.00000000
     atom   34 type  1   force =     0.00000000    0.00000000    0.00000000
     atom   35 type  1   force =     0.00000000    0.00000000    0.00000000
     atom   36 type  1   force =     0.00000000    0.00000000    0.00000000
     atom   37 type  2   force =     0.00000000    0.00000000    0.00000000
     The SCF correction term to forces
     atom    1 type  1   force =    -0.00000000   -0.00000000   -0.00000000
     atom    2 type  1   force =    -0.00000000   -0.00000000   -0.00000000
     atom    3 type  1   force =     0.00000000    0.00000000   -0.00000000
     atom    4 type  1   force =    -0.00000000   -0.00000000   -0.00000000
     atom    5 type  1   force =     0.00000000    0.00000000   -0.00000000
     atom    6 type  1   force =    -0.00000000   -0.00000000   -0.00000000
     atom    7 type  1   force =     0.00000000    0.00000000   -0.00000000
     atom    8 type  1   force =    -0.00000000    0.00000000   -0.00000000
     atom    9 type  1   force =    -0.00000000   -0.00000000   -0.00000000
     atom   10 type  1   force =    -0.00000000   -0.00000000    0.00000000
     atom   11 type  1   force =    -0.00000000    0.00000000    0.00000000
     atom   12 type  1   force =     0.00000000   -0.00000000   -0.00000000
     atom   13 type  1   force =     0.00000000   -0.00000000    0.00000000
     atom   14 type  1   force =    -0.00000000   -0.00000000   -0.00000000
     atom   15 type  1   force =     0.00000000   -0.00000000   -0.00000000
     atom   16 type  1   force =    -0.00000000    0.00000000   -0.00000000
     atom   17 type  1   force =    -0.00000000    0.00000000   -0.00000000
     atom   18 type  1   force =     0.00000000    0.00000000   -0.00000000
     atom   19 type  1   force =     0.00002625   -0.00004744   -0.00005370
     atom   20 type  1   force =    -0.00000709   -0.00000994   -0.00004536
     atom   21 type  1   force =    -0.00001879   -0.00002409   -0.00005473
     atom   22 type  1   force =     0.00004094   -0.00002338   -0.00003893
     atom   23 type  1   force =    -0.00002574   -0.00000262   -0.00005771
     atom   24 type  1   force =    -0.00001498   -0.00000478   -0.00004433
     atom   25 type  1   force =     0.00002701    0.00001642   -0.00006349
     atom   26 type  1   force =    -0.00002335    0.00004538   -0.00005648
     atom   27 type  1   force =    -0.00000359    0.00005058   -0.00003948
     atom   28 type  1   force =     0.00000844    0.00000495    0.00000523
     atom   29 type  1   force =    -0.00000776    0.00002135    0.00000463
     atom   30 type  1   force =    -0.00000029    0.00000908    0.00001337
     atom   31 type  1   force =     0.00001471   -0.00001884    0.00000798
     atom   32 type  1   force =    -0.00001858   -0.00001439    0.00000819
     atom   33 type  1   force =     0.00000275   -0.00002206    0.00003057
     atom   34 type  1   force =     0.00000586   -0.00000243    0.00001519
     atom   35 type  1   force =    -0.00001421    0.00001544    0.00002849
     atom   36 type  1   force =     0.00000822    0.00000649    0.00004184
     atom   37 type  2   force =     0.00000029   -0.00000026    0.00000012

     Total force =     0.001492     Total SCF correction =     0.000209
     SCF correction compared to forces is large: reduce conv_thr to get better values

     Writing all to output data dir ./pwscf.save/

     init_run     :     10.11s CPU     10.41s WALL (       1 calls)
     electrons    :    352.42s CPU    360.89s WALL (       1 calls)
     forces       :      3.41s CPU      3.95s WALL (       1 calls)

     Called by init_run:
     wfcinit      :      5.66s CPU      5.83s WALL (       1 calls)
     potinit      :      3.07s CPU      3.14s WALL (       1 calls)
     hinit0       :      0.82s CPU      0.84s WALL (       1 calls)

     Called by electrons:
     c_bands      :    300.53s CPU    305.06s WALL (      22 calls)
     sum_band     :     32.25s CPU     33.15s WALL (      22 calls)
     v_of_rho     :      9.16s CPU     10.95s WALL (      22 calls)
     newd         :      2.60s CPU      3.38s WALL (      22 calls)
     PAW_pot      :      4.62s CPU      4.74s WALL (      22 calls)
     mix_rho      :      5.40s CPU      5.55s WALL (      22 calls)
     vdW_kernel   :      1.70s CPU      1.71s WALL (       1 calls)

     Called by c_bands:
     init_us_2    :      3.11s CPU      3.16s WALL (     598 calls)
     init_us_2:cp :      3.11s CPU      3.16s WALL (     598 calls)
     cegterg      :    292.80s CPU    297.10s WALL (     286 calls)

     Called by *egterg:
     cdiaghg      :     78.72s CPU     79.38s WALL (    1462 calls)
     h_psi        :    135.88s CPU    137.94s WALL (    1488 calls)
     s_psi        :     16.46s CPU     16.60s WALL (    1488 calls)
     g_psi        :      0.54s CPU      0.55s WALL (    1189 calls)

     Called by h_psi:
     h_psi:calbec :     21.53s CPU     22.07s WALL (    1488 calls)
     vloc_psi     :     95.81s CPU     97.13s WALL (    1488 calls)
     add_vuspsi   :     17.27s CPU     17.47s WALL (    1488 calls)

     General routines
     calbec       :     29.68s CPU     30.35s WALL (    1826 calls)
     fft          :      5.12s CPU      6.89s WALL (    1446 calls)
     ffts         :      2.92s CPU      3.03s WALL (    5584 calls)
     fftw         :     92.47s CPU     93.74s WALL (  379102 calls)
     interpolate  :      0.59s CPU      0.65s WALL (      22 calls)

     Parallel routines

     PWSCF        :   6m 7.60s CPU   6m19.45s WALL


   This run was terminated on:  20:45:53  23Feb2025            

=------------------------------------------------------------------------------=
   JOB DONE.
=------------------------------------------------------------------------------=
