  37  37   0   0
  0.4190497E+02  0.8468310E-09  0.8468310E-09  0.2496566E-08  0.5000000E-15
  1.000000000000000E-004
  CAR 
 unknown system                          
      8.63526674     -9.90093164  301     -0.07396965      1.00000000
     -9.901  0.0000E+00  0.0000E+00
     -9.839  0.0000E+00  0.0000E+00
     -9.777  0.0000E+00  0.0000E+00
     -9.716 -0.4490E-28 -0.2774E-29
     -9.654 -0.6670E-24 -0.4122E-25
     -9.592 -0.4587E-20 -0.2834E-21
     -9.530 -0.1458E-16 -0.9011E-18
     -9.468 -0.2074E-13 -0.1282E-14
     -9.407 -0.1388E-10 -0.8590E-12
     -9.345 -0.4248E-08 -0.2633E-09
     -9.283 -0.5892E-06 -0.3667E-07
     -9.221 -0.3648E-04 -0.2291E-05
     -9.159 -0.9780E-03 -0.6272E-04
     -9.098 -0.1051E-01 -0.7120E-03
     -9.036 -0.3361E-01 -0.2789E-02
     -8.974  0.5355E-01  0.5202E-03
     -8.912  0.3329E+00  0.2109E-01
     -8.851  0.6152E+00  0.5910E-01
     -8.789  0.2080E+01  0.1876E+00
     -8.727  0.3815E+01  0.4233E+00
     -8.665  0.2210E+01  0.5599E+00
     -8.603 -0.3947E-01  0.5574E+00
     -8.542  0.2244E+00  0.5713E+00
     -8.480  0.2620E+01  0.7331E+00
     -8.418  0.3816E+01  0.9689E+00
     -8.356  0.3583E+01  0.1190E+01
     -8.294  0.3729E+01  0.1421E+01
     -8.233  0.1786E+01  0.1531E+01
     -8.171 -0.4041E-01  0.1529E+01
     -8.109 -0.3796E+00  0.1505E+01
     -8.047 -0.4433E-01  0.1502E+01
     -7.986  0.2601E+01  0.1663E+01
     -7.924  0.6368E+01  0.2057E+01
     -7.862  0.5517E+01  0.2397E+01
     -7.800  0.2018E+01  0.2522E+01
     -7.738  0.3322E+01  0.2727E+01
     -7.677  0.7195E+01  0.3172E+01
     -7.615  0.5107E+01  0.3487E+01
     -7.553  0.1895E+01  0.3605E+01
     -7.491  0.2958E+01  0.3787E+01
     -7.429  0.4449E+01  0.4062E+01
     -7.368  0.6793E+01  0.4482E+01
     -7.306  0.6116E+01  0.4860E+01
     -7.244  0.5620E+01  0.5207E+01
     -7.182  0.1013E+02  0.5833E+01
     -7.121  0.8890E+01  0.6383E+01
     -7.059  0.4882E+01  0.6684E+01
     -6.997  0.3379E+01  0.6893E+01
     -6.935  0.2928E+01  0.7074E+01
     -6.873  0.6037E+01  0.7447E+01
     -6.812  0.8920E+01  0.7998E+01
     -6.750  0.6145E+01  0.8378E+01
     -6.688  0.3431E+01  0.8590E+01
     -6.626  0.7006E+01  0.9023E+01
     -6.564  0.1391E+02  0.9882E+01
     -6.503  0.1464E+02  0.1079E+02
     -6.441  0.1182E+02  0.1152E+02
     -6.379  0.1110E+02  0.1220E+02
     -6.317  0.8312E+01  0.1272E+02
     -6.255  0.9246E+01  0.1329E+02
     -6.194  0.1829E+02  0.1442E+02
     -6.132  0.3145E+02  0.1636E+02
     -6.070  0.3737E+02  0.1867E+02
     -6.008  0.3153E+02  0.2062E+02
     -5.947  0.2951E+02  0.2244E+02
     -5.885  0.3264E+02  0.2446E+02
     -5.823  0.3576E+02  0.2667E+02
     -5.761  0.3070E+02  0.2857E+02
     -5.699  0.2661E+02  0.3021E+02
     -5.638  0.3304E+02  0.3225E+02
     -5.576  0.3975E+02  0.3471E+02
     -5.514  0.4258E+02  0.3734E+02
     -5.452  0.5120E+02  0.4050E+02
     -5.390  0.6362E+02  0.4443E+02
     -5.329  0.6379E+02  0.4837E+02
     -5.267  0.5364E+02  0.5169E+02
     -5.205  0.4598E+02  0.5453E+02
     -5.143  0.4364E+02  0.5723E+02
     -5.082  0.5081E+02  0.6036E+02
     -5.020  0.6981E+02  0.6468E+02
     -4.958  0.6200E+02  0.6851E+02
     -4.896  0.3125E+02  0.7044E+02
     -4.834  0.2350E+02  0.7189E+02
     -4.773  0.3989E+02  0.7436E+02
     -4.711  0.3926E+02  0.7678E+02
     -4.649  0.2280E+02  0.7819E+02
     -4.587  0.2498E+02  0.7973E+02
     -4.525  0.4204E+02  0.8233E+02
     -4.464  0.5720E+02  0.8587E+02
     -4.402  0.6192E+02  0.8969E+02
     -4.340  0.5356E+02  0.9300E+02
     -4.278  0.4395E+02  0.9572E+02
     -4.216  0.3838E+02  0.9809E+02
     -4.155  0.4622E+02  0.1009E+03
     -4.093  0.6252E+02  0.1048E+03
     -4.031  0.5966E+02  0.1085E+03
     -3.969  0.4923E+02  0.1115E+03
     -3.908  0.4547E+02  0.1143E+03
     -3.846  0.4205E+02  0.1169E+03
     -3.784  0.3633E+02  0.1192E+03
     -3.722  0.4332E+02  0.1219E+03
     -3.660  0.6086E+02  0.1256E+03
     -3.599  0.6144E+02  0.1294E+03
     -3.537  0.5398E+02  0.1328E+03
     -3.475  0.5608E+02  0.1362E+03
     -3.413  0.6934E+02  0.1405E+03
     -3.351  0.7672E+02  0.1452E+03
     -3.290  0.7090E+02  0.1496E+03
     -3.228  0.6485E+02  0.1536E+03
     -3.166  0.7239E+02  0.1581E+03
     -3.104  0.8812E+02  0.1636E+03
     -3.043  0.8525E+02  0.1688E+03
     -2.981  0.7841E+02  0.1737E+03
     -2.919  0.7915E+02  0.1786E+03
     -2.857  0.7492E+02  0.1832E+03
     -2.795  0.8679E+02  0.1885E+03
     -2.734  0.1046E+03  0.1950E+03
     -2.672  0.1027E+03  0.2014E+03
     -2.610  0.8093E+02  0.2064E+03
     -2.548  0.6149E+02  0.2102E+03
     -2.486  0.6389E+02  0.2141E+03
     -2.425  0.6040E+02  0.2178E+03
     -2.363  0.4197E+02  0.2204E+03
     -2.301  0.2788E+02  0.2221E+03
     -2.239  0.2403E+02  0.2236E+03
     -2.178  0.3092E+02  0.2255E+03
     -2.116  0.4567E+02  0.2284E+03
     -2.054  0.6673E+02  0.2325E+03
     -1.992  0.8836E+02  0.2379E+03
     -1.930  0.9238E+02  0.2437E+03
     -1.869  0.8023E+02  0.2486E+03
     -1.807  0.5888E+02  0.2523E+03
     -1.745  0.4254E+02  0.2549E+03
     -1.683  0.4163E+02  0.2575E+03
     -1.621  0.4933E+02  0.2605E+03
     -1.560  0.5907E+02  0.2641E+03
     -1.498  0.5687E+02  0.2677E+03
     -1.436  0.5172E+02  0.2709E+03
     -1.374  0.5912E+02  0.2745E+03
     -1.312  0.6049E+02  0.2782E+03
     -1.251  0.5034E+02  0.2814E+03
     -1.189  0.5617E+02  0.2848E+03
     -1.127  0.7637E+02  0.2895E+03
     -1.065  0.8605E+02  0.2949E+03
     -1.004  0.8472E+02  0.3001E+03
     -0.942  0.6925E+02  0.3044E+03
     -0.880  0.5696E+02  0.3079E+03
     -0.818  0.5679E+02  0.3114E+03
     -0.756  0.5044E+02  0.3145E+03
     -0.695  0.4257E+02  0.3172E+03
     -0.633  0.5246E+02  0.3204E+03
     -0.571  0.6327E+02  0.3243E+03
     -0.509  0.5951E+02  0.3280E+03
     -0.447  0.5952E+02  0.3317E+03
     -0.386  0.7118E+02  0.3361E+03
     -0.324  0.9111E+02  0.3417E+03
     -0.262  0.9416E+02  0.3475E+03
     -0.200  0.6767E+02  0.3517E+03
     -0.139  0.5705E+02  0.3552E+03
     -0.077  0.8910E+02  0.3607E+03
     -0.015  0.9400E+02  0.3665E+03
      0.047  0.5072E+02  0.3697E+03
      0.109  0.3333E+02  0.3717E+03
      0.170  0.5381E+02  0.3750E+03
      0.232  0.5470E+02  0.3784E+03
      0.294  0.4249E+02  0.3810E+03
      0.356  0.3788E+02  0.3834E+03
      0.418  0.2568E+02  0.3850E+03
      0.479  0.1135E+02  0.3857E+03
      0.541  0.2676E+01  0.3858E+03
      0.603  0.1270E+01  0.3859E+03
      0.665  0.5492E+01  0.3863E+03
      0.726  0.1290E+02  0.3871E+03
      0.788  0.1700E+02  0.3881E+03
      0.850  0.1148E+02  0.3888E+03
      0.912  0.7557E+01  0.3893E+03
      0.974  0.1097E+02  0.3900E+03
      1.035  0.9089E+01  0.3905E+03
      1.097  0.1729E+01  0.3906E+03
      1.159  0.2416E+01  0.3908E+03
      1.221  0.1148E+02  0.3915E+03
      1.283  0.1534E+02  0.3924E+03
      1.344  0.1300E+02  0.3932E+03
      1.406  0.1052E+02  0.3939E+03
      1.468  0.1579E+02  0.3949E+03
      1.530  0.2717E+02  0.3965E+03
      1.592  0.2522E+02  0.3981E+03
      1.653  0.1744E+02  0.3992E+03
      1.715  0.1504E+02  0.4001E+03
      1.777  0.9125E+01  0.4007E+03
      1.839  0.1889E+01  0.4008E+03
      1.900  0.2000E+01  0.4009E+03
      1.962  0.4382E+01  0.4012E+03
      2.024  0.6184E+01  0.4016E+03
      2.086  0.6285E+01  0.4020E+03
      2.148  0.5467E+01  0.4023E+03
      2.209  0.9496E+01  0.4029E+03
      2.271  0.1134E+02  0.4036E+03
      2.333  0.1075E+02  0.4042E+03
      2.395  0.1534E+02  0.4052E+03
      2.457  0.2169E+02  0.4065E+03
      2.518  0.2010E+02  0.4078E+03
      2.580  0.1080E+02  0.4084E+03
      2.642  0.6189E+01  0.4088E+03
      2.704  0.6389E+01  0.4092E+03
      2.765  0.1138E+02  0.4099E+03
      2.827  0.1954E+02  0.4111E+03
      2.889  0.1897E+02  0.4123E+03
      2.951  0.1211E+02  0.4130E+03
      3.013  0.7796E+01  0.4135E+03
      3.074  0.1196E+02  0.4143E+03
      3.136  0.1401E+02  0.4151E+03
      3.198  0.1063E+02  0.4158E+03
      3.260  0.9780E+01  0.4164E+03
      3.322  0.7787E+01  0.4169E+03
      3.383  0.2540E+01  0.4170E+03
      3.445 -0.2442E+00  0.4170E+03
      3.507  0.3703E+01  0.4172E+03
      3.569  0.1312E+02  0.4181E+03
      3.630  0.2252E+02  0.4194E+03
      3.692  0.2615E+02  0.4211E+03
      3.754  0.2012E+02  0.4223E+03
      3.816  0.1004E+02  0.4229E+03
      3.878  0.4386E+01  0.4232E+03
      3.939  0.3248E+01  0.4234E+03
      4.001  0.3398E+01  0.4236E+03
      4.063  0.3770E+01  0.4238E+03
      4.125  0.7116E+01  0.4243E+03
      4.187  0.9585E+01  0.4249E+03
      4.248  0.7693E+01  0.4253E+03
      4.310  0.5802E+01  0.4257E+03
      4.372  0.1365E+02  0.4266E+03
      4.434  0.2515E+02  0.4281E+03
      4.496  0.1926E+02  0.4293E+03
      4.557  0.6863E+01  0.4297E+03
      4.619  0.7887E+01  0.4302E+03
      4.681  0.1374E+02  0.4311E+03
      4.743  0.1557E+02  0.4320E+03
      4.804  0.1187E+02  0.4328E+03
      4.866  0.6872E+01  0.4332E+03
      4.928  0.5562E+01  0.4335E+03
      4.990  0.9133E+01  0.4341E+03
      5.052  0.9395E+01  0.4347E+03
      5.113  0.4950E+01  0.4350E+03
      5.175  0.6533E+01  0.4354E+03
      5.237  0.1263E+02  0.4362E+03
      5.299  0.1509E+02  0.4371E+03
      5.361  0.1197E+02  0.4378E+03
      5.422  0.1022E+02  0.4385E+03
      5.484  0.1569E+02  0.4394E+03
      5.546  0.2270E+02  0.4408E+03
      5.608  0.2665E+02  0.4425E+03
      5.669  0.2467E+02  0.4440E+03
      5.731  0.2164E+02  0.4453E+03
      5.793  0.2021E+02  0.4466E+03
      5.855  0.1713E+02  0.4476E+03
      5.917  0.1548E+02  0.4486E+03
      5.978  0.2465E+02  0.4501E+03
      6.040  0.3560E+02  0.4523E+03
      6.102  0.2660E+02  0.4540E+03
      6.164  0.1245E+02  0.4547E+03
      6.226  0.1364E+02  0.4556E+03
      6.287  0.2254E+02  0.4570E+03
      6.349  0.3046E+02  0.4589E+03
      6.411  0.2614E+02  0.4605E+03
      6.473  0.1751E+02  0.4616E+03
      6.534  0.1809E+02  0.4627E+03
      6.596  0.2208E+02  0.4640E+03
      6.658  0.2322E+02  0.4655E+03
      6.720  0.2512E+02  0.4670E+03
      6.782  0.2638E+02  0.4686E+03
      6.843  0.2264E+02  0.4700E+03
      6.905  0.1695E+02  0.4711E+03
      6.967  0.1048E+02  0.4717E+03
      7.029  0.9907E+01  0.4724E+03
      7.091  0.2040E+02  0.4736E+03
      7.152  0.2650E+02  0.4753E+03
      7.214  0.2223E+02  0.4766E+03
      7.276  0.1651E+02  0.4776E+03
      7.338  0.9639E+01  0.4782E+03
      7.400  0.4427E+01  0.4785E+03
      7.461  0.3538E+01  0.4787E+03
      7.523  0.4504E+01  0.4790E+03
      7.585  0.6139E+01  0.4794E+03
      7.647  0.6848E+01  0.4798E+03
      7.708  0.3240E+01  0.4800E+03
      7.770  0.8883E-01  0.4800E+03
      7.832 -0.2693E+00  0.4800E+03
      7.894 -0.5749E-01  0.4800E+03
      7.956 -0.4337E-02  0.4800E+03
      8.017 -0.1390E-03  0.4800E+03
      8.079 -0.1994E-05  0.4800E+03
      8.141 -0.1308E-07  0.4800E+03
      8.203 -0.3957E-10  0.4800E+03
      8.265 -0.5635E-13  0.4800E+03
      8.326  0.0000E+00  0.4800E+03
      8.388  0.0000E+00  0.4800E+03
      8.450  0.0000E+00  0.4800E+03
      8.512  0.0000E+00  0.4800E+03
      8.573  0.0000E+00  0.4800E+03
      8.635  0.0000E+00  0.4800E+03
