   37   37    1    1
  0.4190497E+02  0.8468310E-09  0.8468310E-09  0.2496566E-08  0.5000000E-15
  1.000000000000000E-004
  CAR 
 unknown system                          
    361     13    240
 
  0.1276756E-14  0.1276756E-14  0.1276756E-14  0.4000000E-01
      1         -8.900932   1.000000
      2         -7.804311   1.000000
      3         -7.079839   1.000000
      4         -6.501434   1.000000
      5         -6.465063   1.000000
      6         -6.459684   1.000000
      7         -6.452101   1.000000
      8         -6.435887   1.000000
      9         -6.433063   1.000000
     10         -6.427868   1.000000
     11         -6.121007   1.000000
     12         -5.915568   1.000000
     13         -5.911455   1.000000
     14         -5.907791   1.000000
     15         -5.906071   1.000000
     16         -5.899384   1.000000
     17         -5.817940   1.000000
     18         -5.471234   1.000000
     19         -5.466713   1.000000
     20         -5.449895   1.000000
     21         -5.447812   1.000000
     22         -5.439259   1.000000
     23         -5.351811   1.000000
     24         -5.228914   1.000000
     25         -5.224104   1.000000
     26         -5.221369   1.000000
     27         -5.220687   1.000000
     28         -5.217764   1.000000
     29         -5.121553   1.000000
     30         -5.036541   1.000000
     31         -5.031720   1.000000
     32         -5.022421   1.000000
     33         -5.019294   1.000000
     34         -5.009226   1.000000
     35         -4.968747   1.000000
     36         -4.955314   1.000000
     37         -4.952065   1.000000
     38         -4.947864   1.000000
     39         -4.914250   1.000000
     40         -4.911710   1.000000
     41         -4.585685   1.000000
     42         -4.380840   1.000000
     43         -4.376933   1.000000
     44         -4.348024   1.000000
     45         -4.337867   1.000000
     46         -4.322944   1.000000
     47         -4.315337   1.000000
     48         -4.292273   1.000000
     49         -4.290438   1.000000
     50         -4.285566   1.000000
     51         -4.133224   1.000000
     52         -4.132841   1.000000
     53         -4.055092   1.000000
     54         -4.034743   1.000000
     55         -4.028452   1.000000
     56         -3.584525   1.000000
     57         -3.580004   1.000000
     58         -3.569169   1.000000
     59         -3.558502   1.000000
     60         -3.555133   1.000000
     61         -3.499615   1.000000
     62         -3.470411   1.000000
     63         -3.387644   1.000000
     64         -3.373072   1.000000
     65         -3.370162   1.000000
     66         -3.369074   1.000000
     67         -3.364504   1.000000
     68         -3.354935   1.000000
     69         -3.350649   1.000000
     70         -3.314758   1.000000
     71         -3.309298   1.000000
     72         -3.303461   1.000000
     73         -3.301059   1.000000
     74         -3.300974   1.000000
     75         -3.260863   1.000000
     76         -3.257782   1.000000
     77         -3.255671   1.000000
     78         -3.153018   1.000000
     79         -3.150844   1.000000
     80         -3.145981   1.000000
     81         -3.143454   1.000000
     82         -3.136416   1.000000
     83         -3.130727   1.000000
     84         -2.938851   1.000000
     85         -2.935928   1.000000
     86         -2.930280   1.000000
     87         -2.916496   1.000000
     88         -2.912876   1.000000
     89         -2.902572   1.000000
     90         -2.898777   1.000000
     91         -2.892824   1.000000
     92         -2.836979   1.000000
     93         -2.830030   1.000000
     94         -2.764002   1.000000
     95         -2.756478   1.000000
     96         -2.750358   1.000000
     97         -2.726854   1.000000
     98         -2.719874   1.000000
     99         -2.694032   1.000000
    100         -2.688823   1.000000
    101         -2.632401   1.000000
    102         -2.522333   1.000000
    103         -2.518565   1.000000
    104         -2.514150   1.000000
    105         -2.504330   1.000000
    106         -2.499931   1.000000
    107         -2.495466   1.000000
    108         -2.265585   1.000000
    109         -2.022949   1.000000
    110         -2.001899   1.000000
    111         -1.997483   1.000000
    112         -1.987547   1.000000
    113         -1.985377   1.000000
    114         -1.981631   1.000000
    115         -1.975471   1.000000
    116         -1.973223   1.000000
    117         -1.956175   1.000000
    118         -1.953792   1.000000
    119         -1.949508   1.000000
    120         -1.868027   1.000000
    121         -1.864143   1.000000
    122         -1.806066   1.000000
    123         -1.735200   1.000000
    124         -1.730250   1.000000
    125         -1.723787   1.000000
    126         -1.719137   1.000000
    127         -1.711319   1.000000
    128         -1.596756   1.000000
    129         -1.589823   1.000000
    130         -1.538081   1.000000
    131         -1.536946   1.000000
    132         -1.511738   1.000000
    133         -1.499028   1.000000
    134         -1.292954   1.000000
    135         -1.275427   1.000000
    136         -1.272253   1.000000
    137         -1.255878   1.000000
    138         -1.248816   1.000000
    139         -1.245900   1.000000
    140         -1.183092   1.000000
    141         -1.174860   1.000000
    142         -1.053217   1.000000
    143         -1.037939   1.000000
    144         -1.030366   1.000000
    145         -1.025217   1.000000
    146         -1.022693   1.000000
    147         -1.021741   1.000000
    148         -0.906568   1.000000
    149         -0.878871   1.000000
    150         -0.862513   1.000000
    151         -0.844674   1.000000
    152         -0.830464   1.000000
    153         -0.824922   1.000000
    154         -0.822082   1.000000
    155         -0.813386   1.000000
    156         -0.806545   1.000000
    157         -0.804450   1.000000
    158         -0.800491   1.000000
    159         -0.796904   1.000000
    160         -0.728631   1.000000
    161         -0.721706   1.000000
    162         -0.697511   1.000000
    163         -0.675030   1.000000
    164         -0.665881   1.000000
    165         -0.652734   1.000000
    166         -0.647823   1.000000
    167         -0.643247   1.000000
    168         -0.603157   1.000000
    169         -0.593610   1.000000
    170         -0.582237   1.000000
    171         -0.556322   1.000000
    172         -0.548709   1.000000
    173         -0.546241   1.000000
    174         -0.536928   1.000000
    175         -0.534950   1.000000
    176         -0.457288   1.000000
    177         -0.445745   1.000001
    178         -0.442356   1.000001
    179         -0.438173   1.000002
    180         -0.433372   1.000002
    181         -0.429069   1.000003
    182         -0.386758   1.000045
    183         -0.344017   1.000451
    184         -0.336945   1.000636
    185         -0.321233   1.001307
    186         -0.320651   1.001341
    187         -0.312710   1.001887
    188         -0.305147   1.002575
    189         -0.112862   0.803159
    190         -0.107518   0.766975
    191         -0.018222   0.099983
    192         -0.013410   0.077491
    193         -0.010085   0.063315
    194          0.007074   0.007330
    195          0.007302   0.006770
    196          0.011460  -0.002664
    197          0.535367  -0.000000
    198          0.822109  -0.000000
    199          0.849504  -0.000000
    200          0.861998  -0.000000
    201          0.896980  -0.000000
    202          0.899215  -0.000000
    203          0.904190  -0.000000
    204          2.868184   0.000000
    205          3.134734   0.000000
    206          3.145656   0.000000
    207          3.207501   0.000000
    208          3.211326   0.000000
    209          3.216988   0.000000
    210          4.654963   0.000000
    211          4.726427   0.000000
    212          4.775051   0.000000
    213          4.816213   0.000000
    214          4.820998   0.000000
    215          4.823408   0.000000
    216          4.935701   0.000000
    217          5.096886   0.000000
    218          5.218600   0.000000
    219          5.450643   0.000000
    220          5.467316   0.000000
    221          5.793934   0.000000
    222          5.800202   0.000000
    223          5.849494   0.000000
    224          5.863110   0.000000
    225          5.869697   0.000000
    226          6.067605   0.000000
    227          6.378049   0.000000
    228          6.598851   0.000000
    229          6.609261   0.000000
    230          6.625118   0.000000
    231          6.828725   0.000000
    232          7.039963   0.000000
    233          7.144976   0.000000
    234          7.150853   0.000000
    235          7.165102   0.000000
    236          7.176111   0.000000
    237          7.177076   0.000000
    238          7.225576   0.000000
    239          7.277687   0.000000
    240          7.415592   0.000000
 
  0.2000000E+00  0.1278043E-14  0.1276756E-14  0.8000000E-01
      1         -8.753293   1.000000
      2         -7.685186   1.000000
      3         -7.056549   1.000000
      4         -6.895387   1.000000
      5         -6.561030   1.000000
      6         -6.547569   1.000000
      7         -6.358845   1.000000
      8         -6.265871   1.000000
      9         -6.218928   1.000000
     10         -6.211873   1.000000
     11         -6.114689   1.000000
     12         -6.000405   1.000000
     13         -5.937684   1.000000
     14         -5.843423   1.000000
     15         -5.837983   1.000000
     16         -5.827660   1.000000
     17         -5.754465   1.000000
     18         -5.533266   1.000000
     19         -5.418558   1.000000
     20         -5.414019   1.000000
     21         -5.410157   1.000000
     22         -5.370779   1.000000
     23         -5.335855   1.000000
     24         -5.303783   1.000000
     25         -5.275725   1.000000
     26         -5.242975   1.000000
     27         -5.218004   1.000000
     28         -5.211026   1.000000
     29         -5.139015   1.000000
     30         -5.114246   1.000000
     31         -5.107336   1.000000
     32         -5.034192   1.000000
     33         -5.017392   1.000000
     34         -5.009700   1.000000
     35         -5.007018   1.000000
     36         -4.857710   1.000000
     37         -4.813109   1.000000
     38         -4.778449   1.000000
     39         -4.771808   1.000000
     40         -4.752364   1.000000
     41         -4.579971   1.000000
     42         -4.496607   1.000000
     43         -4.492231   1.000000
     44         -4.444480   1.000000
     45         -4.414282   1.000000
     46         -4.405294   1.000000
     47         -4.388644   1.000000
     48         -4.295054   1.000000
     49         -4.212955   1.000000
     50         -4.144233   1.000000
     51         -4.124916   1.000000
     52         -4.113881   1.000000
     53         -4.066597   1.000000
     54         -4.047910   1.000000
     55         -3.983832   1.000000
     56         -3.829170   1.000000
     57         -3.734812   1.000000
     58         -3.726967   1.000000
     59         -3.680882   1.000000
     60         -3.667951   1.000000
     61         -3.638385   1.000000
     62         -3.582319   1.000000
     63         -3.565010   1.000000
     64         -3.555779   1.000000
     65         -3.526770   1.000000
     66         -3.524710   1.000000
     67         -3.455739   1.000000
     68         -3.438358   1.000000
     69         -3.399646   1.000000
     70         -3.372625   1.000000
     71         -3.363678   1.000000
     72         -3.318703   1.000000
     73         -3.268453   1.000000
     74         -3.261856   1.000000
     75         -3.258245   1.000000
     76         -3.179822   1.000000
     77         -3.175008   1.000000
     78         -3.157185   1.000000
     79         -3.129408   1.000000
     80         -3.090423   1.000000
     81         -3.076153   1.000000
     82         -3.066838   1.000000
     83         -3.029296   1.000000
     84         -3.012021   1.000000
     85         -2.965149   1.000000
     86         -2.949938   1.000000
     87         -2.936750   1.000000
     88         -2.934816   1.000000
     89         -2.914692   1.000000
     90         -2.909600   1.000000
     91         -2.859645   1.000000
     92         -2.830179   1.000000
     93         -2.799335   1.000000
     94         -2.786649   1.000000
     95         -2.774387   1.000000
     96         -2.766641   1.000000
     97         -2.757810   1.000000
     98         -2.730734   1.000000
     99         -2.696768   1.000000
    100         -2.685263   1.000000
    101         -2.613897   1.000000
    102         -2.560402   1.000000
    103         -2.549357   1.000000
    104         -2.524698   1.000000
    105         -2.512211   1.000000
    106         -2.501343   1.000000
    107         -2.496753   1.000000
    108         -2.490035   1.000000
    109         -2.449951   1.000000
    110         -2.436680   1.000000
    111         -2.427279   1.000000
    112         -2.416771   1.000000
    113         -2.185609   1.000000
    114         -2.076492   1.000000
    115         -2.032191   1.000000
    116         -2.004917   1.000000
    117         -1.993798   1.000000
    118         -1.987366   1.000000
    119         -1.983983   1.000000
    120         -1.944521   1.000000
    121         -1.936722   1.000000
    122         -1.896764   1.000000
    123         -1.808283   1.000000
    124         -1.780011   1.000000
    125         -1.706385   1.000000
    126         -1.655905   1.000000
    127         -1.650411   1.000000
    128         -1.598976   1.000000
    129         -1.590274   1.000000
    130         -1.577170   1.000000
    131         -1.540974   1.000000
    132         -1.532492   1.000000
    133         -1.528137   1.000000
    134         -1.444768   1.000000
    135         -1.398111   1.000000
    136         -1.394868   1.000000
    137         -1.383162   1.000000
    138         -1.377320   1.000000
    139         -1.229859   1.000000
    140         -1.198009   1.000000
    141         -1.169861   1.000000
    142         -1.159103   1.000000
    143         -1.151261   1.000000
    144         -1.145009   1.000000
    145         -1.125007   1.000000
    146         -1.057339   1.000000
    147         -1.035813   1.000000
    148         -1.008959   1.000000
    149         -0.989574   1.000000
    150         -0.980465   1.000000
    151         -0.934411   1.000000
    152         -0.919059   1.000000
    153         -0.908559   1.000000
    154         -0.899488   1.000000
    155         -0.818684   1.000000
    156         -0.796735   1.000000
    157         -0.767067   1.000000
    158         -0.762048   1.000000
    159         -0.721188   1.000000
    160         -0.669719   1.000000
    161         -0.655209   1.000000
    162         -0.614262   1.000000
    163         -0.605120   1.000000
    164         -0.595348   1.000000
    165         -0.562069   1.000000
    166         -0.542242   1.000000
    167         -0.482077   1.000000
    168         -0.473894   1.000000
    169         -0.410054   1.000011
    170         -0.406828   1.000013
    171         -0.388937   1.000039
    172         -0.379529   1.000068
    173         -0.359054   1.000210
    174         -0.350378   1.000329
    175         -0.346269   1.000404
    176         -0.335578   1.000679
    177         -0.328604   1.000939
    178         -0.271822   1.008564
    179         -0.268231   1.009581
    180         -0.125582   0.878822
    181         -0.122675   0.862904
    182         -0.104040   0.742167
    183         -0.084403   0.587767
    184         -0.069709   0.463978
    185         -0.067701   0.447066
    186         -0.037377   0.212114
    187         -0.018131   0.099532
    188         -0.005337   0.044989
    189          0.004174   0.014855
    190          0.084738  -0.023664
    191          0.103601  -0.015383
    192          0.129155  -0.007217
    193          0.184703  -0.000779
    194          0.293914  -0.000001
    195          0.302591  -0.000001
    196          0.315032  -0.000000
    197          0.357404  -0.000000
    198          0.701689  -0.000000
    199          0.743019  -0.000000
    200          1.259841  -0.000000
    201          1.458987  -0.000000
    202          1.482118  -0.000000
    203          1.601539  -0.000000
    204          2.393334  -0.000000
    205          2.836931   0.000000
    206          2.903298   0.000000
    207          3.551949   0.000000
    208          3.651199   0.000000
    209          3.674554   0.000000
    210          3.737137   0.000000
    211          3.965879   0.000000
    212          4.437358   0.000000
    213          4.606215   0.000000
    214          4.746366   0.000000
    215          4.963541   0.000000
    216          4.998154   0.000000
    217          5.029588   0.000000
    218          5.234003   0.000000
    219          5.315157   0.000000
    220          5.459881   0.000000
    221          5.631734   0.000000
    222          5.705601   0.000000
    223          5.837112   0.000000
    224          5.900229   0.000000
    225          6.065046   0.000000
    226          6.184407   0.000000
    227          6.226843   0.000000
    228          6.341456   0.000000
    229          6.350689   0.000000
    230          6.568911   0.000000
    231          6.698741   0.000000
    232          6.760080   0.000000
    233          6.803021   0.000000
    234          6.817809   0.000000
    235          6.929491   0.000000
    236          7.067496   0.000000
    237          7.245125   0.000000
    238          7.472841   0.000000
    239          7.598770   0.000000
    240          7.618111   0.000000
 
  0.2000000E+00  0.2000000E+00  0.1276756E-14  0.8000000E-01
      1         -8.753317   1.000000
      2         -7.685250   1.000000
      3         -7.055300   1.000000
      4         -6.898523   1.000000
      5         -6.560016   1.000000
      6         -6.545975   1.000000
      7         -6.359108   1.000000
      8         -6.268279   1.000000
      9         -6.216381   1.000000
     10         -6.211664   1.000000
     11         -6.114452   1.000000
     12         -5.999092   1.000000
     13         -5.939458   1.000000
     14         -5.842839   1.000000
     15         -5.838818   1.000000
     16         -5.829925   1.000000
     17         -5.753616   1.000000
     18         -5.532163   1.000000
     19         -5.418391   1.000000
     20         -5.413197   1.000000
     21         -5.409565   1.000000
     22         -5.371559   1.000000
     23         -5.335719   1.000000
     24         -5.306545   1.000000
     25         -5.275292   1.000000
     26         -5.242026   1.000000
     27         -5.218195   1.000000
     28         -5.212717   1.000000
     29         -5.138598   1.000000
     30         -5.114035   1.000000
     31         -5.106364   1.000000
     32         -5.036568   1.000000
     33         -5.017930   1.000000
     34         -5.009083   1.000000
     35         -5.007030   1.000000
     36         -4.857297   1.000000
     37         -4.813098   1.000000
     38         -4.777100   1.000000
     39         -4.772899   1.000000
     40         -4.750027   1.000000
     41         -4.581363   1.000000
     42         -4.495130   1.000000
     43         -4.489881   1.000000
     44         -4.444409   1.000000
     45         -4.414912   1.000000
     46         -4.404914   1.000000
     47         -4.388697   1.000000
     48         -4.295753   1.000000
     49         -4.211666   1.000000
     50         -4.145933   1.000000
     51         -4.124310   1.000000
     52         -4.114242   1.000000
     53         -4.066686   1.000000
     54         -4.048836   1.000000
     55         -3.983253   1.000000
     56         -3.826363   1.000000
     57         -3.734794   1.000000
     58         -3.728014   1.000000
     59         -3.678426   1.000000
     60         -3.665943   1.000000
     61         -3.636713   1.000000
     62         -3.579235   1.000000
     63         -3.568296   1.000000
     64         -3.557413   1.000000
     65         -3.527883   1.000000
     66         -3.525645   1.000000
     67         -3.454782   1.000000
     68         -3.438994   1.000000
     69         -3.394728   1.000000
     70         -3.372826   1.000000
     71         -3.362310   1.000000
     72         -3.318554   1.000000
     73         -3.273551   1.000000
     74         -3.265867   1.000000
     75         -3.262641   1.000000
     76         -3.180856   1.000000
     77         -3.172401   1.000000
     78         -3.157417   1.000000
     79         -3.129748   1.000000
     80         -3.089123   1.000000
     81         -3.069314   1.000000
     82         -3.065547   1.000000
     83         -3.033785   1.000000
     84         -3.011476   1.000000
     85         -2.965308   1.000000
     86         -2.949243   1.000000
     87         -2.938132   1.000000
     88         -2.934590   1.000000
     89         -2.914039   1.000000
     90         -2.910501   1.000000
     91         -2.859518   1.000000
     92         -2.830174   1.000000
     93         -2.797477   1.000000
     94         -2.789263   1.000000
     95         -2.772322   1.000000
     96         -2.766459   1.000000
     97         -2.759366   1.000000
     98         -2.731435   1.000000
     99         -2.697020   1.000000
    100         -2.687036   1.000000
    101         -2.614154   1.000000
    102         -2.560574   1.000000
    103         -2.548383   1.000000
    104         -2.525896   1.000000
    105         -2.514880   1.000000
    106         -2.501902   1.000000
    107         -2.495298   1.000000
    108         -2.490094   1.000000
    109         -2.446079   1.000000
    110         -2.432781   1.000000
    111         -2.429593   1.000000
    112         -2.420404   1.000000
    113         -2.182267   1.000000
    114         -2.074712   1.000000
    115         -2.033675   1.000000
    116         -2.002587   1.000000
    117         -1.996516   1.000000
    118         -1.990284   1.000000
    119         -1.983392   1.000000
    120         -1.944249   1.000000
    121         -1.937626   1.000000
    122         -1.896948   1.000000
    123         -1.808205   1.000000
    124         -1.781525   1.000000
    125         -1.707498   1.000000
    126         -1.656681   1.000000
    127         -1.652738   1.000000
    128         -1.597395   1.000000
    129         -1.586397   1.000000
    130         -1.581440   1.000000
    131         -1.542376   1.000000
    132         -1.532768   1.000000
    133         -1.529627   1.000000
    134         -1.446988   1.000000
    135         -1.397530   1.000000
    136         -1.392564   1.000000
    137         -1.380108   1.000000
    138         -1.379212   1.000000
    139         -1.229220   1.000000
    140         -1.198349   1.000000
    141         -1.171792   1.000000
    142         -1.159460   1.000000
    143         -1.151100   1.000000
    144         -1.144343   1.000000
    145         -1.125579   1.000000
    146         -1.055529   1.000000
    147         -1.035284   1.000000
    148         -1.007823   1.000000
    149         -0.990345   1.000000
    150         -0.979383   1.000000
    151         -0.933730   1.000000
    152         -0.917290   1.000000
    153         -0.907220   1.000000
    154         -0.901602   1.000000
    155         -0.818620   1.000000
    156         -0.796982   1.000000
    157         -0.766671   1.000000
    158         -0.761530   1.000000
    159         -0.720441   1.000000
    160         -0.670413   1.000000
    161         -0.654984   1.000000
    162         -0.614657   1.000000
    163         -0.605132   1.000000
    164         -0.598171   1.000000
    165         -0.565614   1.000000
    166         -0.543217   1.000000
    167         -0.481760   1.000000
    168         -0.473593   1.000000
    169         -0.409820   1.000011
    170         -0.406353   1.000014
    171         -0.391131   1.000035
    172         -0.379133   1.000070
    173         -0.356672   1.000238
    174         -0.349419   1.000345
    175         -0.347081   1.000388
    176         -0.336873   1.000638
    177         -0.327454   1.000990
    178         -0.274007   1.007985
    179         -0.270718   1.008868
    180         -0.127576   0.889257
    181         -0.124453   0.872741
    182         -0.100357   0.714919
    183         -0.083457   0.579893
    184         -0.068210   0.451343
    185         -0.067061   0.441688
    186         -0.036815   0.208338
    187         -0.016401   0.091197
    188         -0.002288   0.034394
    189          0.007080   0.007315
    190          0.084064  -0.023976
    191          0.104105  -0.015183
    192          0.128355  -0.007411
    193          0.184525  -0.000786
    194          0.293805  -0.000001
    195          0.305239  -0.000001
    196          0.314252  -0.000000
    197          0.354160  -0.000000
    198          0.705756  -0.000000
    199          0.746277  -0.000000
    200          1.258688  -0.000000
    201          1.458782  -0.000000
    202          1.481164  -0.000000
    203          1.599696  -0.000000
    204          2.390294  -0.000000
    205          2.840085   0.000000
    206          2.905553   0.000000
    207          3.552623   0.000000
    208          3.651813   0.000000
    209          3.672431   0.000000
    210          3.736803   0.000000
    211          3.966438   0.000000
    212          4.435739   0.000000
    213          4.605829   0.000000
    214          4.742234   0.000000
    215          4.965021   0.000000
    216          4.998606   0.000000
    217          5.029413   0.000000
    218          5.233799   0.000000
    219          5.316727   0.000000
    220          5.462609   0.000000
    221          5.628747   0.000000
    222          5.704789   0.000000
    223          5.838930   0.000000
    224          5.902120   0.000000
    225          6.066425   0.000000
    226          6.183979   0.000000
    227          6.226248   0.000000
    228          6.342745   0.000000
    229          6.353404   0.000000
    230          6.569347   0.000000
    231          6.698947   0.000000
    232          6.759180   0.000000
    233          6.802135   0.000000
    234          6.818735   0.000000
    235          6.929543   0.000000
    236          7.067188   0.000000
    237          7.241474   0.000000
    238          7.470721   0.000000
    239          7.595554   0.000000
    240          7.619616   0.000000
 
  0.1276756E-14  0.2000000E+00  0.1276756E-14  0.8000000E-01
      1         -8.752767   1.000000
      2         -7.680588   1.000000
      3         -7.034966   1.000000
      4         -6.922097   1.000000
      5         -6.560361   1.000000
      6         -6.543352   1.000000
      7         -6.358714   1.000000
      8         -6.263611   1.000000
      9         -6.221504   1.000000
     10         -6.212825   1.000000
     11         -6.100008   1.000000
     12         -5.998844   1.000000
     13         -5.968879   1.000000
     14         -5.843633   1.000000
     15         -5.839902   1.000000
     16         -5.825444   1.000000
     17         -5.737253   1.000000
     18         -5.534903   1.000000
     19         -5.418709   1.000000
     20         -5.416944   1.000000
     21         -5.409908   1.000000
     22         -5.381191   1.000000
     23         -5.336505   1.000000
     24         -5.303238   1.000000
     25         -5.277056   1.000000
     26         -5.231282   1.000000
     27         -5.215759   1.000000
     28         -5.212512   1.000000
     29         -5.151206   1.000000
     30         -5.114983   1.000000
     31         -5.106601   1.000000
     32         -5.035595   1.000000
     33         -5.021551   1.000000
     34         -5.009045   1.000000
     35         -5.007322   1.000000
     36         -4.863401   1.000000
     37         -4.813087   1.000000
     38         -4.778443   1.000000
     39         -4.769753   1.000000
     40         -4.752102   1.000000
     41         -4.587189   1.000000
     42         -4.496080   1.000000
     43         -4.493199   1.000000
     44         -4.440462   1.000000
     45         -4.415283   1.000000
     46         -4.399936   1.000000
     47         -4.385476   1.000000
     48         -4.289459   1.000000
     49         -4.210504   1.000000
     50         -4.150371   1.000000
     51         -4.123516   1.000000
     52         -4.116726   1.000000
     53         -4.068672   1.000000
     54         -4.045740   1.000000
     55         -3.992553   1.000000
     56         -3.831212   1.000000
     57         -3.733467   1.000000
     58         -3.728751   1.000000
     59         -3.681698   1.000000
     60         -3.671360   1.000000
     61         -3.637295   1.000000
     62         -3.584010   1.000000
     63         -3.562405   1.000000
     64         -3.557307   1.000000
     65         -3.525722   1.000000
     66         -3.524382   1.000000
     67         -3.450505   1.000000
     68         -3.437556   1.000000
     69         -3.403066   1.000000
     70         -3.370822   1.000000
     71         -3.360868   1.000000
     72         -3.315754   1.000000
     73         -3.269785   1.000000
     74         -3.259818   1.000000
     75         -3.256400   1.000000
     76         -3.179254   1.000000
     77         -3.175128   1.000000
     78         -3.159285   1.000000