       N       E                     dE             d eps       ncg     rms          rms(c)
DAV:   1    -0.104582500229E+03   -0.10458E+03   -0.37150E-01  6816   0.101E+00    0.973E-01
RMM:   2    -0.104794726230E+03   -0.21223E+00   -0.10985E-01  6688   0.523E-01    0.538E+00
RMM:   3    -0.104617257452E+03    0.17747E+00   -0.48274E-02  6759   0.391E-01    0.224E+00
RMM:   4    -0.104572292703E+03    0.44965E-01   -0.11072E-02  6645   0.177E-01    0.320E-01
RMM:   5    -0.104571966651E+03    0.32605E-03   -0.26168E-03  6808   0.836E-02    0.289E-01
RMM:   6    -0.104571457287E+03    0.50936E-03   -0.87983E-04  6975   0.510E-02    0.119E-01
RMM:   7    -0.104571606437E+03   -0.14915E-03   -0.43750E-04  6984   0.347E-02    0.163E-01
RMM:   8    -0.104571487154E+03    0.11928E-03   -0.20928E-04  6914   0.262E-02    0.849E-02
RMM:   9    -0.104571469880E+03    0.17274E-04   -0.72371E-05  6758   0.149E-02    0.481E-02
RMM:  10    -0.104571470701E+03   -0.82080E-06   -0.23447E-05  4796   0.859E-03
   1 F= -.10457147E+03 E0= -.10453905E+03  d E =-.972548E-01
