 vasp.6.4.2 20Jul23 (build Mar 01 2024 16:46:03) complex                        
  
 executed on             LinuxIFC date 2025.01.14  20:59:17
 running   48 mpi-ranks, on    1 nodes
 distrk:  each k-point on   48 cores,    1 groups
 distr:  one band on NCORE=   1 cores,   48 groups


--------------------------------------------------------------------------------------------------------


 INCAR:
   ENCUT = 680.290000
   SIGMA = 0.100000
   ZAB_VDW = -1.886700
   EDIFF = 1.00e-05
   ALGO = Fast
   GGA = BF
   IBRION = -1
   ISMEAR = 1
   ISPIN = 1
   ISYM = 0
   LUSE_VDW = .TRUE.
   LREAL = Auto

 POTCAR:    PAW_PBE Pt 04Feb2005                  
 POTCAR:    PAW_PBE H 15Jun2001                   
 -----------------------------------------------------------------------------
|                                                                             |
|           W    W    AA    RRRRR   N    N  II  N    N   GGGG   !!!           |
|           W    W   A  A   R    R  NN   N  II  NN   N  G    G  !!!           |
|           W    W  A    A  R    R  N N  N  II  N N  N  G       !!!           |
|           W WW W  AAAAAA  RRRRR   N  N N  II  N  N N  G  GGG   !            |
|           WW  WW  A    A  R   R   N   NN  II  N   NN  G    G                |
|           W    W  A    A  R    R  N    N  II  N    N   GGGG   !!!           |
|                                                                             |
|     For optimal performance we recommend to set                             |
|       NCORE = 2 up to number-of-cores-per-socket                            |
|     NCORE specifies how many cores store one orbital (NPAR=cpu/NCORE).      |
|     This setting can greatly improve the performance of VASP for DFT.       |
|     The default, NCORE=1 might be grossly inefficient on modern             |
|     multi-core architectures or massively parallel machines. Do your        |
|     own testing! More info at https://www.vasp.at/wiki/index.php/NCORE      |
|     Unfortunately you need to use the default for GW and RPA                |
|     calculations (for HF NCORE is supported but not extensively tested      |
|     yet).                                                                   |
|                                                                             |
 -----------------------------------------------------------------------------

 -----------------------------------------------------------------------------
|                                                                             |
|               ----> ADVICE to this user running VASP <----                  |
|                                                                             |
|     You have switched on vdW-DFT.                                           |
|     This routine was written and supplied by Jiri Klimes. We recommend      |
|     that you carefully read and cite the following publications:            |
|       J. Klimes, D.R. Bowler, A. Michelides                                 |
|          J. Phys.: Cond Matt. 22 022201 (2010)                              |
|       J. Klimes, D.R. Bowler, A. Michelides                                 |
|          Phys. Rev. B. 83, 195131 (2011)                                    |
|     and references therein.                                                 |
|                                                                             |
 -----------------------------------------------------------------------------

 POTCAR:    PAW_PBE Pt 04Feb2005                  
   SHA256 =  3ed90460adef76debcff1cfb73ee1349b515b1a3db03439735b44de3a8db7dc8 Pt/POTCAR             
   COPYR  = (c) Copyright 04Feb2005 Georg Kresse                                                    
   COPYR  = This file is part of the software VASP. Any use, copying, and all other rights are regul
   COPYR  = If you do not have a valid VASP license, you may not use, copy or distribute this file. 
   VRHFIN =Pt: s1d9                                                                                 
   LEXCH  = PE                                                                                      
   EATOM  =   729.1176 eV,   53.5886 Ry                                                             
                                                                                                    
   TITEL  = PAW_PBE Pt 04Feb2005                                                                    
   LULTRA =        F    use ultrasoft PP ?                                                          
   IUNSCR =        1    unscreen: 0-lin 1-nonlin 2-no                                               
   RPACOR =    2.330    partial core radius                                                         
   POMASS =  195.080; ZVAL   =   10.000    mass and valenz                                          
   RCORE  =    2.600    outmost cutoff radius                                                       
   RWIGS  =    2.750; RWIGS  =    1.455    wigner-seitz radius (au A)                               
   ENMAX  =  230.283; ENMIN  =  172.712 eV                                                          
   ICORE  =        3    local potential                                                             
   LCOR   =        T    correct aug charges                                                         
   LPAW   =        T    paw PP                                                                      
   EAUG   =  358.966                                                                                
   DEXC   =    0.000                                                                                
   RMAX   =    2.658    core radius for proj-oper                                                   
   RAUG   =    1.300    factor for augmentation sphere                                              
   RDEP   =    2.761    radius for radial grids                                                     
   RDEPT  =    2.203    core radius for aug-charge                                                  
                                                                                                    
   Atomic configuration                                                                             
   16 entries                                                                                       
     n  l   j            E        occ.                                                              
     1  0  0.50    -78401.1885   2.0000                                                             
     2  0  0.50    -13770.7750   2.0000                                                             
     2  1  1.50    -11931.0468   6.0000                                                             
     3  0  0.50     -3234.7234   2.0000                                                             
     3  1  1.50     -2699.2216   6.0000                                                             
     3  2  2.50     -2119.5714  10.0000                                                             
     4  0  0.50      -695.1528   2.0000                                                             
     4  1  1.50      -519.6034   6.0000                                                             
     4  2  2.50      -306.6786  10.0000                                                             
     4  3  3.50       -70.1041  14.0000                                                             
     5  0  0.50      -101.7747   2.0000                                                             
     5  1  1.50       -55.9873   6.0000                                                             
     5  2  2.50        -6.1423   9.0000                                                             
     6  0  0.50        -5.6573   1.0000                                                             
     6  1  1.50        -6.8029   0.0000                                                             
     5  3  2.50        -1.3606   0.0000                                                             
   Description                                                                                      
     l       E           TYP  RCUT    TYP  RCUT                                                     
     2     -6.1423404     23  2.500                                                                 
     2     -7.5029230     23  2.500                                                                 
     0     -5.6573207     23  2.500                                                                 
     0      0.7416693     23  2.500                                                                 
     1     -2.7211652     23  2.600                                                                 
     1     20.4087390     23  2.600                                                                 
     3     -1.3605826     23  2.500                                                                 
  local pseudopotential read in
  partial core-charges read in
  partial kinetic energy density read in
  atomic valenz-charges read in
  non local Contribution for L=           2  read in
    real space projection operators read in
  non local Contribution for L=           2  read in
    real space projection operators read in
  non local Contribution for L=           0  read in
    real space projection operators read in
  non local Contribution for L=           0  read in
    real space projection operators read in
  non local Contribution for L=           1  read in
    real space projection operators read in
  non local Contribution for L=           1  read in
    real space projection operators read in
    PAW grid and wavefunctions read in
 
   number of l-projection  operators is LMAX  =           6
   number of lm-projection operators is LMMAX =          18
 
 POTCAR:    PAW_PBE H 15Jun2001                   
   SHA256 =  030f79b5d3ab3cf0e668861823c8fb652ff669f3e15e46930bd03bfd63a607b6 H/POTCAR              
   COPYR  = (c) Copyright 15Jun2001 Georg Kresse                                                    
   COPYR  = This file is part of the software VASP. Any use, copying, and all other rights are regul
   COPYR  = If you do not have a valid VASP license, you may not use, copy or distribute this file. 
   VRHFIN =H: ultrasoft test                                                                        
   LEXCH  = PE                                                                                      
   EATOM  =    12.4884 eV,    0.9179 Ry                                                             
                                                                                                    
   TITEL  = PAW_PBE H 15Jun2001                                                                     
   LULTRA =        F    use ultrasoft PP ?                                                          
   IUNSCR =        0    unscreen: 0-lin 1-nonlin 2-no                                               
   RPACOR =    0.000    partial core radius                                                         
   POMASS =    1.000; ZVAL   =    1.000    mass and valenz                                          
   RCORE  =    1.100    outmost cutoff radius                                                       
   RWIGS  =    0.700; RWIGS  =    0.370    wigner-seitz radius (au A)                               
   ENMAX  =  250.000; ENMIN  =  200.000 eV                                                          
   RCLOC  =    0.701    cutoff for local pot                                                        
   LCOR   =        T    correct aug charges                                                         
   LPAW   =        T    paw PP                                                                      
   EAUG   =  400.000                                                                                
   RMAX   =    1.123    core radius for proj-oper                                                   
   RAUG   =    1.200    factor for augmentation sphere                                              
   RDEP   =    1.112    radius for radial grids                                                     
   RDEPT  =    0.926    core radius for aug-charge                                                  
                                                                                                    
   Atomic configuration                                                                             
    2 entries                                                                                       
     n  l   j            E        occ.                                                              
     1  0  0.50        -6.4927   1.0000                                                             
     2  1  0.50        -3.4015   0.0000                                                             
   Description                                                                                      
     l       E           TYP  RCUT    TYP  RCUT                                                     
     0     -6.4927494     23  1.100                                                                 
     0      6.8029130     23  1.100                                                                 
     1     -4.0817478     23  1.100                                                                 
  local pseudopotential read in
  atomic valenz-charges read in
  non local Contribution for L=           0  read in
    real space projection operators read in
  non local Contribution for L=           0  read in
    real space projection operators read in
  non local Contribution for L=           1  read in
    real space projection operators read in
    PAW grid and wavefunctions read in
 
   number of l-projection  operators is LMAX  =           3
   number of lm-projection operators is LMMAX =           5
 
 Optimization of the real space projectors (new method)

 maximal supplied QI-value         = 14.36
 optimisation between [QCUT,QGAM] = [ 13.36, 26.71] = [ 49.96,199.83] Ry 
 Optimized for a Real-space Cutoff    1.42 Angstroem

   l    n(q)    QCUT    max X(q) W(low)/X(q) W(high)/X(q)  e(spline) 
   2     11    13.357    66.195    0.16E-03    0.81E-04    0.36E-06
   2     11    13.357    64.643    0.16E-03    0.82E-04    0.36E-06
   0     11    13.357    95.520    0.60E-04    0.72E-05    0.55E-06
   0     11    13.357    63.403    0.58E-04    0.70E-05    0.53E-06
   1     11    13.357    19.961    0.21E-03    0.56E-03    0.21E-05
   1     11    13.357    13.289    0.17E-03    0.46E-03    0.17E-05
 Optimization of the real space projectors (new method)

 maximal supplied QI-value         = 34.20
 optimisation between [QCUT,QGAM] = [ 13.34, 26.68] = [ 49.83,199.32] Ry 
 Optimized for a Real-space Cutoff    0.91 Angstroem

   l    n(q)    QCUT    max X(q) W(low)/X(q) W(high)/X(q)  e(spline) 
   0      7    13.340    19.460    0.48E-03    0.16E-03    0.16E-06
   0      7    13.340    12.209    0.46E-03    0.14E-03    0.15E-06
   1      7    13.340     4.655    0.46E-03    0.87E-03    0.11E-06
 -----------------------------------------------------------------------------
|                                                                             |
|               ----> ADVICE to this user running VASP <----                  |
|                                                                             |
|     You enforced a specific xc type in the INCAR file but a different       |
|     type was found in the POTCAR file.                                      |
|     I HOPE YOU KNOW WHAT YOU ARE DOING!                                     |
|                                                                             |
 -----------------------------------------------------------------------------

  PAW_PBE Pt 04Feb2005                  :
 energy of atom  1       EATOM= -729.1176
 kinetic energy error for atom=    0.0010 (will be added to EATOM!!)
  PAW_PBE H 15Jun2001                   :
 energy of atom  2       EATOM=  -12.4884
 kinetic energy error for atom=    0.0002 (will be added to EATOM!!)
 
 
 POSCAR: Pt H
  positions in cartesian coordinates
  No initial velocities read in
 exchange correlation table for  LEXCH =       17
   RHO(1)=    0.500       N(1)  =     2000
   RHO(2)=  100.500       N(2)  =     4000
 


--------------------------------------------------------------------------------------------------------


 ion  position               nearest neighbor table
   1  0.000  0.000  0.340-   3 2.81   7 2.81   6 2.82   8 2.82  12 2.82  16 2.82   2 2.83   4 2.83
                            10 2.83
   2  0.334  0.000  0.340-   8 2.81   9 2.82  17 2.82   1 2.83   3 2.83   4 2.83   5 2.83  10 2.83
                            11 2.83
   3  0.668  0.000  0.340-   7 2.81   1 2.81   9 2.81  18 2.82   5 2.83   2 2.83   6 2.83  11 2.83
                            12 2.83
   4  0.000  0.334  0.340-   6 2.81   9 2.82  15 2.82   5 2.83   2 2.83   1 2.83   7 2.83  10 2.83
                            13 2.83
   5  0.334  0.334  0.340-   3 2.83   4 2.83   6 2.83   7 2.83   2 2.83   8 2.83  11 2.83  13 2.83
                            14 2.83
   6  0.668  0.334  0.340-   4 2.81   1 2.82   5 2.83   8 2.83   3 2.83   9 2.83  12 2.83  14 2.83
                            15 2.83
   7  0.000  0.668  0.340-   3 2.81   1 2.81   9 2.81  18 2.82   5 2.83   8 2.83   4 2.83  13 2.83
                            16 2.83
   8  0.334  0.668  0.340-   2 2.81   1 2.82   6 2.83   7 2.83   9 2.83   5 2.83  14 2.83  16 2.83
                            17 2.83
   9  0.668  0.668  0.340-   3 2.81   7 2.81   4 2.82   2 2.82   8 2.83   6 2.83  15 2.83  17 2.83
                            18 2.83
  10  0.111  0.111  0.433-  12 2.81  16 2.81  26 2.81  19 2.82  15 2.82  17 2.82  20 2.83  11 2.83
                            13 2.83   4 2.83   2 2.83   1 2.83
  11  0.445  0.111  0.433-  21 2.80  27 2.81  17 2.81  18 2.82  20 2.82  13 2.83  10 2.83  12 2.83
                            14 2.83   5 2.83   3 2.83   2 2.83
  12  0.779  0.111  0.433-  21 2.80  25 2.81  16 2.81  10 2.81  18 2.81   1 2.82  19 2.83  14 2.83
                            11 2.83  15 2.83   6 2.83   3 2.83
  13  0.111  0.445  0.433-  23 2.81  22 2.81  15 2.81  20 2.82  18 2.82  14 2.83  11 2.83  10 2.83
                            16 2.83   7 2.83   5 2.83   4 2.83
  14  0.445  0.445  0.433-  21 2.80  23 2.80  24 2.80  16 2.83  12 2.83  13 2.83  15 2.83  17 2.83
                            11 2.83   8 2.83   6 2.83   5 2.83
  15  0.779  0.445  0.433-  24 2.80  13 2.81  22 2.82  10 2.82   4 2.82  19 2.82  17 2.83  14 2.83
                            18 2.83  12 2.83   9 2.83   6 2.83
  16  0.111  0.779  0.433-  23 2.80  25 2.81  12 2.81  10 2.81  18 2.81   1 2.82  26 2.82  14 2.83
                            17 2.83  13 2.83   8 2.83   7 2.83
  17  0.445  0.779  0.433-  24 2.80  27 2.81  11 2.81  10 2.82   2 2.82  26 2.82  15 2.83  16 2.83
                            18 2.83  14 2.83   9 2.83   8 2.83
  18  0.779  0.779  0.433-  12 2.81  16 2.81  25 2.82  27 2.82  13 2.82  11 2.82   3 2.82   7 2.82
                            22 2.82  17 2.83  15 2.83   9 2.83
  19  0.891  0.223  0.525-  22 2.81  20 2.82  10 2.82  26 2.82  25 2.82  15 2.82  24 2.83  12 2.83
                            21 2.83  33 2.83  28 2.87  31 2.89
  20  0.223  0.223  0.525-  22 2.81  19 2.82  26 2.82  27 2.82  13 2.82  11 2.82  23 2.83  21 2.83
                            10 2.83  32 2.84  29 2.87  31 2.89
  21  0.557  0.223  0.524-  14 2.80  12 2.80  11 2.80  27 2.82  25 2.82  23 2.83  24 2.83  20 2.83
                            19 2.83  32 2.84  33 2.84  30 2.85
  22  0.891  0.556  0.525-  13 2.81  20 2.81  19 2.81  15 2.82  23 2.82  24 2.82  18 2.82  27 2.84
                            25 2.84  36 2.84  34 2.84  31 2.85
  23  0.223  0.557  0.524-  14 2.80  16 2.80  13 2.81  22 2.82  25 2.82  24 2.82  21 2.83  20 2.83
                            26 2.83  32 2.84  35 2.84  34 2.85
  24  0.557  0.557  0.524-  17 2.80  15 2.80  14 2.80  27 2.82  22 2.82  23 2.82  21 2.83  19 2.83
                            26 2.83  33 2.84  35 2.84  36 2.85
  25  0.891  0.891  0.525-  16 2.81  12 2.81  26 2.82  18 2.82  19 2.82  23 2.82  21 2.82  34 2.83
                            27 2.83  22 2.84  30 2.84  28 2.85
  26  0.223  0.891  0.525-  10 2.81  25 2.82  20 2.82  19 2.82  27 2.82  17 2.82  16 2.82  24 2.83
                            23 2.83  35 2.83  29 2.87  28 2.87
  27  0.556  0.890  0.525-  11 2.81  17 2.81  18 2.82  26 2.82  20 2.82  21 2.82  24 2.82  36 2.83
                            25 2.83  22 2.84  30 2.84  29 2.86
  28  0.999  1.000  0.620-  37 2.00  34 2.79  30 2.80  35 2.83  33 2.84  25 2.85  29 2.87  19 2.87
                            26 2.87  31 2.89
  29  0.338  1.000  0.620-  37 2.00  36 2.79  30 2.80  35 2.83  32 2.84  27 2.86  28 2.87  20 2.87
                            26 2.87  31 2.89
  30  0.668  0.002  0.618-  29 2.80  28 2.80  32 2.82  33 2.82  36 2.82  34 2.82  25 2.84  27 2.84
                            21 2.85
  31  0.998  0.341  0.620-  37 1.74  34 2.79  36 2.79  32 2.84  33 2.84  22 2.85  29 2.89  28 2.89
                            19 2.89  20 2.89
  32  0.336  0.336  0.618-  33 2.79  35 2.80  30 2.82  34 2.83  20 2.84  29 2.84  23 2.84  21 2.84
                            31 2.84
  33  0.665  0.336  0.617-  32 2.79  35 2.80  30 2.82  36 2.83  19 2.83  28 2.84  24 2.84  21 2.84
                            31 2.84
  34  0.001  0.669  0.618-  31 2.79  28 2.79  35 2.82  30 2.82  32 2.83  36 2.83  25 2.83  22 2.84
                            23 2.85
  35  0.335  0.667  0.618-  32 2.80  33 2.80  34 2.82  36 2.82  26 2.83  29 2.83  28 2.83  24 2.84
                            23 2.84
  36  0.667  0.669  0.618-  31 2.79  29 2.79  35 2.82  30 2.82  33 2.83  34 2.83  27 2.83  22 2.84
                            24 2.85
  37  0.098  0.140  0.657-  31 1.74  28 2.00  29 2.00
 

IMPORTANT INFORMATION: All symmetrisations will be switched off!
NOSYMM: (Re-)initialisation of all symmetry stuff for point group C_1.


----------------------------------------------------------------------------------------

                                     Primitive cell                                     

  volume of cell :    1550.4837

  direct lattice vectors                    reciprocal lattice vectors
     8.468310000  0.000000000  0.000000000     0.118087316 -0.068177744  0.000000000
     4.234155000  7.333771587  0.000000000     0.000000000  0.136355488  0.000000000
     0.000000000  0.000000000 24.965661990     0.000000000  0.000000000  0.040055016

  length of vectors
     8.468310000  8.468310000 24.965661990     0.136355488  0.136355488  0.040055016

  position of ions in fractional coordinates (direct lattice)
     0.000000000  0.000000000  0.340467639
     0.334001368  0.000000000  0.340467639
     0.668002736  0.000000000  0.340467639
     1.000000000  0.334001368  0.340467639
     0.334001368  0.334001368  0.340467639
     0.668002736  0.334001368  0.340467639
     1.000000000  0.668002736  0.340467639
     0.334001368  0.668002736  0.340467639
     0.668002736  0.668002736  0.340467639
     0.111333789  0.111333789  0.432970737
     0.445335157  0.111333789  0.432970737
     0.779336525  0.111333789  0.432970737
     0.111333789  0.445335157  0.432970737
     0.445335157  0.445335157  0.432970737
     0.779336525  0.445335157  0.432970737
     0.111333789  0.779336525  0.432970737
     0.445335157  0.779336525  0.432970737
     0.779336525  0.779336525  0.432970737
     0.890526955  0.223300172  0.525260200
     0.222980035  0.223277644  0.525180394
     0.556794916  0.223132233  0.524176331
     0.890832200  0.555503986  0.525035906
     0.223210050  0.556801281  0.524224955
     0.556721224  0.556844700  0.524173624
     0.890654572  0.890592527  0.524920588
     0.223096424  0.890685075  0.525191975
     0.555949240  0.890479347  0.524774353
     0.999402740  0.999576626  0.619717143
     0.338083790  0.999537971  0.619586627
     0.667585370  0.001792789  0.617865051
     0.998069706  0.341059457  0.620107567
     0.335904934  0.335673945  0.617537373
     0.665492450  0.335692289  0.617479878
     0.001409053  0.668697025  0.617784155
     0.335150326  0.666694998  0.617531733
     0.666978377  0.668712790  0.617718230
     0.098282345  0.140227051  0.657289919

  ion indices of the primitive-cell ions
   primitive index   ion index
                 1           1
                 2           2
                 3           3
                 4           4
                 5           5
                 6           6
                 7           7
                 8           8
                 9           9
                10          10
                11          11
                12          12
                13          13
                14          14
                15          15
                16          16
                17          17
                18          18
                19          19
                20          20
                21          21
                22          22
                23          23
                24          24
                25          25
                26          26
                27          27
                28          28
                29          29
                30          30
                31          31
                32          32
                33          33
                34          34
                35          35
                36          36
                37          37

----------------------------------------------------------------------------------------

 
 
 KPOINTS: KPOINTS created by Atomic Simulation Env

Automatic generation of k-mesh.
 Grid dimensions read from file:
 generate k-points for:    5    5    1

 Generating k-lattice:

  Cartesian coordinates                     Fractional coordinates (reciprocal lattice)
     0.023617463 -0.013635549  0.000000000     0.200000000 -0.000000000  0.000000000
     0.000000000  0.027271098  0.000000000     0.000000000  0.200000000  0.000000000
     0.000000000  0.000000000  0.040055016     0.000000000  0.000000000  1.000000000

  Length of vectors
     0.027271098  0.027271098  0.040055016

  Shift w.r.t. Gamma in fractional coordinates (k-lattice)
     0.000000000  0.000000000  0.000000000

 
 Subroutine IBZKPT returns following result:
 ===========================================
 
 Found     13 irreducible k-points:
 
 Following reciprocal coordinates:
            Coordinates               Weight
  0.000000  0.000000  0.000000      1.000000
  0.200000  0.000000  0.000000      2.000000
  0.200000  0.200000  0.000000      2.000000
  0.000000  0.200000  0.000000      2.000000
  0.400000  0.000000  0.000000      2.000000
  0.400000  0.400000  0.000000      2.000000
  0.000000  0.400000  0.000000      2.000000
  0.400000  0.200000  0.000000      2.000000
  0.200000  0.400000  0.000000      2.000000
 -0.200000  0.200000  0.000000      2.000000
 -0.400000  0.200000  0.000000      2.000000
  0.400000 -0.400000  0.000000      2.000000
 -0.200000  0.400000  0.000000      2.000000
 
 Following cartesian coordinates:
            Coordinates               Weight
  0.000000  0.000000  0.000000      1.000000
  0.023617 -0.013636  0.000000      2.000000
  0.023617  0.013636  0.000000      2.000000
  0.000000  0.027271  0.000000      2.000000
  0.047235 -0.027271  0.000000      2.000000
  0.047235  0.027271  0.000000      2.000000
  0.000000  0.054542  0.000000      2.000000
  0.047235  0.000000  0.000000      2.000000
  0.023617  0.040907  0.000000      2.000000
 -0.023617  0.040907  0.000000      2.000000
 -0.047235  0.054542  0.000000      2.000000
  0.047235 -0.081813  0.000000      2.000000
 -0.023617  0.068178  0.000000      2.000000
 


--------------------------------------------------------------------------------------------------------




 Dimension of arrays:
   k-points           NKPTS =     13   k-points in BZ     NKDIM =     13   number of bands    NBANDS=    240
   number of dos      NEDOS =    301   number of ions     NIONS =     37
   non local maximal  LDIM  =      6   non local SUM 2l+1 LMDIM =     18
   total plane-waves  NPLWV = 466560
   max r-space proj   IRMAX =   3679   max aug-charges    IRDMAX=  18423
   dimension x,y,z NGX =    54 NGY =   54 NGZ =  160
   dimension x,y,z NGXF=   108 NGYF=  108 NGZF=  320
   support grid    NGXF=   108 NGYF=  108 NGZF=  320
   ions per type =              36   1
   NGX,Y,Z   is equivalent  to a cutoff of  10.60, 10.60, 10.65 a.u.
   NGXF,Y,Z  is equivalent  to a cutoff of  21.20, 21.20, 21.31 a.u.

 SYSTEM =  unknown system                          
 POSCAR =  Pt H                                    

 Startparameter for this run:
   NWRITE =      2    write-flag & timer
   PREC   = normal    normal or accurate (medium, high low for compatibility)
   ISTART =      1    job   : 0-new  1-cont  2-samecut
   ICHARG =      0    charge: 1-file 2-atom 10-const
   ISPIN  =      1    spin polarized calculation?
   LNONCOLLINEAR =      F non collinear calculations
   LSORBIT =      F    spin-orbit coupling
   INIWAV =      1    electr: 0-lowe 1-rand  2-diag
   LASPH  =      F    aspherical Exc in radial PAW
 Electronic Relaxation 1
   ENCUT  =  680.3 eV  50.00 Ry    7.07 a.u.  18.01 18.01 53.09*2*pi/ulx,y,z
   ENINI  =  680.3     initial cutoff
   ENAUG  =  400.0 eV  augmentation charge cutoff
   NELM   =     60;   NELMIN=  2; NELMDL=  0     # of ELM steps 
   EDIFF  = 0.1E-04   stopping-criterion for ELM
   LREAL  =      T    real-space projection
   NLSPLINE    = F    spline interpolate recip. space projectors
   LCOMPAT=      F    compatible to vasp.4.4
   GGA_COMPAT  = T    GGA compatible to vasp.4.4-vasp.4.6
   LMAXPAW     = -100 max onsite density
   LMAXMIX     =    2 max onsite mixed and CHGCAR
   VOSKOWN=      0    Vosko Wilk Nusair interpolation
   ROPT   =   -0.00050  -0.00050
 Ionic relaxation
   EDIFFG = 0.1E-03   stopping-criterion for IOM
   NSW    =      0    number of steps for IOM
   NBLOCK =      1;   KBLOCK =      1    inner block; outer block 
   IBRION =     -1    ionic relax: 0-MD 1-quasi-New 2-CG
   NFREE  =      0    steps in history (QN), initial steepest desc. (CG)
   ISIF   =      2    stress and relaxation
   IWAVPR =     10    prediction:  0-non 1-charg 2-wave 3-comb
   ISYM   =      0    0-nonsym 1-usesym 2-fastsym
   LCORR  =      T    Harris-Foulkes like correction to forces

   POTIM  = 0.5000    time-step for ionic-motion
   TEIN   =    0.0    initial temperature
   TEBEG  =    0.0;   TEEND  =   0.0 temperature during run
   SMASS  =  -3.00    Nose mass-parameter (am)
   estimated Nose-frequenzy (Omega)   =  0.10E-29 period in steps = 0.13E+47 mass=  -0.164E-26a.u.
   SCALEE = 1.0000    scale energy and forces
   NPACO  =    256;   APACO  = 10.0  distance and # of slots for P.C.
   PSTRESS=    0.0 pullay stress

  Mass of Ions in am
   POMASS = 195.08  1.00
  Ionic Valenz
   ZVAL   =  10.00  1.00
  Atomic Wigner-Seitz radii
   RWIGS  =  -1.00 -1.00
  virtual crystal weights 
   VCA    =   1.00  1.00
   NELECT =     361.0000    total number of electrons
   NUPDOWN=      -1.0000    fix difference up-down

 DOS related values:
   EMIN   =  10.00;   EMAX   =-10.00  energy-range for DOS
   EFERMI =   0.00;   METHOD = LEGACY      
   ISMEAR =     1;   SIGMA  =   0.10  broadening in eV -4-tet -1-fermi 0-gaus

 Electronic relaxation 2 (details)
   IALGO  =     68    algorithm
   LDIAG  =      T    sub-space diagonalisation (order eigenvalues)
   LSUBROT=      F    optimize rotation matrix (better conditioning)
   TURBO    =      0    0=normal 1=particle mesh
   IRESTART =      0    0=no restart 2=restart with 2 vectors
   NREBOOT  =      0    no. of reboots
   NMIN     =      0    reboot dimension
   EREF     =   0.00    reference energy to select bands
   IMIX   =      4    mixing-type and parameters
     AMIX     =   0.40;   BMIX     =  1.00
     AMIX_MAG =   1.60;   BMIX_MAG =  1.00
     AMIN     =   0.10
     WC   =   100.;   INIMIX=   1;  MIXPRE=   1;  MAXMIX= -45

 Intra band minimization:
   WEIMIN = 0.0000     energy-eigenvalue tresh-hold
   EBREAK =  0.10E-07  absolut break condition
   DEPER  =   0.30     relativ break condition  

   TIME   =   0.40     timestep for ELM

  volume/ion in A,a.u.               =      41.90       282.79
  Fermi-wavevector in a.u.,A,eV,Ry     =   1.007136  1.903211 13.800704  1.014323
  Thomas-Fermi vector in A             =   2.139922
 
 Write flags
   LWAVE        =      T    write WAVECAR
   LDOWNSAMPLE  =      F    k-point downsampling of WAVECAR
   LCHARG       =      T    write CHGCAR
   LVTOT        =      F    write LOCPOT, total local potential
   LVHAR        =      F    write LOCPOT, Hartree potential only
   LELF         =      F    write electronic localiz. function (ELF)
   LORBIT       =      0    0 simple, 1 ext, 2 COOP (PROOUT), +10 PAW based schemes


 Dipole corrections
   LMONO  =      F    monopole corrections only (constant potential shift)
   LDIPOL =      F    correct potential (dipole corrections)
   IDIPOL =      0    1-x, 2-y, 3-z, 4-all directions 
   EPSILON=  1.0000000 bulk dielectric constant

 Exchange correlation treatment:
   GGA     =    BF    GGA type
   LEXCH   =    17    internal setting for exchange type
   LIBXC   =     F    Libxc                    
   VOSKOWN =     0    Vosko Wilk Nusair interpolation
   LHFCALC =     F    Hartree Fock is set to
   LHFONE  =     F    Hartree Fock one center treatment
   AEXX    =    0.0000 exact exchange contribution

 vdW DFT:
   LUSE_VDW   =     T    switch on vdW DFT
   IVDW_NL    =     1    kernel type
   LSPIN_VDW  =     F    use spin-polarized vdW DFT
   Zab_VDW    =******    correlation parameter
   PARAM1     =0.1234
   PARAM2     =1.0000
   PARAM3     =0.0000
   -- rVV10 --
   BPARAM     = 6.3000
   CPARAM     = 0.0093

 Linear response parameters
   LEPSILON=     F    determine dielectric tensor
   LRPA    =     F    only Hartree local field effects (RPA)
   LNABLA  =     F    use nabla operator in PAW spheres
   LVEL    =     F    velocity operator in full k-point grid
   CSHIFT  =0.1000    complex shift for real part using Kramers Kronig
   OMEGAMAX=  -1.0    maximum frequency
   DEG_THRESHOLD= 0.2000000E-02 threshold for treating states as degnerate
   RTIME   =   -0.100 relaxation time in fs
  (WPLASMAI=    0.000 imaginary part of plasma frequency in eV, 0.658/RTIME)
   DFIELD  = 0.0000000 0.0000000 0.0000000 field for delta impulse in time
 
  Optional k-point grid parameters
   LKPOINTS_OPT  =     F    use optional k-point grid
   KPOINTS_OPT_MODE=     1    mode for optional k-point grid
 
 Orbital magnetization related:
   ORBITALMAG=     F  switch on orbital magnetization
   LCHIMAG   =     F  perturbation theory with respect to B field
   DQ        =  0.001000  dq finite difference perturbation B field
   LLRAUG    =     F  two centre corrections for induced B field
   LBONE     =     F  B-component reconstruction in AE one-centre
   LVGVCALC  =     T  calculate vGv susceptibility
   LVGVAPPL  =     F  apply vGv susceptibility instead of pGv for G=0

 Random number generation:
   RANDOM_GENERATOR = DEFAULT
   PCG_SEED         = not used


--------------------------------------------------------------------------------------------------------


 Static calculation
 charge density and potential will be updated during run
 non-spin polarized calculation
 RMM-DIIS sequential band-by-band and
  variant of blocked Davidson during initial phase
 perform sub-space diagonalisation
    before iterative eigenvector-optimisation
 modified Broyden-mixing scheme, WC =      100.0
 initial mixing is a Kerker type mixing with AMIX =  0.4000 and BMIX =      1.0000
 Hartree-type preconditioning will be used
 using additional bands           59
 real space projection scheme for non local part
 use partial core corrections
 calculate Harris-corrections to forces 
   (improved forces if not selfconsistent)
 use gradient corrections 
 use of overlap-Matrix (Vanderbilt PP)
 Methfessel and Paxton  Order N= 1 SIGMA  =   0.10


--------------------------------------------------------------------------------------------------------


  energy-cutoff  :      680.29
  volume of cell :     1550.48
      direct lattice vectors                 reciprocal lattice vectors
     8.468310000  0.000000000  0.000000000     0.118087316 -0.068177744  0.000000000
     4.234155000  7.333771587  0.000000000     0.000000000  0.136355488  0.000000000
     0.000000000  0.000000000 24.965661990     0.000000000  0.000000000  0.040055016

  length of vectors
     8.468310000  8.468310000 24.965661990     0.136355488  0.136355488  0.040055016


 
 old parameters found on file WAVECAR:
  energy-cutoff  :      680.29
  volume of cell :     1550.48
      direct lattice vectors                 reciprocal lattice vectors
     8.468310000  0.000000000  0.000000000     0.118087316 -0.068177744  0.000000000
     4.234155000  7.333771587  0.000000000     0.000000000  0.136355488  0.000000000
     0.000000000  0.000000000 24.965661990     0.000000000  0.000000000  0.040055016

  length of vectors

 
 k-points in units of 2pi/SCALE and weight: KPOINTS created by Atomic Simulation Env
   0.00000000  0.00000000  0.00000000       0.040
   0.02361746 -0.01363555  0.00000000       0.080
   0.02361746  0.01363555  0.00000000       0.080
   0.00000000  0.02727110  0.00000000       0.080
   0.04723493 -0.02727110  0.00000000       0.080
   0.04723493  0.02727110  0.00000000       0.080
   0.00000000  0.05454220  0.00000000       0.080
   0.04723493  0.00000000  0.00000000       0.080
   0.02361746  0.04090665  0.00000000       0.080
  -0.02361746  0.04090665  0.00000000       0.080
  -0.04723493  0.05454220  0.00000000       0.080
   0.04723493 -0.08181329  0.00000000       0.080
  -0.02361746  0.06817774  0.00000000       0.080
 
 k-points in reciprocal lattice and weights: KPOINTS created by Atomic Simulation Env
   0.00000000  0.00000000  0.00000000       0.040
   0.20000000  0.00000000  0.00000000       0.080
   0.20000000  0.20000000  0.00000000       0.080
   0.00000000  0.20000000  0.00000000       0.080
   0.40000000  0.00000000  0.00000000       0.080
   0.40000000  0.40000000  0.00000000       0.080
   0.00000000  0.40000000  0.00000000       0.080
   0.40000000  0.20000000  0.00000000       0.080
   0.20000000  0.40000000  0.00000000       0.080
  -0.20000000  0.20000000  0.00000000       0.080
  -0.40000000  0.20000000  0.00000000       0.080
   0.40000000 -0.40000000  0.00000000       0.080
  -0.20000000  0.40000000  0.00000000       0.080
 
 position of ions in fractional coordinates (direct lattice) 
   0.00000000  0.00000000  0.34046764
   0.33400137  0.00000000  0.34046764
   0.66800274  0.00000000  0.34046764
   0.00000000  0.33400137  0.34046764
   0.33400137  0.33400137  0.34046764
   0.66800274  0.33400137  0.34046764
   0.00000000  0.66800274  0.34046764
   0.33400137  0.66800274  0.34046764
   0.66800274  0.66800274  0.34046764
   0.11133379  0.11133379  0.43297074
   0.44533516  0.11133379  0.43297074
   0.77933653  0.11133379  0.43297074
   0.11133379  0.44533516  0.43297074
   0.44533516  0.44533516  0.43297074
   0.77933653  0.44533516  0.43297074
   0.11133379  0.77933653  0.43297074
   0.44533516  0.77933653  0.43297074
   0.77933653  0.77933653  0.43297074
   0.89052696  0.22330017  0.52526020
   0.22298003  0.22327764  0.52518039
   0.55679492  0.22313223  0.52417633
   0.89083220  0.55550399  0.52503591
   0.22321005  0.55680128  0.52422495
   0.55672122  0.55684470  0.52417362
   0.89065457  0.89059253  0.52492059
   0.22309642  0.89068507  0.52519197
   0.55594924  0.89047935  0.52477435
   0.99940274  0.99957663  0.61971714
   0.33808379  0.99953797  0.61958663
   0.66758537  0.00179279  0.61786505
   0.99806971  0.34105946  0.62010757
   0.33590493  0.33567395  0.61753737
   0.66549245  0.33569229  0.61747988
   0.00140905  0.66869702  0.61778415
   0.33515033  0.66669500  0.61753173
   0.66697838  0.66871279  0.61771823
   0.09828235  0.14022705  0.65728992
 
 position of ions in cartesian coordinates  (Angst):
   0.00000000  0.00000000  8.50000000
   2.82842712  0.00000000  8.50000000
   5.65685425  0.00000000  8.50000000
   1.41421356  2.44948974  8.50000000
   4.24264069  2.44948974  8.50000000
   7.07106781  2.44948974  8.50000000
   2.82842712  4.89897949  8.50000000
   5.65685425  4.89897949  8.50000000
   8.48528137  4.89897949  8.50000000
   1.41421356  0.81649658 10.80940108
   4.24264069  0.81649658 10.80940108
   7.07106781  0.81649658 10.80940108
   2.82842712  3.26598632 10.80940108
   5.65685425  3.26598632 10.80940108
   8.48528137  3.26598632 10.80940108
   4.24264069  5.71547607 10.80940108
   7.07106781  5.71547607 10.80940108
   9.89949494  5.71547607 10.80940108
   8.48674586  1.63763246 13.11346861
   2.83365621  1.63746724 13.11147621
   5.65988842  1.63640083 13.08640911
   9.89593321  4.07393935 13.10786897
   4.24779483  4.08345341 13.08762303
   7.07225468  4.08377184 13.08634152
  11.31324582  6.53140217 13.10498997
   5.66054834  6.53208090 13.11176532
   8.47837809  6.53057214 13.10133911
  12.69561459  7.33066666 15.47164872
   7.09519704  7.33038317 15.46839030
   5.66091081  0.01314791 15.42541002
   9.89606228  2.50125216 15.48139592
   4.26584263  2.46175604 15.41722933
   7.05696956  2.46189057 15.41579391
   2.84329915  4.90407124 15.42339040
   5.66104682  4.88938884 15.41708852
   8.47961326  4.90418686 15.42174453
   1.42602843  1.02839316 16.40967794
 


--------------------------------------------------------------------------------------------------------


 k-point   1 :   0.0000 0.0000 0.0000  plane waves:   62399
 k-point   2 :   0.2000 0.0000 0.0000  plane waves:   62407
 k-point   3 :   0.2000 0.2000 0.0000  plane waves:   62407
 k-point   4 :   0.0000 0.2000 0.0000  plane waves:   62407
 k-point   5 :   0.4000 0.0000 0.0000  plane waves:   62451
 k-point   6 :   0.4000 0.4000 0.0000  plane waves:   62451
 k-point   7 :   0.0000 0.4000 0.0000  plane waves:   62451
 k-point   8 :   0.4000 0.2000 0.0000  plane waves:   62510
 k-point   9 :   0.2000 0.4000 0.0000  plane waves:   62510
 k-point  10 :  -0.2000 0.2000 0.0000  plane waves:   62510
 k-point  11 :  -0.4000 0.2000 0.0000  plane waves:   62498
 k-point  12 :   0.4000-0.4000 0.0000  plane waves:   62498
 k-point  13 :  -0.2000 0.4000 0.0000  plane waves:   62498

 maximum and minimum number of plane-waves per node :     62510    62399

 maximum number of plane-waves:     62510
 maximum index in each direction: 
   IXMAX=   18   IYMAX=   18   IZMAX=   53
   IXMIN=  -18   IYMIN=  -18   IZMIN=  -53


 serial   3D FFT for wavefunctions
 parallel 3D FFT for charge:
    minimum data exchange during FFTs selected (reduces bandwidth)


 total amount of memory used by VASP MPI-rank0   148542. kBytes
=======================================================================

   base      :      30000. kBytes
   nonlr-proj:      22469. kBytes
   fftplans  :       5213. kBytes
   grid      :      24541. kBytes
   one-center:        575. kBytes
   wavefun   :      65744. kBytes
 
     INWAV:  cpu time      7.2516: real time     11.9251
 Broyden mixing: mesh for mixing (old mesh)
   NGX = 37   NGY = 37   NGZ =107
  (NGX  =108   NGY  =108   NGZ  =320)
  gives a total of 146483 points

 charge density for first step will be calculated from the start-wavefunctions


--------------------------------------------------------------------------------------------------------


 Maximum index for non-local projection operator         3550
 Maximum index for augmentation-charges         1168 (set IRDMAX)


--------------------------------------------------------------------------------------------------------


 initial charge from wavefunction
 First call to EWALD:  gamma=   0.153
 Maximum number of real-space cells 4x 4x 2
 Maximum number of reciprocal cells 2x 2x 5

    FEWALD:  cpu time      0.0043: real time      0.0043


--------------------------------------- Ionic step        1  -------------------------------------------




--------------------------------------- Iteration      1(   1)  ---------------------------------------


vdW kernel read from vdw_kernel.bindat
  0.0000  0.2424  0.5071  0.7962  1.1119  1.4567  1.8333  2.2446  2.6937  3.1842
  3.7199  4.3049  4.9438  5.6415  6.4036  7.2358  8.1446  9.1372 10.2212 11.4050
 12.6979 14.1099 15.6519 17.3360 19.1751 21.1837 23.3773 25.7729 28.3892 31.2465
 34.3669 37.7748 41.4965 45.5611 50.0000
 
    POTLOK:  cpu time      2.8205: real time      2.8630
    SETDIJ:  cpu time      0.0056: real time      0.0056
     EDDAV:  cpu time     15.7436: real time     15.8713
       DOS:  cpu time      0.0192: real time      0.0194
    CHARGE:  cpu time      0.7573: real time      0.7641
    MIXING:  cpu time      0.0030: real time      0.0030
    --------------------------------------------
      LOOP:  cpu time     19.3492: real time     19.5263

 eigenvalue-minimisations  :  6816
 total energy-change (2. order) :-0.1045825E+03  (-0.3715029E-01)
 number of electron     360.9999932 magnetization 
 augmentation part      114.1651889 magnetization 

 Broyden mixing:
  rms(total) = 0.97347E-01    rms(broyden)= 0.97347E-01
  rms(prec ) = 0.11828E+00
  weight for this iteration     100.00

 Free energy of the ion-electron system (eV)
  ---------------------------------------------------
  alpha Z        PSCENC =       797.33612757
  Ewald energy   TEWEN  =    132214.37569632
  -Hartree energ DENC   =   -159619.03192552
  -exchange      EXHF   =         0.00000000
  -V(xc)+E(xc)   XCENC  =        89.65100852
  PAW double counting   =     32171.47689752   -31173.54054176
  entropy T*S    EENTRO =        -0.09572355
  eigenvalues    EBANDS =     -1081.55719834
  atomic energy  EATOM  =     26496.80315902
  Solvation  Ediel_sol  =         0.00000000
  ---------------------------------------------------
  free energy    TOTEN  =      -104.58250023 eV

  energy without entropy =     -104.48677667  energy(sigma->0) =     -104.55059238


--------------------------------------------------------------------------------------------------------




--------------------------------------- Iteration      1(   2)  ---------------------------------------


    POTLOK:  cpu time      2.3893: real time      2.4057
    SETDIJ:  cpu time      0.0056: real time      0.0056
    EDDIAG:  cpu time      2.6838: real time      2.7056
  RMM-DIIS:  cpu time      8.3368: real time      8.4034
    ORTHCH:  cpu time      0.6008: real time      0.6066
       DOS:  cpu time      0.0012: real time      0.0012
    CHARGE:  cpu time      0.7511: real time      0.7580
    MIXING:  cpu time      0.0025: real time      0.0026
    --------------------------------------------
      LOOP:  cpu time     14.7710: real time     14.8886

 eigenvalue-minimisations  :  6688
 total energy-change (2. order) :-0.2122260E+00  (-0.1098541E-01)
 number of electron     360.9999930 magnetization 
 augmentation part      114.2275072 magnetization 

 Broyden mixing:
  rms(total) = 0.53781E+00    rms(broyden)= 0.53781E+00
  rms(prec ) = 0.70809E+00
  weight for this iteration     100.00

 eigenvalues of (default mixing * dielectric matrix)
  average eigenvalue GAMMA=   0.1393
  0.1393

 Free energy of the ion-electron system (eV)
  ---------------------------------------------------
  alpha Z        PSCENC =       797.33612757
  Ewald energy   TEWEN  =    132214.37569632
  -Hartree energ DENC   =   -159605.72932801
  -exchange      EXHF   =         0.00000000
  -V(xc)+E(xc)   XCENC  =        89.67377134
  PAW double counting   =     32166.79725408   -31168.88072054
  entropy T*S    EENTRO =        -0.08857884
  eigenvalues    EBANDS =     -1095.08210716
  atomic energy  EATOM  =     26496.80315902
  Solvation  Ediel_sol  =         0.00000000
  ---------------------------------------------------
  free energy    TOTEN  =      -104.79472623 eV

  energy without entropy =     -104.70614739  energy(sigma->0) =     -104.76519995


--------------------------------------------------------------------------------------------------------




--------------------------------------- Iteration      1(   3)  ---------------------------------------


    POTLOK:  cpu time      2.4167: real time      2.4680
    SETDIJ:  cpu time      0.0045: real time      0.0045
    EDDIAG:  cpu time      3.1928: real time      3.2248
  RMM-DIIS:  cpu time      8.6795: real time      8.7569
    ORTHCH:  cpu time      0.6731: real time      0.6916
       DOS:  cpu time      0.0010: real time      0.0010
    CHARGE:  cpu time      0.7507: real time      0.7578
    MIXING:  cpu time      0.0022: real time      0.0022
    --------------------------------------------
      LOOP:  cpu time     15.7206: real time     15.9069

 eigenvalue-minimisations  :  6759
 total energy-change (2. order) : 0.1774688E+00  (-0.4827361E-02)
 number of electron     360.9999932 magnetization 
 augmentation part      114.1960674 magnetization 

 Broyden mixing:
  rms(total) = 0.22367E+00    rms(broyden)= 0.22367E+00
  rms(prec ) = 0.30897E+00
  weight for this iteration     100.00

 eigenvalues of (default mixing * dielectric matrix)
  average eigenvalue GAMMA=   0.1445
  0.1977  0.0913

 Free energy of the ion-electron system (eV)
  ---------------------------------------------------
  alpha Z        PSCENC =       797.33612757
  Ewald energy   TEWEN  =    132214.37569632
  -Hartree energ DENC   =   -159610.92058448
  -exchange      EXHF   =         0.00000000
  -V(xc)+E(xc)   XCENC  =        89.65824374
  PAW double counting   =     32168.92065445   -31170.99252330
  entropy T*S    EENTRO =        -0.09792937
  eigenvalues    EBANDS =     -1089.70010140
  atomic energy  EATOM  =     26496.80315902
  Solvation  Ediel_sol  =         0.00000000
  ---------------------------------------------------
  free energy    TOTEN  =      -104.61725745 eV

  energy without entropy =     -104.51932808  energy(sigma->0) =     -104.58461433


--------------------------------------------------------------------------------------------------------




--------------------------------------- Iteration      1(   4)  ---------------------------------------


    POTLOK:  cpu time      2.3687: real time      2.4019
    SETDIJ:  cpu time      0.0046: real time      0.0047
    EDDIAG:  cpu time      2.8868: real time      2.9154
  RMM-DIIS:  cpu time      8.2764: real time      8.3622
    ORTHCH:  cpu time      0.7541: real time      0.7636
       DOS:  cpu time      0.0011: real time      0.0011
    CHARGE:  cpu time      0.7601: real time      0.7664
    MIXING:  cpu time      0.0021: real time      0.0021
    --------------------------------------------
      LOOP:  cpu time     15.0540: real time     15.2174

 eigenvalue-minimisations  :  6645
 total energy-change (2. order) : 0.4496475E-01  (-0.1107158E-02)
 number of electron     360.9999931 magnetization 
 augmentation part      114.1846853 magnetization 

 Broyden mixing:
  rms(total) = 0.31990E-01    rms(broyden)= 0.31990E-01
  rms(prec ) = 0.36176E-01
  weight for this iteration     100.00

 eigenvalues of (default mixing * dielectric matrix)
  average eigenvalue GAMMA=   0.2677
  0.4840  0.2323  0.0868

 Free energy of the ion-electron system (eV)
  ---------------------------------------------------
  alpha Z        PSCENC =       797.33612757
  Ewald energy   TEWEN  =    132214.37569632
  -Hartree energ DENC   =   -159614.07438916
  -exchange      EXHF   =         0.00000000
  -V(xc)+E(xc)   XCENC  =        89.64827272
  PAW double counting   =     32170.12756024   -31172.20174508
  entropy T*S    EENTRO =        -0.09741119
  eigenvalues    EBANDS =     -1086.48956313
  atomic energy  EATOM  =     26496.80315902
  Solvation  Ediel_sol  =         0.00000000
  ---------------------------------------------------
  free energy    TOTEN  =      -104.57229270 eV

  energy without entropy =     -104.47488151  energy(sigma->0) =     -104.53982230


--------------------------------------------------------------------------------------------------------




--------------------------------------- Iteration      1(   5)  ---------------------------------------


    POTLOK:  cpu time      2.4450: real time      2.4925
    SETDIJ:  cpu time      0.0043: real time      0.0044
    EDDIAG:  cpu time      2.9483: real time      2.9726
  RMM-DIIS:  cpu time      8.4738: real time      8.5395
    ORTHCH:  cpu time      0.6062: real time      0.6116
       DOS:  cpu time      0.0009: real time      0.0010
    CHARGE:  cpu time      0.7566: real time      0.7629
    MIXING:  cpu time      0.0021: real time      0.0022
    --------------------------------------------
      LOOP:  cpu time     15.2373: real time     15.3866

 eigenvalue-minimisations  :  6808
 total energy-change (2. order) : 0.3260517E-03  (-0.2616847E-03)
 number of electron     360.9999931 magnetization 
 augmentation part      114.1868227 magnetization 

 Broyden mixing:
  rms(total) = 0.28935E-01    rms(broyden)= 0.28935E-01
  rms(prec ) = 0.32496E-01
  weight for this iteration     100.00

 eigenvalues of (default mixing * dielectric matrix)
  average eigenvalue GAMMA=   0.4304
  1.1151  0.0874  0.2102  0.3089

 Free energy of the ion-electron system (eV)
  ---------------------------------------------------
  alpha Z        PSCENC =       797.33612757
  Ewald energy   TEWEN  =    132214.37569632
  -Hartree energ DENC   =   -159613.53402837
  -exchange      EXHF   =         0.00000000
  -V(xc)+E(xc)   XCENC  =        89.64883198
  PAW double counting   =     32169.86280448   -31171.93512663
  entropy T*S    EENTRO =        -0.09702968
  eigenvalues    EBANDS =     -1087.03240132
  atomic energy  EATOM  =     26496.80315902
  Solvation  Ediel_sol  =         0.00000000
  ---------------------------------------------------
  free energy    TOTEN  =      -104.57196665 eV

  energy without entropy =     -104.47493697  energy(sigma->0) =     -104.53962342


--------------------------------------------------------------------------------------------------------




--------------------------------------- Iteration      1(   6)  ---------------------------------------


    POTLOK:  cpu time      2.3881: real time      2.4194
    SETDIJ:  cpu time      0.0058: real time      0.0059
    EDDIAG:  cpu time      2.7061: real time      2.7287
  RMM-DIIS:  cpu time      8.8122: real time      8.8893
    ORTHCH:  cpu time      0.6731: real time      0.6787
       DOS:  cpu time      0.0009: real time      0.0009
    CHARGE:  cpu time      0.7542: real time      0.7611
    MIXING:  cpu time      0.0043: real time      0.0043
    --------------------------------------------
      LOOP:  cpu time     15.3447: real time     15.4883

 eigenvalue-minimisations  :  6975
 total energy-change (2. order) : 0.5093641E-03  (-0.8798285E-04)
 number of electron     360.9999931 magnetization 
 augmentation part      114.1854286 magnetization 

 Broyden mixing:
  rms(total) = 0.11889E-01    rms(broyden)= 0.11889E-01
  rms(prec ) = 0.12573E-01
  weight for this iteration     100.00

 eigenvalues of (default mixing * dielectric matrix)
  average eigenvalue GAMMA=   0.5574
  1.5615  0.6467  0.0874  0.2097  0.2820

 Free energy of the ion-electron system (eV)
  ---------------------------------------------------
  alpha Z        PSCENC =       797.33612757
  Ewald energy   TEWEN  =    132214.37569632
  -Hartree energ DENC   =   -159613.57441674
  -exchange      EXHF   =         0.00000000
  -V(xc)+E(xc)   XCENC  =        89.64790552
  PAW double counting   =     32169.82002607   -31171.88519091
  entropy T*S    EENTRO =        -0.09736845
  eigenvalues    EBANDS =     -1086.99739568
  atomic energy  EATOM  =     26496.80315902
  Solvation  Ediel_sol  =         0.00000000
  ---------------------------------------------------
  free energy    TOTEN  =      -104.57145729 eV

  energy without entropy =     -104.47408884  energy(sigma->0) =     -104.53900114


--------------------------------------------------------------------------------------------------------




--------------------------------------- Iteration      1(   7)  ---------------------------------------


    POTLOK:  cpu time      2.2964: real time      2.3431
    SETDIJ:  cpu time      0.0043: real time      0.0044
    EDDIAG:  cpu time      2.8342: real time      2.8573
  RMM-DIIS:  cpu time      8.8407: real time      8.9111
    ORTHCH:  cpu time      0.5646: real time      0.5700
       DOS:  cpu time      0.0010: real time      0.0010
    CHARGE:  cpu time      0.7532: real time      0.7594
    MIXING:  cpu time      0.0049: real time      0.0049
    --------------------------------------------
      LOOP:  cpu time     15.2993: real time     15.4511

 eigenvalue-minimisations  :  6984
 total energy-change (2. order) :-0.1491503E-03  (-0.4374961E-04)
 number of electron     360.9999931 magnetization 
 augmentation part      114.1843961 magnetization 

 Broyden mixing:
  rms(total) = 0.16290E-01    rms(broyden)= 0.16290E-01
  rms(prec ) = 0.17880E-01
  weight for this iteration     100.00

 eigenvalues of (default mixing * dielectric matrix)
  average eigenvalue GAMMA=   0.6398
  2.1141  0.8859  0.0874  0.3052  0.2098  0.2365

 Free energy of the ion-electron system (eV)
  ---------------------------------------------------
  alpha Z        PSCENC =       797.33612757
  Ewald energy   TEWEN  =    132214.37569632
  -Hartree energ DENC   =   -159613.62266713
  -exchange      EXHF   =         0.00000000
  -V(xc)+E(xc)   XCENC  =        89.64731692
  PAW double counting   =     32170.00745902   -31172.06774328
  entropy T*S    EENTRO =        -0.09724452
  eigenvalues    EBANDS =     -1086.95371035
  atomic energy  EATOM  =     26496.80315902
  Solvation  Ediel_sol  =         0.00000000
  ---------------------------------------------------
  free energy    TOTEN  =      -104.57160644 eV

  energy without entropy =     -104.47436192  energy(sigma->0) =     -104.53919160


--------------------------------------------------------------------------------------------------------




--------------------------------------- Iteration      1(   8)  ---------------------------------------


    POTLOK:  cpu time      2.4870: real time      2.5198
    SETDIJ:  cpu time      0.0044: real time      0.0044
    EDDIAG:  cpu time      2.6889: real time      2.7107
  RMM-DIIS:  cpu time      8.9425: real time      9.0144
    ORTHCH:  cpu time      0.6255: real time      0.6315
       DOS:  cpu time      0.0009: real time      0.0009
    CHARGE:  cpu time      0.7546: real time      0.7621
    MIXING:  cpu time      0.0037: real time      0.0037
    --------------------------------------------
      LOOP:  cpu time     15.5075: real time     15.6475

 eigenvalue-minimisations  :  6914
 total energy-change (2. order) : 0.1192830E-03  (-0.2092809E-04)
 number of electron     360.9999931 magnetization 
 augmentation part      114.1845578 magnetization 

 Broyden mixing:
  rms(total) = 0.84934E-02    rms(broyden)= 0.84934E-02
  rms(prec ) = 0.93112E-02
  weight for this iteration     100.00

 eigenvalues of (default mixing * dielectric matrix)
  average eigenvalue GAMMA=   0.6392
  2.3227  0.9214  0.4316  0.0874  0.2941  0.2144  0.2025

 Free energy of the ion-electron system (eV)
  ---------------------------------------------------
  alpha Z        PSCENC =       797.33612757
  Ewald energy   TEWEN  =    132214.37569632
  -Hartree energ DENC   =   -159613.32358044
  -exchange      EXHF   =         0.00000000
  -V(xc)+E(xc)   XCENC  =        89.64776264
  PAW double counting   =     32170.13781411   -31172.19381189
  entropy T*S    EENTRO =        -0.09734010
  eigenvalues    EBANDS =     -1087.25731437
  atomic energy  EATOM  =     26496.80315902
  Solvation  Ediel_sol  =         0.00000000
  ---------------------------------------------------
  free energy    TOTEN  =      -104.57148715 eV

  energy without entropy =     -104.47414706  energy(sigma->0) =     -104.53904045


--------------------------------------------------------------------------------------------------------




--------------------------------------- Iteration      1(   9)  ---------------------------------------


    POTLOK:  cpu time      2.4806: real time      2.5481
    SETDIJ:  cpu time      0.0043: real time      0.0044
    EDDIAG:  cpu time      2.7897: real time      2.8127
  RMM-DIIS:  cpu time      8.7902: real time      8.8568
    ORTHCH:  cpu time      0.5252: real time      0.5300
       DOS:  cpu time      0.0009: real time      0.0009
    CHARGE:  cpu time      0.7535: real time      0.7597
    MIXING:  cpu time      0.0027: real time      0.0028
    --------------------------------------------
      LOOP:  cpu time     15.3472: real time     15.5153

 eigenvalue-minimisations  :  6758
 total energy-change (2. order) : 0.1727393E-04  (-0.7237139E-05)
 number of electron     360.9999931 magnetization 
 augmentation part      114.1841665 magnetization 

 Broyden mixing:
  rms(total) = 0.48061E-02    rms(broyden)= 0.48061E-02
  rms(prec ) = 0.62480E-02
  weight for this iteration     100.00

 eigenvalues of (default mixing * dielectric matrix)
  average eigenvalue GAMMA=   0.7280
  2.5363  1.2709  0.9396  0.0874  0.3082  0.2730  0.2108  0.1975

 Free energy of the ion-electron system (eV)
  ---------------------------------------------------
  alpha Z        PSCENC =       797.33612757
  Ewald energy   TEWEN  =    132214.37569632
  -Hartree energ DENC   =   -159613.35069375
  -exchange      EXHF   =         0.00000000
  -V(xc)+E(xc)   XCENC  =        89.64733513
  PAW double counting   =     32170.24857316   -31172.30357871
  entropy T*S    EENTRO =        -0.09731853
  eigenvalues    EBANDS =     -1087.23077009
  atomic energy  EATOM  =     26496.80315902
  Solvation  Ediel_sol  =         0.00000000
  ---------------------------------------------------
  free energy    TOTEN  =      -104.57146988 eV

  energy without entropy =     -104.47415135  energy(sigma->0) =     -104.53903037


--------------------------------------------------------------------------------------------------------




--------------------------------------- Iteration      1(  10)  ---------------------------------------


    POTLOK:  cpu time      2.3821: real time      2.4142
    SETDIJ:  cpu time      0.0044: real time      0.0044
    EDDIAG:  cpu time      2.7512: real time      2.7744
  RMM-DIIS:  cpu time      6.8865: real time      6.9397
    ORTHCH:  cpu time      0.5702: real time      0.5772
       DOS:  cpu time      0.0009: real time      0.0009
    --------------------------------------------
      LOOP:  cpu time     12.5953: real time     12.7109

 eigenvalue-minimisations  :  4796
 total energy-change (2. order) :-0.8207971E-06  (-0.2344695E-05)
 number of electron     360.9999931 magnetization 
 augmentation part      114.1841665 magnetization 

 Free energy of the ion-electron system (eV)
  ---------------------------------------------------
  alpha Z        PSCENC =       797.33612757
  Ewald energy   TEWEN  =    132214.37569632
  -Hartree energ DENC   =   -159613.28029957
  -exchange      EXHF   =         0.00000000
  -V(xc)+E(xc)   XCENC  =        89.64660684
  PAW double counting   =     32170.43494719   -31172.49059837
  entropy T*S    EENTRO =        -0.09725482
  eigenvalues    EBANDS =     -1087.29985488
  atomic energy  EATOM  =     26496.80315902
  Solvation  Ediel_sol  =         0.00000000
  ---------------------------------------------------
  free energy    TOTEN  =      -104.57147070 eV

  energy without entropy =     -104.47421588  energy(sigma->0) =     -104.53905243


--------------------------------------------------------------------------------------------------------




 average (electrostatic) potential at core
  the test charge radii are     1.2059  0.5201
  (the norm of the test charge is              1.0000)
       1 -73.5492       2 -73.5371       3 -73.5365       4 -73.5375       5 -73.5232
       6 -73.5308       7 -73.5430       8 -73.5312       9 -73.5388      10 -73.9742
      11 -73.9764      12 -73.9836      13 -73.9780      14 -73.9893      15 -73.9809
      16 -73.9874      17 -73.9838      18 -73.9276      19 -73.9306      20 -73.9275
      21 -73.9741      22 -73.9428      23 -73.9727      24 -73.9752      25 -73.9620
      26 -73.9318      27 -73.9618      28 -73.5546      29 -73.5558      30 -73.5488
      31 -73.6697      32 -73.5285      33 -73.5309      34 -73.5586      35 -73.5401
      36 -73.5581      37 -38.4059
 
 
 
 E-fermi :  -0.0740     XC(G=0):  -5.8866     alpha+bet : -5.8354

 Fermi energy:        -0.0739696470

 k-point     1 :       0.0000    0.0000    0.0000
  band No.  band energies     occupation 
      1      -8.9009      2.00000
      2      -7.8043      2.00000
      3      -7.0798      2.00000
      4      -6.5014      2.00000
      5      -6.4651      2.00000
      6      -6.4597      2.00000
      7      -6.4521      2.00000
      8      -6.4359      2.00000
      9      -6.4331      2.00000
     10      -6.4279      2.00000
     11      -6.1210      2.00000
     12      -5.9156      2.00000
     13      -5.9115      2.00000
     14      -5.9078      2.00000
     15      -5.9061      2.00000
     16      -5.8994      2.00000
     17      -5.8179      2.00000
     18      -5.4712      2.00000
     19      -5.4667      2.00000
     20      -5.4499      2.00000
     21      -5.4478      2.00000
     22      -5.4393      2.00000
     23      -5.3518      2.00000
     24      -5.2289      2.00000
     25      -5.2241      2.00000
     26      -5.2214      2.00000
     27      -5.2207      2.00000
     28      -5.2178      2.00000
     29      -5.1216      2.00000
     30      -5.0365      2.00000
     31      -5.0317      2.00000
     32      -5.0224      2.00000
     33      -5.0193      2.00000
     34      -5.0092      2.00000
     35      -4.9687      2.00000
     36      -4.9553      2.00000
     37      -4.9521      2.00000
     38      -4.9479      2.00000
     39      -4.9143      2.00000
     40      -4.9117      2.00000
     41      -4.5857      2.00000
     42      -4.3808      2.00000
     43      -4.3769      2.00000
     44      -4.3480      2.00000
     45      -4.3379      2.00000
     46      -4.3229      2.00000
     47      -4.3153      2.00000
     48      -4.2923      2.00000
     49      -4.2904      2.00000
     50      -4.2856      2.00000
     51      -4.1332      2.00000
     52      -4.1328      2.00000
     53      -4.0551      2.00000
     54      -4.0347      2.00000
     55      -4.0285      2.00000
     56      -3.5845      2.00000
     57      -3.5800      2.00000
     58      -3.5692      2.00000
     59      -3.5585      2.00000
     60      -3.5551      2.00000
     61      -3.4996      2.00000
     62      -3.4704      2.00000
     63      -3.3876      2.00000
     64      -3.3731      2.00000
     65      -3.3702      2.00000
     66      -3.3691      2.00000
     67      -3.3645      2.00000
     68      -3.3549      2.00000
     69      -3.3506      2.00000
     70      -3.3148      2.00000
     71      -3.3093      2.00000
     72      -3.3035      2.00000
     73      -3.3011      2.00000
     74      -3.3010      2.00000
     75      -3.2609      2.00000
     76      -3.2578      2.00000
     77      -3.2557      2.00000
     78      -3.1530      2.00000
     79      -3.1508      2.00000
     80      -3.1460      2.00000
     81      -3.1435      2.00000
     82      -3.1364      2.00000
     83      -3.1307      2.00000
     84      -2.9389      2.00000
     85      -2.9359      2.00000
     86      -2.9303      2.00000
     87      -2.9165      2.00000
     88      -2.9129      2.00000
     89      -2.9026      2.00000
     90      -2.8988      2.00000
     91      -2.8928      2.00000
     92      -2.8370      2.00000
     93      -2.8300      2.00000
     94      -2.7640      2.00000
     95      -2.7565      2.00000
     96      -2.7504      2.00000
     97      -2.7269      2.00000
     98      -2.7199      2.00000
     99      -2.6940      2.00000
    100      -2.6888      2.00000
    101      -2.6324      2.00000
    102      -2.5223      2.00000
    103      -2.5186      2.00000
    104      -2.5141      2.00000
    105      -2.5043      2.00000
    106      -2.4999      2.00000
    107      -2.4955      2.00000
    108      -2.2656      2.00000
    109      -2.0229      2.00000
    110      -2.0019      2.00000
    111      -1.9975      2.00000
    112      -1.9875      2.00000
    113      -1.9854      2.00000
    114      -1.9816      2.00000
    115      -1.9755      2.00000
    116      -1.9732      2.00000
    117      -1.9562      2.00000
    118      -1.9538      2.00000
    119      -1.9495      2.00000
    120      -1.8680      2.00000
    121      -1.8641      2.00000
    122      -1.8061      2.00000
    123      -1.7352      2.00000
    124      -1.7303      2.00000
    125      -1.7238      2.00000
    126      -1.7191      2.00000
    127      -1.7113      2.00000
    128      -1.5968      2.00000
    129      -1.5898      2.00000
    130      -1.5381      2.00000
    131      -1.5369      2.00000
    132      -1.5117      2.00000
    133      -1.4990      2.00000
    134      -1.2930      2.00000
    135      -1.2754      2.00000
    136      -1.2723      2.00000
    137      -1.2559      2.00000
    138      -1.2488      2.00000
    139      -1.2459      2.00000
    140      -1.1831      2.00000
    141      -1.1749      2.00000
    142      -1.0532      2.00000
    143      -1.0379      2.00000
    144      -1.0304      2.00000
    145      -1.0252      2.00000
    146      -1.0227      2.00000
    147      -1.0217      2.00000
    148      -0.9066      2.00000
    149      -0.8789      2.00000
    150      -0.8625      2.00000
    151      -0.8447      2.00000
    152      -0.8305      2.00000
    153      -0.8249      2.00000
    154      -0.8221      2.00000
    155      -0.8134      2.00000
    156      -0.8065      2.00000
    157      -0.8044      2.00000
    158      -0.8005      2.00000
    159      -0.7969      2.00000
    160      -0.7286      2.00000
    161      -0.7217      2.00000
    162      -0.6975      2.00000
    163      -0.6750      2.00000
    164      -0.6659      2.00000
    165      -0.6527      2.00000
    166      -0.6478      2.00000
    167      -0.6432      2.00000
    168      -0.6032      2.00000
    169      -0.5936      2.00000
    170      -0.5822      2.00000
    171      -0.5563      2.00000
    172      -0.5487      2.00000
    173      -0.5462      2.00000
    174      -0.5369      2.00000
    175      -0.5349      2.00000
    176      -0.4573      2.00000
    177      -0.4457      2.00000
    178      -0.4424      2.00000
    179      -0.4382      2.00000
    180      -0.4334      2.00000
    181      -0.4291      2.00001
    182      -0.3868      2.00009
    183      -0.3440      2.00090
    184      -0.3369      2.00127
    185      -0.3212      2.00261
    186      -0.3207      2.00268
    187      -0.3127      2.00377
    188      -0.3051      2.00515
    189      -0.1129      1.60632
    190      -0.1075      1.53395
    191      -0.0182      0.19997
    192      -0.0134      0.15498
    193      -0.0101      0.12663
    194       0.0071      0.01466
    195       0.0073      0.01354
    196       0.0115     -0.00533
    197       0.5354     -0.00000
    198       0.8221     -0.00000
    199       0.8495     -0.00000
    200       0.8620     -0.00000
    201       0.8970     -0.00000
    202       0.8992     -0.00000
    203       0.9042     -0.00000
    204       2.8682      0.00000
    205       3.1347      0.00000
    206       3.1457      0.00000
    207       3.2075      0.00000
    208       3.2113      0.00000
    209       3.2170      0.00000
    210       4.6550      0.00000
    211       4.7264      0.00000
    212       4.7751      0.00000
    213       4.8162      0.00000
    214       4.8210      0.00000
    215       4.8234      0.00000
    216       4.9357      0.00000
    217       5.0969      0.00000
    218       5.2186      0.00000
    219       5.4506      0.00000
    220       5.4673      0.00000
    221       5.7939      0.00000
    222       5.8002      0.00000
    223       5.8495      0.00000
    224       5.8631      0.00000
    225       5.8697      0.00000
    226       6.0676      0.00000
    227       6.3780      0.00000
    228       6.5989      0.00000
    229       6.6093      0.00000
    230       6.6251      0.00000
    231       6.8287      0.00000
    232       7.0400      0.00000
    233       7.1450      0.00000
    234       7.1509      0.00000
    235       7.1651      0.00000
    236       7.1761      0.00000
    237       7.1771      0.00000
    238       7.2256      0.00000
    239       7.2777      0.00000
    240       7.4156      0.00000

 k-point     2 :       0.2000    0.0000    0.0000
  band No.  band energies     occupation 
      1      -8.7533      2.00000
      2      -7.6852      2.00000
      3      -7.0565      2.00000
      4      -6.8954      2.00000
      5      -6.5610      2.00000
      6      -6.5476      2.00000
      7      -6.3588      2.00000
      8      -6.2659      2.00000
      9      -6.2189      2.00000
     10      -6.2119      2.00000
     11      -6.1147      2.00000
     12      -6.0004      2.00000
     13      -5.9377      2.00000
     14      -5.8434      2.00000
     15      -5.8380      2.00000
     16      -5.8277      2.00000
     17      -5.7545      2.00000
     18      -5.5333      2.00000
     19      -5.4186      2.00000
     20      -5.4140      2.00000
     21      -5.4102      2.00000
     22      -5.3708      2.00000
     23      -5.3359      2.00000
     24      -5.3038      2.00000
     25      -5.2757      2.00000
     26      -5.2430      2.00000
     27      -5.2180      2.00000
     28      -5.2110      2.00000
     29      -5.1390      2.00000
     30      -5.1142      2.00000
     31      -5.1073      2.00000
     32      -5.0342      2.00000
     33      -5.0174      2.00000
     34      -5.0097      2.00000
     35      -5.0070      2.00000
     36      -4.8577      2.00000
     37      -4.8131      2.00000
     38      -4.7784      2.00000
     39      -4.7718      2.00000
     40      -4.7524      2.00000
     41      -4.5800      2.00000
     42      -4.4966      2.00000
     43      -4.4922      2.00000
     44      -4.4445      2.00000
     45      -4.4143      2.00000
     46      -4.4053      2.00000
     47      -4.3886      2.00000
     48      -4.2951      2.00000
     49      -4.2130      2.00000
     50      -4.1442      2.00000
     51      -4.1249      2.00000
     52      -4.1139      2.00000
     53      -4.0666      2.00000
     54      -4.0479      2.00000
     55      -3.9838      2.00000
     56      -3.8292      2.00000
     57      -3.7348      2.00000
     58      -3.7270      2.00000
     59      -3.6809      2.00000
     60      -3.6680      2.00000
     61      -3.6384      2.00000
     62      -3.5823      2.00000
     63      -3.5650      2.00000
     64      -3.5558      2.00000
     65      -3.5268      2.00000
     66      -3.5247      2.00000
     67      -3.4557      2.00000
     68      -3.4384      2.00000
     69      -3.3996      2.00000
     70      -3.3726      2.00000
     71      -3.3637      2.00000
     72      -3.3187      2.00000
     73      -3.2685      2.00000
     74      -3.2619      2.00000
     75      -3.2582      2.00000
     76      -3.1798      2.00000
     77      -3.1750      2.00000
     78      -3.1572      2.00000
     79      -3.1294      2.00000
     80      -3.0904      2.00000
     81      -3.0762      2.00000
     82      -3.0668      2.00000
     83      -3.0293      2.00000
     84      -3.0120      2.00000
     85      -2.9651      2.00000
     86      -2.9499      2.00000
     87      -2.9368      2.00000
     88      -2.9348      2.00000
     89      -2.9147      2.00000
     90      -2.9096      2.00000
     91      -2.8596      2.00000
     92      -2.8302      2.00000
     93      -2.7993      2.00000
     94      -2.7866      2.00000
     95      -2.7744      2.00000
     96      -2.7666      2.00000
     97      -2.7578      2.00000
     98      -2.7307      2.00000
     99      -2.6968      2.00000
    100      -2.6853      2.00000
    101      -2.6139      2.00000
    102      -2.5604      2.00000
    103      -2.5494      2.00000
    104      -2.5247      2.00000
    105      -2.5122      2.00000
    106      -2.5013      2.00000
    107      -2.4968      2.00000
    108      -2.4900      2.00000
    109      -2.4500      2.00000
    110      -2.4367      2.00000
    111      -2.4273      2.00000
    112      -2.4168      2.00000
    113      -2.1856      2.00000
    114      -2.0765      2.00000
    115      -2.0322      2.00000
    116      -2.0049      2.00000
    117      -1.9938      2.00000
    118      -1.9874      2.00000
    119      -1.9840      2.00000
    120      -1.9445      2.00000
    121      -1.9367      2.00000
    122      -1.8968      2.00000
    123      -1.8083      2.00000
    124      -1.7800      2.00000
    125      -1.7064      2.00000
    126      -1.6559      2.00000
    127      -1.6504      2.00000
    128      -1.5990      2.00000
    129      -1.5903      2.00000
    130      -1.5772      2.00000
    131      -1.5410      2.00000
    132      -1.5325      2.00000
    133      -1.5281      2.00000
    134      -1.4448      2.00000
    135      -1.3981      2.00000
    136      -1.3949      2.00000
    137      -1.3832      2.00000
    138      -1.3773      2.00000
    139      -1.2299      2.00000
    140      -1.1980      2.00000
    141      -1.1699      2.00000
    142      -1.1591      2.00000
    143      -1.1513      2.00000
    144      -1.1450      2.00000
    145      -1.1250      2.00000
    146      -1.0573      2.00000
    147      -1.0358      2.00000
    148      -1.0090      2.00000
    149      -0.9896      2.00000
    150      -0.9805      2.00000
    151      -0.9344      2.00000
    152      -0.9191      2.00000
    153      -0.9086      2.00000
    154      -0.8995      2.00000
    155      -0.8187      2.00000
    156      -0.7967      2.00000
    157      -0.7671      2.00000
    158      -0.7620      2.00000
    159      -0.7212      2.00000
    160      -0.6697      2.00000
    161      -0.6552      2.00000
    162      -0.6143      2.00000
    163      -0.6051      2.00000
    164      -0.5953      2.00000
    165      -0.5621      2.00000
    166      -0.5422      2.00000
    167      -0.4821      2.00000
    168      -0.4739      2.00000
    169      -0.4101      2.00002
    170      -0.4068      2.00003
    171      -0.3889      2.00008
    172      -0.3795      2.00014
    173      -0.3591      2.00042
    174      -0.3504      2.00066
    175      -0.3463      2.00081
    176      -0.3356      2.00136
    177      -0.3286      2.00188
    178      -0.2718      2.01713
    179      -0.2682      2.01916
    180      -0.1256      1.75764
    181      -0.1227      1.72581
    182      -0.1040      1.48433
    183      -0.0844      1.17553
    184      -0.0697      0.92796
    185      -0.0677      0.89413
    186      -0.0374      0.42423
    187      -0.0181      0.19906
    188      -0.0053      0.08998
    189       0.0042      0.02971
    190       0.0847     -0.04733
    191       0.1036     -0.03077
    192       0.1292     -0.01443
    193       0.1847     -0.00156
    194       0.2939     -0.00000
    195       0.3026     -0.00000
    196       0.3150     -0.00000
[...]
    148      -1.1073      2.00000
    149      -1.0941      2.00000
    150      -1.0773      2.00000
    151      -1.0609      2.00000
    152      -1.0326      2.00000
    153      -1.0272      2.00000
    154      -0.8985      2.00000
    155      -0.8517      2.00000
    156      -0.7979      2.00000
    157      -0.7333      2.00000
    158      -0.7131      2.00000
    159      -0.6274      2.00000
    160      -0.6191      2.00000
    161      -0.5879      2.00000
    162      -0.5147      2.00000
    163      -0.5026      2.00000
    164      -0.4929      2.00000
    165      -0.4007      2.00004
    166      -0.3983      2.00005
    167      -0.3142      2.00354
    168      -0.3025      2.00573
    169      -0.2807      2.01279
    170      -0.2722      2.01692
    171      -0.2639      2.02186
    172      -0.2317      2.04822
    173      -0.2180      2.06045
    174      -0.1754      2.05317
    175      -0.1117      1.59133
    176      -0.1091      1.55586
    177      -0.0860      1.20273
    178      -0.0632      0.81961
    179      -0.0563      0.70576
    180      -0.0500      0.60649
    181      -0.0418      0.48610
    182       0.0249     -0.04781
    183       0.1170     -0.02114
    184       0.1538     -0.00590
    185       0.1641     -0.00389
    186       0.1684     -0.00323
    187       0.1751     -0.00242
    188       0.2290     -0.00016
    189       0.2771     -0.00001
    190       0.3602     -0.00000
    191       0.4578     -0.00000
    192       1.1959     -0.00000
    193       1.3366     -0.00000
    194       1.3587     -0.00000
    195       1.5062     -0.00000
    196       1.5703     -0.00000
    197       1.6453     -0.00000
    198       1.7006     -0.00000
    199       1.7188     -0.00000
    200       2.0563     -0.00000
    201       2.3065     -0.00000
    202       2.3393     -0.00000
    203       2.5174     -0.00000
    204       2.7794      0.00000
    205       2.8031      0.00000
    206       2.8976      0.00000
    207       2.9213      0.00000
    208       3.0735      0.00000
    209       3.1940      0.00000
    210       3.2593      0.00000
    211       3.2999      0.00000
    212       3.5748      0.00000
    213       3.7075      0.00000
    214       3.7538      0.00000
    215       4.1947      0.00000
    216       4.4059      0.00000
    217       4.4269      0.00000
    218       4.6822      0.00000
    219       4.7166      0.00000
    220       5.4399      0.00000
    221       5.5421      0.00000
    222       5.5793      0.00000
    223       5.5948      0.00000
    224       5.7218      0.00000
    225       5.7926      0.00000
    226       5.9236      0.00000
    227       5.9883      0.00000
    228       6.0060      0.00000
    229       6.0144      0.00000
    230       6.0259      0.00000
    231       6.3069      0.00000
    232       6.4568      0.00000
    233       6.6070      0.00000
    234       6.7342      0.00000
    235       6.7999      0.00000
    236       6.8700      0.00000
    237       6.8793      0.00000
    238       7.1070      0.00000
    239       7.2242      0.00000
    240       7.3426      0.00000


--------------------------------------------------------------------------------------------------------


 soft charge-density along one line, spin component           1
         0         1         2         3         4         5         6         7         8         9
 total charge-density along one line
 
 pseudopotential strength for first ion, spin component:           1
 -6.581   0.001   0.000  -0.010  -0.000  -6.676   0.001   0.000
  0.001  -6.467   0.000   0.000  -0.011   0.001  -6.565   0.000
  0.000   0.000  -6.456   0.001   0.000   0.000   0.000  -6.554
 -0.010   0.000   0.001  -6.467   0.001  -0.009   0.000   0.001
 -0.000  -0.011   0.000   0.001  -6.581  -0.000  -0.010   0.000
 -6.676   0.001   0.000  -0.009  -0.000  -6.754   0.001   0.000
  0.001  -6.565   0.000   0.000  -0.010   0.001  -6.647   0.000
  0.000   0.000  -6.554   0.001   0.000   0.000   0.000  -6.636
 -0.009   0.000   0.001  -6.565   0.001  -0.009   0.000   0.001
 -0.000  -0.010   0.000   0.001  -6.675  -0.000  -0.010   0.000
  0.000  -0.000  -0.035  -0.001  -0.000   0.000  -0.000  -0.034
  0.000  -0.000  -0.052  -0.001  -0.000   0.000  -0.000  -0.051
  0.000  -0.004  -0.000   0.000   0.000   0.000  -0.004  -0.000
  0.000   0.000  -0.008   0.000   0.000   0.000   0.000  -0.008
  0.000   0.000  -0.000  -0.004   0.000   0.000   0.000  -0.000
  0.000  -0.004   0.000   0.000   0.000   0.000  -0.003   0.000
  0.000   0.000  -0.008   0.000   0.000   0.000   0.000  -0.008
  0.001   0.000   0.000  -0.004   0.000   0.001   0.000   0.000
 total augmentation occupancy for first ion, spin component:           1
  3.238   0.005   0.008  -0.264  -0.017  -1.904  -0.003  -0.005   0.084   0.011   0.002  -0.000   0.005   0.000  -0.041  -0.000
  0.005   4.218   0.005   0.005  -0.268  -0.003  -2.169  -0.003  -0.001   0.094   0.005  -0.002  -0.244   0.001   0.001   0.014
  0.008   0.005   4.384   0.017   0.004  -0.005  -0.003  -2.564  -0.010  -0.002   0.848  -0.184  -0.003  -0.281  -0.006   0.000
 -0.264   0.005   0.017   4.224   0.003   0.093  -0.001  -0.009  -2.169  -0.001   0.011  -0.004   0.001   0.002  -0.243  -0.000
 -0.017  -0.268   0.004   0.003   3.253   0.011   0.086  -0.002  -0.001  -1.914   0.002  -0.000  -0.048   0.000   0.005   0.004
 -1.904  -0.003  -0.005   0.093   0.011   2.219   0.002   0.002   0.037  -0.007  -0.002   0.001  -0.006  -0.001   0.041   0.000
 -0.003  -2.169  -0.003  -0.001   0.086   0.002   1.967   0.001  -0.002   0.036  -0.004   0.001   0.236  -0.002  -0.001  -0.019
 -0.005  -0.003  -2.564  -0.009  -0.002   0.002   0.001   2.532   0.004   0.001  -0.711   0.126   0.003   0.337   0.006  -0.000
  0.084  -0.001  -0.010  -2.169  -0.001   0.037  -0.002   0.004   1.964   0.000  -0.007   0.002  -0.001  -0.003   0.234   0.000
  0.011   0.094  -0.002  -0.001  -1.914  -0.007   0.036   0.001   0.000   2.225  -0.002   0.000   0.049  -0.000  -0.006  -0.004
  0.002   0.005   0.848   0.011   0.002  -0.002  -0.004  -0.711  -0.007  -0.002   2.506  -0.574  -0.003   0.191  -0.006   0.000
 -0.000  -0.002  -0.184  -0.004  -0.000   0.001   0.001   0.126   0.002   0.000  -0.574   0.148   0.001  -0.068   0.001  -0.000
  0.005  -0.244  -0.003   0.001  -0.048  -0.006   0.236   0.003  -0.001   0.049  -0.003   0.001   0.254  -0.000  -0.000  -0.018
  0.000   0.001  -0.281   0.002   0.000  -0.001  -0.002   0.337  -0.003  -0.000   0.191  -0.068  -0.000   0.142   0.000   0.000
 -0.041   0.001  -0.006  -0.243   0.005   0.041  -0.001   0.006   0.234  -0.006  -0.006   0.001  -0.000   0.000   0.254   0.000
 -0.000   0.014   0.000  -0.000   0.004   0.000  -0.019  -0.000   0.000  -0.004   0.000  -0.000  -0.018   0.000   0.000   0.001
 -0.000   0.000   0.008   0.000  -0.000   0.000   0.000  -0.023   0.000   0.000  -0.021   0.007   0.000  -0.011   0.000  -0.000
  0.003  -0.000   0.000   0.014  -0.000  -0.003   0.000  -0.000  -0.019   0.000   0.000  -0.000   0.000   0.000  -0.018  -0.000


------------------------ aborting loop because EDIFF is reached ----------------------------------------


    CHARGE:  cpu time      0.7440: real time      0.7518
    FORLOC:  cpu time      0.0173: real time      0.0174
    FORNL :  cpu time      2.5969: real time      2.6226
    STRESS:  cpu time      7.7174: real time      7.7907
    FORCOR:  cpu time      2.3554: real time      2.3732
    FORHAR:  cpu time      0.0158: real time      0.0160
    MIXING:  cpu time      0.0041: real time      0.0041
    OFIELD:  cpu time      0.0000: real time      0.0000

  FORCE on cell =-STRESS in cart. coord.  units (eV):
  Direction    XX          YY          ZZ          XY          YZ          ZX
  --------------------------------------------------------------------------------------
  Alpha Z   797.33613   797.33613   797.33613
  Ewald  151937.36503151959.96923************    -1.74259    -8.80337    -1.93504
  Hartree157896.50997157902.48359************    -0.50987    -1.86896    -0.44186
  E(xc)   -1657.75271 -1657.50472 -1666.83911    -0.02011    -0.05939    -0.02767
  Local  ************************321329.82685     1.87085     8.94770     1.73399
  n-local   108.21362   109.21795    85.95225    -0.12206    -1.10138    -0.12165
  augment  1891.93617  1890.54666  1954.78398     0.18226     0.69817     0.26809
  Kinetic  5211.71416  5207.37332  5370.71217     0.36314     1.78198     0.54143
  Fock        0.00000     0.00000     0.00000     0.00000     0.00000     0.00000
  -------------------------------------------------------------------------------------
  Total     -33.24255   -33.12892     1.89077     0.02161    -0.40527     0.01730
  in kB     -34.35087   -34.23345     1.95381     0.02233    -0.41878     0.01787
  external pressure =      -22.21 kB  Pullay stress =        0.00 kB


 VOLUME and BASIS-vectors are now :
 -----------------------------------------------------------------------------
  energy-cutoff  :      680.29
  volume of cell :     1550.48
      direct lattice vectors                 reciprocal lattice vectors
     8.468310000  0.000000000  0.000000000     0.118087316 -0.068177744  0.000000000
     4.234155000  7.333771587  0.000000000     0.000000000  0.136355488  0.000000000
     0.000000000  0.000000000 24.965661990     0.000000000  0.000000000  0.040055016

  length of vectors
     8.468310000  8.468310000 24.965661990     0.136355488  0.136355488  0.040055016


 FORCES acting on ions
    electron-ion (+dipol)            ewald-force                    non-local-force                 convergence-correction
 -----------------------------------------------------------------------------------------------
   -.374E+01 -.216E+01 0.248E+04   0.366E+01 0.213E+01 -.248E+04   0.115E+00 0.638E-01 -.128E+01   0.193E-01 0.516E-04 0.595E-01
   -.278E+00 -.380E+01 0.248E+04   0.303E+00 0.375E+01 -.247E+04   0.207E-01 0.949E-01 -.128E+01   -.237E-01 0.186E-02 0.557E-01
   0.344E+01 -.552E+01 0.248E+04   -.343E+01 0.550E+01 -.247E+04   -.475E-01 0.905E-01 -.129E+01   0.463E-02 0.287E-01 0.522E-01
   -.342E+01 0.161E+01 0.248E+04   0.338E+01 -.156E+01 -.247E+04   0.951E-01 -.303E-01 -.128E+01   -.815E-03 -.252E-01 0.540E-01
   -.449E-01 -.588E-01 0.247E+04   0.286E-01 0.476E-01 -.247E+04   0.148E-02 -.199E-02 -.132E+01   0.166E-01 0.112E-01 0.591E-01
   0.327E+01 -.208E+01 0.247E+04   -.323E+01 0.206E+01 -.247E+04   -.694E-01 0.186E-01 -.130E+01   -.160E-01 0.641E-02 0.503E-01
   -.308E+01 0.580E+01 0.248E+04   0.302E+01 -.577E+01 -.247E+04   0.744E-01 -.938E-01 -.130E+01   0.367E-01 -.649E-02 0.497E-01
   -.133E+00 0.389E+01 0.247E+04   0.142E+00 -.386E+01 -.247E+04   -.162E-01 -.691E-01 -.130E+01   -.404E-02 -.690E-02 0.498E-01
   0.361E+01 0.213E+01 0.247E+04   -.356E+01 -.211E+01 -.247E+04   -.940E-01 -.498E-01 -.128E+01   -.326E-01 -.970E-02 0.388E-01
   -.373E+01 -.240E+01 0.833E+03   0.371E+01 0.239E+01 -.833E+03   0.958E-01 0.568E-01 -.285E+00   0.894E-03 -.949E-02 0.107E+00
   0.228E+01 -.349E+01 0.836E+03   -.225E+01 0.341E+01 -.836E+03   -.329E-01 0.106E+00 -.313E+00   -.104E-01 0.234E-01 0.112E+00
   0.817E+00 -.498E+01 0.834E+03   -.859E+00 0.491E+01 -.834E+03   -.138E-01 0.133E+00 -.287E+00   0.964E-02 0.731E-02 0.107E+00
   -.158E+01 0.334E+01 0.836E+03   0.151E+01 -.328E+01 -.835E+03   0.755E-01 -.653E-01 -.306E+00   0.237E-01 -.219E-01 0.107E+00
   0.321E+00 0.159E+00 0.839E+03   -.313E+00 -.162E+00 -.839E+03   0.792E-03 0.474E-02 -.395E+00   -.132E-01 -.312E-02 0.878E-01
   0.126E+01 -.975E-01 0.834E+03   -.121E+01 0.166E+00 -.834E+03   -.838E-01 -.170E-01 -.283E+00   -.104E-01 -.303E-01 0.957E-01
   -.363E+01 0.341E+01 0.834E+03   0.356E+01 -.341E+01 -.834E+03   0.985E-01 -.828E-01 -.290E+00   0.200E-01 0.547E-02 0.102E+00
   0.777E+00 0.143E+01 0.835E+03   -.694E+00 -.144E+01 -.834E+03   -.628E-01 -.612E-01 -.295E+00   -.348E-01 0.138E-01 0.959E-01
   0.332E+01 0.254E+01 0.831E+03   -.332E+01 -.252E+01 -.830E+03   -.989E-01 -.654E-01 -.245E+00   0.150E-01 0.150E-01 0.114E+00
   -.297E+01 0.808E+00 -.832E+03   0.302E+01 -.789E+00 0.832E+03   -.422E-01 0.695E-02 0.502E+00   -.405E-02 -.239E-01 0.540E-01
   0.272E+01 0.178E+01 -.830E+03   -.277E+01 -.178E+01 0.829E+03   0.353E-01 0.139E-02 0.507E+00   0.147E-01 -.567E-02 0.549E-01
   0.395E+00 0.103E+01 -.810E+03   -.386E+00 -.105E+01 0.810E+03   0.586E-03 0.201E-01 0.504E+00   -.102E-01 -.434E-02 0.815E-01
   0.768E+00 -.138E+01 -.823E+03   -.782E+00 0.115E+01 0.823E+03   -.497E-02 0.247E+00 0.173E+00   0.177E-01 -.614E-03 0.924E-01
   0.822E+00 0.574E-01 -.811E+03   -.853E+00 -.484E-01 0.810E+03   0.262E-01 -.562E-02 0.503E+00   0.707E-02 -.209E-02 0.835E-01
   -.139E+01 -.566E+00 -.810E+03   0.144E+01 0.576E+00 0.809E+03   -.252E-01 -.866E-02 0.518E+00   -.240E-01 -.516E-03 0.881E-01
   0.138E+01 0.301E+00 -.824E+03   -.128E+01 -.264E+00 0.823E+03   -.101E+00 -.402E-01 0.352E+00   0.809E-02 0.821E-02 0.880E-01
   -.781E+00 -.295E+01 -.831E+03   0.796E+00 0.300E+01 0.830E+03   -.369E-02 -.555E-01 0.453E+00   -.104E-01 0.426E-02 0.585E-01
   -.574E+00 0.476E+00 -.820E+03   0.470E+00 -.452E+00 0.820E+03   0.103E+00 -.419E-01 0.373E+00   0.267E-02 0.219E-01 0.931E-01
   0.887E+01 0.585E+01 -.246E+04   -.964E+01 -.641E+01 0.246E+04   0.777E+00 0.605E+00 0.965E+00   -.187E-01 -.206E-01 0.966E-02
   -.912E+01 0.595E+01 -.246E+04   0.990E+01 -.652E+01 0.246E+04   -.782E+00 0.602E+00 0.964E+00   0.213E-01 -.931E-02 0.114E-01
   0.309E+00 0.248E+00 -.246E+04   -.306E+00 -.205E+00 0.245E+04   0.223E-02 -.314E-01 0.115E+01   -.101E-02 -.280E-02 0.157E-01
   0.649E-01 -.187E+02 -.245E+04   -.690E-01 0.183E+02 0.246E+04   -.678E-02 0.301E+00 -.353E+00   0.118E-01 0.348E-01 0.113E-01
   0.162E+01 0.620E+00 -.245E+04   -.138E+01 -.524E+00 0.245E+04   -.261E+00 -.946E-01 0.124E+01   0.265E-01 0.901E-02 0.124E-01
   -.157E+01 0.165E+00 -.245E+04   0.136E+01 -.676E-01 0.245E+04   0.248E+00 -.903E-01 0.124E+01   -.379E-01 0.533E-02 0.168E-01
   -.343E+00 -.494E+00 -.245E+04   0.349E+00 0.475E+00 0.245E+04   -.462E-02 0.240E-01 0.118E+01   0.791E-02 0.142E-01 0.171E-01
   -.382E+00 -.786E+00 -.245E+04   0.394E+00 0.683E+00 0.245E+04   -.171E-02 0.127E+00 0.119E+01   -.955E-02 -.188E-01 0.173E-01
   0.772E+00 -.588E+00 -.245E+04   -.776E+00 0.565E+00 0.245E+04   -.398E-02 0.198E-01 0.117E+01   0.175E-02 0.205E-01 0.272E-01
   -.700E-01 0.611E+01 -.309E+03   0.723E-01 -.693E+01 0.311E+03   -.414E-02 0.634E+00 -.145E+01   0.735E-04 -.149E-02 0.836E-03
 -----------------------------------------------------------------------------------------------
   -.127E-01 -.230E+01 0.951E+00   0.220E-13 0.289E-12 -.438E-11   0.841E-02 0.225E+01 -.316E+01   0.428E-02 0.282E-01 0.223E+01
 
 
 POSITION                                       TOTAL-FORCE (eV/Angst)
 -----------------------------------------------------------------------------------
      0.00000      0.00000      8.50000         0.048836      0.030427     -0.120474
      2.82843      0.00000      8.50000         0.022670      0.049001     -0.083732
      5.65685      0.00000      8.50000        -0.034040      0.096287     -0.147411
      1.41421      2.44949      8.50000         0.051998     -0.006138     -0.079918
      4.24264      2.44949      8.50000         0.001780     -0.001302     -0.075237
      7.07107      2.44949      8.50000        -0.048368      0.012143     -0.088485
      2.82843      4.89898      8.50000         0.050013     -0.069473     -0.125606
      5.65685      4.89898      8.50000        -0.011324     -0.047323     -0.085192
      8.48528      4.89898      8.50000        -0.074257     -0.044388     -0.103606
      1.41421      0.81650     10.80940         0.073840      0.045408      0.200798
      4.24264      0.81650     10.80940        -0.006219      0.047485      0.078363
      7.07107      0.81650     10.80940        -0.046105      0.071531      0.110925
      2.82843      3.26599     10.80940         0.031184     -0.027063      0.108655
      5.65685      3.26599     10.80940        -0.004199     -0.001128      0.029027
      8.48528      3.26599     10.80940        -0.040134      0.022139      0.130395
      4.24264      5.71548     10.80940         0.047400     -0.074968      0.122326
      7.07107      5.71548     10.80940        -0.014895     -0.050734      0.109227
      9.89949      5.71548     10.80940        -0.077897     -0.026282      0.065178
      8.48675      1.63763     13.11347         0.002859      0.003280      0.013143
      2.83366      1.63747     13.11148        -0.000086     -0.000624      0.012285
      5.65989      1.63640     13.08641         0.000385     -0.001805     -0.003549
      9.89593      4.07394     13.10787        -0.000301      0.015549     -0.012978
      4.24779      4.08345     13.08762         0.002158      0.001853     -0.000615
      7.07225      4.08377     13.08634         0.002257      0.001966      0.002386
     11.31325      6.53140     13.10499         0.004075      0.006492      0.003786
      5.66055      6.53208     13.11177         0.001249      0.003037      0.000617
      8.47838      6.53057     13.10134         0.001552      0.004790      0.003910
     12.69561      7.33067     15.47165        -0.005711      0.026776      0.027361
      7.09520      7.33038     15.46839         0.014124      0.021064      0.022653
      5.66091      0.01315     15.42541         0.003602      0.009604     -0.002221
      9.89606      2.50125     15.48140         0.000990      0.001517      0.015763
      4.26584      2.46176     15.41723        -0.003012      0.011124     -0.004896
      7.05697      2.46189     15.41579         0.003760      0.013462     -0.002156
      2.84330      4.90407     15.42339         0.009377      0.019886      0.004494
      5.66105      4.88939     15.41709         0.000870      0.006371     -0.000750
      8.47961      4.90419     15.42174        -0.006690      0.017925     -0.000630
      1.42603      1.02839     16.40968        -0.001740     -0.187889     -0.123837
 -----------------------------------------------------------------------------------
    total drift:                                0.000021     -0.022134      0.024010


--------------------------------------------------------------------------------------------------------



  FREE ENERGIE OF THE ION-ELECTRON SYSTEM (eV)
  ---------------------------------------------------
  free  energy   TOTEN  =      -104.57147070 eV

  energy  without entropy=     -104.47421588  energy(sigma->0) =     -104.53905243
 


--------------------------------------------------------------------------------------------------------


    POTLOK:  cpu time      2.4395: real time      2.4663


--------------------------------------------------------------------------------------------------------


 writing wavefunctions
     LOOP+:  cpu time    181.3758: real time    183.6843
    4ORBIT:  cpu time      0.0000: real time      0.0000

 total amount of memory used by VASP MPI-rank0   148542. kBytes
=======================================================================

   base      :      30000. kBytes
   nonlr-proj:      22469. kBytes
   fftplans  :       5213. kBytes
   grid      :      24541. kBytes
   one-center:        575. kBytes
   wavefun   :      65744. kBytes
 
  
  
 General timing and accounting informations for this job:
 ========================================================
  
                  Total CPU time used (sec):      194.527
                            User time (sec):      190.955
                          System time (sec):        3.573
                         Elapsed time (sec):      202.243
  
                   Maximum memory used (kb):      626432.
                   Average memory used (kb):          N/A
  
                          Minor page faults:       264492
                          Major page faults:          592
                 Voluntary context switches:         5654
