<?xml version="1.0" encoding="ISO-8859-1"?>
<modeling>
 <generator>
  <i name="program" type="string">vasp </i>
  <i name="version" type="string">6.4.2  </i>
  <i name="subversion" type="string">20Jul23 (build Mar 01 2024 16:46:03) complex                          parallel </i>
  <i name="platform" type="string">LinuxIFC </i>
  <i name="date" type="string">2025 01 14 </i>
  <i name="time" type="string">20:59:17 </i>
 </generator>
 <incar>
  <i type="string" name="ALGO">Fast</i>
  <i type="int" name="ISPIN">     1</i>
  <i type="int" name="IBRION">    -1</i>
  <i name="EDIFF">      0.00001000</i>
  <i type="int" name="ISYM">     0</i>
  <i name="ENCUT">    680.29000000</i>
  <i type="string" name="LREAL">Auto</i>
  <i type="int" name="ISMEAR">     1</i>
  <i name="SIGMA">      0.10000000</i>
  <i type="string" name="GGA">BF</i>
  <i type="logical" name="LUSE_VDW"> T  </i>
  <i name="Zab_VDW">     -1.88670000</i>
 </incar>
 <primitive_cell>
  <structure name="primitive_cell" >
   <crystal>
    <varray name="basis" >
     <v>       8.46831000       0.00000000       0.00000000 </v>
     <v>       4.23415500       7.33377159       0.00000000 </v>
     <v>       0.00000000       0.00000000      24.96566199 </v>
    </varray>
    <i name="volume">   1550.48373159 </i>
    <varray name="rec_basis" >
     <v>       0.11808732      -0.06817774       0.00000000 </v>
     <v>       0.00000000       0.13635549       0.00000000 </v>
     <v>       0.00000000       0.00000000       0.04005502 </v>
    </varray>
   </crystal>
   <varray name="positions" >
    <v>       0.00000000       0.00000000       0.34046764 </v>
    <v>       0.33400137       0.00000000       0.34046764 </v>
    <v>       0.66800274       0.00000000       0.34046764 </v>
    <v>       1.00000000       0.33400137       0.34046764 </v>
    <v>       0.33400137       0.33400137       0.34046764 </v>
    <v>       0.66800274       0.33400137       0.34046764 </v>
    <v>       1.00000000       0.66800274       0.34046764 </v>
    <v>       0.33400137       0.66800274       0.34046764 </v>
    <v>       0.66800274       0.66800274       0.34046764 </v>
    <v>       0.11133379       0.11133379       0.43297074 </v>
    <v>       0.44533516       0.11133379       0.43297074 </v>
    <v>       0.77933653       0.11133379       0.43297074 </v>
    <v>       0.11133379       0.44533516       0.43297074 </v>
    <v>       0.44533516       0.44533516       0.43297074 </v>
    <v>       0.77933653       0.44533516       0.43297074 </v>
    <v>       0.11133379       0.77933653       0.43297074 </v>
    <v>       0.44533516       0.77933653       0.43297074 </v>
    <v>       0.77933653       0.77933653       0.43297074 </v>
    <v>       0.89052696       0.22330017       0.52526020 </v>
    <v>       0.22298003       0.22327764       0.52518039 </v>
    <v>       0.55679492       0.22313223       0.52417633 </v>
    <v>       0.89083220       0.55550399       0.52503591 </v>
    <v>       0.22321005       0.55680128       0.52422495 </v>
    <v>       0.55672122       0.55684470       0.52417362 </v>
    <v>       0.89065457       0.89059253       0.52492059 </v>
    <v>       0.22309642       0.89068507       0.52519197 </v>
    <v>       0.55594924       0.89047935       0.52477435 </v>
    <v>       0.99940274       0.99957663       0.61971714 </v>
    <v>       0.33808379       0.99953797       0.61958663 </v>
    <v>       0.66758537       0.00179279       0.61786505 </v>
    <v>       0.99806971       0.34105946       0.62010757 </v>
    <v>       0.33590493       0.33567395       0.61753737 </v>
    <v>       0.66549245       0.33569229       0.61747988 </v>
    <v>       0.00140905       0.66869702       0.61778415 </v>
    <v>       0.33515033       0.66669500       0.61753173 </v>
    <v>       0.66697838       0.66871279       0.61771823 </v>
    <v>       0.09828235       0.14022705       0.65728992 </v>
   </varray>
  </structure>
  <varray name="primitive_index" >
   <v type="int" >        1 </v>
   <v type="int" >        2 </v>
   <v type="int" >        3 </v>
   <v type="int" >        4 </v>
   <v type="int" >        5 </v>
   <v type="int" >        6 </v>
   <v type="int" >        7 </v>
   <v type="int" >        8 </v>
   <v type="int" >        9 </v>
   <v type="int" >       10 </v>
   <v type="int" >       11 </v>
   <v type="int" >       12 </v>
   <v type="int" >       13 </v>
   <v type="int" >       14 </v>
   <v type="int" >       15 </v>
   <v type="int" >       16 </v>
   <v type="int" >       17 </v>
   <v type="int" >       18 </v>
   <v type="int" >       19 </v>
   <v type="int" >       20 </v>
   <v type="int" >       21 </v>
   <v type="int" >       22 </v>
   <v type="int" >       23 </v>
   <v type="int" >       24 </v>
   <v type="int" >       25 </v>
   <v type="int" >       26 </v>
   <v type="int" >       27 </v>
   <v type="int" >       28 </v>
   <v type="int" >       29 </v>
   <v type="int" >       30 </v>
   <v type="int" >       31 </v>
   <v type="int" >       32 </v>
   <v type="int" >       33 </v>
   <v type="int" >       34 </v>
   <v type="int" >       35 </v>
   <v type="int" >       36 </v>
   <v type="int" >       37 </v>
  </varray>
 </primitive_cell>
 <kpoints>
  <generation param="Monkhorst-Pack">
   <v type="int" name="divisions">       5        5        1 </v>
   <v name="usershift">      0.00000000       0.00000000       0.00000000 </v>
   <v name="genvec1">      0.20000000      -0.00000000       0.00000000 </v>
   <v name="genvec2">      0.00000000       0.20000000       0.00000000 </v>
   <v name="genvec3">      0.00000000       0.00000000       1.00000000 </v>
   <v name="shift">      0.00000000       0.00000000       0.00000000 </v>
  </generation>
  <varray name="kpointlist" >
   <v>       0.00000000       0.00000000       0.00000000 </v>
   <v>       0.20000000       0.00000000       0.00000000 </v>
   <v>       0.20000000       0.20000000       0.00000000 </v>
   <v>       0.00000000       0.20000000       0.00000000 </v>
   <v>       0.40000000       0.00000000       0.00000000 </v>
   <v>       0.40000000       0.40000000       0.00000000 </v>
   <v>       0.00000000       0.40000000       0.00000000 </v>
   <v>       0.40000000       0.20000000       0.00000000 </v>
   <v>       0.20000000       0.40000000       0.00000000 </v>
   <v>      -0.20000000       0.20000000       0.00000000 </v>
   <v>      -0.40000000       0.20000000       0.00000000 </v>
   <v>       0.40000000      -0.40000000       0.00000000 </v>
   <v>      -0.20000000       0.40000000       0.00000000 </v>
  </varray>
  <varray name="weights" >
   <v>       0.04000000 </v>
   <v>       0.08000000 </v>
   <v>       0.08000000 </v>
   <v>       0.08000000 </v>
   <v>       0.08000000 </v>
   <v>       0.08000000 </v>
   <v>       0.08000000 </v>
   <v>       0.08000000 </v>
   <v>       0.08000000 </v>
   <v>       0.08000000 </v>
   <v>       0.08000000 </v>
   <v>       0.08000000 </v>
   <v>       0.08000000 </v>
  </varray>
 </kpoints>
 <parameters>
  <separator name="general" >
   <i type="string" name="SYSTEM">unknown system</i>
   <i type="logical" name="LCOMPAT"> F  </i>
  </separator>
  <separator name="electronic" >
   <i type="string" name="PREC">normal</i>
   <i name="ENMAX">    680.29000000</i>
   <i name="ENAUG">    400.00000000</i>
   <i name="EDIFF">      0.00001000</i>
   <i type="int" name="IALGO">    68</i>
   <i type="int" name="IWAVPR">    10</i>
   <i type="int" name="NBANDS">   240</i>
   <i type="int" name="NBANDSLOW">    -1</i>
   <i type="int" name="NBANDSHIGH">    -1</i>
   <i name="NELECT">    361.00000000</i>
   <i type="int" name="TURBO">     0</i>
   <i type="int" name="IRESTART">     0</i>
   <i type="int" name="NREBOOT">     0</i>
   <i type="int" name="NMIN">     0</i>
   <i name="EREF">      0.00000000</i>
   <separator name="electronic smearing" >
    <i type="int" name="ISMEAR">     1</i>
    <i name="SIGMA">      0.10000000</i>
    <i name="KSPACING">      0.50000000</i>
    <i type="logical" name="KGAMMA"> T  </i>
    <i type="logical" name="KBLOWUP"> T  </i>
   </separator>
   <separator name="electronic projectors" >
    <i type="logical" name="LREAL"> T  </i>
    <v name="ROPT">     -0.00050000     -0.00050000</v>
    <i type="int" name="LMAXPAW">  -100</i>
    <i type="int" name="LMAXMIX">     2</i>
    <i type="logical" name="NLSPLINE"> F  </i>
   </separator>
   <separator name="electronic startup" >
    <i type="int" name="ISTART">     1</i>
    <i type="int" name="ICHARG">     0</i>
    <i type="int" name="INIWAV">     1</i>
   </separator>
   <separator name="electronic spin" >
    <i type="int" name="ISPIN">     1</i>
    <i type="logical" name="LNONCOLLINEAR"> F  </i>
    <v name="MAGMOM">      1.00000000      1.00000000      1.00000000      1.00000000      1.00000000      1.00000000      1.00000000      1.00000000      1.00000000      1.00000000      1.00000000      1.00000000      1.00000000      1.00000000      1.00000000      1.00000000      1.00000000      1.00000000      1.00000000      1.00000000
      1.00000000      1.00000000      1.00000000      1.00000000      1.00000000      1.00000000      1.00000000      1.00000000      1.00000000      1.00000000      1.00000000      1.00000000      1.00000000      1.00000000      1.00000000      1.00000000      1.00000000</v>
    <i name="NUPDOWN">     -1.00000000</i>
    <i type="logical" name="LSORBIT"> F  </i>
    <v name="SAXIS">      0.00000000      0.00000000      1.00000000</v>
    <i type="logical" name="LSPIRAL"> F  </i>
    <v name="QSPIRAL">      0.00000000      0.00000000      0.00000000</v>
    <i type="logical" name="LZEROZ"> F  </i>
   </separator>
   <separator name="electronic exchange-correlation" >
    <i type="logical" name="LASPH"> F  </i>
    <i type="logical" name="LMETAGGA"> F  </i>
   </separator>
   <separator name="electronic convergence" >
    <i type="int" name="NELM">    60</i>
    <i type="int" name="NELMDL">     0</i>
    <i type="int" name="NELMIN">     2</i>
    <i name="ENINI">    680.29000000</i>
    <separator name="electronic convergence detail" >
     <i type="logical" name="LDIAG"> T  </i>
     <i type="logical" name="LSUBROT"> F  </i>
     <i name="WEIMIN">      0.00000000</i>
     <i name="EBREAK">      0.00000001</i>
     <i name="DEPER">      0.30000000</i>
     <i type="int" name="NRMM">     4</i>
     <i name="TIME">      0.40000000</i>
    </separator>
   </separator>
   <separator name="electronic mixer" >
    <i name="AMIX">      0.40000000</i>
    <i name="BMIX">      1.00000000</i>
    <i name="AMIN">      0.10000000</i>
    <i name="AMIX_MAG">      1.60000000</i>
    <i name="BMIX_MAG">      1.00000000</i>
    <separator name="electronic mixer details" >
     <i type="int" name="IMIX">     4</i>
     <i type="logical" name="MIXFIRST"> F  </i>
     <i type="int" name="MAXMIX">   -45</i>
     <i name="WC">    100.00000000</i>
     <i type="int" name="INIMIX">     1</i>
     <i type="int" name="MIXPRE">     1</i>
     <i type="int" name="MREMOVE">     5</i>
    </separator>
   </separator>
   <separator name="electronic dipolcorrection" >
    <i type="logical" name="LDIPOL"> F  </i>
    <i type="logical" name="LMONO"> F  </i>
    <i type="int" name="IDIPOL">     0</i>
    <i name="EPSILON">      1.00000000</i>
    <v name="DIPOL">   -100.00000000   -100.00000000   -100.00000000</v>
    <i name="EFIELD">      0.00000000</i>
   </separator>
  </separator>
  <separator name="grids" >
   <i type="int" name="NGX">    54</i>
   <i type="int" name="NGY">    54</i>
   <i type="int" name="NGZ">   160</i>
   <i type="int" name="NGXF">   108</i>
   <i type="int" name="NGYF">   108</i>
   <i type="int" name="NGZF">   320</i>
   <i type="logical" name="ADDGRID"> F  </i>
  </separator>
  <separator name="ionic" >
   <i type="int" name="NSW">     0</i>
   <i type="int" name="IBRION">    -1</i>
   <i type="int" name="MDALGO">     0</i>
   <i type="int" name="ISIF">     2</i>
   <i name="PSTRESS">      0.00000000</i>
   <i name="EDIFFG">      0.00010000</i>
   <i type="int" name="NFREE">     0</i>
   <i name="POTIM">      0.50000000</i>
   <i name="SMASS">     -3.00000000</i>
   <i name="SCALEE">      1.00000000</i>
  </separator>
  <separator name="ionic md" >
   <i name="TEBEG">      0.00010000</i>
   <i name="TEEND">      0.00010000</i>
   <i type="int" name="NBLOCK">     1</i>
   <i type="int" name="KBLOCK">     1</i>
   <i type="int" name="NPACO">   256</i>
   <i name="APACO">     10.00000000</i>
  </separator>
  <separator name="symmetry" >
   <i type="int" name="ISYM">     0</i>
   <i name="SYMPREC">      0.00001000</i>
  </separator>
  <separator name="dos" >
   <i type="int" name="LORBIT">     0</i>
   <v name="RWIGS">     -1.00000000     -1.00000000</v>
   <i type="int" name="NEDOS">   301</i>
   <i name="EMIN">     10.00000000</i>
   <i name="EMAX">    -10.00000000</i>
   <i name="EFERMI">      0.00000000</i>
  </separator>
  <separator name="writing" >
   <i type="int" name="NWRITE">     2</i>
   <i type="logical" name="LWAVE"> T  </i>
   <i type="logical" name="LDOWNSAMPLE"> F  </i>
   <i type="logical" name="LCHARG"> T  </i>
   <i type="logical" name="LPARD"> F  </i>
   <i type="logical" name="LVTOT"> F  </i>
   <i type="logical" name="LVHAR"> F  </i>
   <i type="logical" name="LELF"> F  </i>
   <i type="logical" name="LOPTICS"> F  </i>
   <v name="STM">      0.00000000      0.00000000      0.00000000      0.00000000      0.00000000      0.00000000      0.00000000</v>
  </separator>
  <separator name="performance" >
   <i type="int" name="NPAR">    48</i>
   <i type="int" name="NSIM">     4</i>
   <i type="int" name="NBLK">    -1</i>
   <i type="logical" name="LPLANE"> T  </i>
   <i type="logical" name="LSCALAPACK"> T  </i>
   <i type="logical" name="LSCAAWARE"> F  </i>
   <i type="logical" name="LSCALU"> F  </i>
   <i type="logical" name="LASYNC"> F  </i>
   <i type="logical" name="LORBITALREAL"> F  </i>
  </separator>
  <separator name="miscellaneous" >
   <i type="int" name="IDIOT">     3</i>
   <i type="int" name="PHON_NSTRUCT">    -1</i>
   <i type="logical" name="LMUSIC"> F  </i>
   <v name="POMASS">    195.08000000      1.00000000</v>
   <v name="DARWINR">      0.00000000      0.00000000</v>
   <v name="DARWINV">      1.00000000      1.00000000</v>
   <i type="logical" name="LCORR"> T  </i>
  </separator>
  <i type="logical" name="GGA_COMPAT"> T  </i>
  <i type="logical" name="LBERRY"> F  </i>
  <i type="int" name="ICORELEVEL">     0</i>
  <i type="logical" name="LDAU"> F  </i>
  <i type="int" name="I_CONSTRAINED_M">     0</i>
  <separator name="electronic exchange-correlation" >
   <i type="string" name="GGA">BF</i>
   <i type="int" name="VOSKOWN">     0</i>
   <i type="logical" name="LHFCALC"> F  </i>
   <i type="string" name="PRECFOCK"></i>
   <i type="logical" name="LSYMGRAD"> F  </i>
   <i type="logical" name="LHFONE"> F  </i>
   <i type="logical" name="LRHFCALC"> F  </i>
   <i type="logical" name="LTHOMAS"> F  </i>
   <i type="logical" name="LMODELHF"> F  </i>
   <i type="logical" name="LFOCKACE"> F  </i>
   <i name="ENCUT4O">     -1.00000000</i>
   <i type="int" name="EXXOEP">     0</i>
   <i type="int" name="FOURORBIT">     0</i>
   <i name="AEXX">      0.00000000</i>
   <i name="HFALPHA">      0.00000000</i>
   <i name="MCALPHA">      0.00000000</i>
   <i name="ALDAX">      1.00000000</i>
   <i name="AGGAX">      1.00000000</i>
   <i name="ALDAC">      1.00000000</i>
   <i name="AGGAC">      1.00000000</i>
   <i type="int" name="NKREDX">     1</i>
   <i type="int" name="NKREDY">     1</i>
   <i type="int" name="NKREDZ">     1</i>
   <i type="logical" name="SHIFTRED"> F  </i>
   <i type="logical" name="ODDONLY"> F  </i>
   <i type="logical" name="EVENONLY"> F  </i>
   <i type="int" name="LMAXFOCK">     0</i>
   <i type="int" name="NMAXFOCKAE">     0</i>
   <i type="logical" name="LFOCKAEDFT"> F  </i>
   <i name="HFSCREEN">      0.00000000</i>
   <i name="HFSCREENC">      0.00000000</i>
   <i type="int" name="NBANDSGWLOW">     0</i>
  </separator>
  <separator name="vdW DFT" >
   <i type="logical" name="LUSE_VDW"> T  </i>
   <i type="int" name="IVDW_NL">     1</i>
   <i type="logical" name="LSPIN_VDW"> F  </i>
   <i name="Zab_VDW">     -1.88670000</i>
   <i name="PARAM1">      0.12340000</i>
   <i name="PARAM2">      1.00000000</i>
   <i name="PARAM3">      0.00000000</i>
  </separator>
  <separator name="model GW" >
   <i type="int" name="MODEL_GW">     0</i>
   <i name="MODEL_EPS0">     25.14297943</i>
   <i name="MODEL_ALPHA">      1.00000000</i>
  </separator>
  <separator name="linear response parameters" >
   <i type="logical" name="LEPSILON"> F  </i>
   <i type="logical" name="LRPA"> F  </i>
   <i type="logical" name="LNABLA"> F  </i>
   <i type="logical" name="LVEL"> F  </i>
   <i name="CSHIFT">      0.10000000</i>
   <i name="OMEGAMAX">     -1.00000000</i>
   <i name="DEG_THRESHOLD">      0.00200000</i>
   <i name="RTIME">     -0.10000000</i>
   <i name="WPLASMAI">      0.00000000</i>
   <v name="DFIELD">      0.00000000      0.00000000      0.00000000</v>
   <v name="WPLASMA">      0.00000000      0.00000000      0.00000000      0.00000000      0.00000000      0.00000000      0.00000000      0.00000000      0.00000000</v>
  </separator>
  <separator name="orbital magnetization" >
   <i type="logical" name="NUCIND"> F  </i>
   <v name="MAGPOS">      0.00000000      0.00000000      0.00000000</v>
   <i type="logical" name="LNICSALL"> T  </i>
   <i type="logical" name="ORBITALMAG"> F  </i>
   <i type="logical" name="LMAGBLOCH"> F  </i>
   <i type="logical" name="LCHIMAG"> F  </i>
   <i type="logical" name="LGAUGE"> T  </i>
   <i type="int" name="MAGATOM">     0</i>
   <v name="MAGDIPOL">      0.00000000      0.00000000      0.00000000</v>
   <v name="AVECCONST">      0.00000000      0.00000000      0.00000000</v>
  </separator>
  <separator name="response functions" >
   <i type="logical" name="LALL_IN_ONE"> F  </i>
   <i type="int" name="IALL_IN_ONE">    -1</i>
   <i type="int" name="NBANDS_WAVE">    -1</i>
   <i type="logical" name="LFINITE_TEMPERATURE"> F  </i>
   <i type="logical" name="LADDER"> F  </i>
   <i type="logical" name="LRPAFORCE"> F  </i>
   <i type="logical" name="LFXC"> F  </i>
   <i type="logical" name="LHARTREE"> T  </i>
   <i type="int" name="IBSE">     0</i>
   <v type="int" name="KPOINT">    -1     0     0     0</v>
   <i type="logical" name="LTCTC"> F  </i>
   <i type="logical" name="LTCTE"> F  </i>
   <i type="logical" name="LTETE"> F  </i>
   <i type="logical" name="LTRIPLET"> F  </i>
   <i type="logical" name="LFXCEPS"> F  </i>
   <i type="logical" name="LFXHEG"> F  </i>
   <i type="int" name="NATURALO">     2</i>
   <i type="logical" name="LHOLEGF"> F  </i>
   <i type="logical" name="L2ORDER"> F  </i>
   <i type="logical" name="LDMP1"> F  </i>
   <i type="logical" name="LMP2LT"> F  </i>
   <i type="logical" name="LSMP2LT"> F  </i>
   <i type="logical" name="LGWLF"> F  </i>
   <i name="ENCUTGW">     -1.60000002</i>
   <i name="ENCUTGWSOFT">     -1.60000002</i>
   <i name="ENCUTLF">     -1.00000000</i>
   <i type="logical" name="LESF_SPLINES"> F  </i>
   <i type="int" name="LMAXMP2">    -1</i>
   <i name="SCISSOR">      0.00000000</i>
   <i type="int" name="NOMEGA">     0</i>
   <i type="int" name="NOMEGAR">     0</i>
   <i type="int" name="NBANDSGW">    -1</i>
   <i type="int" name="NBANDSO">    -1</i>
   <i type="int" name="NBANDSV">    -1</i>
   <i type="int" name="NELMGW">     1</i>
   <i type="int" name="NELMHF">     1</i>
   <i type="int" name="DIM">     3</i>
   <i type="int" name="IESPILON">     4</i>
   <i type="int" name="ANTIRES">     0</i>
   <i name="OMEGAMAX">    -30.00000000</i>
   <i name="OMEGAMIN">    -30.00000000</i>
   <i name="OMEGATL">   -200.00000000</i>
   <i type="int" name="OMEGAGRID">     0</i>
   <i name="CSHIFT">     -0.10000000</i>
   <i type="logical" name="LSELFENERGY"> F  </i>
   <i type="logical" name="LSPECTRAL"> F  </i>
   <i type="logical" name="LSPECTRALGW"> F  </i>
   <i type="logical" name="LSINGLES"> F  </i>
   <i type="logical" name="LFERMIGW"> F  </i>
   <i type="logical" name="ODDONLYGW"> F  </i>
   <i type="logical" name="EVENONLYGW"> F  </i>
   <i type="int" name="NKREDLFX">     1</i>
   <i type="int" name="NKREDLFY">     1</i>
   <i type="int" name="NKREDLFZ">     1</i>
   <i type="int" name="MAXMEM">  2800</i>
   <i type="int" name="TELESCOPE">     0</i>
   <i type="int" name="NTAUPAR">    -1</i>
   <i type="int" name="NOMEGAPAR">    -1</i>
   <i name="DAMP_NEWTON">      0.80000001</i>
   <i name="LAMBDA">      1.00000000</i>
  </separator>
  <separator name="External order field" >
   <i name="OFIELD_KAPPA">      0.00000000</i>
   <v name="OFIELD_K">      0.00000000      0.00000000      0.00000000</v>
   <i name="OFIELD_Q6_NEAR">      0.00000000</i>
   <i name="OFIELD_Q6_FAR">      0.00000000</i>
   <i name="OFIELD_A">      0.00000000</i>
  </separator>
  <separator name="optional k-points parameters" >
   <i type="int" name="KPOINTS_OPT_MODE">     1</i>
   <i type="logical" name="LKPOINTS_OPT"> F  </i>
  </separator>
 </parameters>
 <atominfo>
  <atoms>      37 </atoms>
  <types>       2 </types>
  <array name="atoms" >
   <dimension dim="1">ion</dimension>
   <field type="string">element</field>
   <field type="int">atomtype</field>
   <set>
    <rc><c>Pt</c><c>   1</c></rc>
    <rc><c>Pt</c><c>   1</c></rc>
    <rc><c>Pt</c><c>   1</c></rc>
    <rc><c>Pt</c><c>   1</c></rc>
    <rc><c>Pt</c><c>   1</c></rc>
    <rc><c>Pt</c><c>   1</c></rc>
    <rc><c>Pt</c><c>   1</c></rc>
    <rc><c>Pt</c><c>   1</c></rc>
    <rc><c>Pt</c><c>   1</c></rc>
    <rc><c>Pt</c><c>   1</c></rc>
    <rc><c>Pt</c><c>   1</c></rc>
    <rc><c>Pt</c><c>   1</c></rc>
    <rc><c>Pt</c><c>   1</c></rc>
    <rc><c>Pt</c><c>   1</c></rc>
    <rc><c>Pt</c><c>   1</c></rc>
    <rc><c>Pt</c><c>   1</c></rc>
    <rc><c>Pt</c><c>   1</c></rc>
    <rc><c>Pt</c><c>   1</c></rc>
    <rc><c>Pt</c><c>   1</c></rc>
    <rc><c>Pt</c><c>   1</c></rc>
    <rc><c>Pt</c><c>   1</c></rc>
    <rc><c>Pt</c><c>   1</c></rc>
    <rc><c>Pt</c><c>   1</c></rc>
    <rc><c>Pt</c><c>   1</c></rc>
    <rc><c>Pt</c><c>   1</c></rc>
    <rc><c>Pt</c><c>   1</c></rc>
    <rc><c>Pt</c><c>   1</c></rc>
    <rc><c>Pt</c><c>   1</c></rc>
    <rc><c>Pt</c><c>   1</c></rc>
    <rc><c>Pt</c><c>   1</c></rc>
    <rc><c>Pt</c><c>   1</c></rc>
    <rc><c>Pt</c><c>   1</c></rc>
    <rc><c>Pt</c><c>   1</c></rc>
    <rc><c>Pt</c><c>   1</c></rc>
    <rc><c>Pt</c><c>   1</c></rc>
    <rc><c>Pt</c><c>   1</c></rc>
    <rc><c>H </c><c>   2</c></rc>
   </set>
  </array>
  <array name="atomtypes" >
   <dimension dim="1">type</dimension>
   <field type="int">atomspertype</field>
   <field type="string">element</field>
   <field>mass</field>
   <field>valence</field>
   <field type="string">pseudopotential</field>
   <set>
    <rc><c>  36</c><c>Pt</c><c>    195.08000000</c><c>     10.00000000</c><c>  PAW_PBE Pt 04Feb2005                  </c></rc>
    <rc><c>   1</c><c>H </c><c>      1.00000000</c><c>      1.00000000</c><c>  PAW_PBE H 15Jun2001                   </c></rc>
   </set>
  </array>
 </atominfo>
 <structure name="initialpos" >
  <crystal>
   <varray name="basis" >
    <v>       8.46831000       0.00000000       0.00000000 </v>
    <v>       4.23415500       7.33377159       0.00000000 </v>
    <v>       0.00000000       0.00000000      24.96566199 </v>
   </varray>
   <i name="volume">   1550.48373159 </i>
   <varray name="rec_basis" >
    <v>       0.11808732      -0.06817774       0.00000000 </v>
    <v>       0.00000000       0.13635549       0.00000000 </v>
    <v>       0.00000000       0.00000000       0.04005502 </v>
   </varray>
  </crystal>
  <varray name="positions" >
   <v>       0.00000000       0.00000000       0.34046764 </v>
   <v>       0.33400137       0.00000000       0.34046764 </v>
   <v>       0.66800274       0.00000000       0.34046764 </v>
   <v>       0.00000000       0.33400137       0.34046764 </v>
   <v>       0.33400137       0.33400137       0.34046764 </v>
   <v>       0.66800274       0.33400137       0.34046764 </v>
   <v>       0.00000000       0.66800274       0.34046764 </v>
   <v>       0.33400137       0.66800274       0.34046764 </v>
   <v>       0.66800274       0.66800274       0.34046764 </v>
   <v>       0.11133379       0.11133379       0.43297074 </v>
   <v>       0.44533516       0.11133379       0.43297074 </v>
   <v>       0.77933653       0.11133379       0.43297074 </v>
   <v>       0.11133379       0.44533516       0.43297074 </v>
   <v>       0.44533516       0.44533516       0.43297074 </v>
   <v>       0.77933653       0.44533516       0.43297074 </v>
   <v>       0.11133379       0.77933653       0.43297074 </v>
   <v>       0.44533516       0.77933653       0.43297074 </v>
   <v>       0.77933653       0.77933653       0.43297074 </v>
   <v>       0.89052696       0.22330017       0.52526020 </v>
   <v>       0.22298003       0.22327764       0.52518039 </v>
   <v>       0.55679492       0.22313223       0.52417633 </v>
   <v>       0.89083220       0.55550399       0.52503591 </v>
   <v>       0.22321005       0.55680128       0.52422495 </v>
   <v>       0.55672122       0.55684470       0.52417362 </v>
   <v>       0.89065457       0.89059253       0.52492059 </v>
   <v>       0.22309642       0.89068507       0.52519197 </v>
   <v>       0.55594924       0.89047935       0.52477435 </v>
   <v>       0.99940274       0.99957663       0.61971714 </v>
   <v>       0.33808379       0.99953797       0.61958663 </v>
   <v>       0.66758537       0.00179279       0.61786505 </v>
   <v>       0.99806971       0.34105946       0.62010757 </v>
   <v>       0.33590493       0.33567395       0.61753737 </v>
   <v>       0.66549245       0.33569229       0.61747988 </v>
   <v>       0.00140905       0.66869702       0.61778415 </v>
   <v>       0.33515033       0.66669500       0.61753173 </v>
   <v>       0.66697838       0.66871279       0.61771823 </v>
   <v>       0.09828235       0.14022705       0.65728992 </v>
  </varray>
  <varray name="selective"  type="logical" >
   <v type="logical" >  F  F  F </v>
   <v type="logical" >  F  F  F </v>
   <v type="logical" >  F  F  F </v>
   <v type="logical" >  F  F  F </v>
   <v type="logical" >  F  F  F </v>
   <v type="logical" >  F  F  F </v>
   <v type="logical" >  F  F  F </v>
   <v type="logical" >  F  F  F </v>
   <v type="logical" >  F  F  F </v>
   <v type="logical" >  F  F  F </v>
   <v type="logical" >  F  F  F </v>
   <v type="logical" >  F  F  F </v>
   <v type="logical" >  F  F  F </v>
   <v type="logical" >  F  F  F </v>
   <v type="logical" >  F  F  F </v>
   <v type="logical" >  F  F  F </v>
   <v type="logical" >  F  F  F </v>
   <v type="logical" >  F  F  F </v>
   <v type="logical" >  T  T  T </v>
   <v type="logical" >  T  T  T </v>
   <v type="logical" >  T  T  T </v>
   <v type="logical" >  T  T  T </v>
   <v type="logical" >  T  T  T </v>
   <v type="logical" >  T  T  T </v>
   <v type="logical" >  T  T  T </v>
   <v type="logical" >  T  T  T </v>
   <v type="logical" >  T  T  T </v>
   <v type="logical" >  T  T  T </v>
   <v type="logical" >  T  T  T </v>
   <v type="logical" >  T  T  T </v>
   <v type="logical" >  T  T  T </v>
   <v type="logical" >  T  T  T </v>
   <v type="logical" >  T  T  T </v>
   <v type="logical" >  T  T  T </v>
   <v type="logical" >  T  T  T </v>
   <v type="logical" >  T  T  T </v>
   <v type="logical" >  T  T  T </v>
  </varray>
  <nose>
   <v>      -3.00000000       0.00000000       0.00010000       0.00010000 </v>
  </nose>
 </structure>
 <calculation>
  <scstep>
   <time name="dav">   15.74   15.87</time>
   <time name="total">   19.35   19.53</time>
   <energy>
    <i name="alphaZ">    797.33612757 </i>
    <i name="ewald"> 132214.37569632 </i>
    <i name="hartreedc">-159619.03192552 </i>
    <i name="XCdc">     89.65100852 </i>
    <i name="pawpsdc">  32171.47689752 </i>
    <i name="pawaedc"> -31173.54054176 </i>
    <i name="eentropy">     -0.09572355 </i>
    <i name="bandstr">  -1081.55719834 </i>
    <i name="atom">  26496.80315902 </i>
    <i name="e_fr_energy">   -104.58250023 </i>
    <i name="e_wo_entrp">   -104.48677667 </i>
    <i name="e_0_energy">   -104.55059238 </i>
   </energy>
  </scstep>
  <scstep>
   <time name="diag">    2.68    2.71</time>
   <time name="diis">    8.34    8.40</time>
   <time name="orth">    0.60    0.61</time>
   <time name="total">   14.77   14.89</time>
   <energy>
    <i name="e_fr_energy">   -104.79472623 </i>
    <i name="e_wo_entrp">   -104.70614739 </i>
    <i name="e_0_energy">   -104.76519995 </i>
   </energy>
  </scstep>
  <scstep>
   <time name="diag">    3.19    3.22</time>
   <time name="diis">    8.68    8.76</time>
   <time name="orth">    0.67    0.69</time>
   <time name="total">   15.72   15.91</time>
   <energy>
    <i name="e_fr_energy">   -104.61725745 </i>
    <i name="e_wo_entrp">   -104.51932808 </i>
    <i name="e_0_energy">   -104.58461433 </i>
   </energy>
  </scstep>
  <scstep>
   <time name="diag">    2.89    2.92</time>
   <time name="diis">    8.28    8.36</time>
   <time name="orth">    0.75    0.76</time>
   <time name="total">   15.05   15.22</time>
   <energy>
    <i name="e_fr_energy">   -104.57229270 </i>
    <i name="e_wo_entrp">   -104.47488151 </i>
    <i name="e_0_energy">   -104.53982230 </i>
   </energy>
  </scstep>
  <scstep>
   <time name="diag">    2.95    2.97</time>
   <time name="diis">    8.47    8.54</time>
   <time name="orth">    0.61    0.61</time>
   <time name="total">   15.24   15.39</time>
   <energy>
    <i name="e_fr_energy">   -104.57196665 </i>
    <i name="e_wo_entrp">   -104.47493697 </i>
    <i name="e_0_energy">   -104.53962342 </i>
   </energy>
  </scstep>
  <scstep>
   <time name="diag">    2.71    2.73</time>
   <time name="diis">    8.81    8.89</time>
   <time name="orth">    0.67    0.68</time>
   <time name="total">   15.34   15.49</time>
   <energy>
    <i name="e_fr_energy">   -104.57145729 </i>
    <i name="e_wo_entrp">   -104.47408884 </i>
    <i name="e_0_energy">   -104.53900114 </i>
   </energy>
  </scstep>
  <scstep>
   <time name="diag">    2.83    2.86</time>
   <time name="diis">    8.84    8.91</time>
   <time name="orth">    0.56    0.57</time>
   <time name="total">   15.30   15.45</time>
   <energy>
    <i name="e_fr_energy">   -104.57160644 </i>
    <i name="e_wo_entrp">   -104.47436192 </i>
    <i name="e_0_energy">   -104.53919160 </i>
   </energy>
  </scstep>
  <scstep>
   <time name="diag">    2.69    2.71</time>
   <time name="diis">    8.94    9.01</time>
   <time name="orth">    0.63    0.63</time>
   <time name="total">   15.51   15.65</time>
   <energy>
    <i name="e_fr_energy">   -104.57148715 </i>
    <i name="e_wo_entrp">   -104.47414706 </i>
    <i name="e_0_energy">   -104.53904045 </i>
   </energy>
  </scstep>
  <scstep>
   <time name="diag">    2.79    2.81</time>
   <time name="diis">    8.79    8.86</time>
   <time name="orth">    0.53    0.53</time>
   <time name="total">   15.35   15.52</time>
   <energy>
    <i name="e_fr_energy">   -104.57146988 </i>
    <i name="e_wo_entrp">   -104.47415135 </i>
    <i name="e_0_energy">   -104.53903037 </i>
   </energy>
  </scstep>
  <scstep>
   <time name="diag">    2.75    2.77</time>
   <time name="diis">    6.89    6.94</time>
   <time name="orth">    0.57    0.58</time>
   <time name="total">   12.60   12.71</time>
   <energy>
    <i name="alphaZ">    797.33612757 </i>
    <i name="ewald"> 132214.37569632 </i>
    <i name="hartreedc">-159613.28029957 </i>
    <i name="XCdc">     89.64660684 </i>
    <i name="pawpsdc">  32170.43494719 </i>
    <i name="pawaedc"> -31172.49059837 </i>
    <i name="eentropy">     -0.09725482 </i>
    <i name="bandstr">  -1087.29985488 </i>
    <i name="atom">  26496.80315902 </i>
    <i name="e_fr_energy">   -104.57147070 </i>
    <i name="e_wo_entrp">   -104.47421588 </i>
    <i name="e_0_energy">   -104.53905243 </i>
   </energy>
  </scstep>
  <structure>
   <crystal>
    <varray name="basis" >
     <v>       8.46831000       0.00000000       0.00000000 </v>
     <v>       4.23415500       7.33377159       0.00000000 </v>
     <v>       0.00000000       0.00000000      24.96566199 </v>
    </varray>
    <i name="volume">   1550.48373159 </i>
    <varray name="rec_basis" >
     <v>       0.11808732      -0.06817774       0.00000000 </v>
     <v>       0.00000000       0.13635549       0.00000000 </v>
     <v>       0.00000000       0.00000000       0.04005502 </v>
    </varray>
   </crystal>
   <varray name="positions" >
    <v>       0.00000000       0.00000000       0.34046764 </v>
    <v>       0.33400137       0.00000000       0.34046764 </v>
    <v>       0.66800274       0.00000000       0.34046764 </v>
    <v>       0.00000000       0.33400137       0.34046764 </v>
    <v>       0.33400137       0.33400137       0.34046764 </v>
    <v>       0.66800274       0.33400137       0.34046764 </v>
    <v>       0.00000000       0.66800274       0.34046764 </v>
    <v>       0.33400137       0.66800274       0.34046764 </v>
    <v>       0.66800274       0.66800274       0.34046764 </v>
    <v>       0.11133379       0.11133379       0.43297074 </v>
    <v>       0.44533516       0.11133379       0.43297074 </v>
    <v>       0.77933653       0.11133379       0.43297074 </v>
    <v>       0.11133379       0.44533516       0.43297074 </v>
    <v>       0.44533516       0.44533516       0.43297074 </v>
    <v>       0.77933653       0.44533516       0.43297074 </v>
    <v>       0.11133379       0.77933653       0.43297074 </v>
    <v>       0.44533516       0.77933653       0.43297074 </v>
    <v>       0.77933653       0.77933653       0.43297074 </v>
    <v>       0.89052696       0.22330017       0.52526020 </v>
    <v>       0.22298003       0.22327764       0.52518039 </v>
    <v>       0.55679492       0.22313223       0.52417633 </v>
    <v>       0.89083220       0.55550399       0.52503591 </v>
    <v>       0.22321005       0.55680128       0.52422495 </v>
    <v>       0.55672122       0.55684470       0.52417362 </v>
    <v>       0.89065457       0.89059253       0.52492059 </v>
    <v>       0.22309642       0.89068507       0.52519197 </v>
    <v>       0.55594924       0.89047935       0.52477435 </v>
    <v>       0.99940274       0.99957663       0.61971714 </v>
    <v>       0.33808379       0.99953797       0.61958663 </v>
    <v>       0.66758537       0.00179279       0.61786505 </v>
    <v>       0.99806971       0.34105946       0.62010757 </v>
    <v>       0.33590493       0.33567395       0.61753737 </v>
    <v>       0.66549245       0.33569229       0.61747988 </v>
    <v>       0.00140905       0.66869702       0.61778415 </v>
    <v>       0.33515033       0.66669500       0.61753173 </v>
    <v>       0.66697838       0.66871279       0.61771823 </v>
    <v>       0.09828235       0.14022705       0.65728992 </v>
   </varray>
  </structure>
  <varray name="forces" >
   <v>       0.04883641       0.03042674      -0.12047374 </v>
   <v>       0.02266984       0.04900072      -0.08373213 </v>
   <v>      -0.03404036       0.09628699      -0.14741067 </v>
   <v>       0.05199760      -0.00613766      -0.07991753 </v>
   <v>       0.00178012      -0.00130236      -0.07523737 </v>
   <v>      -0.04836763       0.01214299      -0.08848526 </v>
   <v>       0.05001253      -0.06947300      -0.12560644 </v>
   <v>      -0.01132444      -0.04732256      -0.08519151 </v>
   <v>      -0.07425711      -0.04438811      -0.10360568 </v>
   <v>       0.07384047       0.04540790       0.20079814 </v>
   <v>      -0.00621852       0.04748536       0.07836306 </v>
   <v>      -0.04610451       0.07153102       0.11092513 </v>
   <v>       0.03118377      -0.02706274       0.10865507 </v>
   <v>      -0.00419876      -0.00112813       0.02902666 </v>
   <v>      -0.04013433       0.02213926       0.13039481 </v>
   <v>       0.04739983      -0.07496785       0.12232602 </v>
   <v>      -0.01489470      -0.05073431       0.10922742 </v>
   <v>      -0.07789651      -0.02628214       0.06517785 </v>
   <v>       0.00285919       0.00327952       0.01314336 </v>
   <v>      -0.00008606      -0.00062356       0.01228458 </v>
   <v>       0.00038469      -0.00180456      -0.00354882 </v>
   <v>      -0.00030087       0.01554904      -0.01297760 </v>
   <v>       0.00215816       0.00185348      -0.00061520 </v>
   <v>       0.00225667       0.00196568       0.00238606 </v>
   <v>       0.00407466       0.00649217       0.00378573 </v>
   <v>       0.00124885       0.00303654       0.00061710 </v>
   <v>       0.00155156       0.00478984       0.00391021 </v>
   <v>      -0.00571082       0.02677616       0.02736061 </v>
   <v>       0.01412375       0.02106360       0.02265282 </v>
   <v>       0.00360196       0.00960413      -0.00222149 </v>
   <v>       0.00098965       0.00151668       0.01576314 </v>
   <v>      -0.00301161       0.01112446      -0.00489561 </v>
   <v>       0.00375982       0.01346175      -0.00215631 </v>
   <v>       0.00937653       0.01988592       0.00449446 </v>
   <v>       0.00087036       0.00637068      -0.00074971 </v>
   <v>      -0.00669024       0.01792515      -0.00063003 </v>
   <v>      -0.00173996      -0.18788881      -0.12383713 </v>
  </varray>
  <varray name="stress" >
   <v>     -34.35086857       0.02233076       0.01787269 </v>
   <v>       0.02233087     -34.23344943      -0.41878241 </v>
   <v>       0.01787255      -0.41878234       1.95381200 </v>
  </varray>
  <energy>
   <i name="e_fr_energy">   -104.57147070 </i>
   <i name="e_wo_entrp">   -104.47421588 </i>
   <i name="e_0_energy">   -104.53905243 </i>
  </energy>
  <time name="totalsc">  181.38  183.68</time>
  <eigenvalues>
   <array>
    <dimension dim="1">band</dimension>
    <dimension dim="2">kpoint</dimension>
    <dimension dim="3">spin</dimension>
    <field>eigene</field>
    <field>occ</field>
    <set>
     <set comment="spin 1">
      <set comment="kpoint 1">
       <r>   -8.9009    1.0000 </r>
       <r>   -7.8043    1.0000 </r>
       <r>   -7.0798    1.0000 </r>
       <r>   -6.5014    1.0000 </r>
       <r>   -6.4651    1.0000 </r>
       <r>   -6.4597    1.0000 </r>
       <r>   -6.4521    1.0000 </r>
       <r>   -6.4359    1.0000 </r>
       <r>   -6.4331    1.0000 </r>
       <r>   -6.4279    1.0000 </r>
       <r>   -6.1210    1.0000 </r>
       <r>   -5.9156    1.0000 </r>
       <r>   -5.9115    1.0000 </r>
       <r>   -5.9078    1.0000 </r>
       <r>   -5.9061    1.0000 </r>
       <r>   -5.8994    1.0000 </r>
       <r>   -5.8179    1.0000 </r>
       <r>   -5.4712    1.0000 </r>
       <r>   -5.4667    1.0000 </r>
       <r>   -5.4499    1.0000 </r>
       <r>   -5.4478    1.0000 </r>
       <r>   -5.4393    1.0000 </r>
       <r>   -5.3518    1.0000 </r>
       <r>   -5.2289    1.0000 </r>
       <r>   -5.2241    1.0000 </r>
       <r>   -5.2214    1.0000 </r>
       <r>   -5.2207    1.0000 </r>
       <r>   -5.2178    1.0000 </r>
       <r>   -5.1216    1.0000 </r>
       <r>   -5.0365    1.0000 </r>
       <r>   -5.0317    1.0000 </r>
       <r>   -5.0224    1.0000 </r>
       <r>   -5.0193    1.0000 </r>
       <r>   -5.0092    1.0000 </r>
       <r>   -4.9687    1.0000 </r>
       <r>   -4.9553    1.0000 </r>
       <r>   -4.9521    1.0000 </r>
       <r>   -4.9479    1.0000 </r>
       <r>   -4.9143    1.0000 </r>
       <r>   -4.9117    1.0000 </r>
       <r>   -4.5857    1.0000 </r>
       <r>   -4.3808    1.0000 </r>
       <r>   -4.3769    1.0000 </r>
       <r>   -4.3480    1.0000 </r>
       <r>   -4.3379    1.0000 </r>
       <r>   -4.3229    1.0000 </r>
       <r>   -4.3153    1.0000 </r>
       <r>   -4.2923    1.0000 </r>
       <r>   -4.2904    1.0000 </r>
       <r>   -4.2856    1.0000 </r>
       <r>   -4.1332    1.0000 </r>
       <r>   -4.1328    1.0000 </r>
       <r>   -4.0551    1.0000 </r>
       <r>   -4.0347    1.0000 </r>
       <r>   -4.0285    1.0000 </r>
       <r>   -3.5845    1.0000 </r>
       <r>   -3.5800    1.0000 </r>
       <r>   -3.5692    1.0000 </r>
       <r>   -3.5585    1.0000 </r>
       <r>   -3.5551    1.0000 </r>
       <r>   -3.4996    1.0000 </r>
       <r>   -3.4704    1.0000 </r>
       <r>   -3.3876    1.0000 </r>
       <r>   -3.3731    1.0000 </r>
       <r>   -3.3702    1.0000 </r>
       <r>   -3.3691    1.0000 </r>
       <r>   -3.3645    1.0000 </r>
       <r>   -3.3549    1.0000 </r>
       <r>   -3.3506    1.0000 </r>
       <r>   -3.3148    1.0000 </r>
       <r>   -3.3093    1.0000 </r>
       <r>   -3.3035    1.0000 </r>
       <r>   -3.3011    1.0000 </r>
       <r>   -3.3010    1.0000 </r>
       <r>   -3.2609    1.0000 </r>
       <r>   -3.2578    1.0000 </r>
       <r>   -3.2557    1.0000 </r>
       <r>   -3.1530    1.0000 </r>
       <r>   -3.1508    1.0000 </r>
       <r>   -3.1460    1.0000 </r>
       <r>   -3.1435    1.0000 </r>
       <r>   -3.1364    1.0000 </r>
       <r>   -3.1307    1.0000 </r>
       <r>   -2.9389    1.0000 </r>
       <r>   -2.9359    1.0000 </r>
       <r>   -2.9303    1.0000 </r>
       <r>   -2.9165    1.0000 </r>
       <r>   -2.9129    1.0000 </r>
       <r>   -2.9026    1.0000 </r>
       <r>   -2.8988    1.0000 </r>
       <r>   -2.8928    1.0000 </r>
       <r>   -2.8370    1.0000 </r>
       <r>   -2.8300    1.0000 </r>
       <r>   -2.7640    1.0000 </r>
       <r>   -2.7565    1.0000 </r>
       <r>   -2.7504    1.0000 </r>
       <r>   -2.7269    1.0000 </r>
       <r>   -2.7199    1.0000 </r>
       <r>   -2.6940    1.0000 </r>
       <r>   -2.6888    1.0000 </r>
       <r>   -2.6324    1.0000 </r>
       <r>   -2.5223    1.0000 </r>
       <r>   -2.5186    1.0000 </r>
       <r>   -2.5141    1.0000 </r>
       <r>   -2.5043    1.0000 </r>
       <r>   -2.4999    1.0000 </r>
       <r>   -2.4955    1.0000 </r>
       <r>   -2.2656    1.0000 </r>
       <r>   -2.0229    1.0000 </r>
       <r>   -2.0019    1.0000 </r>
       <r>   -1.9975    1.0000 </r>
       <r>   -1.9875    1.0000 </r>
       <r>   -1.9854    1.0000 </r>
       <r>   -1.9816    1.0000 </r>
       <r>   -1.9755    1.0000 </r>
       <r>   -1.9732    1.0000 </r>
       <r>   -1.9562    1.0000 </r>
       <r>   -1.9538    1.0000 </r>
       <r>   -1.9495    1.0000 </r>
       <r>   -1.8680    1.0000 </r>
       <r>   -1.8641    1.0000 </r>
       <r>   -1.8061    1.0000 </r>
       <r>   -1.7352    1.0000 </r>
       <r>   -1.7303    1.0000 </r>
       <r>   -1.7238    1.0000 </r>
       <r>   -1.7191    1.0000 </r>
       <r>   -1.7113    1.0000 </r>
       <r>   -1.5968    1.0000 </r>
       <r>   -1.5898    1.0000 </r>
       <r>   -1.5381    1.0000 </r>
       <r>   -1.5369    1.0000 </r>
       <r>   -1.5117    1.0000 </r>
       <r>   -1.4990    1.0000 </r>
       <r>   -1.2930    1.0000 </r>
       <r>   -1.2754    1.0000 </r>
       <r>   -1.2723    1.0000 </r>
       <r>   -1.2559    1.0000 </r>
       <r>   -1.2488    1.0000 </r>
       <r>   -1.2459    1.0000 </r>
       <r>   -1.1831    1.0000 </r>
       <r>   -1.1749    1.0000 </r>
       <r>   -1.0532    1.0000 </r>
       <r>   -1.0379    1.0000 </r>
       <r>   -1.0304    1.0000 </r>
       <r>   -1.0252    1.0000 </r>
       <r>   -1.0227    1.0000 </r>
       <r>   -1.0217    1.0000 </r>
       <r>   -0.9066    1.0000 </r>
       <r>   -0.8789    1.0000 </r>
       <r>   -0.8625    1.0000 </r>
       <r>   -0.8447    1.0000 </r>
       <r>   -0.8305    1.0000 </r>
       <r>   -0.8249    1.0000 </r>
       <r>   -0.8221    1.0000 </r>
       <r>   -0.8134    1.0000 </r>
       <r>   -0.8065    1.0000 </r>
       <r>   -0.8044    1.0000 </r>
       <r>   -0.8005    1.0000 </r>
       <r>   -0.7969    1.0000 </r>
       <r>   -0.7286    1.0000 </r>
       <r>   -0.7217    1.0000 </r>
       <r>   -0.6975    1.0000 </r>
       <r>   -0.6750    1.0000 </r>
       <r>   -0.6659    1.0000 </r>
       <r>   -0.6527    1.0000 </r>
       <r>   -0.6478    1.0000 </r>
       <r>   -0.6432    1.0000 </r>
       <r>   -0.6032    1.0000 </r>
       <r>   -0.5936    1.0000 </r>
       <r>   -0.5822    1.0000 </r>
       <r>   -0.5563    1.0000 </r>
       <r>   -0.5487    1.0000 </r>
       <r>   -0.5462    1.0000 </r>
       <r>   -0.5369    1.0000 </r>
       <r>   -0.5349    1.0000 </r>
       <r>   -0.4573    1.0000 </r>
       <r>   -0.4457    1.0000 </r>
       <r>   -0.4424    1.0000 </r>
       <r>   -0.4382    1.0000 </r>
       <r>   -0.4334    1.0000 </r>
       <r>   -0.4291    1.0000 </r>
       <r>   -0.3868    1.0000 </r>
       <r>   -0.3440    1.0005 </r>
       <r>   -0.3369    1.0006 </r>
       <r>   -0.3212    1.0013 </r>
       <r>   -0.3207    1.0013 </r>
       <r>   -0.3127    1.0019 </r>
       <r>   -0.3051    1.0026 </r>
       <r>   -0.1129    0.8032 </r>
       <r>   -0.1075    0.7670 </r>
       <r>   -0.0182    0.1000 </r>
       <r>   -0.0134    0.0775 </r>
       <r>   -0.0101    0.0633 </r>
       <r>    0.0071    0.0073 </r>
       <r>    0.0073    0.0068 </r>
       <r>    0.0115   -0.0027 </r>
       <r>    0.5354   -0.0000 </r>
       <r>    0.8221   -0.0000 </r>
       <r>    0.8495   -0.0000 </r>
       <r>    0.8620   -0.0000 </r>
       <r>    0.8970   -0.0000 </r>
       <r>    0.8992   -0.0000 </r>
       <r>    0.9042   -0.0000 </r>
       <r>    2.8682    0.0000 </r>
       <r>    3.1347    0.0000 </r>
       <r>    3.1457    0.0000 </r>
       <r>    3.2075    0.0000 </r>
       <r>    3.2113    0.0000 </r>
       <r>    3.2170    0.0000 </r>
       <r>    4.6550    0.0000 </r>
       <r>    4.7264    0.0000 </r>
       <r>    4.7751    0.0000 </r>
       <r>    4.8162    0.0000 </r>
       <r>    4.8210    0.0000 </r>
       <r>    4.8234    0.0000 </r>
       <r>    4.9357    0.0000 </r>
       <r>    5.0969    0.0000 </r>
       <r>    5.2186    0.0000 </r>
       <r>    5.4506    0.0000 </r>
       <r>    5.4673    0.0000 </r>
       <r>    5.7939    0.0000 </r>
       <r>    5.8002    0.0000 </r>
       <r>    5.8495    0.0000 </r>
       <r>    5.8631    0.0000 </r>
       <r>    5.8697    0.0000 </r>
       <r>    6.0676    0.0000 </r>
       <r>    6.3780    0.0000 </r>
       <r>    6.5989    0.0000 </r>
       <r>    6.6093    0.0000 </r>
       <r>    6.6251    0.0000 </r>
       <r>    6.8287    0.0000 </r>
       <r>    7.0400    0.0000 </r>
       <r>    7.1450    0.0000 </r>
       <r>    7.1509    0.0000 </r>
       <r>    7.1651    0.0000 </r>
       <r>    7.1761    0.0000 </r>
       <r>    7.1771    0.0000 </r>
       <r>    7.2256    0.0000 </r>
       <r>    7.2777    0.0000 </r>
       <r>    7.4156    0.0000 </r>
      </set>
      <set comment="kpoint 2">
       <r>   -8.7533    1.0000 </r>
       <r>   -7.6852    1.0000 </r>
       <r>   -7.0565    1.0000 </r>
       <r>   -6.8954    1.0000 </r>
       <r>   -6.5610    1.0000 </r>
       <r>   -6.5476    1.0000 </r>
       <r>   -6.3588    1.0000 </r>
       <r>   -6.2659    1.0000 </r>
       <r>   -6.2189    1.0000 </r>
       <r>   -6.2119    1.0000 </r>
       <r>   -6.1147    1.0000 </r>
       <r>   -6.0004    1.0000 </r>
       <r>   -5.9377    1.0000 </r>
       <r>   -5.8434    1.0000 </r>
       <r>   -5.8380    1.0000 </r>
       <r>   -5.8277    1.0000 </r>
       <r>   -5.7545    1.0000 </r>
       <r>   -5.5333    1.0000 </r>
       <r>   -5.4186    1.0000 </r>
       <r>   -5.4140    1.0000 </r>
       <r>   -5.4102    1.0000 </r>
       <r>   -5.3708    1.0000 </r>
       <r>   -5.3359    1.0000 </r>
       <r>   -5.3038    1.0000 </r>
       <r>   -5.2757    1.0000 </r>
       <r>   -5.2430    1.0000 </r>
       <r>   -5.2180    1.0000 </r>
       <r>   -5.2110    1.0000 </r>
       <r>   -5.1390    1.0000 </r>
       <r>   -5.1142    1.0000 </r>
       <r>   -5.1073    1.0000 </r>
       <r>   -5.0342    1.0000 </r>
       <r>   -5.0174    1.0000 </r>
       <r>   -5.0097    1.0000 </r>
       <r>   -5.0070    1.0000 </r>
       <r>   -4.8577    1.0000 </r>
       <r>   -4.8131    1.0000 </r>
       <r>   -4.7784    1.0000 </r>
       <r>   -4.7718    1.0000 </r>
       <r>   -4.7524    1.0000 </r>
       <r>   -4.5800    1.0000 </r>
       <r>   -4.4966    1.0000 </r>
       <r>   -4.4922    1.0000 </r>
       <r>   -4.4445    1.0000 </r>
       <r>   -4.4143    1.0000 </r>
       <r>   -4.4053    1.0000 </r>
       <r>   -4.3886    1.0000 </r>
       <r>   -4.2951    1.0000 </r>
       <r>   -4.2130    1.0000 </r>
       <r>   -4.1442    1.0000 </r>
       <r>   -4.1249    1.0000 </r>
       <r>   -4.1139    1.0000 </r>
       <r>   -4.0666    1.0000 </r>
       <r>   -4.0479    1.0000 </r>
       <r>   -3.9838    1.0000 </r>
       <r>   -3.8292    1.0000 </r>
       <r>   -3.7348    1.0000 </r>
       <r>   -3.7270    1.0000 </r>
       <r>   -3.6809    1.0000 </r>
       <r>   -3.6680    1.0000 </r>
       <r>   -3.6384    1.0000 </r>
       <r>   -3.5823    1.0000 </r>
       <r>   -3.5650    1.0000 </r>
       <r>   -3.5558    1.0000 </r>
       <r>   -3.5268    1.0000 </r>
       <r>   -3.5247    1.0000 </r>
       <r>   -3.4557    1.0000 </r>
       <r>   -3.4384    1.0000 </r>
       <r>   -3.3996    1.0000 </r>
       <r>   -3.3726    1.0000 </r>
       <r>   -3.3637    1.0000 </r>
       <r>   -3.3187    1.0000 </r>
       <r>   -3.2685    1.0000 </r>
       <r>   -3.2619    1.0000 </r>
       <r>   -3.2582    1.0000 </r>
       <r>   -3.1798    1.0000 </r>
       <r>   -3.1750    1.0000 </r>
       <r>   -3.1572    1.0000 </r>
       <r>   -3.1294    1.0000 </r>
       <r>   -3.0904    1.0000 </r>
       <r>   -3.0762    1.0000 </r>
       <r>   -3.0668    1.0000 </r>
       <r>   -3.0293    1.0000 </r>
       <r>   -3.0120    1.0000 </r>
       <r>   -2.9651    1.0000 </r>
       <r>   -2.9499    1.0000 </r>
       <r>   -2.9368    1.0000 </r>
       <r>   -2.9348    1.0000 </r>
       <r>   -2.9147    1.0000 </r>
       <r>   -2.9096    1.0000 </r>
       <r>   -2.8596    1.0000 </r>
       <r>   -2.8302    1.0000 </r>
       <r>   -2.7993    1.0000 </r>
       <r>   -2.7866    1.0000 </r>
       <r>   -2.7744    1.0000 </r>
       <r>   -2.7666    1.0000 </r>
       <r>   -2.7578    1.0000 </r>
       <r>   -2.7307    1.0000 </r>
       <r>   -2.6968    1.0000 </r>
       <r>   -2.6853    1.0000 </r>
       <r>   -2.6139    1.0000 </r>
       <r>   -2.5604    1.0000 </r>
       <r>   -2.5494    1.0000 </r>
       <r>   -2.5247    1.0000 </r>
       <r>   -2.5122    1.0000 </r>
       <r>   -2.5013    1.0000 </r>
       <r>   -2.4968    1.0000 </r>
       <r>   -2.4900    1.0000 </r>
       <r>   -2.4500    1.0000 </r>
       <r>   -2.4367    1.0000 </r>
       <r>   -2.4273    1.0000 </r>
       <r>   -2.4168    1.0000 </r>
       <r>   -2.1856    1.0000 </r>
       <r>   -2.0765    1.0000 </r>
       <r>   -2.0322    1.0000 </r>
       <r>   -2.0049    1.0000 </r>
       <r>   -1.9938    1.0000 </r>
       <r>   -1.9874    1.0000 </r>
       <r>   -1.9840    1.0000 </r>
       <r>   -1.9445    1.0000 </r>
       <r>   -1.9367    1.0000 </r>
       <r>   -1.8968    1.0000 </r>
       <r>   -1.8083    1.0000 </r>
       <r>   -1.7800    1.0000 </r>
       <r>   -1.7064    1.0000 </r>
       <r>   -1.6559    1.0000 </r>
       <r>   -1.6504    1.0000 </r>
       <r>   -1.5990    1.0000 </r>
       <r>   -1.5903    1.0000 </r>
       <r>   -1.5772    1.0000 </r>
       <r>   -1.5410    1.0000 </r>
       <r>   -1.5325    1.0000 </r>
       <r>   -1.5281    1.0000 </r>
       <r>   -1.4448    1.0000 </r>
       <r>   -1.3981    1.0000 </r>
       <r>   -1.3949    1.0000 </r>
       <r>   -1.3832    1.0000 </r>
       <r>   -1.3773    1.0000 </r>
       <r>   -1.2299    1.0000 </r>
       <r>   -1.1980    1.0000 </r>
       <r>   -1.1699    1.0000 </r>
       <r>   -1.1591    1.0000 </r>
       <r>   -1.1513    1.0000 </r>
       <r>   -1.1450    1.0000 </r>
       <r>   -1.1250    1.0000 </r>
       <r>   -1.0573    1.0000 </r>
       <r>   -1.0358    1.0000 </r>
       <r>   -1.0090    1.0000 </r>
       <r>   -0.9896    1.0000 </r>
       <r>   -0.9805    1.0000 </r>
       <r>   -0.9344    1.0000 </r>
       <r>   -0.9191    1.0000 </r>
       <r>   -0.9086    1.0000 </r>
       <r>   -0.8995    1.0000 </r>
       <r>   -0.8187    1.0000 </r>
       <r>   -0.7967    1.0000 </r>
       <r>   -0.7671    1.0000 </r>
       <r>   -0.7620    1.0000 </r>
       <r>   -0.7212    1.0000 </r>
       <r>   -0.6697    1.0000 </r>
       <r>   -0.6552    1.0000 </r>
       <r>   -0.6143    1.0000 </r>
       <r>   -0.6051    1.0000 </r>
       <r>   -0.5953    1.0000 </r>
       <r>   -0.5621    1.0000 </r>
       <r>   -0.5422    1.0000 </r>
       <r>   -0.4821    1.0000 </r>
       <r>   -0.4739    1.0000 </r>
       <r>   -0.4101    1.0000 </r>
       <r>   -0.4068    1.0000 </r>
       <r>   -0.3889    1.0000 </r>
       <r>   -0.3795    1.0001 </r>
       <r>   -0.3591    1.0002 </r>
       <r>   -0.3504    1.0003 </r>
       <r>   -0.3463    1.0004 </r>
       <r>   -0.3356    1.0007 </r>
       <r>   -0.3286    1.0009 </r>
       <r>   -0.2718    1.0086 </r>
       <r>   -0.2682    1.0096 </r>
       <r>   -0.1256    0.8788 </r>
       <r>   -0.1227    0.8629 </r>
       <r>   -0.1040    0.7422 </r>
       <r>   -0.0844    0.5878 </r>
       <r>   -0.0697    0.4640 </r>
       <r>   -0.0677    0.4471 </r>
       <r>   -0.0374    0.2121 </r>
       <r>   -0.0181    0.0995 </r>
       <r>   -0.0053    0.0450 </r>
       <r>    0.0042    0.0149 </r>
       <r>    0.0847   -0.0237 </r>
       <r>    0.1036   -0.0154 </r>
       <r>    0.1292   -0.0072 </r>
       <r>    0.1847   -0.0008 </r>
       <r>    0.2939   -0.0000 </r>
       <r>    0.3026   -0.0000 </r>
       <r>    0.3150   -0.0000 </r>
       <r>    0.3574   -0.0000 </r>
       <r>    0.7017   -0.0000 </r>
       <r>    0.7430   -0.0000 </r>
       <r>    1.2598   -0.0000 </r>
       <r>    1.4590   -0.0000 </r>
       <r>    1.4821   -0.0000 </r>
       <r>    1.6015   -0.0000 </r>
       <r>    2.3933   -0.0000 </r>
       <r>    2.8369    0.0000 </r>
       <r>    2.9033    0.0000 </r>
       <r>    3.5519    0.0000 </r>
       <r>    3.6512    0.0000 </r>
       <r>    3.6746    0.0000 </r>
       <r>    3.7371    0.0000 </r>
       <r>    3.9659    0.0000 </r>
       <r>    4.4374    0.0000 </r>
       <r>    4.6062    0.0000 </r>
       <r>    4.7464    0.0000 </r>
       <r>    4.9635    0.0000 </r>
       <r>    4.9982    0.0000 </r>
       <r>    5.0296    0.0000 </r>
       <r>    5.2340    0.0000 </r>
       <r>    5.3152    0.0000 </r>
       <r>    5.4599    0.0000 </r>
       <r>    5.6317    0.0000 </r>
       <r>    5.7056    0.0000 </r>
       <r>    5.8371    0.0000 </r>
       <r>    5.9002    0.0000 </r>
       <r>    6.0650    0.0000 </r>
       <r>    6.1844    0.0000 </r>
       <r>    6.2268    0.0000 </r>
       <r>    6.3415    0.0000 </r>
       <r>    6.3507    0.0000 </r>
       <r>    6.5689    0.0000 </r>
       <r>    6.6987    0.0000 </r>
       <r>    6.7601    0.0000 </r>
       <r>    6.8030    0.0000 </r>
       <r>    6.8178    0.0000 </r>
       <r>    6.9295    0.0000 </r>
       <r>    7.0675    0.0000 </r>
       <r>    7.2451    0.0000 </r>
       <r>    7.4728    0.0000 </r>
       <r>    7.5988    0.0000 </r>
       <r>    7.6181    0.0000 </r>
      </set>
      <set comment="kpoint 3">
       <r>   -8.7533    1.0000 </r>
       <r>   -7.6852    1.0000 </r>
       <r>   -7.0553    1.0000 </r>
       <r>   -6.8985    1.0000 </r>
       <r>   -6.5600    1.0000 </r>
       <r>   -6.5460    1.0000 </r>
       <r>   -6.3591    1.0000 </r>
       <r>   -6.2683    1.0000 </r>
       <r>   -6.2164    1.0000 </r>
       <r>   -6.2117    1.0000 </r>
       <r>   -6.1145    1.0000 </r>
       <r>   -5.9991    1.0000 </r>
       <r>   -5.9395    1.0000 </r>
       <r>   -5.8428    1.0000 </r>
       <r>   -5.8388    1.0000 </r>
       <r>   -5.8299    1.0000 </r>
       <r>   -5.7536    1.0000 </r>
       <r>   -5.5322    1.0000 </r>
       <r>   -5.4184    1.0000 </r>
       <r>   -5.4132    1.0000 </r>
       <r>   -5.4096    1.0000 </r>
       <r>   -5.3716    1.0000 </r>
       <r>   -5.3357    1.0000 </r>
       <r>   -5.3065    1.0000 </r>
       <r>   -5.2753    1.0000 </r>
       <r>   -5.2420    1.0000 </r>
       <r>   -5.2182    1.0000 </r>
       <r>   -5.2127    1.0000 </r>
       <r>   -5.1386    1.0000 </r>
       <r>   -5.1140    1.0000 </r>
       <r>   -5.1064    1.0000 </r>
       <r>   -5.0366    1.0000 </r>
       <r>   -5.0179    1.0000 </r>
       <r>   -5.0091    1.0000 </r>
       <r>   -5.0070    1.0000 </r>
       <r>   -4.8573    1.0000 </r>
       <r>   -4.8131    1.0000 </r>
       <r>   -4.7771    1.0000 </r>
       <r>   -4.7729    1.0000 </r>
       <r>   -4.7500    1.0000 </r>
       <r>   -4.5814    1.0000 </r>
       <r>   -4.4951    1.0000 </r>
       <r>   -4.4899    1.0000 </r>
       <r>   -4.4444    1.0000 </r>
       <r>   -4.4149    1.0000 </r>
       <r>   -4.4049    1.0000 </r>
       <r>   -4.3887    1.0000 </r>
       <r>   -4.2958    1.0000 </r>
       <r>   -4.2117    1.0000 </r>
       <r>   -4.1459    1.0000 </r>
       <r>   -4.1243    1.0000 </r>
       <r>   -4.1142    1.0000 </r>
       <r>   -4.0667    1.0000 </r>
       <r>   -4.0488    1.0000 </r>
       <r>   -3.9833    1.0000 </r>
       <r>   -3.8264    1.0000 </r>
       <r>   -3.7348    1.0000 </r>
       <r>   -3.7280    1.0000 </r>
       <r>   -3.6784    1.0000 </r>
       <r>   -3.6659    1.0000 </r>
       <r>   -3.6367    1.0000 </r>
       <r>   -3.5792    1.0000 </r>
       <r>   -3.5683    1.0000 </r>
       <r>   -3.5574    1.0000 </r>
       <r>   -3.5279    1.0000 </r>
       <r>   -3.5256    1.0000 </r>
       <r>   -3.4548    1.0000 </r>
       <r>   -3.4390    1.0000 </r>
       <r>   -3.3947    1.0000 </r>
       <r>   -3.3728    1.0000 </r>
       <r>   -3.3623    1.0000 </r>
       <r>   -3.3186    1.0000 </r>
       <r>   -3.2736    1.0000 </r>
       <r>   -3.2659    1.0000 </r>
       <r>   -3.2626    1.0000 </r>
       <r>   -3.1809    1.0000 </r>
       <r>   -3.1724    1.0000 </r>
       <r>   -3.1574    1.0000 </r>
       <r>   -3.1297    1.0000 </r>
       <r>   -3.0891    1.0000 </r>
       <r>   -3.0693    1.0000 </r>
       <r>   -3.0655    1.0000 </r>
       <r>   -3.0338    1.0000 </r>
       <r>   -3.0115    1.0000 </r>
       <r>   -2.9653    1.0000 </r>
       <r>   -2.9492    1.0000 </r>
       <r>   -2.9381    1.0000 </r>
       <r>   -2.9346    1.0000 </r>
       <r>   -2.9140    1.0000 </r>
       <r>   -2.9105    1.0000 </r>
       <r>   -2.8595    1.0000 </r>
       <r>   -2.8302    1.0000 </r>
       <r>   -2.7975    1.0000 </r>
       <r>   -2.7893    1.0000 </r>
       <r>   -2.7723    1.0000 </r>
       <r>   -2.7665    1.0000 </r>
       <r>   -2.7594    1.0000 </r>
       <r>   -2.7314    1.0000 </r>
       <r>   -2.6970    1.0000 </r>
       <r>   -2.6870    1.0000 </r>
       <r>   -2.6142    1.0000 </r>
       <r>   -2.5606    1.0000 </r>
       <r>   -2.5484    1.0000 </r>
       <r>   -2.5259    1.0000 </r>
       <r>   -2.5149    1.0000 </r>
       <r>   -2.5019    1.0000 </r>
       <r>   -2.4953    1.0000 </r>
       <r>   -2.4901    1.0000 </r>
       <r>   -2.4461    1.0000 </r>
       <r>   -2.4328    1.0000 </r>
       <r>   -2.4296    1.0000 </r>
       <r>   -2.4204    1.0000 </r>
       <r>   -2.1823    1.0000 </r>
       <r>   -2.0747    1.0000 </r>
       <r>   -2.0337    1.0000 </r>
       <r>   -2.0026    1.0000 </r>
       <r>   -1.9965    1.0000 </r>
       <r>   -1.9903    1.0000 </r>
       <r>   -1.9834    1.0000 </r>
       <r>   -1.9442    1.0000 </r>
       <r>   -1.9376    1.0000 </r>
       <r>   -1.8969    1.0000 </r>
       <r>   -1.8082    1.0000 </r>
       <r>   -1.7815    1.0000 </r>
       <r>   -1.7075    1.0000 </r>
       <r>   -1.6567    1.0000 </r>
       <r>   -1.6527    1.0000 </r>
       <r>   -1.5974    1.0000 </r>
       <r>   -1.5864    1.0000 </r>
       <r>   -1.5814    1.0000 </r>
       <r>   -1.5424    1.0000 </r>
       <r>   -1.5328    1.0000 </r>
       <r>   -1.5296    1.0000 </r>
       <r>   -1.4470    1.0000 </r>
       <r>   -1.3975    1.0000 </r>
       <r>   -1.3926    1.0000 </r>
       <r>   -1.3801    1.0000 </r>
       <r>   -1.3792    1.0000 </r>
       <r>   -1.2292    1.0000 </r>
       <r>   -1.1983    1.0000 </r>
       <r>   -1.1718    1.0000 </r>
       <r>   -1.1595    1.0000 </r>
       <r>   -1.1511    1.0000 </r>
       <r>   -1.1443    1.0000 </r>
       <r>   -1.1256    1.0000 </r>
       <r>   -1.0555    1.0000 </r>
       <r>   -1.0353    1.0000 </r>
       <r>   -1.0078    1.0000 </r>
       <r>   -0.9903    1.0000 </r>
       <r>   -0.9794    1.0000 </r>
       <r>   -0.9337    1.0000 </r>
       <r>   -0.9173    1.0000 </r>
       <r>   -0.9072    1.0000 </r>
       <r>   -0.9016    1.0000 </r>
       <r>   -0.8186    1.0000 </r>
       <r>   -0.7970    1.0000 </r>
       <r>   -0.7667    1.0000 </r>
       <r>   -0.7615    1.0000 </r>
       <r>   -0.7204    1.0000 </r>
       <r>   -0.6704    1.0000 </r>
       <r>   -0.6550    1.0000 </r>
       <r>   -0.6147    1.0000 </r>
       <r>   -0.6051    1.0000 </r>
       <r>   -0.5982    1.0000 </r>
       <r>   -0.5656    1.0000 </r>
       <r>   -0.5432    1.0000 </r>
       <r>   -0.4818    1.0000 </r>
       <r>   -0.4736    1.0000 </r>
       <r>   -0.4098    1.0000 </r>
       <r>   -0.4064    1.0000 </r>
       <r>   -0.3911    1.0000 </r>
       <r>   -0.3791    1.0001 </r>
       <r>   -0.3567    1.0002 </r>
       <r>   -0.3494    1.0003 </r>
       <r>   -0.3471    1.0004 </r>
       <r>   -0.3369    1.0006 </r>
       <r>   -0.3275    1.0010 </r>
       <r>   -0.2740    1.0080 </r>
       <r>   -0.2707    1.0089 </r>
       <r>   -0.1276    0.8893 </r>
       <r>   -0.1245    0.8727 </r>
       <r>   -0.1004    0.7149 </r>
       <r>   -0.0835    0.5799 </r>
       <r>   -0.0682    0.4513 </r>
       <r>   -0.0671    0.4417 </r>
       <r>   -0.0368    0.2083 </r>
       <r>   -0.0164    0.0912 </r>
       <r>   -0.0023    0.0344 </r>
       <r>    0.0071    0.0073 </r>
       <r>    0.0841   -0.0240 </r>
       <r>    0.1041   -0.0152 </r>
       <r>    0.1284   -0.0074 </r>
       <r>    0.1845   -0.0008 </r>
       <r>    0.2938   -0.0000 </r>
       <r>    0.3052   -0.0000 </r>
       <r>    0.3143   -0.0000 </r>
       <r>    0.3542   -0.0000 </r>
       <r>    0.7058   -0.0000 </r>
       <r>    0.7463   -0.0000 </r>
       <r>    1.2587   -0.0000 </r>
       <r>    1.4588   -0.0000 </r>
       <r>    1.4812   -0.0000 </r>
       <r>    1.5997   -0.0000 </r>
       <r>    2.3903   -0.0000 </r>
       <r>    2.8401    0.0000 </r>
       <r>    2.9056    0.0000 </r>
       <r>    3.5526    0.0000 </r>
       <r>    3.6518    0.0000 </r>
       <r>    3.6724    0.0000 </r>
       <r>    3.7368    0.0000 </r>
       <r>    3.9664    0.0000 </r>
       <r>    4.4357    0.0000 </r>
       <r>    4.6058    0.0000 </r>
       <r>    4.7422    0.0000 </r>
       <r>    4.9650    0.0000 </r>
       <r>    4.9986    0.0000 </r>
       <r>    5.0294    0.0000 </r>
       <r>    5.2338    0.0000 </r>
       <r>    5.3167    0.0000 </r>
       <r>    5.4626    0.0000 </r>
       <r>    5.6287    0.0000 </r>
       <r>    5.7048    0.0000 </r>
       <r>    5.8389    0.0000 </r>
       <r>    5.9021    0.0000 </r>
       <r>    6.0664    0.0000 </r>
       <r>    6.1840    0.0000 </r>
       <r>    6.2262    0.0000 </r>
       <r>    6.3427    0.0000 </r>
       <r>    6.3534    0.0000 </r>
       <r>    6.5693    0.0000 </r>
       <r>    6.6989    0.0000 </r>
       <r>    6.7592    0.0000 </r>
       <r>    6.8021    0.0000 </r>
       <r>    6.8187    0.0000 </r>
       <r>    6.9295    0.0000 </r>
       <r>    7.0672    0.0000 </r>
       <r>    7.2415    0.0000 </r>
       <r>    7.4707    0.0000 </r>
       <r>    7.5956    0.0000 </r>
       <r>    7.6196    0.0000 </r>
      </set>
      <set comment="kpoint 4">
       <r>   -8.7528    1.0000 </r>
       <r>   -7.6806    1.0000 </r>
       <r>   -7.0350    1.0000 </r>
       <r>   -6.9221    1.0000 </r>
       <r>   -6.5604    1.0000 </r>
       <r>   -6.5434    1.0000 </r>
       <r>   -6.3587    1.0000 </r>
       <r>   -6.2636    1.0000 </r>
       <r>   -6.2215    1.0000 </r>
       <r>   -6.2128    1.0000 </r>
       <r>   -6.1000    1.0000 </r>
       <r>   -5.9988    1.0000 </r>
       <r>   -5.9689    1.0000 </r>
       <r>   -5.8436    1.0000 </r>
       <r>   -5.8399    1.0000 </r>
       <r>   -5.8254    1.0000 </r>
       <r>   -5.7373    1.0000 </r>
       <r>   -5.5349    1.0000 </r>
       <r>   -5.4187    1.0000 </r>
       <r>   -5.4169    1.0000 </r>
       <r>   -5.4099    1.0000 </r>
       <r>   -5.3812    1.0000 </r>
       <r>   -5.3365    1.0000 </r>
       <r>   -5.3032    1.0000 </r>
       <r>   -5.2771    1.0000 </r>
       <r>   -5.2313    1.0000 </r>
       <r>   -5.2158    1.0000 </r>
       <r>   -5.2125    1.0000 </r>
       <r>   -5.1512    1.0000 </r>
       <r>   -5.1150    1.0000 </r>
       <r>   -5.1066    1.0000 </r>
       <r>   -5.0356    1.0000 </r>
       <r>   -5.0216    1.0000 </r>
       <r>   -5.0090    1.0000 </r>
       <r>   -5.0073    1.0000 </r>
       <r>   -4.8634    1.0000 </r>
       <r>   -4.8131    1.0000 </r>
       <r>   -4.7784    1.0000 </r>
       <r>   -4.7698    1.0000 </r>
       <r>   -4.7521    1.0000 </r>
       <r>   -4.5872    1.0000 </r>
       <r>   -4.4961    1.0000 </r>
       <r>   -4.4932    1.0000 </r>
       <r>   -4.4405    1.0000 </r>
       <r>   -4.4153    1.0000 </r>
       <r>   -4.3999    1.0000 </r>
       <r>   -4.3855    1.0000 </r>
       <r>   -4.2895    1.0000 </r>
       <r>   -4.2105    1.0000 </r>
       <r>   -4.1504    1.0000 </r>
       <r>   -4.1235    1.0000 </r>
       <r>   -4.1167    1.0000 </r>
       <r>   -4.0687    1.0000 </r>
       <r>   -4.0457    1.0000 </r>
       <r>   -3.9926    1.0000 </r>
       <r>   -3.8312    1.0000 </r>
       <r>   -3.7335    1.0000 </r>
       <r>   -3.7288    1.0000 </r>
       <r>   -3.6817    1.0000 </r>
       <r>   -3.6714    1.0000 </r>
       <r>   -3.6373    1.0000 </r>
       <r>   -3.5840    1.0000 </r>
       <r>   -3.5624    1.0000 </r>
       <r>   -3.5573    1.0000 </r>
       <r>   -3.5257    1.0000 </r>
       <r>   -3.5244    1.0000 </r>
       <r>   -3.4505    1.0000 </r>
       <r>   -3.4376    1.0000 </r>
       <r>   -3.4031    1.0000 </r>
       <r>   -3.3708    1.0000 </r>
       <r>   -3.3609    1.0000 </r>
       <r>   -3.3158    1.0000 </r>
       <r>   -3.2698    1.0000 </r>
       <r>   -3.2598    1.0000 </r>
       <r>   -3.2564    1.0000 </r>
       <r>   -3.1793    1.0000 </r>
       <r>   -3.1751    1.0000 </r>
       <r>   -3.1593    1.0000 </r>
       <r>   -3.1293    1.0000 </r>
       <r>   -3.0909    1.0000 </r>
       <r>   -3.0770    1.0000 </r>
       <r>   -3.0694    1.0000 </r>
       <r>   -3.0278    1.0000 </r>
       <r>   -3.0062    1.0000 </r>
       <r>   -2.9608    1.0000 </r>
       <r>   -2.9516    1.0000 </r>
       <r>   -2.9401    1.0000 </r>
       <r>   -2.9374    1.0000 </r>
       <r>   -2.9185    1.0000 </r>
       <r>   -2.9047    1.0000 </r>
       <r>   -2.8581    1.0000 </r>
       <r>   -2.8333    1.0000 </r>
       <r>   -2.7961    1.0000 </r>
       <r>   -2.7867    1.0000 </r>
       <r>   -2.7731    1.0000 </r>
       <r>   -2.7649    1.0000 </r>
       <r>   -2.7510    1.0000 </r>
       <r>   -2.7293    1.0000 </r>
       <r>   -2.6985    1.0000 </r>
       <r>   -2.6934    1.0000 </r>
       <r>   -2.6107    1.0000 </r>
       <r>   -2.5613    1.0000 </r>
       <r>   -2.5525    1.0000 </r>
       <r>   -2.5209    1.0000 </r>
       <r>   -2.5048    1.0000 </r>
       <r>   -2.5023    1.0000 </r>
       <r>   -2.4944    1.0000 </r>
       <r>   -2.4888    1.0000 </r>
       <r>   -2.4450    1.0000 </r>
       <r>   -2.4386    1.0000 </r>
       <r>   -2.4280    1.0000 </r>
       <r>   -2.4146    1.0000 </r>
       <r>   -2.1906    1.0000 </r>
       <r>   -2.0724    1.0000 </r>
       <r>   -2.0230    1.0000 </r>
       <r>   -2.0193    1.0000 </r>
       <r>   -1.9906    1.0000 </r>
       <r>   -1.9882    1.0000 </r>
       <r>   -1.9828    1.0000 </r>
       <r>   -1.9422    1.0000 </r>
       <r>   -1.9362    1.0000 </r>
       <r>   -1.8793    1.0000 </r>
       <r>   -1.7997    1.0000 </r>
       <r>   -1.7781    1.0000 </r>
       <r>   -1.7076    1.0000 </r>
       <r>   -1.6535    1.0000 </r>
       <r>   -1.6489    1.0000 </r>
       <r>   -1.5978    1.0000 </r>
       <r>   -1.5865    1.0000 </r>
       <r>   -1.5759    1.0000 </r>
       <r>   -1.5399    1.0000 </r>
       <r>   -1.5299    1.0000 </r>
       <r>   -1.5240    1.0000 </r>
       <r>   -1.4439    1.0000 </r>
       <r>   -1.4099    1.0000 </r>
       <r>   -1.3944    1.0000 </r>
       <r>   -1.3846    1.0000 </r>
       <r>   -1.3788    1.0000 </r>
       <r>   -1.2653    1.0000 </r>
       <r>   -1.1994    1.0000 </r>
       <r>   -1.1758    1.0000 </r>
       <r>   -1.1605    1.0000 </r>
       <r>   -1.1466    1.0000 </r>
       <r>   -1.1440    1.0000 </r>
       <r>   -1.1210    1.0000 </r>
       <r>   -1.0645    1.0000 </r>
       <r>   -1.0300    1.0000 </r>
       <r>   -1.0018    1.0000 </r>
       <r>   -0.9881    1.0000 </r>
       <r>   -0.9836    1.0000 </r>
       <r>   -0.9259    1.0000 </r>
       <r>   -0.9211    1.0000 </r>
       <r>   -0.9061    1.0000 </r>
       <r>   -0.8966    1.0000 </r>
       <r>   -0.8126    1.0000 </r>
       <r>   -0.7929    1.0000 </r>
       <r>   -0.7752    1.0000 </r>
       <r>   -0.7611    1.0000 </r>
       <r>   -0.7260    1.0000 </r>
       <r>   -0.6730    1.0000 </r>
       <r>   -0.6412    1.0000 </r>
       <r>   -0.6101    1.0000 </r>
       <r>   -0.6073    1.0000 </r>
       <r>   -0.5864    1.0000 </r>
       <r>   -0.5660    1.0000 </r>
       <r>   -0.5440    1.0000 </r>
       <r>   -0.4790    1.0000 </r>
       <r>   -0.4770    1.0000 </r>
       <r>   -0.4203    1.0000 </r>
       <r>   -0.4036    1.0000 </r>
       <r>   -0.3905    1.0000 </r>
       <r>   -0.3851    1.0000 </r>
       <r>   -0.3566    1.0002 </r>
       <r>   -0.3509    1.0003 </r>
       <r>   -0.3457    1.0004 </r>
       <r>   -0.3372    1.0006 </r>
       <r>   -0.3283    1.0010 </r>
       <r>   -0.2704    1.0090 </r>
       <r>   -0.2692    1.0093 </r>
       <r>   -0.1345    0.9222 </r>
       <r>   -0.1192    0.8426 </r>
       <r>   -0.1010    0.7195 </r>
       <r>   -0.0851    0.5932 </r>
       <r>   -0.0712    0.4768 </r>
       <r>   -0.0682    0.4516 </r>
       <r>   -0.0360    0.2032 </r>
       <r>   -0.0191    0.1042 </r>
       <r>   -0.0049    0.0436 </r>
       <r>    0.0043    0.0144 </r>
       <r>    0.0751   -0.0280 </r>
       <r>    0.1041   -0.0152 </r>
       <r>    0.1307   -0.0069 </r>
       <r>    0.1802   -0.0010 </r>
       <r>    0.2952   -0.0000 </r>
       <r>    0.3031   -0.0000 </r>
       <r>    0.3131   -0.0000 </r>
       <r>    0.3561   -0.0000 </r>
       <r>    0.7017   -0.0000 </r>
       <r>    0.7481   -0.0000 </r>
       <r>    1.2500   -0.0000 </r>
       <r>    1.4648   -0.0000 </r>
       <r>    1.4818   -0.0000 </r>
       <r>    1.5990   -0.0000 </r>
       <r>    2.4065   -0.0000 </r>
       <r>    2.8070    0.0000 </r>
       <r>    2.9070    0.0000 </r>
       <r>    3.5612    0.0000 </r>
       <r>    3.6528    0.0000 </r>
       <r>    3.6618    0.0000 </r>
       <r>    3.7405    0.0000 </r>
       <r>    3.9854    0.0000 </r>
       <r>    4.4327    0.0000 </r>
       <r>    4.6117    0.0000 </r>
       <r>    4.7582    0.0000 </r>
       <r>    4.9760    0.0000 </r>
       <r>    4.9822    0.0000 </r>
       <r>    5.0303    0.0000 </r>
       <r>    5.2196    0.0000 </r>
       <r>    5.2918    0.0000 </r>
       <r>    5.4651    0.0000 </r>
       <r>    5.6617    0.0000 </r>
       <r>    5.7123    0.0000 </r>
       <r>    5.8732    0.0000 </r>
       <r>    5.8788    0.0000 </r>
       <r>    6.0301    0.0000 </r>
       <r>    6.1794    0.0000 </r>
       <r>    6.1981    0.0000 </r>
       <r>    6.3397    0.0000 </r>
       <r>    6.3512    0.0000 </r>
       <r>    6.5181    0.0000 </r>
       <r>    6.7059    0.0000 </r>
       <r>    6.7667    0.0000 </r>
       <r>    6.8040    0.0000 </r>
       <r>    6.8652    0.0000 </r>
       <r>    6.9289    0.0000 </r>
       <r>    7.0770    0.0000 </r>
       <r>    7.2761    0.0000 </r>
       <r>    7.4818    0.0000 </r>
       <r>    7.5597    0.0000 </r>
       <r>    7.6353    0.0000 </r>
      </set>
      <set comment="kpoint 5">
       <r>   -8.3302    1.0000 </r>
       <r>   -7.7076    1.0000 </r>
       <r>   -7.3700    1.0000 </r>
       <r>   -6.8226    1.0000 </r>
       <r>   -6.5918    1.0000 </r>
       <r>   -6.5786    1.0000 </r>
       <r>   -6.3868    1.0000 </r>
       <r>   -6.2218    1.0000 </r>
       <r>   -6.0886    1.0000 </r>
       <r>   -5.9714    1.0000 </r>
       <r>   -5.8781    1.0000 </r>
       <r>   -5.8708    1.0000 </r>
       <r>   -5.8198    1.0000 </r>
       <r>   -5.7112    1.0000 </r>
       <r>   -5.6725    1.0000 </r>
       <r>   -5.6598    1.0000 </r>
       <r>   -5.6519    1.0000 </r>
       <r>   -5.6430    1.0000 </r>
       <r>   -5.5151    1.0000 </r>
       <r>   -5.4820    1.0000 </r>
       <r>   -5.4765    1.0000 </r>
       <r>   -5.4379    1.0000 </r>
       <r>   -5.4294    1.0000 </r>
       <r>   -5.4211    1.0000 </r>
       <r>   -5.3555    1.0000 </r>
       <r>   -5.3102    1.0000 </r>
       <r>   -5.3059    1.0000 </r>
       <r>   -5.1833    1.0000 </r>
       <r>   -5.0626    1.0000 </r>
       <r>   -5.0501    1.0000 </r>
       <r>   -5.0431    1.0000 </r>
       <r>   -5.0262    1.0000 </r>
       <r>   -5.0246    1.0000 </r>
       <r>   -4.9282    1.0000 </r>
       <r>   -4.7987    1.0000 </r>
       <r>   -4.7909    1.0000 </r>
       <r>   -4.7849    1.0000 </r>
       <r>   -4.7452    1.0000 </r>
       <r>   -4.7381    1.0000 </r>
       <r>   -4.6478    1.0000 </r>
       <r>   -4.5410    1.0000 </r>
       <r>   -4.4821    1.0000 </r>
       <r>   -4.4608    1.0000 </r>
       <r>   -4.4518    1.0000 </r>
       <r>   -4.4280    1.0000 </r>
       <r>   -4.3938    1.0000 </r>
       <r>   -4.3460    1.0000 </r>
       <r>   -4.3174    1.0000 </r>
       <r>   -4.3115    1.0000 </r>
       <r>   -4.2818    1.0000 </r>
       <r>   -4.2511    1.0000 </r>
       <r>   -4.1289    1.0000 </r>
       <r>   -4.0934    1.0000 </r>
       <r>   -4.0901    1.0000 </r>
       <r>   -4.0751    1.0000 </r>
       <r>   -4.0114    1.0000 </r>
       <r>   -3.9341    1.0000 </r>
       <r>   -3.9052    1.0000 </r>
       <r>   -3.8716    1.0000 </r>
       <r>   -3.8675    1.0000 </r>
       <r>   -3.8411    1.0000 </r>
       <r>   -3.7152    1.0000 </r>
       <r>   -3.6683    1.0000 </r>
       <r>   -3.6604    1.0000 </r>
       <r>   -3.6540    1.0000 </r>
       <r>   -3.6351    1.0000 </r>
       <r>   -3.5452    1.0000 </r>
       <r>   -3.5391    1.0000 </r>
       <r>   -3.5142    1.0000 </r>
       <r>   -3.4326    1.0000 </r>
       <r>   -3.4015    1.0000 </r>
       <r>   -3.3931    1.0000 </r>
       <r>   -3.3503    1.0000 </r>
       <r>   -3.3000    1.0000 </r>
       <r>   -3.2976    1.0000 </r>
       <r>   -3.2524    1.0000 </r>
       <r>   -3.2479    1.0000 </r>
       <r>   -3.2188    1.0000 </r>
       <r>   -3.1902    1.0000 </r>
       <r>   -3.1669    1.0000 </r>
       <r>   -3.1563    1.0000 </r>
       <r>   -3.1460    1.0000 </r>
       <r>   -3.1336    1.0000 </r>
       <r>   -3.1223    1.0000 </r>
       <r>   -3.1054    1.0000 </r>
       <r>   -3.0971    1.0000 </r>
       <r>   -2.9958    1.0000 </r>
       <r>   -2.9852    1.0000 </r>
       <r>   -2.9790    1.0000 </r>
       <r>   -2.9636    1.0000 </r>
       <r>   -2.9571    1.0000 </r>
       <r>   -2.9521    1.0000 </r>
       <r>   -2.9250    1.0000 </r>
       <r>   -2.8361    1.0000 </r>
       <r>   -2.8140    1.0000 </r>
       <r>   -2.7814    1.0000 </r>
       <r>   -2.7499    1.0000 </r>
       <r>   -2.7366    1.0000 </r>
       <r>   -2.7141    1.0000 </r>
       <r>   -2.6944    1.0000 </r>
       <r>   -2.6673    1.0000 </r>
       <r>   -2.6483    1.0000 </r>
       <r>   -2.5768    1.0000 </r>
       <r>   -2.5425    1.0000 </r>
       <r>   -2.4961    1.0000 </r>
       <r>   -2.4815    1.0000 </r>
       <r>   -2.4542    1.0000 </r>
       <r>   -2.4388    1.0000 </r>
       <r>   -2.4265    1.0000 </r>
       <r>   -2.2852    1.0000 </r>
       <r>   -2.2503    1.0000 </r>
       <r>   -2.2009    1.0000 </r>
       <r>   -2.1722    1.0000 </r>
       <r>   -2.1278    1.0000 </r>
       <r>   -2.0929    1.0000 </r>
       <r>   -2.0726    1.0000 </r>
       <r>   -2.0519    1.0000 </r>
       <r>   -2.0487    1.0000 </r>
       <r>   -2.0440    1.0000 </r>
       <r>   -2.0191    1.0000 </r>
       <r>   -1.9933    1.0000 </r>
       <r>   -1.9440    1.0000 </r>
       <r>   -1.9395    1.0000 </r>
       <r>   -1.9287    1.0000 </r>
       <r>   -1.9119    1.0000 </r>
       <r>   -1.8826    1.0000 </r>
       <r>   -1.8763    1.0000 </r>
       <r>   -1.8524    1.0000 </r>
       <r>   -1.8239    1.0000 </r>
       <r>   -1.7423    1.0000 </r>
       <r>   -1.7081    1.0000 </r>
       <r>   -1.6966    1.0000 </r>
       <r>   -1.6353    1.0000 </r>
       <r>   -1.5962    1.0000 </r>
       <r>   -1.5016    1.0000 </r>
       <r>   -1.4980    1.0000 </r>
       <r>   -1.4027    1.0000 </r>
       <r>   -1.3938    1.0000 </r>
       <r>   -1.3446    1.0000 </r>
       <r>   -1.2973    1.0000 </r>
       <r>   -1.2302    1.0000 </r>
       <r>   -1.2206    1.0000 </r>
       <r>   -1.1776    1.0000 </r>
       <r>   -1.1567    1.0000 </r>
       <r>   -1.1316    1.0000 </r>
       <r>   -1.1247    1.0000 </r>
       <r>   -1.0894    1.0000 </r>
       <r>   -1.0647    1.0000 </r>
       <r>   -1.0320    1.0000 </r>
       <r>   -1.0209    1.0000 </r>
       <r>   -0.9692    1.0000 </r>
       <r>   -0.9225    1.0000 </r>
       <r>   -0.9147    1.0000 </r>
       <r>   -0.8752    1.0000 </r>
       <r>   -0.8575    1.0000 </r>
       <r>   -0.8445    1.0000 </r>
       <r>   -0.8418    1.0000 </r>
       <r>   -0.7746    1.0000 </r>
       <r>   -0.7055    1.0000 </r>
       <r>   -0.6632    1.0000 </r>
       <r>   -0.6037    1.0000 </r>
       <r>   -0.5794    1.0000 </r>
       <r>   -0.5770    1.0000 </r>
       <r>   -0.5443    1.0000 </r>
       <r>   -0.4949    1.0000 </r>
       <r>   -0.4589    1.0000 </r>
       <r>   -0.4495    1.0000 </r>
       <r>   -0.3655    1.0001 </r>
       <r>   -0.3595    1.0002 </r>
       <r>   -0.3509    1.0003 </r>
       <r>   -0.3386    1.0006 </r>
       <r>   -0.2894    1.0047 </r>
       <r>   -0.2605    1.0120 </r>
       <r>   -0.2558    1.0138 </r>
       <r>   -0.2253    1.0271 </r>
       <r>   -0.1192    0.8430 </r>
       <r>   -0.1138    0.8092 </r>
       <r>   -0.0973    0.6914 </r>
       <r>   -0.0871    0.6100 </r>
       <r>   -0.0827    0.5733 </r>
       <r>   -0.0797    0.5483 </r>
       <r>   -0.0530    0.3270 </r>
       <r>   -0.0401    0.2311 </r>
       <r>    0.1319   -0.0066 </r>
       <r>    0.1523   -0.0031 </r>
       <r>    0.1617   -0.0021 </r>
       <r>    0.1654   -0.0018 </r>
       <r>    0.1721   -0.0014 </r>
       <r>    0.3174   -0.0000 </r>
       <r>    0.3686   -0.0000 </r>
       <r>    0.6426   -0.0000 </r>
       <r>    0.7511   -0.0000 </r>
       <r>    0.8043   -0.0000 </r>
       <r>    0.9831   -0.0000 </r>
       <r>    1.2173   -0.0000 </r>
       <r>    1.2231   -0.0000 </r>
       <r>    1.4991   -0.0000 </r>
[...]
       <r>    6.8700    0.0000 </r>
       <r>    6.8793    0.0000 </r>
       <r>    7.1070    0.0000 </r>
       <r>    7.2242    0.0000 </r>
       <r>    7.3426    0.0000 </r>
      </set>
     </set>
    </set>
   </array>
  </eigenvalues>
  <separator name="orbital magnetization" >
   <v name="MAGDIPOLOUT">      0.00000000      0.00000000      0.00000000</v>
  </separator>
  <dos>
   <i name="efermi">     -0.07396965 </i>
   <total>
    <array>
     <dimension dim="1">gridpoints</dimension>
     <dimension dim="2">spin</dimension>
     <field>energy</field>
     <field>total</field>
     <field>integrated</field>
     <set>
      <set comment="spin 1">
       <r>    -9.9009     0.0000     0.0000 </r>
       <r>    -9.8391     0.0000     0.0000 </r>
       <r>    -9.7774     0.0000     0.0000 </r>
       <r>    -9.7156    -0.0000    -0.0000 </r>
       <r>    -9.6538    -0.0000    -0.0000 </r>
       <r>    -9.5920    -0.0000    -0.0000 </r>
       <r>    -9.5302    -0.0000    -0.0000 </r>
       <r>    -9.4684    -0.0000    -0.0000 </r>
       <r>    -9.4066    -0.0000    -0.0000 </r>
       <r>    -9.3448    -0.0000    -0.0000 </r>
       <r>    -9.2831    -0.0000    -0.0000 </r>
       <r>    -9.2213    -0.0000    -0.0000 </r>
       <r>    -9.1595    -0.0010    -0.0001 </r>
       <r>    -9.0977    -0.0105    -0.0007 </r>
       <r>    -9.0359    -0.0336    -0.0028 </r>
       <r>    -8.9741     0.0536     0.0005 </r>
       <r>    -8.9123     0.3329     0.0211 </r>
       <r>    -8.8505     0.6152     0.0591 </r>
       <r>    -8.7888     2.0799     0.1876 </r>
       <r>    -8.7270     3.8148     0.4233 </r>
       <r>    -8.6652     2.2097     0.5599 </r>
       <r>    -8.6034    -0.0395     0.5574 </r>
       <r>    -8.5416     0.2244     0.5713 </r>
       <r>    -8.4798     2.6197     0.7331 </r>
       <r>    -8.4180     3.8157     0.9689 </r>
       <r>    -8.3562     3.5834     1.1903 </r>
       <r>    -8.2945     3.7285     1.4207 </r>
       <r>    -8.2327     1.7861     1.5310 </r>
       <r>    -8.1709    -0.0404     1.5286 </r>
       <r>    -8.1091    -0.3796     1.5051 </r>
       <r>    -8.0473    -0.0443     1.5024 </r>
       <r>    -7.9855     2.6011     1.6631 </r>
       <r>    -7.9237     6.3676     2.0565 </r>
       <r>    -7.8619     5.5174     2.3974 </r>
       <r>    -7.8002     2.0179     2.5221 </r>
       <r>    -7.7384     3.3217     2.7273 </r>
       <r>    -7.6766     7.1953     3.1719 </r>
       <r>    -7.6148     5.1067     3.4874 </r>
       <r>    -7.5530     1.8946     3.6045 </r>
       <r>    -7.4912     2.9584     3.7873 </r>
       <r>    -7.4294     4.4489     4.0622 </r>
       <r>    -7.3677     6.7931     4.4819 </r>
       <r>    -7.3059     6.1163     4.8598 </r>
       <r>    -7.2441     5.6205     5.2071 </r>
       <r>    -7.1823    10.1342     5.8333 </r>
       <r>    -7.1205     8.8901     6.3825 </r>
       <r>    -7.0587     4.8825     6.6842 </r>
       <r>    -6.9969     3.3786     6.8930 </r>
       <r>    -6.9351     2.9275     7.0739 </r>
       <r>    -6.8734     6.0373     7.4469 </r>
       <r>    -6.8116     8.9196     7.9980 </r>
       <r>    -6.7498     6.1450     8.3777 </r>
       <r>    -6.6880     3.4309     8.5897 </r>
       <r>    -6.6262     7.0059     9.0225 </r>
       <r>    -6.5644    13.9105     9.8820 </r>
       <r>    -6.5026    14.6393    10.7866 </r>
       <r>    -6.4408    11.8211    11.5170 </r>
       <r>    -6.3791    11.1004    12.2028 </r>
       <r>    -6.3173     8.3122    12.7164 </r>
       <r>    -6.2555     9.2460    13.2877 </r>
       <r>    -6.1937    18.2879    14.4177 </r>
       <r>    -6.1319    31.4513    16.3609 </r>
       <r>    -6.0701    37.3729    18.6701 </r>
       <r>    -6.0083    31.5341    20.6185 </r>
       <r>    -5.9465    29.5143    22.4421 </r>
       <r>    -5.8848    32.6446    24.4592 </r>
       <r>    -5.8230    35.7607    26.6687 </r>
       <r>    -5.7612    30.7012    28.5657 </r>
       <r>    -5.6994    26.6071    30.2096 </r>
       <r>    -5.6376    33.0351    32.2508 </r>
       <r>    -5.5758    39.7543    34.7071 </r>
       <r>    -5.5140    42.5766    37.3378 </r>
       <r>    -5.4522    51.1987    40.5012 </r>
       <r>    -5.3905    63.6194    44.4321 </r>
       <r>    -5.3287    63.7920    48.3736 </r>
       <r>    -5.2669    53.6365    51.6877 </r>
       <r>    -5.2051    45.9821    54.5288 </r>
       <r>    -5.1433    43.6408    57.2253 </r>
       <r>    -5.0815    50.8072    60.3645 </r>
       <r>    -5.0197    69.8091    64.6778 </r>
       <r>    -4.9579    61.9975    68.5085 </r>
       <r>    -4.8962    31.2457    70.4391 </r>
       <r>    -4.8344    23.5000    71.8911 </r>
       <r>    -4.7726    39.8927    74.3559 </r>
       <r>    -4.7108    39.2561    76.7815 </r>
       <r>    -4.6490    22.8045    78.1905 </r>
       <r>    -4.5872    24.9773    79.7338 </r>
       <r>    -4.5254    42.0429    82.3315 </r>
       <r>    -4.4636    57.2036    85.8659 </r>
       <r>    -4.4019    61.9249    89.6921 </r>
       <r>    -4.3401    53.5636    93.0017 </r>
       <r>    -4.2783    43.9487    95.7171 </r>
       <r>    -4.2165    38.3830    98.0887 </r>
       <r>    -4.1547    46.2180   100.9444 </r>
       <r>    -4.0929    62.5156   104.8071 </r>
       <r>    -4.0311    59.6630   108.4935 </r>
       <r>    -3.9693    49.2321   111.5354 </r>
       <r>    -3.9076    45.4653   114.3446 </r>
       <r>    -3.8458    42.0522   116.9429 </r>
       <r>    -3.7840    36.3286   119.1875 </r>
       <r>    -3.7222    43.3238   121.8644 </r>
       <r>    -3.6604    60.8637   125.6250 </r>
       <r>    -3.5986    61.4440   129.4215 </r>
       <r>    -3.5368    53.9775   132.7566 </r>
       <r>    -3.4750    56.0780   136.2215 </r>
       <r>    -3.4133    69.3397   140.5058 </r>
       <r>    -3.3515    76.7202   145.2462 </r>
       <r>    -3.2897    70.8972   149.6267 </r>
       <r>    -3.2279    64.8541   153.6339 </r>
       <r>    -3.1661    72.3860   158.1064 </r>
       <r>    -3.1043    88.1155   163.5508 </r>
       <r>    -3.0425    85.2460   168.8179 </r>
       <r>    -2.9808    78.4113   173.6628 </r>
       <r>    -2.9190    79.1518   178.5534 </r>
       <r>    -2.8572    74.9216   183.1826 </r>
       <r>    -2.7954    86.7895   188.5450 </r>
       <r>    -2.7336   104.5623   195.0057 </r>
       <r>    -2.6718   102.7322   201.3532 </r>
       <r>    -2.6100    80.9285   206.3536 </r>
       <r>    -2.5482    61.4934   210.1531 </r>
       <r>    -2.4865    63.8929   214.1009 </r>
       <r>    -2.4247    60.4012   217.8329 </r>
       <r>    -2.3629    41.9713   220.4262 </r>
       <r>    -2.3011    27.8826   222.1490 </r>
       <r>    -2.2393    24.0255   223.6334 </r>
       <r>    -2.1775    30.9163   225.5437 </r>
       <r>    -2.1157    45.6684   228.3654 </r>
       <r>    -2.0539    66.7317   232.4886 </r>
       <r>    -1.9922    88.3552   237.9478 </r>
       <r>    -1.9304    92.3840   243.6560 </r>
       <r>    -1.8686    80.2267   248.6130 </r>
       <r>    -1.8068    58.8832   252.2512 </r>
       <r>    -1.7450    42.5384   254.8795 </r>
       <r>    -1.6832    41.6263   257.4515 </r>
       <r>    -1.6214    49.3268   260.4993 </r>
       <r>    -1.5596    59.0652   264.1488 </r>
       <r>    -1.4979    56.8665   267.6624 </r>
       <r>    -1.4361    51.7214   270.8581 </r>
       <r>    -1.3743    59.1180   274.5109 </r>
       <r>    -1.3125    60.4910   278.2484 </r>
       <r>    -1.2507    50.3395   281.3588 </r>
       <r>    -1.1889    56.1675   284.8292 </r>
       <r>    -1.1271    76.3713   289.5480 </r>
       <r>    -1.0653    86.0450   294.8645 </r>
       <r>    -1.0036    84.7187   300.0990 </r>
       <r>    -0.9418    69.2464   304.3776 </r>
       <r>    -0.8800    56.9554   307.8967 </r>
       <r>    -0.8182    56.7942   311.4059 </r>
       <r>    -0.7564    50.4400   314.5224 </r>
       <r>    -0.6946    42.5705   317.1527 </r>
       <r>    -0.6328    52.4609   320.3942 </r>
       <r>    -0.5710    63.2735   324.3037 </r>
       <r>    -0.5093    59.5092   327.9806 </r>
       <r>    -0.4475    59.5213   331.6582 </r>
       <r>    -0.3857    71.1780   336.0561 </r>
       <r>    -0.3239    91.1115   341.6857 </r>
       <r>    -0.2621    94.1637   347.5038 </r>
       <r>    -0.2003    67.6663   351.6847 </r>
       <r>    -0.1385    57.0464   355.2094 </r>
       <r>    -0.0767    89.0961   360.7145 </r>
       <r>    -0.0150    93.9957   366.5222 </r>
       <r>     0.0468    50.7215   369.6561 </r>
       <r>     0.1086    33.3250   371.7152 </r>
       <r>     0.1704    53.8131   375.0402 </r>
       <r>     0.2322    54.7040   378.4202 </r>
       <r>     0.2940    42.4914   381.0456 </r>
       <r>     0.3558    37.8752   383.3858 </r>
       <r>     0.4176    25.6814   384.9726 </r>
       <r>     0.4793    11.3470   385.6737 </r>
       <r>     0.5411     2.6762   385.8391 </r>
       <r>     0.6029     1.2700   385.9175 </r>
       <r>     0.6647     5.4918   386.2569 </r>
       <r>     0.7265    12.9020   387.0540 </r>
       <r>     0.7883    17.0019   388.1045 </r>
       <r>     0.8501    11.4789   388.8138 </r>
       <r>     0.9119     7.5575   389.2807 </r>
       <r>     0.9736    10.9671   389.9584 </r>
       <r>     1.0354     9.0891   390.5200 </r>
       <r>     1.0972     1.7290   390.6268 </r>
       <r>     1.1590     2.4163   390.7761 </r>
       <r>     1.2208    11.4799   391.4854 </r>
       <r>     1.2826    15.3441   392.4335 </r>
       <r>     1.3444    13.0028   393.2369 </r>
       <r>     1.4061    10.5196   393.8869 </r>
       <r>     1.4679    15.7939   394.8627 </r>
       <r>     1.5297    27.1666   396.5413 </r>
       <r>     1.5915    25.2177   398.0994 </r>
       <r>     1.6533    17.4353   399.1767 </r>
       <r>     1.7151    15.0366   400.1058 </r>
       <r>     1.7769     9.1247   400.6696 </r>
       <r>     1.8387     1.8891   400.7863 </r>
       <r>     1.9004     1.9999   400.9098 </r>
       <r>     1.9622     4.3824   401.1806 </r>
       <r>     2.0240     6.1839   401.5627 </r>
       <r>     2.0858     6.2846   401.9510 </r>
       <r>     2.1476     5.4675   402.2888 </r>
       <r>     2.2094     9.4955   402.8755 </r>
       <r>     2.2712    11.3378   403.5761 </r>
       <r>     2.3330    10.7523   404.2404 </r>
       <r>     2.3947    15.3382   405.1881 </r>
       <r>     2.4565    21.6909   406.5284 </r>
       <r>     2.5183    20.0957   407.7700 </r>
       <r>     2.5801    10.8033   408.4375 </r>
       <r>     2.6419     6.1886   408.8199 </r>
       <r>     2.7037     6.3894   409.2147 </r>
       <r>     2.7655    11.3799   409.9178 </r>
       <r>     2.8273    19.5439   411.1254 </r>
       <r>     2.8890    18.9739   412.2977 </r>
       <r>     2.9508    12.1063   413.0458 </r>
       <r>     3.0126     7.7955   413.5274 </r>
       <r>     3.0744    11.9605   414.2664 </r>
       <r>     3.1362    14.0116   415.1322 </r>
       <r>     3.1980    10.6323   415.7891 </r>
       <r>     3.2598     9.7796   416.3934 </r>
       <r>     3.3216     7.7871   416.8745 </r>
       <r>     3.3833     2.5398   417.0314 </r>
       <r>     3.4451    -0.2442   417.0163 </r>
       <r>     3.5069     3.7033   417.2452 </r>
       <r>     3.5687    13.1215   418.0559 </r>
       <r>     3.6305    22.5246   419.4476 </r>
       <r>     3.6923    26.1539   421.0636 </r>
       <r>     3.7541    20.1153   422.3065 </r>
       <r>     3.8159    10.0403   422.9268 </r>
       <r>     3.8776     4.3860   423.1978 </r>
       <r>     3.9394     3.2482   423.3985 </r>
       <r>     4.0012     3.3980   423.6085 </r>
       <r>     4.0630     3.7703   423.8415 </r>
       <r>     4.1248     7.1156   424.2811 </r>
       <r>     4.1866     9.5854   424.8734 </r>
       <r>     4.2484     7.6931   425.3487 </r>
       <r>     4.3102     5.8023   425.7072 </r>
       <r>     4.3719    13.6508   426.5507 </r>
       <r>     4.4337    25.1475   428.1045 </r>
       <r>     4.4955    19.2600   429.2945 </r>
       <r>     4.5573     6.8634   429.7186 </r>
       <r>     4.6191     7.8869   430.2059 </r>
       <r>     4.6809    13.7439   431.0551 </r>
       <r>     4.7427    15.5691   432.0170 </r>
       <r>     4.8045    11.8664   432.7502 </r>
       <r>     4.8662     6.8723   433.1748 </r>
       <r>     4.9280     5.5619   433.5185 </r>
       <r>     4.9898     9.1327   434.0828 </r>
       <r>     5.0516     9.3948   434.6633 </r>
       <r>     5.1134     4.9500   434.9691 </r>
       <r>     5.1752     6.5325   435.3727 </r>
       <r>     5.2370    12.6252   436.1528 </r>
       <r>     5.2988    15.0912   437.0853 </r>
       <r>     5.3605    11.9674   437.8247 </r>
       <r>     5.4223    10.2209   438.4562 </r>
       <r>     5.4841    15.6914   439.4258 </r>
       <r>     5.5459    22.7037   440.8286 </r>
       <r>     5.6077    26.6475   442.4750 </r>
       <r>     5.6695    24.6670   443.9991 </r>
       <r>     5.7313    21.6436   445.3364 </r>
       <r>     5.7930    20.2101   446.5852 </r>
       <r>     5.8548    17.1310   447.6437 </r>
       <r>     5.9166    15.4849   448.6004 </r>
       <r>     5.9784    24.6485   450.1234 </r>
       <r>     6.0402    35.6029   452.3232 </r>
       <r>     6.1020    26.5974   453.9666 </r>
       <r>     6.1638    12.4510   454.7359 </r>
       <r>     6.2256    13.6405   455.5787 </r>
       <r>     6.2873    22.5354   456.9711 </r>
       <r>     6.3491    30.4556   458.8529 </r>
       <r>     6.4109    26.1426   460.4682 </r>
       <r>     6.4727    17.5124   461.5502 </r>
       <r>     6.5345    18.0885   462.6678 </r>
       <r>     6.5963    22.0762   464.0319 </r>
       <r>     6.6581    23.2249   465.4669 </r>
       <r>     6.7199    25.1236   467.0192 </r>
       <r>     6.7816    26.3750   468.6488 </r>
       <r>     6.8434    22.6371   470.0475 </r>
       <r>     6.9052    16.9461   471.0946 </r>
       <r>     6.9670    10.4849   471.7424 </r>
       <r>     7.0288     9.9072   472.3545 </r>
       <r>     7.0906    20.4016   473.6151 </r>
       <r>     7.1524    26.5011   475.2525 </r>
       <r>     7.2142    22.2317   476.6262 </r>
       <r>     7.2759    16.5113   477.6464 </r>
       <r>     7.3377     9.6386   478.2419 </r>
       <r>     7.3995     4.4275   478.5155 </r>
       <r>     7.4613     3.5379   478.7341 </r>
       <r>     7.5231     4.5039   479.0124 </r>
       <r>     7.5849     6.1393   479.3917 </r>
       <r>     7.6467     6.8478   479.8148 </r>
       <r>     7.7085     3.2399   480.0150 </r>
       <r>     7.7702     0.0888   480.0205 </r>
       <r>     7.8320    -0.2693   480.0038 </r>
       <r>     7.8938    -0.0575   480.0003 </r>
       <r>     7.9556    -0.0043   480.0000 </r>
       <r>     8.0174    -0.0001   480.0000 </r>
       <r>     8.0792    -0.0000   480.0000 </r>
       <r>     8.1410    -0.0000   480.0000 </r>
       <r>     8.2028    -0.0000   480.0000 </r>
       <r>     8.2645    -0.0000   480.0000 </r>
       <r>     8.3263     0.0000   480.0000 </r>
       <r>     8.3881     0.0000   480.0000 </r>
       <r>     8.4499     0.0000   480.0000 </r>
       <r>     8.5117     0.0000   480.0000 </r>
       <r>     8.5735     0.0000   480.0000 </r>
       <r>     8.6353     0.0000   480.0000 </r>
      </set>
     </set>
    </array>
   </total>
  </dos>
 </calculation>
 <structure name="finalpos" >
  <crystal>
   <varray name="basis" >
    <v>       8.46831000       0.00000000       0.00000000 </v>
    <v>       4.23415500       7.33377159       0.00000000 </v>
    <v>       0.00000000       0.00000000      24.96566199 </v>
   </varray>
   <i name="volume">   1550.48373159 </i>
   <varray name="rec_basis" >
    <v>       0.11808732      -0.06817774       0.00000000 </v>
    <v>       0.00000000       0.13635549       0.00000000 </v>
    <v>       0.00000000       0.00000000       0.04005502 </v>
   </varray>
  </crystal>
  <varray name="positions" >
   <v>       0.00000000       0.00000000       0.34046764 </v>
   <v>       0.33400137       0.00000000       0.34046764 </v>
   <v>       0.66800274       0.00000000       0.34046764 </v>
   <v>       0.00000000       0.33400137       0.34046764 </v>
   <v>       0.33400137       0.33400137       0.34046764 </v>
   <v>       0.66800274       0.33400137       0.34046764 </v>
   <v>       0.00000000       0.66800274       0.34046764 </v>
   <v>       0.33400137       0.66800274       0.34046764 </v>
   <v>       0.66800274       0.66800274       0.34046764 </v>
   <v>       0.11133379       0.11133379       0.43297074 </v>
   <v>       0.44533516       0.11133379       0.43297074 </v>
   <v>       0.77933653       0.11133379       0.43297074 </v>
   <v>       0.11133379       0.44533516       0.43297074 </v>
   <v>       0.44533516       0.44533516       0.43297074 </v>
   <v>       0.77933653       0.44533516       0.43297074 </v>
   <v>       0.11133379       0.77933653       0.43297074 </v>
   <v>       0.44533516       0.77933653       0.43297074 </v>
   <v>       0.77933653       0.77933653       0.43297074 </v>
   <v>       0.89052696       0.22330017       0.52526020 </v>
   <v>       0.22298003       0.22327764       0.52518039 </v>
   <v>       0.55679492       0.22313223       0.52417633 </v>
   <v>       0.89083220       0.55550399       0.52503591 </v>
   <v>       0.22321005       0.55680128       0.52422495 </v>
   <v>       0.55672122       0.55684470       0.52417362 </v>
   <v>       0.89065457       0.89059253       0.52492059 </v>
   <v>       0.22309642       0.89068507       0.52519197 </v>
   <v>       0.55594924       0.89047935       0.52477435 </v>
   <v>       0.99940274       0.99957663       0.61971714 </v>
   <v>       0.33808379       0.99953797       0.61958663 </v>
   <v>       0.66758537       0.00179279       0.61786505 </v>
   <v>       0.99806971       0.34105946       0.62010757 </v>
   <v>       0.33590493       0.33567395       0.61753737 </v>
   <v>       0.66549245       0.33569229       0.61747988 </v>
   <v>       0.00140905       0.66869702       0.61778415 </v>
   <v>       0.33515033       0.66669500       0.61753173 </v>
   <v>       0.66697838       0.66871279       0.61771823 </v>
   <v>       0.09828235       0.14022705       0.65728992 </v>
  </varray>
  <varray name="selective"  type="logical" >
   <v type="logical" >  F  F  F </v>
   <v type="logical" >  F  F  F </v>
   <v type="logical" >  F  F  F </v>
   <v type="logical" >  F  F  F </v>
   <v type="logical" >  F  F  F </v>
   <v type="logical" >  F  F  F </v>
   <v type="logical" >  F  F  F </v>
   <v type="logical" >  F  F  F </v>
   <v type="logical" >  F  F  F </v>
   <v type="logical" >  F  F  F </v>
   <v type="logical" >  F  F  F </v>
   <v type="logical" >  F  F  F </v>
   <v type="logical" >  F  F  F </v>
   <v type="logical" >  F  F  F </v>
   <v type="logical" >  F  F  F </v>
   <v type="logical" >  F  F  F </v>
   <v type="logical" >  F  F  F </v>
   <v type="logical" >  F  F  F </v>
   <v type="logical" >  T  T  T </v>
   <v type="logical" >  T  T  T </v>
   <v type="logical" >  T  T  T </v>
   <v type="logical" >  T  T  T </v>
   <v type="logical" >  T  T  T </v>
   <v type="logical" >  T  T  T </v>
   <v type="logical" >  T  T  T </v>
   <v type="logical" >  T  T  T </v>
   <v type="logical" >  T  T  T </v>
   <v type="logical" >  T  T  T </v>
   <v type="logical" >  T  T  T </v>
   <v type="logical" >  T  T  T </v>
   <v type="logical" >  T  T  T </v>
   <v type="logical" >  T  T  T </v>
   <v type="logical" >  T  T  T </v>
   <v type="logical" >  T  T  T </v>
   <v type="logical" >  T  T  T </v>
   <v type="logical" >  T  T  T </v>
   <v type="logical" >  T  T  T </v>
  </varray>
  <nose>
   <v>      -3.00000000       0.00000000       0.00010000       0.00010000 </v>
  </nose>
 </structure>
</modeling>
