unknown system                          
           1
     8.468310    0.000000    0.000000
     4.234155    7.333772    0.000000
     0.000000    0.000000   24.965662
   Pt   H 
    36     1
Direct configuration=     1
   0.00000000  0.00000000  0.34046764
   0.33400137  0.00000000  0.34046764
   0.66800274  0.00000000  0.34046764
   0.00000000  0.33400137  0.34046764
   0.33400137  0.33400137  0.34046764
   0.66800274  0.33400137  0.34046764
   0.00000000  0.66800274  0.34046764
   0.33400137  0.66800274  0.34046764
   0.66800274  0.66800274  0.34046764
   0.11133379  0.11133379  0.43297074
   0.44533516  0.11133379  0.43297074
   0.77933653  0.11133379  0.43297074
   0.11133379  0.44533516  0.43297074
   0.44533516  0.44533516  0.43297074
   0.77933653  0.44533516  0.43297074
   0.11133379  0.77933653  0.43297074
   0.44533516  0.77933653  0.43297074
   0.77933653  0.77933653  0.43297074
   0.89052696  0.22330017  0.52526020
   0.22298003  0.22327764  0.52518039
   0.55679492  0.22313223  0.52417633
   0.89083220  0.55550399  0.52503591
   0.22321005  0.55680128  0.52422495
   0.55672122  0.55684470  0.52417362
   0.89065457  0.89059253  0.52492059
   0.22309642  0.89068507  0.52519197
   0.55594924  0.89047935  0.52477435
   0.99940274  0.99957663  0.61971714
   0.33808379  0.99953797  0.61958663
   0.66758537  0.00179279  0.61786505
   0.99806971  0.34105946  0.62010757
   0.33590493  0.33567395  0.61753737
   0.66549245  0.33569229  0.61747988
   0.00140905  0.66869702  0.61778415
   0.33515033  0.66669500  0.61753173
   0.66697838  0.66871279  0.61771823
   0.09828235  0.14022705  0.65728992
