
     Program PWSCF v.7.1 starts on 17Dec2025 at 10:24:56 
        Git branch: heads/qe-7.1
        Last git commit: 48ba0178f8fede6d020eb786884699a9f063f55d-dirty
        Last git commit date: Fri Jan 27 14:22:33 2023 +0000
        Last git commit subject: Merge branch 'fix_hubbard' into 'develop'

     This program is part of the open-source Quantum ESPRESSO suite
     for quantum simulation of materials; please cite
         "P. Giannozzi et al., J. Phys.:Condens. Matter 21 395502 (2009);
         "P. Giannozzi et al., J. Phys.:Condens. Matter 29 465901 (2017);
         "P. Giannozzi et al., J. Chem. Phys. 152 154105 (2020);
          URL http://www.quantum-espresso.org", 
     in publications or presentations arising from this work. More details at
     http://www.quantum-espresso.org/quote

     Parallel version (MPI), running on    96 processors

     MPI processes distributed on     2 nodes
     48982 MiB available memory on the printing compute node when the environment starts

     Reading input from espresso.pwi
Warning: card &CELL ignored
Warning: card / ignored
Warning: card &FCP ignored
Warning: card / ignored
Warning: card &RISM ignored
Warning: card / ignored

     Current dimensions of program PWSCF are:
     Max number of different atomic species (ntypx) = 10
     Max number of k-points (npk) =  40000
     Max angular momentum in pseudopotentials (lmaxx) =  4
     file Co.pbe-n-kjpaw_psl.1.0.0.UPF: wavefunction(s)  4S 3D renormalized
     file C.pbe-n-kjpaw_psl.1.0.0.UPF: wavefunction(s)  2S 2P renormalized
     file O.pbe-nl-kjpaw_psl.1.0.0.UPF: wavefunction(s)  2S 2P renormalized
     file H.pbe-kjpaw_psl.1.0.0.UPF: wavefunction(s)  1S renormalized

     **************************************************************************
     Initializing libbeef V0.1.2 with the BEEF-vdW functional.
     Citation: Wellendorff et al., PRB 85, 235149 (2012).
     **************************************************************************


     IMPORTANT: XC functional enforced from input :
     Exchange-correlation= BEEF-VDW
                           (   1   4  43  14   2   0   0)
     Any further DFT definition will be discarded
     Please, verify this is what you really want


     R & G space division:  proc/nbgrp/npool/nimage =      96
     Subspace diagonalization in iterative solution of the eigenvalue problem:
     one sub-group per band group will be used
     custom distributed-memory algorithm (size of sub-group:  2*  2 procs)


     Parallelization info
     --------------------
     sticks:   dense  smooth     PW     G-vecs:    dense   smooth      PW
     Min          43      28      7                 7829     4248     595
     Max          44      29      8                 7845     4281     630
     Sum        4153    2773    757               752179   409445   59217

     Using Slab Decomposition



     bravais-lattice index     =            0
     lattice parameter (alat)  =      14.1729  a.u.
     unit-cell volume          =    8574.3059 (a.u.)^3
     number of atoms/cell      =           39
     number of atomic types    =            4
     number of electrons       =       335.00
     number of Kohn-Sham states=          202
     kinetic-energy cutoff     =      50.0000  Ry
     charge density cutoff     =     300.0000  Ry
     scf convergence threshold =      1.0E-08
     mixing beta               =       0.7000
     number of iterations used =            8  local-TF  mixing
     Exchange-correlation= BEEF-VDW
                           (   1   4  43  14   2   0   0)

     celldm(1)=  14.172946  celldm(2)=   0.000000  celldm(3)=   0.000000
     celldm(4)=   0.000000  celldm(5)=   0.000000  celldm(6)=   0.000000

     crystal axes: (cart. coord. in units of alat)
               a(1) = (   1.000000   0.000000   0.000000 )  
               a(2) = (   0.500000   0.866025   0.000000 )  
               a(3) = (   0.000000   0.000000   3.477667 )  

     reciprocal axes: (cart. coord. in units 2 pi/alat)
               b(1) = (  1.000000 -0.577350  0.000000 )  
               b(2) = (  0.000000  1.154701  0.000000 )  
               b(3) = (  0.000000  0.000000  0.287549 )  


     PseudoPot. # 1 for Co read from file:
     /users/kbadger1/espresso/pseudo/pslibrary.1.0.0/pbe/PSEUDOPOTENTIALS/Co.pbe-n-kjpaw_psl.1.0.0.UPF
     MD5 check sum: 88af6ec42553d4236c267fdfcb472151
     Pseudo is Projector augmented-wave + core cor, Zval =  9.0
     Generated using 'atomic' code by A. Dal Corso  v.7.0
     Shape of augmentation charge: PSQ
     Using radial grid of 1193 points,  6 beta functions with: 
                l(1) =   0
                l(2) =   0
                l(3) =   1
                l(4) =   1
                l(5) =   2
                l(6) =   2
     Q(r) pseudized with 0 coefficients 


     PseudoPot. # 2 for C  read from file:
     /users/kbadger1/espresso/pseudo/pslibrary.1.0.0/pbe/PSEUDOPOTENTIALS/C.pbe-n-kjpaw_psl.1.0.0.UPF
     MD5 check sum: 6408e75cdba28732cea38a4db8498ce4
     Pseudo is Projector augmented-wave + core cor, Zval =  4.0
     Generated using 'atomic' code by A. Dal Corso  v.7.0
     Shape of augmentation charge: PSQ
     Using radial grid of 1073 points,  4 beta functions with: 
                l(1) =   0
                l(2) =   0
                l(3) =   1
                l(4) =   1
     Q(r) pseudized with 0 coefficients 


     PseudoPot. # 3 for O  read from file:
     /users/kbadger1/espresso/pseudo/pslibrary.1.0.0/pbe/PSEUDOPOTENTIALS/O.pbe-nl-kjpaw_psl.1.0.0.UPF
     MD5 check sum: f0439fab3598ca4e468f064226030408
     Pseudo is Projector augmented-wave + core cor, Zval =  6.0
     Generated using 'atomic' code by A. Dal Corso  v.7.0
     Shape of augmentation charge: PSQ
     Using radial grid of 1095 points,  4 beta functions with: 
                l(1) =   0
                l(2) =   0
                l(3) =   1
                l(4) =   1
     Q(r) pseudized with 0 coefficients 


     PseudoPot. # 4 for H  read from file:
     /users/kbadger1/espresso/pseudo/pslibrary.1.0.0/pbe/PSEUDOPOTENTIALS/H.pbe-kjpaw_psl.1.0.0.UPF
     MD5 check sum: fe4c6fa958fa6d3815bf5d2419cbf1df
     Pseudo is Projector augmented-wave, Zval =  1.0
     Generated using 'atomic' code by A. Dal Corso  v.7.0
     Shape of augmentation charge: PSQ
     Using radial grid of  929 points,  2 beta functions with: 
                l(1) =   0
                l(2) =   0
     Q(r) pseudized with 0 coefficients 


     atomic species   valence    mass     pseudopotential
        Co             9.00    58.93319     Co( 1.00)
        C              4.00    12.01100     C ( 1.00)
        O              6.00    15.99900     O ( 1.00)
        H              1.00     1.00800     H ( 1.00)

     Starting magnetic structure 
     atomic species   magnetization
        Co           1.000
        C            1.000
        O            0.000
        H            0.000

     No symmetry found



   Cartesian axes

     site n.     atom                  positions (alat units)
         1           Co  tau(   1) = (   0.0000000   0.1924501   1.3333333  )
         2           Co  tau(   2) = (   0.3333333   0.1924501   1.3333333  )
         3           Co  tau(   3) = (   0.6666667   0.1924501   1.3333333  )
         4           Co  tau(   4) = (   0.1666667   0.4811252   1.3333333  )
         5           Co  tau(   5) = (   0.5000000   0.4811252   1.3333333  )
         6           Co  tau(   6) = (   0.8333333   0.4811252   1.3333333  )
         7           Co  tau(   7) = (   0.3333333   0.7698004   1.3333333  )
         8           Co  tau(   8) = (   0.6666667   0.7698004   1.3333333  )
         9           Co  tau(   9) = (   1.0000000   0.7698004   1.3333333  )
        10           Co  tau(  10) = (   0.0000000   0.0000000   1.6036667  )
        11           Co  tau(  11) = (   0.3333333   0.0000000   1.6036667  )
        12           Co  tau(  12) = (   0.6666667   0.0000000   1.6036667  )
        13           Co  tau(  13) = (   0.1666667   0.2886751   1.6036667  )
        14           Co  tau(  14) = (   0.5000000   0.2886751   1.6036667  )
        15           Co  tau(  15) = (   0.8333333   0.2886751   1.6036667  )
        16           Co  tau(  16) = (   0.3333333   0.5773503   1.6036667  )
        17           Co  tau(  17) = (   0.6666667   0.5773503   1.6036667  )
        18           Co  tau(  18) = (   1.0000000   0.5773503   1.6036667  )
        19           Co  tau(  19) = (   0.0000000   0.1924501   1.8740000  )
        20           Co  tau(  20) = (   0.3333333   0.1924501   1.8740000  )
        21           Co  tau(  21) = (   0.6666667   0.1924501   1.8740000  )
        22           Co  tau(  22) = (   0.1666667   0.4811252   1.8740000  )
        23           Co  tau(  23) = (   0.5000000   0.4811252   1.8740000  )
        24           Co  tau(  24) = (   0.8333333   0.4811252   1.8740000  )
        25           Co  tau(  25) = (   0.3333333   0.7698004   1.8740000  )
        26           Co  tau(  26) = (   0.6666667   0.7698004   1.8740000  )
        27           Co  tau(  27) = (   1.0000000   0.7698004   1.8740000  )
        28           Co  tau(  28) = (   0.0000000   0.0000000   2.1443333  )
        29           Co  tau(  29) = (   0.3333333   0.0000000   2.1443333  )
        30           Co  tau(  30) = (   0.6666667   0.0000000   2.1443333  )
        31           Co  tau(  31) = (   0.1666667   0.2886751   2.1443333  )
        32           Co  tau(  32) = (   0.5000000   0.2886751   2.1443333  )
        33           Co  tau(  33) = (   0.8333333   0.2886751   2.1443333  )
        34           Co  tau(  34) = (   0.3333333   0.5773503   2.1443333  )
        35           Co  tau(  35) = (   0.6666667   0.5773503   2.1443333  )
        36           Co  tau(  36) = (   1.0000000   0.5773503   2.1443333  )
        37           C   tau(  37) = (   0.1644737  -0.0164596   2.3379160  )
        38           O   tau(  38) = (   0.1646363  -0.0181113   2.4960030  )
        39           H   tau(  39) = (   0.4989489   0.0905296   2.2737894  )

     number of k points=    13  Marzari-Vanderbilt smearing, width (Ry)=  0.0010
                       cart. coord. in units 2pi/alat
        k(    1) = (   0.0000000   0.0000000   0.0000000), wk =   0.0400000
        k(    2) = (   0.0000000   0.2309401   0.0000000), wk =   0.0800000
        k(    3) = (   0.0000000   0.4618802   0.0000000), wk =   0.0800000
        k(    4) = (   0.2000000  -0.1154701   0.0000000), wk =   0.0800000
        k(    5) = (   0.2000000   0.1154701   0.0000000), wk =   0.0800000
        k(    6) = (   0.2000000   0.3464102   0.0000000), wk =   0.0800000
        k(    7) = (   0.2000000  -0.5773503   0.0000000), wk =   0.0800000
        k(    8) = (   0.2000000  -0.3464102   0.0000000), wk =   0.0800000
        k(    9) = (   0.4000000  -0.2309401   0.0000000), wk =   0.0800000
        k(   10) = (   0.4000000   0.0000000   0.0000000), wk =   0.0800000
        k(   11) = (   0.4000000   0.2309401   0.0000000), wk =   0.0800000
        k(   12) = (   0.4000000  -0.6928203   0.0000000), wk =   0.0800000
        k(   13) = (   0.4000000  -0.4618802   0.0000000), wk =   0.0800000

     Dense  grid:   752179 G-vectors     FFT dimensions: (  80,  80, 288)

     Smooth grid:   409445 G-vectors     FFT dimensions: (  64,  64, 225)

     Estimated max dynamical RAM per process >      99.02 MB

     Estimated total dynamical RAM >       9.28 GB
     Generating pointlists ...
     new r_m :   0.0944 (alat units)  1.3381 (a.u.) for type    1
     new r_m :   0.0652 (alat units)  0.9243 (a.u.) for type    2
     new r_m :   0.0652 (alat units)  0.9243 (a.u.) for type    3
     new r_m :   0.0944 (alat units)  1.3381 (a.u.) for type    4

     Initial potential from superposition of free atoms

     starting charge     334.9897, renormalised to     335.0000

     negative rho (up, down):  3.048E-03 4.493E-04


     %%%%%%%%%%%%%%%%%%%%%%%%%%%%%%%%%%%%%%%%%%%%%%%%%%%%%%%%%%%%%%%%%%%%%%%%
     %                                                                      %
     % You are using vdW-DF, which was implemented by the Thonhauser group. %
     % Please cite the following two papers that made this development      %
     % possible and the two reviews that describe the various versions:     %
     %                                                                      %
     %   T. Thonhauser et al., PRL 115, 136402 (2015).                      %
     %   T. Thonhauser et al., PRB 76, 125112 (2007).                       %
     %   K. Berland et al., Rep. Prog. Phys. 78, 066501 (2015).             %
     %   D.C. Langreth et al., J. Phys.: Condens. Matter 21, 084203 (2009). %
     %                                                                      %
     % If you are calculating stress with vdW-DF, please also cite:         %
     %                                                                      %
     %   R. Sabatini et al., J. Phys.: Condens. Matter 24, 424209 (2012).   %
     %   C.M. Frostenson et al., Electr. Struct. 4, 014001 (2022).          %
     %                                                                      %
     %%%%%%%%%%%%%%%%%%%%%%%%%%%%%%%%%%%%%%%%%%%%%%%%%%%%%%%%%%%%%%%%%%%%%%%%

     %%%%%%%%%%%%%%%%%%%%%%%%%%%%%%%%%%%%%%%%%%%%%%%%%%%%%%%%%%%%%%%%%%%%%%%%
     %                                                                      %
     %  vdW-DF NEWS:                                                        %
     %                                                                      %
     %  * vdW-DF3 is now available. DOI: 10.1021/acs.jctc.0c00471           %
     %    use with input_dft = 'vdW-DF3-opt1' or 'vdW-DF3-opt2'             %
     %                                                                      %
     %  * Unscreened and range-separated hybrid vdW-DF-cx functionals       %
     %    DOI: 10.1063/1.4986522 and 10.1088/1361-648X/ac2ad2               %
     %    use with input_dft = 'vdW-DF-cx0'    and 'vdW-DF-ahcx'            %
     %  * Unscreened and range-separated hybrid vdW-DF2-b86r functionals    %
     %    DOI: 10.1063/1.4986522 and DOI: 10.1103/PhysRevX.12.041003        %
     %    use with input_dft = 'vdW-DF2-br0' and 'vdW-DF2-ahbr'             %
     %                                                                      %
     %%%%%%%%%%%%%%%%%%%%%%%%%%%%%%%%%%%%%%%%%%%%%%%%%%%%%%%%%%%%%%%%%%%%%%%%


     Starting wfcs are  333 randomized atomic wfcs
     Checking if some PAW data can be deallocated... 

     total cpu time spent up to now is       13.1 secs

     per-process dynamical memory:   230.1 Mb

     Self-consistent Calculation

     iteration #  1     ecut=    50.00 Ry     beta= 0.70
     Davidson diagonalization with overlap
     ethr =  1.00E-02,  avg # of iterations =  2.0

     negative rho (up, down):  3.473E-05 1.078E-07

     total cpu time spent up to now is       36.1 secs

     total energy              =   -6053.13180994 Ry
     estimated scf accuracy    <      39.06923369 Ry

     total magnetization       =    69.00 Bohr mag/cell
     absolute magnetization    =    81.19 Bohr mag/cell

     iteration #  2     ecut=    50.00 Ry     beta= 0.70
     Davidson diagonalization with overlap
     ethr =  1.00E-02,  avg # of iterations =  1.0

     negative rho (up, down):  5.349E-06 4.602E-08

     total cpu time spent up to now is       50.3 secs

     total energy              =   -6052.69522791 Ry
     estimated scf accuracy    <      24.24337607 Ry

     total magnetization       =    69.00 Bohr mag/cell
     absolute magnetization    =    76.77 Bohr mag/cell

     iteration #  3     ecut=    50.00 Ry     beta= 0.70
     Davidson diagonalization with overlap
     ethr =  7.24E-03,  avg # of iterations =  1.4

     negative rho (up, down):  3.289E-08 0.000E+00

     total cpu time spent up to now is       68.9 secs

     total energy              =   -6055.17967128 Ry
     estimated scf accuracy    <      85.93933376 Ry

     total magnetization       =    66.12 Bohr mag/cell
     absolute magnetization    =    73.61 Bohr mag/cell

     iteration #  4     ecut=    50.00 Ry     beta= 0.70
     Davidson diagonalization with overlap
     ethr =  7.24E-03,  avg # of iterations =  1.0

     total cpu time spent up to now is       83.4 secs

     total energy              =   -6056.46051182 Ry
     estimated scf accuracy    <       5.18011807 Ry

     total magnetization       =    60.46 Bohr mag/cell
     absolute magnetization    =    70.28 Bohr mag/cell

     iteration #  5     ecut=    50.00 Ry     beta= 0.70
     Davidson diagonalization with overlap
     ethr =  1.55E-03,  avg # of iterations =  1.2

     total cpu time spent up to now is      102.3 secs

     total energy              =   -6056.45757880 Ry
     estimated scf accuracy    <       1.85812068 Ry

     total magnetization       =    60.43 Bohr mag/cell
     absolute magnetization    =    69.77 Bohr mag/cell

     iteration #  6     ecut=    50.00 Ry     beta= 0.70
     Davidson diagonalization with overlap
     ethr =  5.55E-04,  avg # of iterations =  2.5

     total cpu time spent up to now is      122.0 secs

     total energy              =   -6056.55557141 Ry
     estimated scf accuracy    <       0.86752391 Ry

     total magnetization       =    60.13 Bohr mag/cell
     absolute magnetization    =    69.15 Bohr mag/cell

     iteration #  7     ecut=    50.00 Ry     beta= 0.70
     Davidson diagonalization with overlap
     ethr =  2.59E-04,  avg # of iterations =  4.0

     total cpu time spent up to now is      139.6 secs

     total energy              =   -6056.58240417 Ry
     estimated scf accuracy    <       0.58947400 Ry

     total magnetization       =    60.10 Bohr mag/cell
     absolute magnetization    =    68.84 Bohr mag/cell

     iteration #  8     ecut=    50.00 Ry     beta= 0.70
     Davidson diagonalization with overlap
     ethr =  1.76E-04,  avg # of iterations =  1.7

     total cpu time spent up to now is      158.1 secs

     total energy              =   -6056.60808522 Ry
     estimated scf accuracy    <       0.14992975 Ry

     total magnetization       =    60.19 Bohr mag/cell
     absolute magnetization    =    68.77 Bohr mag/cell

     iteration #  9     ecut=    50.00 Ry     beta= 0.70
     Davidson diagonalization with overlap
     c_bands:  1 eigenvalues not converged
     ethr =  4.48E-05,  avg # of iterations =  9.7

     total cpu time spent up to now is      186.9 secs

     total energy              =   -6056.61678148 Ry
     estimated scf accuracy    <       0.11769816 Ry

     total magnetization       =    60.52 Bohr mag/cell
     absolute magnetization    =    68.71 Bohr mag/cell

     iteration # 10     ecut=    50.00 Ry     beta= 0.70
     Davidson diagonalization with overlap
     ethr =  3.51E-05,  avg # of iterations =  3.0

     total cpu time spent up to now is      202.8 secs

     total energy              =   -6056.61985427 Ry
     estimated scf accuracy    <       0.13468863 Ry

     total magnetization       =    60.69 Bohr mag/cell
     absolute magnetization    =    68.68 Bohr mag/cell

     iteration # 11     ecut=    50.00 Ry     beta= 0.70
     Davidson diagonalization with overlap
     ethr =  3.51E-05,  avg # of iterations =  1.3

     total cpu time spent up to now is      221.2 secs

     total energy              =   -6056.61527573 Ry
     estimated scf accuracy    <       0.11741140 Ry

     total magnetization       =    60.70 Bohr mag/cell
     absolute magnetization    =    68.61 Bohr mag/cell

     iteration # 12     ecut=    50.00 Ry     beta= 0.70
     Davidson diagonalization with overlap
     ethr =  3.50E-05,  avg # of iterations =  1.8

     negative rho (up, down):  1.204E-07 0.000E+00

     total cpu time spent up to now is      238.7 secs

     total energy              =   -6056.61605053 Ry
     estimated scf accuracy    <       0.08041408 Ry

     total magnetization       =    60.64 Bohr mag/cell
     absolute magnetization    =    68.46 Bohr mag/cell

     iteration # 13     ecut=    50.00 Ry     beta= 0.70
     Davidson diagonalization with overlap
     ethr =  2.40E-05,  avg # of iterations =  1.5

     total cpu time spent up to now is      254.9 secs

     total energy              =   -6056.61644252 Ry
     estimated scf accuracy    <       0.10984306 Ry

     total magnetization       =    60.70 Bohr mag/cell
     absolute magnetization    =    68.46 Bohr mag/cell

     iteration # 14     ecut=    50.00 Ry     beta= 0.70
     Davidson diagonalization with overlap
     ethr =  2.40E-05,  avg # of iterations =  1.3

     negative rho (up, down):  5.744E-03 4.413E-03

     total cpu time spent up to now is      273.6 secs

     total energy              =   -6056.61051059 Ry
     estimated scf accuracy    <       0.08010224 Ry

     total magnetization       =    60.70 Bohr mag/cell
     absolute magnetization    =    68.42 Bohr mag/cell

     iteration # 15     ecut=    50.00 Ry     beta= 0.70
     Davidson diagonalization with overlap
     ethr =  2.39E-05,  avg # of iterations =  1.1

     negative rho (up, down):  2.080E-02 1.909E-02

     total cpu time spent up to now is      287.4 secs

     total energy              =   -6056.60634101 Ry
     estimated scf accuracy    <       0.04452462 Ry

     total magnetization       =    60.67 Bohr mag/cell
     absolute magnetization    =    68.38 Bohr mag/cell

     iteration # 16     ecut=    50.00 Ry     beta= 0.70
     Davidson diagonalization with overlap
     c_bands:  1 eigenvalues not converged
     ethr =  1.33E-05,  avg # of iterations =  2.8

     negative rho (up, down):  2.306E-02 2.136E-02

     total cpu time spent up to now is      308.0 secs

     total energy              =   -6056.60680860 Ry
     estimated scf accuracy    <       0.03605590 Ry

     total magnetization       =    60.69 Bohr mag/cell
     absolute magnetization    =    68.37 Bohr mag/cell

     iteration # 17     ecut=    50.00 Ry     beta= 0.70
     Davidson diagonalization with overlap
     c_bands:  5 eigenvalues not converged
     ethr =  1.08E-05,  avg # of iterations =  2.2

     negative rho (up, down):  2.202E-02 2.023E-02

     total cpu time spent up to now is      322.9 secs

     total energy              =   -6056.60712379 Ry
     estimated scf accuracy    <       0.01882088 Ry

     total magnetization       =    60.70 Bohr mag/cell
     absolute magnetization    =    68.37 Bohr mag/cell

     iteration # 18     ecut=    50.00 Ry     beta= 0.70
     Davidson diagonalization with overlap
     c_bands:  1 eigenvalues not converged
     c_bands:  1 eigenvalues not converged
     c_bands:  2 eigenvalues not converged
     c_bands:  1 eigenvalues not converged
     ethr =  5.62E-06,  avg # of iterations =  5.3

     negative rho (up, down):  8.265E-03 7.062E-03

     total cpu time spent up to now is      346.3 secs

     total energy              =   -6056.60709831 Ry
     estimated scf accuracy    <       0.01429464 Ry

     total magnetization       =    60.71 Bohr mag/cell
     absolute magnetization    =    68.35 Bohr mag/cell

     iteration # 19     ecut=    50.00 Ry     beta= 0.70
     Davidson diagonalization with overlap
     ethr =  4.27E-06,  avg # of iterations =  3.3

     negative rho (up, down):  1.542E-02 1.400E-02

     total cpu time spent up to now is      367.4 secs

     total energy              =   -6056.60632800 Ry
     estimated scf accuracy    <       0.01129667 Ry

     total magnetization       =    60.85 Bohr mag/cell
     absolute magnetization    =    68.44 Bohr mag/cell

     iteration # 20     ecut=    50.00 Ry     beta= 0.70
     Davidson diagonalization with overlap
     ethr =  3.37E-06,  avg # of iterations =  2.2

     negative rho (up, down):  1.156E-02 1.060E-02

     total cpu time spent up to now is      382.4 secs

     total energy              =   -6056.60458180 Ry
     estimated scf accuracy    <       0.01027596 Ry

     total magnetization       =    60.84 Bohr mag/cell
     absolute magnetization    =    68.42 Bohr mag/cell

     iteration # 21     ecut=    50.00 Ry     beta= 0.70
     Davidson diagonalization with overlap
     c_bands:  1 eigenvalues not converged
     ethr =  3.07E-06,  avg # of iterations =  2.8

     negative rho (up, down):  1.417E-02 1.340E-02

     total cpu time spent up to now is      402.7 secs

     total energy              =   -6056.60444292 Ry
     estimated scf accuracy    <       0.01181257 Ry

     total magnetization       =    60.87 Bohr mag/cell
     absolute magnetization    =    68.42 Bohr mag/cell

     iteration # 22     ecut=    50.00 Ry     beta= 0.70
     Davidson diagonalization with overlap
     ethr =  3.07E-06,  avg # of iterations =  1.5

     negative rho (up, down):  1.243E-02 1.170E-02

     total cpu time spent up to now is      422.1 secs

     total energy              =   -6056.60484129 Ry
     estimated scf accuracy    <       0.00256744 Ry

     total magnetization       =    60.87 Bohr mag/cell
     absolute magnetization    =    68.41 Bohr mag/cell

     iteration # 23     ecut=    50.00 Ry     beta= 0.70
     Davidson diagonalization with overlap
     c_bands:  2 eigenvalues not converged
     ethr =  7.66E-07,  avg # of iterations =  3.4

     negative rho (up, down):  9.833E-03 9.165E-03

     total cpu time spent up to now is      438.4 secs

     total energy              =   -6056.60478481 Ry
     estimated scf accuracy    <       0.00446677 Ry

     total magnetization       =    60.87 Bohr mag/cell
     absolute magnetization    =    68.43 Bohr mag/cell

     iteration # 24     ecut=    50.00 Ry     beta= 0.70
     Davidson diagonalization with overlap
     ethr =  7.66E-07,  avg # of iterations =  1.5

     negative rho (up, down):  6.828E-03 6.032E-03

     total cpu time spent up to now is      457.3 secs

     total energy              =   -6056.60448222 Ry
     estimated scf accuracy    <       0.00522186 Ry

     total magnetization       =    60.88 Bohr mag/cell
     absolute magnetization    =    68.43 Bohr mag/cell

     iteration # 25     ecut=    50.00 Ry     beta= 0.70
     Davidson diagonalization with overlap
     ethr =  7.66E-07,  avg # of iterations =  2.5

     negative rho (up, down):  6.216E-03 5.550E-03

     total cpu time spent up to now is      472.7 secs

     total energy              =   -6056.60474142 Ry
     estimated scf accuracy    <       0.00242728 Ry

     total magnetization       =    60.87 Bohr mag/cell
     absolute magnetization    =    68.44 Bohr mag/cell

     iteration # 26     ecut=    50.00 Ry     beta= 0.70
     Davidson diagonalization with overlap
     ethr =  7.25E-07,  avg # of iterations =  1.6

     negative rho (up, down):  4.991E-03 4.298E-03

     total cpu time spent up to now is      491.6 secs

     total energy              =   -6056.60488932 Ry
     estimated scf accuracy    <       0.00264165 Ry

     total magnetization       =    60.88 Bohr mag/cell
     absolute magnetization    =    68.44 Bohr mag/cell

     iteration # 27     ecut=    50.00 Ry     beta= 0.70
     Davidson diagonalization with overlap
     ethr =  7.25E-07,  avg # of iterations =  1.4

     negative rho (up, down):  3.933E-03 3.174E-03

     total cpu time spent up to now is      505.9 secs

     total energy              =   -6056.60492538 Ry
     estimated scf accuracy    <       0.00167443 Ry

     total magnetization       =    60.88 Bohr mag/cell
     absolute magnetization    =    68.43 Bohr mag/cell

     iteration # 28     ecut=    50.00 Ry     beta= 0.70
     Davidson diagonalization with overlap
     ethr =  5.00E-07,  avg # of iterations =  1.2

     negative rho (up, down):  2.842E-03 2.037E-03

     total cpu time spent up to now is      524.5 secs

     total energy              =   -6056.60492343 Ry
     estimated scf accuracy    <       0.00037646 Ry

     total magnetization       =    60.88 Bohr mag/cell
     absolute magnetization    =    68.43 Bohr mag/cell

     iteration # 29     ecut=    50.00 Ry     beta= 0.70
     Davidson diagonalization with overlap
     c_bands:  1 eigenvalues not converged
     ethr =  1.12E-07,  avg # of iterations =  5.1

     negative rho (up, down):  2.497E-03 1.594E-03

     total cpu time spent up to now is      548.1 secs

     total energy              =   -6056.60500862 Ry
     estimated scf accuracy    <       0.00197061 Ry

     total magnetization       =    60.88 Bohr mag/cell
     absolute magnetization    =    68.43 Bohr mag/cell

     iteration # 30     ecut=    50.00 Ry     beta= 0.70
     Davidson diagonalization with overlap
     ethr =  1.12E-07,  avg # of iterations =  1.6

     negative rho (up, down):  2.526E-03 1.525E-03

     total cpu time spent up to now is      562.5 secs

     total energy              =   -6056.60510724 Ry
     estimated scf accuracy    <       0.00012019 Ry

     total magnetization       =    60.88 Bohr mag/cell
     absolute magnetization    =    68.43 Bohr mag/cell

     iteration # 31     ecut=    50.00 Ry     beta= 0.70
     Davidson diagonalization with overlap
     ethr =  3.59E-08,  avg # of iterations =  4.9

     negative rho (up, down):  2.670E-03 1.575E-03

     total cpu time spent up to now is      585.0 secs

     total energy              =   -6056.60514064 Ry
     estimated scf accuracy    <       0.00018428 Ry

     total magnetization       =    60.88 Bohr mag/cell
     absolute magnetization    =    68.43 Bohr mag/cell

     iteration # 32     ecut=    50.00 Ry     beta= 0.70
     Davidson diagonalization with overlap
     ethr =  3.59E-08,  avg # of iterations =  1.5

     negative rho (up, down):  2.538E-03 1.425E-03

     total cpu time spent up to now is      603.9 secs

     total energy              =   -6056.60515088 Ry
     estimated scf accuracy    <       0.00001768 Ry

     total magnetization       =    60.88 Bohr mag/cell
     absolute magnetization    =    68.43 Bohr mag/cell

     iteration # 33     ecut=    50.00 Ry     beta= 0.70
     Davidson diagonalization with overlap
     c_bands:  1 eigenvalues not converged
     ethr =  5.28E-09,  avg # of iterations =  7.3

     negative rho (up, down):  2.517E-03 1.403E-03

     total cpu time spent up to now is      625.6 secs

     total energy              =   -6056.60515644 Ry
     estimated scf accuracy    <       0.00001946 Ry

     total magnetization       =    60.88 Bohr mag/cell
     absolute magnetization    =    68.43 Bohr mag/cell

     iteration # 34     ecut=    50.00 Ry     beta= 0.70
     Davidson diagonalization with overlap
     ethr =  5.28E-09,  avg # of iterations =  2.5

     negative rho (up, down):  2.511E-03 1.393E-03

     total cpu time spent up to now is      645.7 secs

     total energy              =   -6056.60515516 Ry
     estimated scf accuracy    <       0.00004181 Ry

     total magnetization       =    60.88 Bohr mag/cell
     absolute magnetization    =    68.42 Bohr mag/cell

     iteration # 35     ecut=    50.00 Ry     beta= 0.70
     Davidson diagonalization with overlap
     ethr =  5.28E-09,  avg # of iterations =  1.2

     negative rho (up, down):  2.566E-03 1.459E-03

     total cpu time spent up to now is      664.7 secs

     total energy              =   -6056.60515844 Ry
     estimated scf accuracy    <       0.00000964 Ry

     total magnetization       =    60.88 Bohr mag/cell
     absolute magnetization    =    68.42 Bohr mag/cell

     iteration # 36     ecut=    50.00 Ry     beta= 0.70
     Davidson diagonalization with overlap
     ethr =  2.88E-09,  avg # of iterations =  1.8

     negative rho (up, down):  2.455E-03 1.350E-03

     total cpu time spent up to now is      679.5 secs

     total energy              =   -6056.60515875 Ry
     estimated scf accuracy    <       0.00001034 Ry

     total magnetization       =    60.88 Bohr mag/cell
     absolute magnetization    =    68.42 Bohr mag/cell

     iteration # 37     ecut=    50.00 Ry     beta= 0.70
     Davidson diagonalization with overlap
     ethr =  2.88E-09,  avg # of iterations =  1.5

     negative rho (up, down):  2.469E-03 1.372E-03

     total cpu time spent up to now is      698.2 secs

     total energy              =   -6056.60515917 Ry
     estimated scf accuracy    <       0.00000673 Ry

     total magnetization       =    60.88 Bohr mag/cell
     absolute magnetization    =    68.42 Bohr mag/cell

     iteration # 38     ecut=    50.00 Ry     beta= 0.70
     Davidson diagonalization with overlap
     ethr =  2.01E-09,  avg # of iterations =  1.8

     negative rho (up, down):  2.428E-03 1.330E-03

     total cpu time spent up to now is      713.2 secs

     total energy              =   -6056.60515922 Ry
     estimated scf accuracy    <       0.00000312 Ry

     total magnetization       =    60.88 Bohr mag/cell
     absolute magnetization    =    68.42 Bohr mag/cell

     iteration # 39     ecut=    50.00 Ry     beta= 0.70
     Davidson diagonalization with overlap
     c_bands:  1 eigenvalues not converged
     ethr =  9.32E-10,  avg # of iterations =  4.5

     negative rho (up, down):  2.429E-03 1.338E-03

     total cpu time spent up to now is      735.5 secs

     total energy              =   -6056.60515914 Ry
     estimated scf accuracy    <       0.00001081 Ry

     total magnetization       =    60.88 Bohr mag/cell
     absolute magnetization    =    68.42 Bohr mag/cell

     iteration # 40     ecut=    50.00 Ry     beta= 0.70
     Davidson diagonalization with overlap
     ethr =  9.32E-10,  avg # of iterations =  1.6

     negative rho (up, down):  2.412E-03 1.322E-03

     total cpu time spent up to now is      754.4 secs

     total energy              =   -6056.60515950 Ry
     estimated scf accuracy    <       0.00000168 Ry

     total magnetization       =    60.88 Bohr mag/cell
     absolute magnetization    =    68.42 Bohr mag/cell

     iteration # 41     ecut=    50.00 Ry     beta= 0.70
     Davidson diagonalization with overlap
     c_bands:  1 eigenvalues not converged
     ethr =  5.00E-10,  avg # of iterations =  2.5

     negative rho (up, down):  2.380E-03 1.294E-03

     total cpu time spent up to now is      769.9 secs

     total energy              =   -6056.60515950 Ry
     estimated scf accuracy    <       0.00000120 Ry

     total magnetization       =    60.88 Bohr mag/cell
     absolute magnetization    =    68.42 Bohr mag/cell

     iteration # 42     ecut=    50.00 Ry     beta= 0.70
     Davidson diagonalization with overlap
     ethr =  3.58E-10,  avg # of iterations =  2.9

     negative rho (up, down):  2.367E-03 1.280E-03

     total cpu time spent up to now is      790.5 secs

     total energy              =   -6056.60515953 Ry
     estimated scf accuracy    <       0.00000119 Ry

     total magnetization       =    60.88 Bohr mag/cell
     absolute magnetization    =    68.42 Bohr mag/cell

     iteration # 43     ecut=    50.00 Ry     beta= 0.70
     Davidson diagonalization with overlap
     ethr =  3.56E-10,  avg # of iterations =  1.2

     negative rho (up, down):  2.367E-03 1.278E-03

     total cpu time spent up to now is      804.5 secs

     total energy              =   -6056.60515957 Ry
     estimated scf accuracy    <       0.00000065 Ry

     total magnetization       =    60.88 Bohr mag/cell
     absolute magnetization    =    68.42 Bohr mag/cell

     iteration # 44     ecut=    50.00 Ry     beta= 0.70
     Davidson diagonalization with overlap
     ethr =  1.95E-10,  avg # of iterations =  1.8

     negative rho (up, down):  2.327E-03 1.239E-03

     total cpu time spent up to now is      823.6 secs

     total energy              =   -6056.60515956 Ry
     estimated scf accuracy    <       0.00000058 Ry

     total magnetization       =    60.88 Bohr mag/cell
     absolute magnetization    =    68.42 Bohr mag/cell

     iteration # 45     ecut=    50.00 Ry     beta= 0.70
     Davidson diagonalization with overlap
     ethr =  1.72E-10,  avg # of iterations =  1.7

     negative rho (up, down):  2.308E-03 1.220E-03

     total cpu time spent up to now is      843.5 secs

     total energy              =   -6056.60515956 Ry
     estimated scf accuracy    <       0.00000027 Ry

     total magnetization       =    60.88 Bohr mag/cell
     absolute magnetization    =    68.42 Bohr mag/cell

     iteration # 46     ecut=    50.00 Ry     beta= 0.70
     Davidson diagonalization with overlap
     ethr =  7.99E-11,  avg # of iterations =  4.3

     negative rho (up, down):  2.323E-03 1.233E-03

     total cpu time spent up to now is      861.2 secs

     total energy              =   -6056.60515956 Ry
     estimated scf accuracy    <       0.00000077 Ry

     total magnetization       =    60.88 Bohr mag/cell
     absolute magnetization    =    68.42 Bohr mag/cell

     iteration # 47     ecut=    50.00 Ry     beta= 0.70
     Davidson diagonalization with overlap
     ethr =  7.99E-11,  avg # of iterations =  2.0

     negative rho (up, down):  2.293E-03 1.205E-03

     total cpu time spent up to now is      880.9 secs

     total energy              =   -6056.60515954 Ry
     estimated scf accuracy    <       0.00000070 Ry

     total magnetization       =    60.88 Bohr mag/cell
     absolute magnetization    =    68.42 Bohr mag/cell

     iteration # 48     ecut=    50.00 Ry     beta= 0.70
     Davidson diagonalization with overlap
     ethr =  7.99E-11,  avg # of iterations =  1.3

     negative rho (up, down):  2.298E-03 1.208E-03

     total cpu time spent up to now is      895.6 secs

     total energy              =   -6056.60515956 Ry
     estimated scf accuracy    <       0.00000022 Ry

     total magnetization       =    60.88 Bohr mag/cell
     absolute magnetization    =    68.42 Bohr mag/cell

     iteration # 49     ecut=    50.00 Ry     beta= 0.70
     Davidson diagonalization with overlap
     ethr =  6.57E-11,  avg # of iterations =  1.3

     negative rho (up, down):  2.270E-03 1.180E-03

     total cpu time spent up to now is      915.4 secs

     total energy              =   -6056.60515954 Ry
     estimated scf accuracy    <       0.00000023 Ry

     total magnetization       =    60.88 Bohr mag/cell
     absolute magnetization    =    68.42 Bohr mag/cell

     iteration # 50     ecut=    50.00 Ry     beta= 0.70
     Davidson diagonalization with overlap
     ethr =  6.57E-11,  avg # of iterations =  1.2

     negative rho (up, down):  2.257E-03 1.168E-03

     total cpu time spent up to now is      934.0 secs

     total energy              =   -6056.60515953 Ry
     estimated scf accuracy    <       0.00000007 Ry

     total magnetization       =    60.88 Bohr mag/cell
     absolute magnetization    =    68.42 Bohr mag/cell

     iteration # 51     ecut=    50.00 Ry     beta= 0.70
     Davidson diagonalization with overlap
     ethr =  2.14E-11,  avg # of iterations =  3.4

     negative rho (up, down):  2.252E-03 1.163E-03

     total cpu time spent up to now is      950.2 secs

     total energy              =   -6056.60515952 Ry
     estimated scf accuracy    <       0.00000001 Ry

     total magnetization       =    60.88 Bohr mag/cell
     absolute magnetization    =    68.42 Bohr mag/cell

     iteration # 52     ecut=    50.00 Ry     beta= 0.70
     Davidson diagonalization with overlap
     ethr =  3.60E-12,  avg # of iterations =  7.2

     negative rho (up, down):  2.250E-03 1.161E-03

     Magnetic moment per site  (integrated on atomic sphere of radius R)
     atom   1 (R=0.094)  charge=  5.8644  magn=  1.6968
     atom   2 (R=0.094)  charge=  5.8651  magn=  1.6915
     atom   3 (R=0.094)  charge=  5.8643  magn=  1.7015
     atom   4 (R=0.094)  charge=  5.8648  magn=  1.7062
     atom   5 (R=0.094)  charge=  5.8647  magn=  1.7007
     atom   6 (R=0.094)  charge=  5.8649  magn=  1.6995
     atom   7 (R=0.094)  charge=  5.8642  magn=  1.6981
     atom   8 (R=0.094)  charge=  5.8649  magn=  1.6944
     atom   9 (R=0.094)  charge=  5.8649  magn=  1.6970
     atom  10 (R=0.094)  charge=  5.8618  magn=  1.6318
     atom  11 (R=0.094)  charge=  5.8630  magn=  1.6341
     atom  12 (R=0.094)  charge=  5.8629  magn=  1.6382
     atom  13 (R=0.094)  charge=  5.8622  magn=  1.6407
     atom  14 (R=0.094)  charge=  5.8632  magn=  1.6339
     atom  15 (R=0.094)  charge=  5.8629  magn=  1.6380
     atom  16 (R=0.094)  charge=  5.8625  magn=  1.6315
     atom  17 (R=0.094)  charge=  5.8628  magn=  1.6387
     atom  18 (R=0.094)  charge=  5.8631  magn=  1.6312
     atom  19 (R=0.094)  charge=  5.8615  magn=  1.6226
     atom  20 (R=0.094)  charge=  5.8628  magn=  1.6385
     atom  21 (R=0.094)  charge=  5.8615  magn=  1.6568
     atom  22 (R=0.094)  charge=  5.8625  magn=  1.6296
     atom  23 (R=0.094)  charge=  5.8623  magn=  1.6090
     atom  24 (R=0.094)  charge=  5.8630  magn=  1.6234
     atom  25 (R=0.094)  charge=  5.8608  magn=  1.5926
     atom  26 (R=0.094)  charge=  5.8596  magn=  1.6582
     atom  27 (R=0.094)  charge=  5.8627  magn=  1.6324
     atom  28 (R=0.094)  charge=  5.8774  magn=  1.3068
     atom  29 (R=0.094)  charge=  5.8832  magn=  1.1603
     atom  30 (R=0.094)  charge=  5.8642  magn=  1.5956
     atom  31 (R=0.094)  charge=  5.8670  magn=  1.7275
     atom  32 (R=0.094)  charge=  5.8655  magn=  1.6298
     atom  33 (R=0.094)  charge=  5.8626  magn=  1.7342
     atom  34 (R=0.094)  charge=  5.8613  magn=  1.7337
     atom  35 (R=0.094)  charge=  5.8677  magn=  1.6767
     atom  36 (R=0.094)  charge=  5.8627  magn=  1.7448
     atom  37 (R=0.065)  charge=  1.0352  magn= -0.0192
     atom  38 (R=0.065)  charge=  2.9036  magn= -0.0430
     atom  39 (R=0.094)  charge=  0.9370  magn= -0.0149

     total cpu time spent up to now is      977.3 secs

     End of self-consistent calculation

 ------ SPIN UP ------------


          k = 0.0000 0.0000 0.0000 ( 51087 PWs)   bands (ev):

   -22.0424  -9.0964  -7.6738  -6.5833  -5.8276  -5.7011  -5.3602  -5.2311
    -4.8399  -4.8303  -4.8271  -4.8137  -4.8020  -4.7880  -4.6501  -4.3961
    -4.2997  -4.2970  -4.2751  -4.2655  -4.2411  -4.1055  -3.7845  -3.7813
    -3.7727  -3.7587  -3.7349  -3.7000  -3.6491  -3.6470  -3.6435  -3.6345
    -3.6192  -3.5714  -3.5695  -3.4882  -3.2669  -3.2591  -3.2575  -3.2544
    -3.1995  -3.1957  -3.1924  -3.1886  -3.1846  -3.1783  -3.1639  -3.1094
    -3.0290  -3.0262  -2.9627  -2.9570  -2.9530  -2.9486  -2.9311  -2.9220
    -2.9201  -2.9193  -2.8908  -2.8711  -2.8217  -2.8168  -2.8132  -2.8060
    -2.7502  -2.6170  -2.3230  -2.2870  -2.2836  -2.2819  -2.2763  -2.1734
    -2.1575  -2.1410  -2.1377  -2.1280  -2.1171  -2.1140  -2.0971  -2.0933
    -2.0615  -2.0502  -2.0454  -2.0175  -1.9997  -1.9933  -1.9798  -1.9703
    -1.9663  -1.9618  -1.9551  -1.9465  -1.9365  -1.9268  -1.9215  -1.9118
    -1.9100  -1.9078  -1.9054  -1.9032  -1.9016  -1.9007  -1.8955  -1.8862
    -1.8777  -1.8640  -1.8457  -1.8370  -1.8325  -1.7529  -1.7497  -1.6547
    -1.5599  -1.4635  -1.4592  -1.4578  -1.4554  -1.4458  -1.4284  -1.4149
    -1.4114  -1.4092  -1.3946  -1.3686  -1.3656  -1.2395  -1.2361  -1.2169
    -1.2114  -1.1472  -1.0887  -1.0649  -1.0465  -1.0331  -1.0054  -0.9866
    -0.9787  -0.9703  -0.9636  -0.9506  -0.9172  -0.8948  -0.8578  -0.8373
    -0.7726  -0.7181  -0.7157  -0.7146  -0.6979  -0.6709  -0.6590  -0.6512
    -0.6499  -0.6442  -0.6422  -0.6356  -0.6344  -0.6302  -0.6263  -0.6149
    -0.6135  -0.6036  -0.5920  -0.5839  -0.5765  -0.5712  -0.5607  -0.5565
    -0.5457  -0.5394  -0.5309  -0.5197  -0.5154  -0.5122  -0.5028  -0.4972
    -0.4956  -0.4904  -0.4773  -0.4604  -0.4425  -0.4202  -0.4156  -0.4089
    -0.4048  -0.3984  -0.3953  -0.3861  -0.3854  -0.3410  -0.3266  -0.3193
    -0.3160  -0.3141  -0.2578  -0.2537  -0.2490  -0.2418  -0.2291  -0.2120
     0.5035   0.6941

          k = 0.0000 0.2309 0.0000 ( 51134 PWs)   bands (ev):

   -22.0424  -9.0860  -7.5333  -6.4923  -5.8532  -5.7127  -5.5261  -5.3486
    -5.2171  -5.0498  -5.0263  -4.6562  -4.5049  -4.4856  -4.4735  -4.4192
    -4.3296  -4.3052  -4.2430  -4.1771  -4.1601  -4.0964  -3.8888  -3.7868
    -3.7798  -3.7090  -3.6666  -3.6534  -3.6509  -3.6370  -3.6334  -3.6165
    -3.5966  -3.5410  -3.5256  -3.5072  -3.5013  -3.4482  -3.2803  -3.2760
    -3.2628  -3.2206  -3.2178  -3.2100  -3.1780  -3.1122  -3.0883  -3.0685
    -3.0533  -3.0498  -3.0315  -3.0078  -2.9663  -2.9138  -2.9051  -2.8792
    -2.8480  -2.8389  -2.8092  -2.8040  -2.7831  -2.7480  -2.7372  -2.7259
    -2.7035  -2.6145  -2.4042  -2.3936  -2.3744  -2.3505  -2.3408  -2.2527
    -2.2457  -2.2301  -2.2272  -2.2160  -2.2104  -2.1982  -2.1729  -2.1196
    -2.1105  -2.0981  -2.0797  -2.0490  -2.0378  -2.0329  -2.0259  -2.0155
    -2.0014  -1.9973  -1.9934  -1.9886  -1.9828  -1.9765  -1.9616  -1.9013
    -1.8869  -1.8744  -1.8200  -1.8135  -1.8045  -1.8000  -1.7906  -1.7893
    -1.7771  -1.7650  -1.7622  -1.7540  -1.7501  -1.7274  -1.7175  -1.6958
    -1.6906  -1.6846  -1.6367  -1.5915  -1.5818  -1.4967  -1.4840  -1.4817
    -1.4746  -1.4536  -1.4470  -1.4384  -1.4161  -1.4138  -1.3727  -1.2877
    -1.2647  -1.2098  -1.1988  -1.1746  -1.1674  -1.1105  -1.0966  -1.0903
    -1.0644  -0.9949  -0.9845  -0.9668  -0.9549  -0.9420  -0.9133  -0.9043
    -0.8873  -0.8703  -0.8690  -0.8441  -0.8248  -0.8037  -0.7990  -0.7950
    -0.7412  -0.7207  -0.7143  -0.7103  -0.6982  -0.6675  -0.6534  -0.6403
    -0.6374  -0.6311  -0.6276  -0.6136  -0.6049  -0.5914  -0.5803  -0.5653
    -0.5290  -0.5155  -0.5049  -0.4798  -0.4550  -0.4447  -0.4214  -0.3936
    -0.3903  -0.3750  -0.3717  -0.3596  -0.3409  -0.3342  -0.3280  -0.2969
    -0.2642  -0.2557  -0.2395  -0.2217  -0.2137  -0.2015  -0.1904  -0.1767
    -0.1227  -0.0500   0.1048   0.1355   0.1917   0.2697   0.3880   0.4083
     0.4496   0.7354

          k = 0.0000 0.4619 0.0000 ( 51204 PWs)   bands (ev):

   -22.0424  -9.0697  -7.1197  -6.4983  -6.2085  -5.8296  -5.6051  -5.3632
    -5.2593  -5.1468  -5.1347  -4.9337  -4.3328  -4.3157  -4.3038  -4.2484
    -4.2153  -4.1279  -4.1253  -4.0540  -3.9947  -3.9878  -3.9819  -3.8295
    -3.8122  -3.8097  -3.7998  -3.7978  -3.7367  -3.6953  -3.6925  -3.5664
    -3.5251  -3.5178  -3.4973  -3.4844  -3.4764  -3.4534  -3.3712  -3.3649
    -3.3519  -3.3458  -3.2769  -3.2111  -3.1491  -3.1036  -3.0566  -3.0371
    -3.0112  -2.9852  -2.9682  -2.9513  -2.9437  -2.9304  -2.9205  -2.8653
    -2.8552  -2.8324  -2.8050  -2.7789  -2.6626  -2.6518  -2.6367  -2.6192
    -2.5644  -2.5395  -2.5147  -2.5031  -2.4918  -2.4228  -2.3719  -2.3693
    -2.3650  -2.3561  -2.3489  -2.3266  -2.3188  -2.2945  -2.2866  -2.2644
    -2.2411  -2.2088  -2.1900  -2.1623  -2.1458  -2.1105  -2.0741  -2.0537
    -2.0374  -2.0212  -2.0068  -1.9917  -1.9739  -1.9413  -1.9311  -1.9226
    -1.9110  -1.8987  -1.8820  -1.8598  -1.8560  -1.8457  -1.8438  -1.8225
    -1.8011  -1.7681  -1.7595  -1.7385  -1.6728  -1.6543  -1.6394  -1.6306
    -1.6153  -1.5814  -1.5511  -1.5290  -1.5251  -1.5040  -1.4990  -1.4927
    -1.4879  -1.4798  -1.4703  -1.4602  -1.4531  -1.4431  -1.4339  -1.4249
    -1.4217  -1.3621  -1.3044  -1.2987  -1.2745  -1.2638  -1.2365  -1.2291
    -1.1971  -1.1413  -1.1293  -1.1217  -1.0790  -1.0585  -1.0263  -0.9922
    -0.9771  -0.9701  -0.9384  -0.9243  -0.9095  -0.8988  -0.8738  -0.7893
    -0.7638  -0.7523  -0.7315  -0.7159  -0.7108  -0.7031  -0.6982  -0.6859
    -0.6813  -0.6519  -0.5763  -0.5661  -0.5540  -0.5428  -0.5322  -0.5302
    -0.5209  -0.5018  -0.4815  -0.4725  -0.4685  -0.4395  -0.3866  -0.3674
    -0.3619  -0.3409  -0.3282  -0.2679  -0.2615  -0.2365  -0.2283  -0.1853
    -0.1636  -0.1477  -0.1430  -0.1303  -0.1176  -0.1113  -0.1093  -0.0696
    -0.0151  -0.0011   0.4648   0.5736   0.8756   1.0963   1.1240   1.3075
     1.4467   1.4865

          k = 0.2000-0.1155 0.0000 ( 51134 PWs)   bands (ev):

   -22.0424  -9.0840  -7.5349  -6.4941  -5.8865  -5.7044  -5.5165  -5.3341
    -5.1996  -5.0637  -5.0299  -4.6232  -4.5260  -4.4853  -4.4768  -4.4181
    -4.3515  -4.2959  -4.2299  -4.2000  -4.1547  -4.0747  -3.8981  -3.7857
    -3.7756  -3.7052  -3.6707  -3.6552  -3.6508  -3.6445  -3.6316  -3.6124
    -3.5926  -3.5492  -3.5259  -3.5078  -3.5006  -3.4493  -3.2888  -3.2777
    -3.2683  -3.2229  -3.2174  -3.2012  -3.1795  -3.1195  -3.0856  -3.0685
    -3.0528  -3.0466  -3.0383  -3.0017  -2.9617  -2.9153  -2.9045  -2.8833
    -2.8429  -2.8370  -2.8073  -2.8037  -2.7800  -2.7447  -2.7382  -2.7319
    -2.6930  -2.6171  -2.4066  -2.3917  -2.3671  -2.3507  -2.3414  -2.2527
    -2.2485  -2.2342  -2.2296  -2.2152  -2.2075  -2.1922  -2.1697  -2.1178
    -2.1142  -2.0958  -2.0813  -2.0505  -2.0438  -2.0332  -2.0208  -2.0146
    -2.0036  -2.0003  -1.9971  -1.9940  -1.9812  -1.9765  -1.9427  -1.8994
    -1.8846  -1.8696  -1.8228  -1.8180  -1.8075  -1.7983  -1.7914  -1.7871
    -1.7813  -1.7744  -1.7691  -1.7526  -1.7518  -1.7308  -1.7155  -1.6989
    -1.6894  -1.6750  -1.6459  -1.6025  -1.5801  -1.5101  -1.4810  -1.4792
    -1.4645  -1.4602  -1.4480  -1.4417  -1.4296  -1.3983  -1.3298  -1.2945
    -1.2584  -1.2144  -1.2009  -1.1758  -1.1565  -1.1298  -1.1038  -1.0898
    -1.0418  -1.0098  -1.0004  -0.9760  -0.9562  -0.9478  -0.9179  -0.9069
    -0.8878  -0.8687  -0.8539  -0.8331  -0.8239  -0.8092  -0.8008  -0.7894
    -0.7296  -0.7214  -0.7122  -0.7097  -0.6911  -0.6604  -0.6496  -0.6464
    -0.6402  -0.6327  -0.6277  -0.6169  -0.6079  -0.5889  -0.5802  -0.5589
    -0.5211  -0.5077  -0.4996  -0.4790  -0.4597  -0.4517  -0.4144  -0.3942
    -0.3879  -0.3801  -0.3665  -0.3637  -0.3426  -0.3338  -0.3275  -0.2915
    -0.2671  -0.2522  -0.2410  -0.2205  -0.2129  -0.2011  -0.1893  -0.1717
    -0.1236  -0.0583   0.0881   0.1341   0.1701   0.2581   0.3727   0.4083
     0.4446   0.7989

          k = 0.2000 0.1155 0.0000 ( 51134 PWs)   bands (ev):

   -22.0424  -9.0833  -7.5360  -6.4962  -5.9144  -5.6843  -5.4815  -5.3651
    -5.1878  -5.0580  -5.0466  -4.6015  -4.5212  -4.4837  -4.4792  -4.4166
    -4.3498  -4.3176  -4.2324  -4.1968  -4.1610  -4.0632  -3.8986  -3.7918
    -3.7676  -3.6970  -3.6657  -3.6553  -3.6508  -3.6483  -3.6396  -3.6209
    -3.5704  -3.5574  -3.5335  -3.5065  -3.5020  -3.4512  -3.2933  -3.2749
    -3.2716  -3.2213  -3.2200  -3.2056  -3.1724  -3.1186  -3.0899  -3.0645
    -3.0512  -3.0479  -3.0409  -3.0097  -2.9569  -2.9136  -2.9035  -2.8847
    -2.8488  -2.8266  -2.8090  -2.8033  -2.7900  -2.7419  -2.7393  -2.7275
    -2.6811  -2.6224  -2.4036  -2.3906  -2.3657  -2.3524  -2.3417  -2.2529
    -2.2463  -2.2403  -2.2285  -2.2201  -2.2058  -2.1944  -2.1540  -2.1173
    -2.1130  -2.0974  -2.0799  -2.0454  -2.0438  -2.0375  -2.0316  -2.0114
    -2.0052  -2.0000  -1.9965  -1.9944  -1.9854  -1.9719  -1.9469  -1.9061
    -1.8789  -1.8701  -1.8242  -1.8173  -1.8101  -1.8009  -1.7922  -1.7851
    -1.7824  -1.7736  -1.7692  -1.7522  -1.7518  -1.7448  -1.7079  -1.7016
    -1.6875  -1.6800  -1.6461  -1.6041  -1.5869  -1.5158  -1.4856  -1.4793
    -1.4654  -1.4555  -1.4496  -1.4417  -1.4303  -1.3892  -1.3139  -1.2921
    -1.2584  -1.2138  -1.1992  -1.1782  -1.1522  -1.1398  -1.1004  -1.0913
    -1.0433  -1.0056  -0.9959  -0.9750  -0.9555  -0.9489  -0.9196  -0.9094
    -0.8851  -0.8691  -0.8569  -0.8348  -0.8261  -0.8095  -0.8029  -0.7891
    -0.7297  -0.7182  -0.7127  -0.7096  -0.6983  -0.6629  -0.6524  -0.6439
    -0.6403  -0.6326  -0.6260  -0.6079  -0.6044  -0.5893  -0.5816  -0.5673
    -0.5220  -0.5015  -0.4950  -0.4809  -0.4642  -0.4509  -0.4140  -0.3947
    -0.3877  -0.3812  -0.3674  -0.3622  -0.3422  -0.3326  -0.3285  -0.2926
    -0.2619  -0.2534  -0.2401  -0.2199  -0.2140  -0.1982  -0.1748  -0.1682
    -0.1214  -0.0819   0.1032   0.1335   0.1692   0.2518   0.3792   0.4036
     0.4456   0.7375

          k = 0.2000 0.3464 0.0000 ( 51202 PWs)   bands (ev):

   -22.0424  -9.0699  -7.2595  -6.3670  -6.0512  -5.9259  -5.6976  -5.5049
    -5.3420  -5.1733  -4.7511  -4.6524  -4.4940  -4.4779  -4.3394  -4.2729
    -4.2692  -4.1738  -4.1644  -4.0798  -4.0395  -4.0027  -3.9002  -3.8825
    -3.8278  -3.7829  -3.6897  -3.6747  -3.6469  -3.6439  -3.6346  -3.6196
    -3.5936  -3.5824  -3.5457  -3.5216  -3.4818  -3.4488  -3.4369  -3.4041
    -3.2978  -3.2457  -3.2166  -3.1966  -3.1724  -3.1549  -3.1023  -3.0564
    -3.0165  -2.9906  -2.9804  -2.9633  -2.9492  -2.9200  -2.9069  -2.8921
    -2.8783  -2.8567  -2.7584  -2.7274  -2.6929  -2.6735  -2.6607  -2.6389
    -2.6143  -2.5785  -2.5049  -2.4378  -2.4246  -2.3944  -2.3828  -2.3490
    -2.3371  -2.3276  -2.3188  -2.2957  -2.2857  -2.2684  -2.2602  -2.2550
    -2.2409  -2.1890  -2.1633  -2.1310  -2.0733  -2.0700  -2.0455  -2.0365
    -2.0274  -2.0019  -1.9720  -1.9669  -1.9525  -1.9331  -1.9133  -1.9099
    -1.9039  -1.8942  -1.8895  -1.8723  -1.8594  -1.8494  -1.8406  -1.8245
    -1.8088  -1.8005  -1.7709  -1.7295  -1.7210  -1.6853  -1.6792  -1.6736
    -1.6604  -1.6534  -1.6196  -1.5859  -1.5711  -1.5610  -1.5435  -1.5104
    -1.5082  -1.4985  -1.4842  -1.4693  -1.4521  -1.4330  -1.4284  -1.3770
    -1.3654  -1.3354  -1.3203  -1.2566  -1.2246  -1.1988  -1.1772  -1.1057
    -1.0873  -1.0662  -1.0563  -1.0488  -1.0410  -1.0354  -1.0073  -0.9959
    -0.9812  -0.9651  -0.9459  -0.9093  -0.9011  -0.8761  -0.8676  -0.8525
    -0.8273  -0.8101  -0.7986  -0.7830  -0.7760  -0.7547  -0.6406  -0.6172
    -0.6088  -0.5952  -0.5749  -0.5663  -0.5510  -0.5432  -0.5251  -0.5184
    -0.5028  -0.4765  -0.4505  -0.4378  -0.4146  -0.4066  -0.3689  -0.3478
    -0.3373  -0.3357  -0.3300  -0.3069  -0.3007  -0.2946  -0.2836  -0.2724
    -0.2570  -0.1821  -0.1708  -0.1653  -0.1250  -0.1155  -0.1061   0.0292
     0.1318   0.2294   0.2453   0.4140   0.5103   0.6314   0.9985   1.1182
     1.2225   1.4104

          k = 0.2000-0.5774 0.0000 ( 51262 PWs)   bands (ev):

   -22.0424  -9.0626  -6.7701  -6.6847  -6.2045  -6.0439  -5.7478  -5.5235
    -5.2692  -5.2106  -4.9757  -4.7077  -4.4729  -4.2382  -4.1889  -4.0812
    -4.0596  -4.0488  -4.0257  -4.0229  -3.9720  -3.9542  -3.9439  -3.9430
    -3.9207  -3.8577  -3.7975  -3.7906  -3.7699  -3.7659  -3.7228  -3.6236
    -3.6124  -3.6067  -3.5797  -3.5394  -3.4797  -3.4541  -3.3906  -3.3187
    -3.3116  -3.2616  -3.2316  -3.2109  -3.1853  -3.1281  -3.1003  -3.0887
    -3.0569  -3.0300  -2.9987  -2.9387  -2.9104  -2.8780  -2.8639  -2.8285
    -2.8141  -2.7397  -2.7362  -2.7208  -2.7123  -2.7014  -2.6756  -2.6415
    -2.5773  -2.5254  -2.5112  -2.5011  -2.4727  -2.4414  -2.4182  -2.3758
    -2.3703  -2.3336  -2.3220  -2.3179  -2.3094  -2.2908  -2.2654  -2.2623
    -2.2435  -2.2335  -2.2179  -2.1895  -2.1853  -2.1550  -2.1104  -2.0923
    -2.0742  -2.0442  -2.0244  -1.9972  -1.9748  -1.9482  -1.9353  -1.9254
    -1.9058  -1.9034  -1.8972  -1.8837  -1.8744  -1.8477  -1.8437  -1.7955
    -1.7728  -1.7539  -1.7458  -1.7363  -1.7176  -1.7137  -1.7075  -1.6964
    -1.6869  -1.6772  -1.6637  -1.6349  -1.6034  -1.5873  -1.5633  -1.5511
    -1.4952  -1.4877  -1.4699  -1.4457  -1.4358  -1.4188  -1.4058  -1.3924
    -1.3495  -1.3367  -1.3230  -1.2772  -1.2226  -1.1944  -1.1886  -1.1747
    -1.1548  -1.1411  -1.1337  -1.1012  -1.0863  -1.0722  -1.0527  -1.0402
    -0.9923  -0.9805  -0.9623  -0.9565  -0.9392  -0.8912  -0.8824  -0.8674
    -0.8589  -0.8471  -0.8358  -0.8172  -0.7951  -0.7678  -0.7479  -0.6055
    -0.5877  -0.5780  -0.5649  -0.5535  -0.5434  -0.5361  -0.5259  -0.4957
    -0.4820  -0.4681  -0.4626  -0.4536  -0.4086  -0.3528  -0.3417  -0.3337
    -0.3252  -0.3067  -0.2942  -0.2828  -0.2425  -0.2381  -0.2296  -0.2208
    -0.2184  -0.1512  -0.1387  -0.1325  -0.1199  -0.1108  -0.0892  -0.0637
     0.1059   0.2455   0.4750   0.8636   1.0630   1.1714   1.2707   1.5142
     1.6678   1.7070

          k = 0.2000-0.3464 0.0000 ( 51202 PWs)   bands (ev):

   -22.0424  -9.0710  -7.2564  -6.3666  -6.0193  -5.9356  -5.7001  -5.5484
    -5.3285  -5.1609  -4.7231  -4.7049  -4.4869  -4.4791  -4.3354  -4.2743
    -4.2685  -4.1734  -4.1677  -4.0739  -4.0292  -4.0182  -3.9050  -3.8815
    -3.8280  -3.7845  -3.6890  -3.6721  -3.6633  -3.6440  -3.6318  -3.6051
    -3.5941  -3.5859  -3.5455  -3.5230  -3.4849  -3.4412  -3.4307  -3.4102
    -3.2993  -3.2432  -3.2170  -3.1937  -3.1757  -3.1490  -3.0853  -3.0561
    -3.0131  -2.9931  -2.9734  -2.9669  -2.9569  -2.9244  -2.8998  -2.8933
    -2.8724  -2.8623  -2.7618  -2.7311  -2.6969  -2.6796  -2.6554  -2.6342
    -2.6203  -2.5784  -2.5040  -2.4396  -2.4126  -2.3950  -2.3828  -2.3499
    -2.3434  -2.3268  -2.3196  -2.2928  -2.2858  -2.2675  -2.2578  -2.2527
    -2.2392  -2.1986  -2.1622  -2.1410  -2.0755  -2.0705  -2.0435  -2.0341
    -2.0249  -1.9997  -1.9771  -1.9653  -1.9488  -1.9299  -1.9166  -1.9085
    -1.9022  -1.8965  -1.8863  -1.8707  -1.8589  -1.8523  -1.8329  -1.8164
    -1.8132  -1.8047  -1.7794  -1.7269  -1.7230  -1.6875  -1.6777  -1.6704
    -1.6656  -1.6526  -1.6088  -1.5913  -1.5729  -1.5466  -1.5339  -1.5135
    -1.5077  -1.4984  -1.4938  -1.4674  -1.4504  -1.4372  -1.4301  -1.3759
    -1.3669  -1.3315  -1.3169  -1.2649  -1.2229  -1.1929  -1.1671  -1.1135
    -1.0893  -1.0643  -1.0558  -1.0523  -1.0465  -1.0365  -1.0065  -0.9939
    -0.9782  -0.9687  -0.9511  -0.9124  -0.8987  -0.8813  -0.8662  -0.8490
    -0.8272  -0.8180  -0.7926  -0.7801  -0.7729  -0.7545  -0.6389  -0.6245
    -0.6047  -0.5908  -0.5733  -0.5640  -0.5592  -0.5377  -0.5328  -0.5131
    -0.5060  -0.4817  -0.4463  -0.4351  -0.4151  -0.4085  -0.3697  -0.3476
    -0.3385  -0.3331  -0.3307  -0.3075  -0.3017  -0.2928  -0.2831  -0.2712
    -0.2583  -0.1820  -0.1718  -0.1673  -0.1211  -0.1169  -0.1151   0.0394
     0.1122   0.2298   0.2401   0.4431   0.5104   0.6199   1.0083   1.1148
     1.2264   1.3603

          k = 0.4000-0.2309 0.0000 ( 51204 PWs)   bands (ev):

   -22.0424  -9.0643  -7.1271  -6.5048  -6.2166  -5.8895  -5.5414  -5.3665
    -5.2128  -5.1642  -5.1306  -4.9436  -4.3549  -4.3212  -4.2845  -4.2485
    -4.2081  -4.1299  -4.1261  -4.0335  -4.0000  -3.9875  -3.9645  -3.8339
    -3.8120  -3.8043  -3.8008  -3.7986  -3.7265  -3.6997  -3.6903  -3.6189
    -3.5278  -3.5180  -3.5014  -3.4842  -3.4783  -3.4362  -3.3720  -3.3657
    -3.3540  -3.3441  -3.3087  -3.2208  -3.1372  -3.1101  -3.0457  -3.0324
    -3.0070  -2.9892  -2.9681  -2.9535  -2.9422  -2.9331  -2.9188  -2.8704
    -2.8540  -2.8339  -2.7928  -2.7710  -2.6618  -2.6487  -2.6245  -2.6077
    -2.5738  -2.5377  -2.5210  -2.5024  -2.4934  -2.4272  -2.3721  -2.3683
    -2.3658  -2.3547  -2.3464  -2.3260  -2.3140  -2.3047  -2.2766  -2.2541
    -2.2416  -2.2103  -2.1914  -2.1645  -2.1405  -2.1268  -2.0680  -2.0565
    -2.0369  -2.0232  -2.0086  -1.9847  -1.9782  -1.9361  -1.9298  -1.9183
    -1.9109  -1.8965  -1.8842  -1.8669  -1.8564  -1.8501  -1.8440  -1.8158
    -1.8029  -1.7684  -1.7581  -1.7376  -1.6704  -1.6596  -1.6299  -1.6248
    -1.6087  -1.5833  -1.5648  -1.5261  -1.5194  -1.5071  -1.5029  -1.4942
    -1.4870  -1.4778  -1.4725  -1.4657  -1.4582  -1.4437  -1.4292  -1.4185
    -1.3910  -1.3776  -1.3186  -1.2910  -1.2735  -1.2648  -1.2435  -1.2183
    -1.1984  -1.1528  -1.1269  -1.1175  -1.0940  -1.0741  -1.0373  -1.0137
    -0.9931  -0.9645  -0.9401  -0.9324  -0.9053  -0.8830  -0.8521  -0.8023
    -0.7574  -0.7361  -0.7265  -0.7131  -0.7092  -0.7030  -0.6954  -0.6860
    -0.6706  -0.6516  -0.5699  -0.5639  -0.5534  -0.5434  -0.5329  -0.5185
    -0.5117  -0.4943  -0.4840  -0.4774  -0.4667  -0.4439  -0.3768  -0.3623
    -0.3547  -0.3480  -0.3209  -0.2692  -0.2628  -0.2326  -0.2265  -0.1869
    -0.1630  -0.1466  -0.1408  -0.1206  -0.1171  -0.1147  -0.1070  -0.0724
    -0.0157  -0.0020   0.3754   0.6026   0.9117   1.0770   1.1164   1.2546
     1.4469   1.4953

          k = 0.4000 0.0000 0.0000 ( 51202 PWs)   bands (ev):

   -22.0424  -9.0665  -7.2637  -6.3664  -6.0854  -5.9214  -5.6966  -5.4785
    -5.3518  -5.1525  -4.7737  -4.6185  -4.4941  -4.4902  -4.3406  -4.2754
    -4.2649  -4.1720  -4.1656  -4.0990  -4.0426  -3.9641  -3.9031  -3.8825
    -3.8244  -3.7857  -3.6911  -3.6811  -3.6547  -3.6438  -3.6367  -3.6137
    -3.5927  -3.5815  -3.5577  -3.5255  -3.4812  -3.4550  -3.4422  -3.4005
    -3.3111  -3.2504  -3.2173  -3.1925  -3.1672  -3.1580  -3.0891  -3.0520
    -3.0249  -2.9862  -2.9782  -2.9691  -2.9480  -2.9176  -2.9065  -2.8917
    -2.8808  -2.8617  -2.7701  -2.7063  -2.6952  -2.6750  -2.6474  -2.6320
    -2.6178  -2.5745  -2.5080  -2.4361  -2.4183  -2.3936  -2.3847  -2.3494
    -2.3432  -2.3295  -2.3210  -2.3025  -2.2820  -2.2717  -2.2635  -2.2531
    -2.2236  -2.1960  -2.1700  -2.1202  -2.0741  -2.0681  -2.0521  -2.0360
    -2.0192  -2.0036  -1.9807  -1.9618  -1.9528  -1.9332  -1.9086  -1.9047
    -1.9009  -1.8989  -1.8925  -1.8735  -1.8649  -1.8488  -1.8318  -1.8224
    -1.8095  -1.7832  -1.7520  -1.7287  -1.7221  -1.6970  -1.6774  -1.6708
    -1.6605  -1.6506  -1.6290  -1.5927  -1.5728  -1.5613  -1.5400  -1.5277
    -1.5106  -1.5003  -1.4909  -1.4807  -1.4593  -1.4413  -1.4248  -1.3731
    -1.3630  -1.3384  -1.3265  -1.2395  -1.2202  -1.2042  -1.1837  -1.1045
    -1.0816  -1.0677  -1.0653  -1.0486  -1.0428  -1.0324  -1.0076  -1.0038
    -0.9867  -0.9601  -0.9444  -0.9027  -0.8880  -0.8732  -0.8714  -0.8537
    -0.8218  -0.8135  -0.8016  -0.7815  -0.7760  -0.7549  -0.6342  -0.6176
    -0.5983  -0.5863  -0.5772  -0.5649  -0.5585  -0.5356  -0.5305  -0.5218
    -0.5021  -0.4830  -0.4521  -0.4380  -0.4174  -0.4006  -0.3616  -0.3448
    -0.3388  -0.3353  -0.3283  -0.3073  -0.3008  -0.2904  -0.2871  -0.2696
    -0.2580  -0.1802  -0.1728  -0.1667  -0.1272  -0.1219  -0.0952   0.0294
     0.1924   0.2246   0.2588   0.3503   0.5210   0.6090   0.9293   1.1201
     1.2089   1.4635

          k = 0.4000 0.2309 0.0000 ( 51204 PWs)   bands (ev):

   -22.0424  -9.0624  -7.1322  -6.5111  -6.2250  -5.9107  -5.4627  -5.3883
    -5.2321  -5.1575  -5.1318  -4.9365  -4.3535  -4.3180  -4.3068  -4.2436
    -4.2034  -4.1299  -4.1273  -4.0176  -3.9973  -3.9900  -3.9381  -3.8414
    -3.8118  -3.8048  -3.7996  -3.7973  -3.7149  -3.6972  -3.6809  -3.6553
    -3.5298  -3.5264  -3.5106  -3.4846  -3.4820  -3.4314  -3.3715  -3.3645
    -3.3505  -3.3421  -3.3119  -3.2232  -3.1421  -3.1014  -3.0494  -3.0298
    -3.0141  -2.9813  -2.9680  -2.9619  -2.9489  -2.9285  -2.9076  -2.8713
    -2.8579  -2.8344  -2.8022  -2.7581  -2.6565  -2.6497  -2.6330  -2.6079
    -2.5752  -2.5363  -2.5142  -2.5098  -2.4958  -2.4260  -2.3718  -2.3692
    -2.3624  -2.3585  -2.3445  -2.3263  -2.3145  -2.3060  -2.2785  -2.2451
    -2.2358  -2.2105  -2.1945  -2.1741  -2.1408  -2.1182  -2.0659  -2.0554
    -2.0365  -2.0267  -2.0079  -2.0000  -1.9727  -1.9370  -1.9299  -1.9207
    -1.9115  -1.8995  -1.8820  -1.8735  -1.8572  -1.8495  -1.8450  -1.8160
    -1.8010  -1.7886  -1.7510  -1.7378  -1.6737  -1.6609  -1.6329  -1.6221
    -1.6072  -1.5834  -1.5590  -1.5249  -1.5204  -1.5090  -1.5047  -1.4969
    -1.4912  -1.4785  -1.4711  -1.4641  -1.4596  -1.4413  -1.4211  -1.4088
    -1.3937  -1.3788  -1.3300  -1.2911  -1.2719  -1.2569  -1.2382  -1.2208
    -1.1998  -1.1516  -1.1275  -1.1158  -1.0879  -1.0742  -1.0446  -1.0063
    -0.9930  -0.9682  -0.9387  -0.9313  -0.9029  -0.8829  -0.8558  -0.8203
    -0.7462  -0.7317  -0.7209  -0.7137  -0.7095  -0.6994  -0.6931  -0.6825
    -0.6750  -0.6693  -0.5708  -0.5625  -0.5555  -0.5426  -0.5337  -0.5174
    -0.5041  -0.4999  -0.4868  -0.4734  -0.4572  -0.4472  -0.3771  -0.3621
    -0.3547  -0.3489  -0.3197  -0.2680  -0.2631  -0.2297  -0.2273  -0.1864
    -0.1707  -0.1443  -0.1413  -0.1211  -0.1188  -0.1100  -0.0935  -0.0786
    -0.0149  -0.0004   0.3833   0.6438   0.8637   1.0319   1.1218   1.1999
     1.4623   1.5425

          k = 0.4000-0.6928 0.0000 ( 51262 PWs)   bands (ev):

   -22.0424  -9.0581  -6.8019  -6.6738  -6.2127  -5.9587  -5.9154  -5.3976
    -5.2208  -5.2107  -5.0468  -4.7066  -4.4741  -4.2377  -4.1858  -4.0624
    -4.0577  -4.0337  -4.0256  -4.0006  -3.9701  -3.9530  -3.9464  -3.9423
    -3.9279  -3.8225  -3.8032  -3.7936  -3.7771  -3.7618  -3.7488  -3.6349
    -3.6124  -3.6079  -3.5895  -3.5663  -3.5074  -3.4484  -3.3561  -3.3166
    -3.3147  -3.2968  -3.2203  -3.2078  -3.1823  -3.1366  -3.0992  -3.0972
    -3.0611  -3.0176  -2.9983  -2.9361  -2.9126  -2.8816  -2.8673  -2.8204
    -2.8038  -2.7417  -2.7328  -2.7282  -2.7147  -2.7057  -2.6556  -2.6445
    -2.5728  -2.5191  -2.5129  -2.4977  -2.4880  -2.4478  -2.4259  -2.3732
    -2.3616  -2.3329  -2.3285  -2.3154  -2.3047  -2.2798  -2.2660  -2.2585
    -2.2384  -2.2260  -2.2045  -2.1937  -2.1843  -2.1576  -2.1217  -2.1047
    -2.0890  -2.0543  -2.0237  -1.9866  -1.9696  -1.9486  -1.9343  -1.9249
    -1.9120  -1.9029  -1.8973  -1.8780  -1.8640  -1.8543  -1.8446  -1.7805
    -1.7668  -1.7535  -1.7465  -1.7339  -1.7185  -1.7120  -1.7049  -1.6979
    -1.6929  -1.6755  -1.6628  -1.6530  -1.6061  -1.5830  -1.5756  -1.5415
    -1.5208  -1.4982  -1.4685  -1.4422  -1.4278  -1.4192  -1.4060  -1.3902
    -1.3432  -1.3383  -1.3114  -1.2670  -1.2240  -1.2058  -1.1880  -1.1750
    -1.1522  -1.1338  -1.1316  -1.1087  -1.0965  -1.0774  -1.0603  -1.0318
    -0.9934  -0.9882  -0.9676  -0.9457  -0.9354  -0.8945  -0.8848  -0.8764
    -0.8575  -0.8472  -0.8290  -0.8140  -0.7838  -0.7754  -0.7492  -0.5915
    -0.5853  -0.5714  -0.5662  -0.5561  -0.5498  -0.5338  -0.5293  -0.4902
    -0.4835  -0.4723  -0.4665  -0.4448  -0.4034  -0.3495  -0.3382  -0.3334
    -0.3166  -0.3070  -0.2906  -0.2543  -0.2486  -0.2394  -0.2306  -0.2239
    -0.2135  -0.2040  -0.1387  -0.1337  -0.1192  -0.1127  -0.0869  -0.0609
     0.1374   0.2605   0.5475   0.7337   1.0346   1.1763   1.2160   1.5697
     1.6769   1.7104

          k = 0.4000-0.4619 0.0000 ( 51262 PWs)   bands (ev):

   -22.0424  -9.0592  -6.7896  -6.6765  -6.2122  -6.0153  -5.8288  -5.4512
    -5.2525  -5.2019  -5.0112  -4.7032  -4.4728  -4.2358  -4.1893  -4.0649
    -4.0578  -4.0457  -4.0255  -4.0197  -3.9736  -3.9509  -3.9455  -3.9420
    -3.9248  -3.8459  -3.7972  -3.7951  -3.7738  -3.7668  -3.7232  -3.6301
    -3.6116  -3.6056  -3.5834  -3.5558  -3.5071  -3.4524  -3.3649  -3.3169
    -3.3115  -3.2971  -3.2245  -3.2077  -3.1834  -3.1306  -3.1001  -3.0933
    -3.0500  -3.0251  -2.9989  -2.9350  -2.9128  -2.8841  -2.8646  -2.8253
    -2.8024  -2.7408  -2.7354  -2.7247  -2.7140  -2.7033  -2.6690  -2.6295
    -2.5746  -2.5194  -2.5111  -2.5020  -2.4821  -2.4380  -2.4332  -2.3760
    -2.3642  -2.3340  -2.3248  -2.3119  -2.3084  -2.2855  -2.2645  -2.2599
    -2.2406  -2.2318  -2.2125  -2.1903  -2.1832  -2.1445  -2.1097  -2.1063
    -2.0891  -2.0632  -2.0198  -1.9888  -1.9701  -1.9453  -1.9336  -1.9284
    -1.9086  -1.9023  -1.8943  -1.8844  -1.8672  -1.8468  -1.8417  -1.7829
    -1.7719  -1.7485  -1.7446  -1.7399  -1.7209  -1.7143  -1.7085  -1.6959
    -1.6906  -1.6828  -1.6609  -1.6451  -1.6044  -1.5842  -1.5747  -1.5373
    -1.5043  -1.4989  -1.4790  -1.4418  -1.4270  -1.4162  -1.4077  -1.3895
    -1.3434  -1.3410  -1.3176  -1.2657  -1.2232  -1.2076  -1.1819  -1.1744
    -1.1517  -1.1372  -1.1267  -1.1227  -1.0895  -1.0740  -1.0619  -1.0354
    -0.9951  -0.9897  -0.9669  -0.9487  -0.9323  -0.8961  -0.8830  -0.8685
    -0.8570  -0.8469  -0.8390  -0.8108  -0.7846  -0.7701  -0.7529  -0.5999
    -0.5820  -0.5688  -0.5627  -0.5553  -0.5424  -0.5381  -0.5270  -0.4895
    -0.4849  -0.4772  -0.4625  -0.4483  -0.4034  -0.3498  -0.3401  -0.3344
    -0.3104  -0.3059  -0.2985  -0.2781  -0.2506  -0.2372  -0.2297  -0.2162
    -0.2108  -0.1850  -0.1369  -0.1348  -0.1201  -0.1113  -0.0876  -0.0628
     0.1217   0.2550   0.5012   0.8466   0.9992   1.1761   1.2279   1.5312
     1.6501   1.7211

 ------ SPIN DOWN ----------


          k = 0.0000 0.0000 0.0000 ( 51087 PWs)   bands (ev):

   -22.1353  -9.1787  -7.8041  -6.6419  -5.8156  -5.6820  -5.4089  -5.1619
    -4.6434  -4.6306  -4.6280  -4.6117  -4.6000  -4.5687  -4.2518  -3.7620
    -3.7573  -3.7406  -3.7369  -3.7209  -3.6486  -3.3434  -2.8217  -2.8137
    -2.8017  -2.7999  -2.7170  -2.6015  -2.3590  -2.3487  -2.3407  -2.3373
    -2.3148  -2.2314  -2.1445  -2.1402  -2.0713  -2.0611  -2.0456  -2.0442
    -1.9609  -1.9567  -1.9105  -1.9065  -1.8487  -1.8242  -1.8065  -1.7969
    -1.7629  -1.7201  -1.5626  -1.5549  -1.5375  -1.5290  -1.5265  -1.5234
    -1.5084  -1.5075  -1.4775  -1.4618  -1.4371  -1.4349  -1.4305  -1.4296
    -1.3538  -1.2630  -0.9132  -0.8824  -0.8485  -0.8466  -0.7834  -0.7262
    -0.6525  -0.6208  -0.5472  -0.5409  -0.5298  -0.5225  -0.5112  -0.4921
    -0.4779  -0.4636  -0.4503  -0.4367  -0.4326  -0.4311  -0.4001  -0.3909
    -0.3727  -0.3297  -0.3218  -0.3043  -0.2961  -0.2884  -0.2736  -0.2718
    -0.2650  -0.2483  -0.2435  -0.2414  -0.2404  -0.2378  -0.2163  -0.1478
    -0.1317  -0.1234  -0.1124  -0.0651  -0.0387  -0.0282  -0.0149  -0.0119
    -0.0092  -0.0057  -0.0011   0.0648   0.0652   0.0702   0.1170   0.1387
     0.1483   0.1604   0.1665   0.2070   0.2527   0.3790   0.3852   0.4429
     0.4537   0.4556   0.4664   0.4731   0.6224   0.6741   0.7698   0.7890
     0.8154   0.8417   0.9973   1.0109   1.0186   1.0353   1.0372   1.0428
     1.0675   1.1670   1.1824   1.1975   1.2120   1.2151   1.2269   1.2499
     1.2532   1.2676   1.2787   1.2918   1.3092   1.3181   1.3243   1.3496
     1.3584   1.3638   1.3691   1.3866   1.4118   1.4213   1.4301   1.4398
     1.4479   1.4563   1.4712   1.4807   1.4840   1.4965   1.4991   1.5331
     1.5429   1.5598   1.5604   1.5686   1.5736   1.5794   1.5855   1.6237
     1.6300   1.6310   1.6334   1.6390   1.6401   1.6540   1.6573   1.6672
     1.6705   1.7168   1.7176   1.8572   1.8657   1.8688   1.8718   1.8746
     1.8755   2.0566

          k = 0.0000 0.2309 0.0000 ( 51134 PWs)   bands (ev):

   -22.1353  -9.1682  -7.6627  -6.5426  -5.8654  -5.7086  -5.5474  -5.3861
    -5.1596  -4.9898  -4.9205  -4.4676  -4.1348  -4.0813  -4.0595  -3.9620
    -3.8507  -3.7774  -3.4619  -3.4090  -3.3656  -3.2644  -2.9382  -2.8146
    -2.7710  -2.7253  -2.6827  -2.6183  -2.4454  -2.3774  -2.3733  -2.3588
    -2.3379  -2.2905  -2.2871  -2.2837  -2.2425  -2.2051  -2.1086  -2.1025
    -2.0203  -2.0161  -1.9489  -1.8784  -1.8356  -1.8246  -1.8087  -1.7064
    -1.6842  -1.6537  -1.6112  -1.5811  -1.5571  -1.5400  -1.5316  -1.5237
    -1.5151  -1.5029  -1.4158  -1.4045  -1.3894  -1.3704  -1.3340  -1.2889
    -1.2490  -1.1606  -0.9663  -0.9211  -0.8988  -0.8949  -0.8330  -0.7956
    -0.7368  -0.7109  -0.6858  -0.6481  -0.6093  -0.5801  -0.5635  -0.5504
    -0.5118  -0.5014  -0.4914  -0.4830  -0.4751  -0.4497  -0.4124  -0.3951
    -0.3695  -0.3215  -0.3194  -0.3082  -0.2903  -0.2744  -0.2559  -0.2494
    -0.2436  -0.2375  -0.2307  -0.2224  -0.2191  -0.2170  -0.1788  -0.1652
    -0.1525  -0.1375  -0.1222  -0.1124  -0.0871  -0.0769  -0.0598  -0.0359
    -0.0311  -0.0027   0.0184   0.0554   0.0928   0.0999   0.1281   0.1322
     0.2141   0.2552   0.2893   0.3430   0.3498   0.3570   0.4170   0.4251
     0.4323   0.4386   0.4451   0.4520   0.5817   0.7003   0.7698   0.7772
     0.7883   0.7945   0.8072   0.8192   0.8662   0.8823   0.9390   0.9575
     0.9971   1.0287   1.0568   1.0655   1.0911   1.1129   1.1350   1.1860
     1.2139   1.2304   1.2444   1.2471   1.2726   1.2799   1.3207   1.3290
     1.3469   1.3671   1.4131   1.4197   1.4351   1.4398   1.4648   1.4748
     1.5133   1.5202   1.5250   1.5294   1.5554   1.6093   1.6135   1.6234
     1.6264   1.6542   1.6565   1.6826   1.6913   1.6967   1.7055   1.7121
     1.7336   1.7724   1.7794   1.7916   1.7953   1.8048   1.8180   1.8348
     1.8574   1.8603   1.8633   1.9008   1.9562   1.9659   1.9683   2.0217
     2.0482   2.1086

          k = 0.0000 0.4619 0.0000 ( 51204 PWs)   bands (ev):

   -22.1353  -9.1518  -7.2426  -6.5858  -6.2522  -5.8256  -5.6512  -5.4049
    -5.2755  -5.1630  -5.1064  -4.8075  -4.1150  -4.0298  -3.8590  -3.4644
    -3.4618  -3.4017  -3.3370  -3.1679  -3.0641  -3.0202  -2.9925  -2.8629
    -2.8592  -2.8003  -2.7504  -2.6983  -2.6453  -2.6219  -2.6082  -2.5600
    -2.5434  -2.4071  -2.3358  -2.3214  -2.2549  -2.2291  -2.1360  -2.1229
    -2.1085  -2.0983  -2.0316  -1.8529  -1.8262  -1.7995  -1.7804  -1.7290
    -1.6072  -1.6023  -1.5878  -1.5789  -1.5613  -1.5412  -1.5331  -1.5122
    -1.4844  -1.4242  -1.4115  -1.3972  -1.3729  -1.3589  -1.2170  -1.1825
    -1.0791  -1.0487  -0.9494  -0.9264  -0.9065  -0.8751  -0.8658  -0.8540
    -0.8378  -0.8180  -0.7905  -0.7791  -0.7151  -0.6959  -0.6722  -0.6457
    -0.6243  -0.6025  -0.5836  -0.5760  -0.5429  -0.5062  -0.4642  -0.4211
    -0.3979  -0.3724  -0.3527  -0.3425  -0.3035  -0.2826  -0.2645  -0.2328
    -0.2159  -0.2031  -0.1909  -0.1827  -0.1721  -0.1675  -0.1207  -0.1098
    -0.1065  -0.0822  -0.0725  -0.0652  -0.0563  -0.0409  -0.0293  -0.0043
     0.0033   0.0161   0.0518   0.0933   0.1436   0.1467   0.1661   0.2001
     0.2077   0.2163   0.2455   0.2629   0.3102   0.3173   0.3294   0.3513
     0.3811   0.4006   0.4110   0.4208   0.4575   0.5174   0.5802   0.5907
     0.6634   0.6757   0.7571   0.7746   0.8297   0.8480   0.8701   0.8829
     0.9056   0.9142   0.9378   0.9843   0.9873   1.0456   1.1667   1.1789
     1.1842   1.2185   1.2319   1.2374   1.2821   1.2999   1.3368   1.3393
     1.3687   1.3823   1.3966   1.4640   1.4738   1.4823   1.5359   1.5395
     1.5464   1.5501   1.5734   1.5868   1.6096   1.6242   1.6356   1.6585
     1.6670   1.7061   1.7319   1.7727   1.7836   1.7978   1.8077   1.8192
     1.8266   1.8590   1.8619   1.8757   1.8877   1.8973   1.9068   1.9085
     1.9542   2.0131   2.0461   2.1114   2.1176   2.1947   2.5460   2.6260
     2.6519   2.7052

          k = 0.2000-0.1155 0.0000 ( 51134 PWs)   bands (ev):

   -22.1353  -9.1664  -7.6641  -6.5446  -5.9006  -5.6963  -5.5292  -5.3826
    -5.1453  -4.9943  -4.9336  -4.4191  -4.2070  -4.0765  -4.0643  -3.9292
    -3.8492  -3.7807  -3.4764  -3.3967  -3.3359  -3.2677  -2.9764  -2.7902
    -2.7817  -2.7397  -2.6812  -2.5986  -2.4586  -2.3745  -2.3734  -2.3631
    -2.3302  -2.3019  -2.2883  -2.2854  -2.2396  -2.1969  -2.1065  -2.1021
    -2.0216  -2.0161  -1.9662  -1.8522  -1.8344  -1.8245  -1.8061  -1.7118
    -1.6792  -1.6521  -1.6153  -1.5747  -1.5612  -1.5385  -1.5301  -1.5288
    -1.5084  -1.4999  -1.4205  -1.4036  -1.3865  -1.3676  -1.3376  -1.2983
    -1.2398  -1.1685  -0.9629  -0.9152  -0.9044  -0.8925  -0.8343  -0.7865
    -0.7619  -0.7214  -0.6841  -0.6497  -0.6094  -0.5833  -0.5583  -0.5474
    -0.5142  -0.5050  -0.4875  -0.4766  -0.4663  -0.4600  -0.4219  -0.3995
    -0.3595  -0.3271  -0.3207  -0.3170  -0.3019  -0.2672  -0.2607  -0.2507
    -0.2429  -0.2347  -0.2286  -0.2228  -0.2178  -0.2145  -0.1819  -0.1665
    -0.1420  -0.1385  -0.1174  -0.1106  -0.1031  -0.0831  -0.0647  -0.0373
    -0.0248  -0.0115   0.0281   0.0666   0.0893   0.1050   0.1148   0.1331
     0.2336   0.2587   0.2964   0.3416   0.3507   0.3674   0.4053   0.4278
     0.4318   0.4410   0.4478   0.4525   0.5869   0.7023   0.7682   0.7773
     0.7880   0.7984   0.8102   0.8262   0.8656   0.8724   0.9413   0.9657
     0.9962   1.0393   1.0644   1.0775   1.0991   1.1141   1.1317   1.1416
     1.2102   1.2348   1.2485   1.2541   1.2709   1.2828   1.3191   1.3283
     1.3419   1.3593   1.4072   1.4215   1.4331   1.4421   1.4616   1.4986
     1.5151   1.5205   1.5263   1.5305   1.5500   1.6006   1.6111   1.6180
     1.6231   1.6488   1.6581   1.6852   1.6947   1.6978   1.7058   1.7170
     1.7321   1.7753   1.7792   1.7945   1.7966   1.8058   1.8138   1.8359
     1.8494   1.8593   1.8632   1.8854   1.9572   1.9641   1.9706   2.0280
     2.0440   2.1031

          k = 0.2000 0.1155 0.0000 ( 51134 PWs)   bands (ev):

   -22.1353  -9.1657  -7.6651  -6.5465  -5.9275  -5.6770  -5.4961  -5.4075
    -5.1301  -4.9928  -4.9560  -4.3693  -4.2237  -4.0822  -4.0633  -3.9710
    -3.8332  -3.7787  -3.4777  -3.4099  -3.3161  -3.2509  -2.9829  -2.8230
    -2.7728  -2.7264  -2.6985  -2.5762  -2.4644  -2.3782  -2.3713  -2.3570
    -2.3368  -2.3047  -2.2892  -2.2860  -2.2496  -2.1809  -2.1045  -2.1023
    -2.0198  -2.0168  -1.9688  -1.8666  -1.8282  -1.8212  -1.7960  -1.7047
    -1.6880  -1.6614  -1.6026  -1.5907  -1.5538  -1.5427  -1.5292  -1.5212
    -1.5203  -1.4763  -1.4398  -1.3994  -1.3871  -1.3674  -1.3383  -1.2968
    -1.2399  -1.1706  -0.9623  -0.9177  -0.9037  -0.8907  -0.8313  -0.8186
    -0.7777  -0.6973  -0.6693  -0.6441  -0.6212  -0.5789  -0.5672  -0.5376
    -0.5190  -0.5089  -0.4859  -0.4742  -0.4701  -0.4512  -0.4423  -0.3793
    -0.3520  -0.3236  -0.3190  -0.3149  -0.3041  -0.2681  -0.2567  -0.2512
    -0.2446  -0.2353  -0.2271  -0.2214  -0.2187  -0.2155  -0.1841  -0.1668
    -0.1502  -0.1365  -0.1194  -0.1109  -0.1078  -0.0871  -0.0572  -0.0445
    -0.0229   0.0012   0.0342   0.0644   0.0872   0.1045   0.1200   0.1328
     0.2007   0.2711   0.2958   0.3370   0.3482   0.3782   0.4067   0.4234
     0.4337   0.4425   0.4473   0.4532   0.6054   0.6892   0.7661   0.7805
     0.7910   0.8028   0.8090   0.8225   0.8549   0.8817   0.9454   0.9619
     0.9878   1.0463   1.0648   1.0778   1.0987   1.1223   1.1318   1.1450
     1.2037   1.2307   1.2467   1.2583   1.2746   1.2833   1.3146   1.3269
     1.3397   1.3639   1.4114   1.4191   1.4336   1.4412   1.4593   1.4984
     1.5139   1.5217   1.5275   1.5381   1.5433   1.5940   1.6091   1.6172
     1.6261   1.6511   1.6556   1.6845   1.6928   1.7012   1.7045   1.7172
     1.7339   1.7764   1.7794   1.7931   1.7975   1.8056   1.8186   1.8349
     1.8485   1.8574   1.8638   1.8773   1.9564   1.9641   1.9738   2.0245
     2.0488   2.0992

          k = 0.2000 0.3464 0.0000 ( 51202 PWs)   bands (ev):

   -22.1353  -9.1523  -7.3848  -6.3992  -6.1104  -6.0053  -5.7022  -5.5322
    -5.3860  -5.1180  -4.6741  -4.5115  -4.2699  -4.2495  -3.9238  -3.4434
    -3.4305  -3.4259  -3.4161  -3.2892  -3.1633  -3.1311  -3.1071  -2.9139
    -2.7614  -2.6883  -2.6768  -2.6528  -2.5861  -2.5691  -2.5622  -2.4788
    -2.4712  -2.4638  -2.4293  -2.3181  -2.3033  -2.2490  -2.0952  -2.0880
    -2.0656  -2.0021  -1.9641  -1.9499  -1.9149  -1.7980  -1.7422  -1.7380
    -1.6373  -1.6096  -1.5695  -1.5672  -1.5557  -1.5458  -1.5244  -1.5075
    -1.4970  -1.4812  -1.4268  -1.3794  -1.3504  -1.3022  -1.1971  -1.1683
    -1.1072  -1.0800  -0.9921  -0.9357  -0.8976  -0.8691  -0.8415  -0.8244
    -0.8118  -0.7779  -0.7480  -0.7243  -0.7072  -0.6824  -0.6603  -0.6492
    -0.6387  -0.6211  -0.6013  -0.5709  -0.5405  -0.4518  -0.4370  -0.4220
    -0.4117  -0.3808  -0.3509  -0.3328  -0.3180  -0.2996  -0.2887  -0.2805
    -0.2653  -0.2446  -0.2311  -0.2155  -0.1987  -0.1838  -0.1683  -0.1345
    -0.1181  -0.1130  -0.1063  -0.0897  -0.0735  -0.0673  -0.0536  -0.0444
     0.0417   0.0444   0.0513   0.0717   0.1361   0.1667   0.2032   0.2234
     0.2462   0.2637   0.2984   0.3196   0.3469   0.3569   0.3721   0.3799
     0.3856   0.4157   0.4297   0.4745   0.5190   0.5974   0.6727   0.6956
     0.7421   0.7722   0.7978   0.8260   0.8419   0.8464   0.8623   0.8833
     0.8946   0.9028   0.9257   0.9393   0.9790   1.0280   1.0820   1.0914
     1.1153   1.1456   1.1493   1.1779   1.1998   1.2485   1.2647   1.3122
     1.3312   1.3752   1.4611   1.4876   1.5033   1.5141   1.5312   1.5413
     1.5655   1.5737   1.5901   1.5963   1.6564   1.6647   1.6761   1.6809
     1.6943   1.7195   1.7345   1.7449   1.7563   1.7709   1.7757   1.7986
     1.8158   1.8175   1.8284   1.8430   1.8517   1.8637   1.9063   1.9347
     1.9440   1.9900   2.0466   2.0747   2.1785   2.2115   2.3457   2.4685
     2.5275   2.5457

          k = 0.2000-0.5774 0.0000 ( 51262 PWs)   bands (ev):

   -22.1353  -9.1450  -6.8701  -6.8043  -6.2554  -6.0887  -5.7546  -5.5780
    -5.3086  -5.2524  -4.8967  -4.5753  -4.3108  -3.7841  -3.4855  -3.4615
    -3.4578  -3.3824  -3.2122  -3.1378  -3.0520  -3.0418  -3.0367  -2.9078
    -2.9057  -2.8904  -2.8685  -2.8664  -2.7467  -2.6251  -2.5243  -2.5142
    -2.4935  -2.4634  -2.4399  -2.4233  -2.3695  -2.3143  -2.2384  -2.0445
    -1.9796  -1.9689  -1.9617  -1.9182  -1.8808  -1.7985  -1.7355  -1.7237
    -1.6858  -1.6737  -1.6650  -1.5628  -1.5421  -1.5081  -1.4990  -1.4787
    -1.4442  -1.3905  -1.3418  -1.3325  -1.2891  -1.2692  -1.2449  -1.1446
    -1.0971  -0.9945  -0.9574  -0.9478  -0.9336  -0.8760  -0.8712  -0.8245
    -0.8137  -0.7991  -0.7705  -0.7492  -0.7329  -0.6909  -0.6751  -0.6699
    -0.6426  -0.6294  -0.6097  -0.5938  -0.5904  -0.5763  -0.5403  -0.5212
[...]
     atom    8 type  1   force =     0.00465438   -0.00155590   -0.10058295
     atom    9 type  1   force =    -0.00055471   -0.00228646   -0.10480671
     atom   10 type  1   force =    -0.00068313    0.00148432   -0.01208937
     atom   11 type  1   force =     0.00063668    0.00068301   -0.00740718
     atom   12 type  1   force =     0.00036263    0.00047305   -0.01009443
     atom   13 type  1   force =     0.00203995   -0.00145346   -0.01227399
     atom   14 type  1   force =    -0.00178229   -0.00066397   -0.01046034
     atom   15 type  1   force =    -0.00061521   -0.00063774   -0.01395254
     atom   16 type  1   force =    -0.00111874   -0.00026572   -0.01740620
     atom   17 type  1   force =     0.00238623   -0.00083385   -0.01115350
     atom   18 type  1   force =    -0.00167132    0.00209128   -0.01541063
     atom   19 type  1   force =     0.00152993    0.00689466    0.00840174
     atom   20 type  1   force =    -0.00384340    0.00909914    0.00017707
     atom   21 type  1   force =     0.00215730    0.00162580    0.01452333
     atom   22 type  1   force =     0.00113725   -0.00004237    0.02078640
     atom   23 type  1   force =    -0.00027079    0.00107505    0.00822857
     atom   24 type  1   force =    -0.00101503    0.00120800    0.01542628
     atom   25 type  1   force =    -0.00304871   -0.00505961   -0.00299780
     atom   26 type  1   force =     0.00078008   -0.00648589    0.00075793
     atom   27 type  1   force =     0.00278210   -0.00633595    0.00238728
     atom   28 type  1   force =     0.05702292   -0.00455681    0.07666938
     atom   29 type  1   force =    -0.05309560   -0.00302922    0.06689153
     atom   30 type  1   force =     0.00027925    0.00439660    0.08099499
     atom   31 type  1   force =     0.00669825   -0.03479346    0.14282911
     atom   32 type  1   force =    -0.00130735   -0.00561858    0.09001912
     atom   33 type  1   force =    -0.00518278   -0.00093171    0.11313247
     atom   34 type  1   force =    -0.00092903   -0.00440577    0.11409249
     atom   35 type  1   force =     0.00393364    0.04732818    0.14222147
     atom   36 type  1   force =    -0.00227487    0.00417646    0.11524940
     atom   37 type  2   force =     0.01616924   -0.02343572    0.44389276
     atom   38 type  3   force =    -0.00096986    0.02469072   -2.72200914
     atom   39 type  4   force =     0.00019060   -0.00080945   -0.02169140
     The ionic contribution  to forces
     atom    1 type  1   force =    -0.00568423    0.00753324 -111.12461106
     atom    2 type  1   force =     0.00377188    0.00823902 -111.12840175
     atom    3 type  1   force =     0.00191234    0.00281734 -111.11712016
     atom    4 type  1   force =    -0.00034474    0.00243174 -111.11342151
     atom    5 type  1   force =    -0.00182785   -0.00316978 -111.11771496
     atom    6 type  1   force =     0.00217259   -0.00513523 -111.11700747
     atom    7 type  1   force =    -0.00596288   -0.00304139 -111.12071643
     atom    8 type  1   force =    -0.00152954   -0.00530870 -111.13579693
     atom    9 type  1   force =     0.00749243   -0.00436626 -111.12380491
     atom   10 type  1   force =    -0.05680048    0.00328288  -40.15445133
     atom   11 type  1   force =     0.04283942   -0.00221465  -40.18118077
     atom   12 type  1   force =     0.01395950   -0.00585483  -40.06969038
     atom   13 type  1   force =    -0.01060944    0.06940573  -40.09373621
     atom   14 type  1   force =     0.02390220    0.02970243  -40.06723844
     atom   15 type  1   force =    -0.01329217    0.01976296  -40.04520521
     atom   16 type  1   force =    -0.02754106   -0.01789154  -40.04441965
     atom   17 type  1   force =    -0.00217407   -0.06474398  -40.10475136
     atom   18 type  1   force =     0.02971561   -0.03144850  -40.04913779
     atom   19 type  1   force =    -0.29206238    0.38238766   31.26938185
     atom   20 type  1   force =     0.18056866    0.43237887   31.08851363
     atom   21 type  1   force =     0.11132114    0.13616932   31.59838848
     atom   22 type  1   force =    -0.01219395    0.10718109   31.77672632
     atom   23 type  1   force =    -0.08933268   -0.15505903   31.60744881
     atom   24 type  1   force =     0.10151360   -0.23819928   31.63576836
     atom   25 type  1   force =    -0.29840337   -0.13970366   31.46950744
     atom   26 type  1   force =    -0.06535496   -0.29816609   30.62844389
     atom   27 type  1   force =     0.36400767   -0.23071188   31.31232817
     atom   28 type  1   force =    -4.42942961    0.41135145   99.16257525
     atom   29 type  1   force =     3.24299687   -0.19199663   98.51471345
     atom   30 type  1   force =     1.12031296   -0.56485836  103.60474169
     atom   31 type  1   force =    -0.25859893    2.89211215  103.00435798
     atom   32 type  1   force =     0.71158997    1.67678878  103.67062016
     atom   33 type  1   force =    -0.44820227    0.62067369  104.34029121
     atom   34 type  1   force =    -0.89687213   -0.62824304  104.29734969
     atom   35 type  1   force =    -0.02148088   -3.19282887  102.42470668
     atom   36 type  1   force =     0.92193053   -0.95853998  104.25527609
     atom   37 type  2   force =    -0.17706631   -0.07204998   50.92534493
     atom   38 type  3   force =    -0.16430673   -0.16486612   89.34805913
     atom   39 type  4   force =     0.39906331    0.17617945   14.97386309
     The local contribution  to forces
     atom    1 type  1   force =     0.00507101   -0.00809233  111.22963847
     atom    2 type  1   force =    -0.00072141   -0.01064408  111.23690501
     atom    3 type  1   force =    -0.00415853   -0.00358115  111.21921509
     atom    4 type  1   force =    -0.00185727   -0.00225200  111.21833055
     atom    5 type  1   force =     0.00093783    0.00407069  111.22294450
     atom    6 type  1   force =     0.00044966    0.00237407  111.22423676
     atom    7 type  1   force =     0.00975635    0.00301559  111.22670101
     atom    8 type  1   force =    -0.00334791    0.00765771  111.24057965
     atom    9 type  1   force =    -0.00668138    0.00769252  111.23178760
     atom   10 type  1   force =     0.05616950   -0.00638301   40.14566066
     atom   11 type  1   force =    -0.04189655    0.00135468   40.16713125
     atom   12 type  1   force =    -0.01416760    0.00529089   40.05956791
     atom   13 type  1   force =     0.00782765   -0.06661095   40.08842186
     atom   14 type  1   force =    -0.02253810   -0.02812508   40.05715431
     atom   15 type  1   force =     0.01486120   -0.01789184   40.03729602
     atom   16 type  1   force =     0.02846193    0.01936272   40.04140465
     atom   17 type  1   force =    -0.00097910    0.06451628   40.09812908
     atom   18 type  1   force =    -0.02744033    0.02932341   40.04405688
     atom   19 type  1   force =     0.29151700   -0.38647102  -31.26085143
     atom   20 type  1   force =    -0.17900460   -0.43889521  -31.07444789
     atom   21 type  1   force =    -0.11233060   -0.13799101  -31.59189955
     atom   22 type  1   force =     0.00981708   -0.10870060  -31.77215177
     atom   23 type  1   force =     0.08867452    0.15291149  -31.59347031
     atom   24 type  1   force =    -0.09860396    0.23643035  -31.63016370
     atom   25 type  1   force =     0.30112212    0.14433936  -31.45168485
     atom   26 type  1   force =     0.06511624    0.30516827  -30.61224502
     atom   27 type  1   force =    -0.36754095    0.23469009  -31.30146691
     atom   28 type  1   force =     4.35464296   -0.40713339  -99.23602358
     atom   29 type  1   force =    -3.18651531    0.19032480  -98.56767134
     atom   30 type  1   force =    -1.10586195    0.55429137 -103.69342451
     atom   31 type  1   force =     0.24708164   -2.84532567 -103.15594790
     atom   32 type  1   force =    -0.70739397   -1.65688402 -103.76829163
     atom   33 type  1   force =     0.45540991   -0.61732191 -104.46305037
     atom   34 type  1   force =     0.89631218    0.63192327 -104.41883218
     atom   35 type  1   force =     0.01696234    3.13656852 -102.57167129
     atom   36 type  1   force =    -0.91689144    0.94779644 -104.37926628
     atom   37 type  2   force =     0.16122425    0.09343079  -51.36873649
     atom   38 type  3   force =     0.16540923    0.13873279  -86.64465823
     atom   39 type  4   force =    -0.39932522   -0.17482447  -14.95230028
     The core correction contribution to forces
     atom    1 type  1   force =    -0.00015658   -0.00019239    0.00973010
     atom    2 type  1   force =     0.00005273   -0.00037692    0.00991425
     atom    3 type  1   force =     0.00011342   -0.00000768    0.00984650
     atom    4 type  1   force =     0.00005357   -0.00005011    0.00997380
     atom    5 type  1   force =     0.00014002    0.00011216    0.00999652
     atom    6 type  1   force =    -0.00010613   -0.00007704    0.00980414
     atom    7 type  1   force =     0.00013554    0.00009850    0.01005018
     atom    8 type  1   force =    -0.00015556    0.00043272    0.00973284
     atom    9 type  1   force =    -0.00010941    0.00009895    0.01010593
     atom   10 type  1   force =     0.00011173   -0.00000287   -0.00192512
     atom   11 type  1   force =     0.00005217    0.00016798   -0.00165821
     atom   12 type  1   force =    -0.00015548    0.00020341   -0.00177229
     atom   13 type  1   force =    -0.00041012    0.00018570   -0.00167246
     atom   14 type  1   force =     0.00019121   -0.00011210   -0.00198924
     atom   15 type  1   force =     0.00025152    0.00006298   -0.00166455
     atom   16 type  1   force =     0.00002229   -0.00000476   -0.00179106
     atom   17 type  1   force =    -0.00019767    0.00010046   -0.00199272
     atom   18 type  1   force =     0.00008745   -0.00037076   -0.00168016
     atom   19 type  1   force =    -0.00013478    0.00068607    0.00072527
     atom   20 type  1   force =    -0.00012304    0.00072794    0.00032386
     atom   21 type  1   force =     0.00042357    0.00007809    0.00192977
     atom   22 type  1   force =    -0.00015361    0.00014437    0.00206861
     atom   23 type  1   force =    -0.00030460    0.00061678    0.00139735
     atom   24 type  1   force =     0.00042767   -0.00045717    0.00137897
     atom   25 type  1   force =     0.00027966   -0.00041588    0.00139622
     atom   26 type  1   force =    -0.00106258   -0.00119874    0.00096343
     atom   27 type  1   force =     0.00061342   -0.00037332    0.00129233
     atom   28 type  1   force =     0.01126482   -0.00140486   -0.00508277
     atom   29 type  1   force =    -0.00200708    0.00508357   -0.00001410
     atom   30 type  1   force =    -0.00942542    0.00503770   -0.00585158
     atom   31 type  1   force =     0.00075658   -0.00610036   -0.00687188
     atom   32 type  1   force =    -0.00003070   -0.01086907   -0.00537160
     atom   33 type  1   force =    -0.00051804   -0.00178110   -0.00961532
     atom   34 type  1   force =     0.00094000    0.00124367   -0.00944208
     atom   35 type  1   force =    -0.00046046    0.00673054   -0.00661933
     atom   36 type  1   force =    -0.00070979    0.00269622   -0.00856404
     atom   37 type  2   force =    -0.00026505    0.00057190   -0.00152233
     atom   38 type  3   force =     0.00000058   -0.00016461    0.01961975
     atom   39 type  4   force =     0.00000000    0.00000000    0.00000000
     The Hubbard contrib.    to forces
     atom    1 type  1   force =     0.00000000    0.00000000    0.00000000
     atom    2 type  1   force =     0.00000000    0.00000000    0.00000000
     atom    3 type  1   force =     0.00000000    0.00000000    0.00000000
     atom    4 type  1   force =     0.00000000    0.00000000    0.00000000
     atom    5 type  1   force =     0.00000000    0.00000000    0.00000000
     atom    6 type  1   force =     0.00000000    0.00000000    0.00000000
     atom    7 type  1   force =     0.00000000    0.00000000    0.00000000
     atom    8 type  1   force =     0.00000000    0.00000000    0.00000000
     atom    9 type  1   force =     0.00000000    0.00000000    0.00000000
     atom   10 type  1   force =     0.00000000    0.00000000    0.00000000
     atom   11 type  1   force =     0.00000000    0.00000000    0.00000000
     atom   12 type  1   force =     0.00000000    0.00000000    0.00000000
     atom   13 type  1   force =     0.00000000    0.00000000    0.00000000
     atom   14 type  1   force =     0.00000000    0.00000000    0.00000000
     atom   15 type  1   force =     0.00000000    0.00000000    0.00000000
     atom   16 type  1   force =     0.00000000    0.00000000    0.00000000
     atom   17 type  1   force =     0.00000000    0.00000000    0.00000000
     atom   18 type  1   force =     0.00000000    0.00000000    0.00000000
     atom   19 type  1   force =     0.00000000    0.00000000    0.00000000
     atom   20 type  1   force =     0.00000000    0.00000000    0.00000000
     atom   21 type  1   force =     0.00000000    0.00000000    0.00000000
     atom   22 type  1   force =     0.00000000    0.00000000    0.00000000
     atom   23 type  1   force =     0.00000000    0.00000000    0.00000000
     atom   24 type  1   force =     0.00000000    0.00000000    0.00000000
     atom   25 type  1   force =     0.00000000    0.00000000    0.00000000
     atom   26 type  1   force =     0.00000000    0.00000000    0.00000000
     atom   27 type  1   force =     0.00000000    0.00000000    0.00000000
     atom   28 type  1   force =     0.00000000    0.00000000    0.00000000
     atom   29 type  1   force =     0.00000000    0.00000000    0.00000000
     atom   30 type  1   force =     0.00000000    0.00000000    0.00000000
     atom   31 type  1   force =     0.00000000    0.00000000    0.00000000
     atom   32 type  1   force =     0.00000000    0.00000000    0.00000000
     atom   33 type  1   force =     0.00000000    0.00000000    0.00000000
     atom   34 type  1   force =     0.00000000    0.00000000    0.00000000
     atom   35 type  1   force =     0.00000000    0.00000000    0.00000000
     atom   36 type  1   force =     0.00000000    0.00000000    0.00000000
     atom   37 type  2   force =     0.00000000    0.00000000    0.00000000
     atom   38 type  3   force =     0.00000000    0.00000000    0.00000000
     atom   39 type  4   force =     0.00000000    0.00000000    0.00000000
     The SCF correction term to forces
     atom    1 type  1   force =     0.00000000   -0.00000000   -0.00000000
     atom    2 type  1   force =    -0.00000000   -0.00000000   -0.00000000
     atom    3 type  1   force =    -0.00000000   -0.00000000   -0.00000000
     atom    4 type  1   force =     0.00000000   -0.00000000   -0.00000000
     atom    5 type  1   force =    -0.00000000    0.00000000   -0.00000000
     atom    6 type  1   force =     0.00000000    0.00000000   -0.00000000
     atom    7 type  1   force =     0.00000000   -0.00000000   -0.00000000
     atom    8 type  1   force =    -0.00000000    0.00000000   -0.00000000
     atom    9 type  1   force =    -0.00000000   -0.00000000   -0.00000000
     atom   10 type  1   force =     0.00000000    0.00000000   -0.00000000
     atom   11 type  1   force =    -0.00000000    0.00000000   -0.00000000
     atom   12 type  1   force =     0.00000000    0.00000000   -0.00000000
     atom   13 type  1   force =    -0.00000000   -0.00000000   -0.00000000
     atom   14 type  1   force =    -0.00000000   -0.00000000   -0.00000000
     atom   15 type  1   force =     0.00000000   -0.00000000   -0.00000000
     atom   16 type  1   force =     0.00000000    0.00000000   -0.00000000
     atom   17 type  1   force =    -0.00000000    0.00000000   -0.00000000
     atom   18 type  1   force =     0.00000000    0.00000000   -0.00000000
     atom   19 type  1   force =     0.00000000   -0.00000000    0.00000000
     atom   20 type  1   force =    -0.00000000   -0.00000000    0.00000000
     atom   21 type  1   force =    -0.00000000   -0.00000000    0.00000000
     atom   22 type  1   force =     0.00000000   -0.00000000    0.00000000
     atom   23 type  1   force =     0.00000000    0.00000000    0.00000000
     atom   24 type  1   force =    -0.00000000   -0.00000000    0.00000000
     atom   25 type  1   force =     0.00000000    0.00000000    0.00000000
     atom   26 type  1   force =    -0.00000000    0.00000000    0.00000000
     atom   27 type  1   force =     0.00000000    0.00000000    0.00000000
     atom   28 type  1   force =     0.00000000   -0.00000000    0.00000000
     atom   29 type  1   force =    -0.00000000    0.00000000    0.00000000
     atom   30 type  1   force =     0.00000000    0.00000000    0.00000000
     atom   31 type  1   force =     0.00000000   -0.00000000    0.00000000
     atom   32 type  1   force =     0.00000000   -0.00000000    0.00000000
     atom   33 type  1   force =    -0.00000000   -0.00000000    0.00000000
     atom   34 type  1   force =     0.00000000    0.00000000    0.00000000
     atom   35 type  1   force =    -0.00000000    0.00000000    0.00000000
     atom   36 type  1   force =    -0.00000000    0.00000000    0.00000000
     atom   37 type  2   force =    -0.00001057   -0.00000075    0.00001920
     atom   38 type  3   force =    -0.00000196   -0.00000078    0.00005106
     atom   39 type  4   force =    -0.00000160    0.00000259    0.00000706

     Total force =     0.002699     Total SCF correction =     0.000056

     Writing all to output data dir ./pwscf.save/

     init_run     :     11.72s CPU     12.22s WALL (       1 calls)
     electrons    :    946.81s CPU    964.32s WALL (       1 calls)
     forces       :      3.48s CPU      3.58s WALL (       1 calls)

     Called by init_run:
     wfcinit      :      8.59s CPU      8.96s WALL (       1 calls)
     potinit      :      2.00s CPU      2.10s WALL (       1 calls)
     hinit0       :      0.86s CPU      0.88s WALL (       1 calls)

     Called by electrons:
     c_bands      :    803.47s CPU    817.56s WALL (      52 calls)
     sum_band     :    101.06s CPU    103.03s WALL (      52 calls)
     v_of_rho     :      8.84s CPU      9.37s WALL (      53 calls)
     newd         :      4.85s CPU      4.95s WALL (      53 calls)
     PAW_pot      :     13.20s CPU     13.44s WALL (      53 calls)
     mix_rho      :     16.54s CPU     17.00s WALL (      52 calls)
     vdW_kernel   :      1.09s CPU      1.10s WALL (       1 calls)

     Called by c_bands:
     init_us_2    :      9.64s CPU      9.92s WALL (    2756 calls)
     init_us_2:cp :      9.62s CPU      9.91s WALL (    2756 calls)
     cegterg      :    777.40s CPU    790.38s WALL (    1352 calls)

     Called by *egterg:
     cdiaghg      :    211.98s CPU    214.46s WALL (    4797 calls)
     h_psi        :    366.12s CPU    373.15s WALL (    4823 calls)
     s_psi        :     39.30s CPU     40.12s WALL (    4823 calls)
     g_psi        :      0.99s CPU      1.02s WALL (    3445 calls)

     Called by h_psi:
     h_psi:calbec :     61.44s CPU     62.81s WALL (    4823 calls)
     vloc_psi     :    261.93s CPU    266.72s WALL (    4823 calls)
     add_vuspsi   :     40.36s CPU     41.18s WALL (    4823 calls)

     General routines
     calbec       :     89.07s CPU     90.92s WALL (    6279 calls)
     fft          :      5.88s CPU      6.41s WALL (    4794 calls)
     ffts         :      9.71s CPU     10.00s WALL (   22265 calls)
     fftw         :    303.32s CPU    308.81s WALL ( 1405694 calls)
     interpolate  :      0.57s CPU      0.58s WALL (     106 calls)

     Parallel routines

     PWSCF        :  16m10.63s CPU  16m36.63s WALL


   This run was terminated on:  10:41:33  17Dec2025            

=------------------------------------------------------------------------------=
   JOB DONE.
=------------------------------------------------------------------------------=
