
     Program PWSCF v.7.1 starts on  5Dec2025 at  3:50:27 
        Git branch: heads/qe-7.1
        Last git commit: 48ba0178f8fede6d020eb786884699a9f063f55d-dirty
        Last git commit date: Fri Jan 27 14:22:33 2023 +0000
        Last git commit subject: Merge branch 'fix_hubbard' into 'develop'

     This program is part of the open-source Quantum ESPRESSO suite
     for quantum simulation of materials; please cite
         "P. Giannozzi et al., J. Phys.:Condens. Matter 21 395502 (2009);
         "P. Giannozzi et al., J. Phys.:Condens. Matter 29 465901 (2017);
         "P. Giannozzi et al., J. Chem. Phys. 152 154105 (2020);
          URL http://www.quantum-espresso.org", 
     in publications or presentations arising from this work. More details at
     http://www.quantum-espresso.org/quote

     Parallel version (MPI), running on    48 processors

     MPI processes distributed on     1 nodes
     84830 MiB available memory on the printing compute node when the environment starts

     Reading input from espresso.pwi
Warning: card &CELL ignored
Warning: card / ignored
Warning: card &FCP ignored
Warning: card / ignored
Warning: card &RISM ignored
Warning: card / ignored

     Current dimensions of program PWSCF are:
     Max number of different atomic species (ntypx) = 10
     Max number of k-points (npk) =  40000
     Max angular momentum in pseudopotentials (lmaxx) =  4
     file Pt.pbe-n-kjpaw_psl.1.0.0.UPF: wavefunction(s)  6S 5D renormalized
     file C.pbe-n-kjpaw_psl.1.0.0.UPF: wavefunction(s)  2S 2P renormalized
     file H.pbe-kjpaw_psl.1.0.0.UPF: wavefunction(s)  1S renormalized

     **************************************************************************
     Initializing libbeef V0.1.2 with the BEEF-vdW functional.
     Citation: Wellendorff et al., PRB 85, 235149 (2012).
     **************************************************************************


     IMPORTANT: XC functional enforced from input :
     Exchange-correlation= BEEF-VDW
                           (   1   4  43  14   2   0   0)
     Any further DFT definition will be discarded
     Please, verify this is what you really want


     R & G space division:  proc/nbgrp/npool/nimage =      48
     Subspace diagonalization in iterative solution of the eigenvalue problem:
     one sub-group per band group will be used
     custom distributed-memory algorithm (size of sub-group:  2*  2 procs)


     Parallelization info
     --------------------
     sticks:   dense  smooth     PW     G-vecs:    dense   smooth      PW
     Min         151      59     16                29407     7165    1028
     Max         152      60     17                29420     7176    1042
     Sum        7267    2839    769              1411785   344073   49691

     Using Slab Decomposition



     bravais-lattice index     =            0
     lattice parameter (alat)  =      16.0349  a.u.
     unit-cell volume          =   10068.6169 (a.u.)^3
     number of atoms/cell      =           39
     number of atomic types    =            3
     number of electrons       =       369.00
     number of Kohn-Sham states=          222
     kinetic-energy cutoff     =      40.0000  Ry
     charge density cutoff     =     410.0000  Ry
     scf convergence threshold =      1.0E-06
     mixing beta               =       0.7000
     number of iterations used =            8  local-TF  mixing
     Exchange-correlation= BEEF-VDW
                           (   1   4  43  14   2   0   0)

     celldm(1)=  16.034858  celldm(2)=   0.000000  celldm(3)=   0.000000
     celldm(4)=   0.000000  celldm(5)=   0.000000  celldm(6)=   0.000000

     crystal axes: (cart. coord. in units of alat)
               a(1) = (   1.000000   0.000000   0.000000 )  
               a(2) = (   0.500000   0.866025   0.000000 )  
               a(3) = (   0.000000   0.000000   2.819966 )  

     reciprocal axes: (cart. coord. in units 2 pi/alat)
               b(1) = (  1.000000 -0.577350  0.000000 )  
               b(2) = (  0.000000  1.154701  0.000000 )  
               b(3) = (  0.000000  0.000000  0.354614 )  


     PseudoPot. # 1 for Pt read from file:
     /users/kbadger1/espresso/pseudo/pslibrary.1.0.0/pbe/PSEUDOPOTENTIALS/Pt.pbe-n-kjpaw_psl.1.0.0.UPF
     MD5 check sum: 2e24a0b5bf98a4ed1a57fa81bca8c143
     Pseudo is Projector augmented-wave + core cor, Zval = 10.0
     Generated using 'atomic' code by A. Dal Corso  v.7.0
     Shape of augmentation charge: PSQ
     Using radial grid of 1277 points,  6 beta functions with: 
                l(1) =   0
                l(2) =   0
                l(3) =   1
                l(4) =   1
                l(5) =   2
                l(6) =   2
     Q(r) pseudized with 0 coefficients 


     PseudoPot. # 2 for C  read from file:
     /users/kbadger1/espresso/pseudo/pslibrary.1.0.0/pbe/PSEUDOPOTENTIALS/C.pbe-n-kjpaw_psl.1.0.0.UPF
     MD5 check sum: 6408e75cdba28732cea38a4db8498ce4
     Pseudo is Projector augmented-wave + core cor, Zval =  4.0
     Generated using 'atomic' code by A. Dal Corso  v.7.0
     Shape of augmentation charge: PSQ
     Using radial grid of 1073 points,  4 beta functions with: 
                l(1) =   0
                l(2) =   0
                l(3) =   1
                l(4) =   1
     Q(r) pseudized with 0 coefficients 


     PseudoPot. # 3 for H  read from file:
     /users/kbadger1/espresso/pseudo/pslibrary.1.0.0/pbe/PSEUDOPOTENTIALS/H.pbe-kjpaw_psl.1.0.0.UPF
     MD5 check sum: fe4c6fa958fa6d3815bf5d2419cbf1df
     Pseudo is Projector augmented-wave, Zval =  1.0
     Generated using 'atomic' code by A. Dal Corso  v.7.0
     Shape of augmentation charge: PSQ
     Using radial grid of  929 points,  2 beta functions with: 
                l(1) =   0
                l(2) =   0
     Q(r) pseudized with 0 coefficients 


     atomic species   valence    mass     pseudopotential
        Pt            10.00   195.08400     Pt( 1.00)
        C              4.00    12.01100     C ( 1.00)
        H              1.00     1.00800     H ( 1.00)

     No symmetry found



   Cartesian axes

     site n.     atom                  positions (alat units)
         1           Pt  tau(   1) = (   0.0000000   0.0000000   1.0017346  )
         2           Pt  tau(   2) = (   0.3333333   0.0000000   1.0017346  )
         3           Pt  tau(   3) = (   0.6666667   0.0000000   1.0017346  )
         4           Pt  tau(   4) = (   0.1666667   0.2886751   1.0017346  )
         5           Pt  tau(   5) = (   0.5000000   0.2886751   1.0017346  )
         6           Pt  tau(   6) = (   0.8333333   0.2886751   1.0017346  )
         7           Pt  tau(   7) = (   0.3333333   0.5773503   1.0017346  )
         8           Pt  tau(   8) = (   0.6666667   0.5773503   1.0017346  )
         9           Pt  tau(   9) = (   1.0000000   0.5773503   1.0017346  )
        10           Pt  tau(  10) = (   0.1666667   0.0962250   1.2739001  )
        11           Pt  tau(  11) = (   0.5000000   0.0962250   1.2739001  )
        12           Pt  tau(  12) = (   0.8333333   0.0962250   1.2739001  )
        13           Pt  tau(  13) = (   0.3333333   0.3849002   1.2739001  )
        14           Pt  tau(  14) = (   0.6666667   0.3849002   1.2739001  )
        15           Pt  tau(  15) = (   1.0000000   0.3849002   1.2739001  )
        16           Pt  tau(  16) = (   0.5000000   0.6735753   1.2739001  )
        17           Pt  tau(  17) = (   0.8333333   0.6735753   1.2739001  )
        18           Pt  tau(  18) = (   1.1666667   0.6735753   1.2739001  )
        19           Pt  tau(  19) = (   0.0028055   0.1906889   1.5488788  )
        20           Pt  tau(  20) = (   0.3305819   0.1906920   1.5488857  )
        21           Pt  tau(  21) = (   0.6666976   0.1920654   1.5384608  )
        22           Pt  tau(  22) = (   0.1666949   0.4793318   1.5486807  )
        23           Pt  tau(  23) = (   0.4982105   0.4816941   1.5447599  )
        24           Pt  tau(  24) = (   0.8351746   0.4816882   1.5447481  )
        25           Pt  tau(  25) = (   0.3360289   0.7688014   1.5490618  )
        26           Pt  tau(  26) = (   0.6666978   0.7708491   1.5482571  )
        27           Pt  tau(  27) = (   0.9973578   0.7688048   1.5490586  )
        28           Pt  tau(  28) = (  -0.0120430  -0.0090948   1.8363938  )
        29           Pt  tau(  29) = (   0.3454458  -0.0090718   1.8364043  )
        30           Pt  tau(  30) = (   0.6667033   0.0024639   1.8146051  )
        31           Pt  tau(  31) = (   0.1666917   0.2941381   1.8483334  )
        32           Pt  tau(  32) = (   0.5044362   0.2864495   1.8128667  )
        33           Pt  tau(  33) = (   0.8289862   0.2864448   1.8128538  )
        34           Pt  tau(  34) = (   0.3373228   0.5759160   1.8351978  )
        35           Pt  tau(  35) = (   0.6667110   0.5708385   1.8141844  )
        36           Pt  tau(  36) = (   0.9960822   0.5759320   1.8351633  )
        37           C   tau(  37) = (   0.1666922   0.0820283   1.9361380  )
        38           H   tau(  38) = (   0.1666617   0.5037161   2.1025613  )
        39           C   tau(  39) = (   0.1666834   0.4984606   1.9740879  )

     number of k points=    13  Marzari-Vanderbilt smearing, width (Ry)=  0.0010
                       cart. coord. in units 2pi/alat
        k(    1) = (   0.0000000   0.0000000   0.0000000), wk =   0.0800000
        k(    2) = (   0.0000000   0.2309401   0.0000000), wk =   0.1600000
        k(    3) = (   0.0000000   0.4618802   0.0000000), wk =   0.1600000
        k(    4) = (   0.2000000  -0.1154701   0.0000000), wk =   0.1600000
        k(    5) = (   0.2000000   0.1154701   0.0000000), wk =   0.1600000
        k(    6) = (   0.2000000   0.3464102   0.0000000), wk =   0.1600000
        k(    7) = (   0.2000000  -0.5773503   0.0000000), wk =   0.1600000
        k(    8) = (   0.2000000  -0.3464102   0.0000000), wk =   0.1600000
        k(    9) = (   0.4000000  -0.2309401   0.0000000), wk =   0.1600000
        k(   10) = (   0.4000000  -0.0000000   0.0000000), wk =   0.1600000
        k(   11) = (   0.4000000   0.2309401   0.0000000), wk =   0.1600000
        k(   12) = (   0.4000000  -0.6928203   0.0000000), wk =   0.1600000
        k(   13) = (   0.4000000  -0.4618802   0.0000000), wk =   0.1600000

     Dense  grid:  1411785 G-vectors     FFT dimensions: ( 108, 108, 300)

     Smooth grid:   344073 G-vectors     FFT dimensions: (  72,  72, 192)

     Estimated max dynamical RAM per process >     207.37 MB

     Estimated total dynamical RAM >       9.72 GB

     Initial potential from superposition of free atoms

     starting charge     368.9938, renormalised to     369.0000

     negative rho (up, down):  3.155E-03 0.000E+00


     %%%%%%%%%%%%%%%%%%%%%%%%%%%%%%%%%%%%%%%%%%%%%%%%%%%%%%%%%%%%%%%%%%%%%%%%
     %                                                                      %
     % You are using vdW-DF, which was implemented by the Thonhauser group. %
     % Please cite the following two papers that made this development      %
     % possible and the two reviews that describe the various versions:     %
     %                                                                      %
     %   T. Thonhauser et al., PRL 115, 136402 (2015).                      %
     %   T. Thonhauser et al., PRB 76, 125112 (2007).                       %
     %   K. Berland et al., Rep. Prog. Phys. 78, 066501 (2015).             %
     %   D.C. Langreth et al., J. Phys.: Condens. Matter 21, 084203 (2009). %
     %                                                                      %
     % If you are calculating stress with vdW-DF, please also cite:         %
     %                                                                      %
     %   R. Sabatini et al., J. Phys.: Condens. Matter 24, 424209 (2012).   %
     %                                                                      %
     %%%%%%%%%%%%%%%%%%%%%%%%%%%%%%%%%%%%%%%%%%%%%%%%%%%%%%%%%%%%%%%%%%%%%%%%

     %%%%%%%%%%%%%%%%%%%%%%%%%%%%%%%%%%%%%%%%%%%%%%%%%%%%%%%%%%%%%%%%%%%%%%%%
     %                                                                      %
     %  vdW-DF NEWS:                                                        %
     %                                                                      %
     %  * vdW-DF3 is now available. DOI: 10.1021/acs.jctc.0c00471           %
     %    use with input_dft = 'vdW-DF3-opt1' or 'vdW-DF3-opt2'             %
     %                                                                      %
     %  * Unscreened and range-separated hybrid vdW-DF-cx functionals       %
     %    DOI: 10.1063/1.4986522 and 10.1088/1361-648X/ac2ad2               %
     %    use with input_dft = 'vdW-DF-cx0'    and 'vdW-DF-ahcx'            %
     %  * Unscreened and range-separated hybrid vdW-DF2-b86r functionals    %
     %    DOI: 10.1063/1.4986522 and DOI: 10.1103/PhysRevX.12.041003        %
     %    use with input_dft = 'vdW-DF2-br0' and 'vdW-DF2-ahbr'             %
     %                                                                      %
     %%%%%%%%%%%%%%%%%%%%%%%%%%%%%%%%%%%%%%%%%%%%%%%%%%%%%%%%%%%%%%%%%%%%%%%%


     Starting wfcs are  333 randomized atomic wfcs
     Checking if some PAW data can be deallocated... 

     total cpu time spent up to now is       11.6 secs

     per-process dynamical memory:   212.6 Mb

     Self-consistent Calculation

     iteration #  1     ecut=    40.00 Ry     beta= 0.70
     Davidson diagonalization with overlap
     ethr =  1.00E-02,  avg # of iterations =  2.0

     Threshold (ethr) on eigenvalues was too large:
     Diagonalizing with lowered threshold

     Davidson diagonalization with overlap
     ethr =  6.52E-04,  avg # of iterations =  3.0

     negative rho (up, down):  1.030E-02 0.000E+00

     total cpu time spent up to now is       41.1 secs

     total energy              =  -27792.94639898 Ry
     estimated scf accuracy    <       2.69186234 Ry

     iteration #  2     ecut=    40.00 Ry     beta= 0.70
     Davidson diagonalization with overlap
     ethr =  7.30E-04,  avg # of iterations =  2.0

     negative rho (up, down):  7.486E-03 0.000E+00

     total cpu time spent up to now is       54.3 secs

     total energy              =  -27793.27128934 Ry
     estimated scf accuracy    <       0.74400046 Ry

     iteration #  3     ecut=    40.00 Ry     beta= 0.70
     Davidson diagonalization with overlap
     ethr =  2.02E-04,  avg # of iterations =  3.5

     negative rho (up, down):  4.700E-03 0.000E+00

     total cpu time spent up to now is       68.9 secs

     total energy              =  -27793.34226660 Ry
     estimated scf accuracy    <       0.30576747 Ry

     iteration #  4     ecut=    40.00 Ry     beta= 0.70
     Davidson diagonalization with overlap
     ethr =  8.29E-05,  avg # of iterations =  7.3

     negative rho (up, down):  1.577E-03 0.000E+00

     total cpu time spent up to now is       87.0 secs

     total energy              =  -27793.37290042 Ry
     estimated scf accuracy    <       0.05814742 Ry

     iteration #  5     ecut=    40.00 Ry     beta= 0.70
     Davidson diagonalization with overlap
     c_bands:  1 eigenvalues not converged
     ethr =  1.58E-05,  avg # of iterations = 12.5

     negative rho (up, down):  8.079E-04 0.000E+00

     total cpu time spent up to now is      122.2 secs

     total energy              =  -27793.39399038 Ry
     estimated scf accuracy    <       0.05414997 Ry

     iteration #  6     ecut=    40.00 Ry     beta= 0.70
     Davidson diagonalization with overlap
     ethr =  1.47E-05,  avg # of iterations =  1.6

     negative rho (up, down):  2.229E-04 0.000E+00

     total cpu time spent up to now is      134.9 secs

     total energy              =  -27793.39523076 Ry
     estimated scf accuracy    <       0.00804105 Ry

     iteration #  7     ecut=    40.00 Ry     beta= 0.70
     Davidson diagonalization with overlap
     c_bands:  1 eigenvalues not converged
     c_bands:  1 eigenvalues not converged
     c_bands:  2 eigenvalues not converged
     c_bands:  2 eigenvalues not converged
     c_bands:  1 eigenvalues not converged
     ethr =  2.18E-06,  avg # of iterations = 14.2

     negative rho (up, down):  9.618E-05 0.000E+00

     total cpu time spent up to now is      169.1 secs

     total energy              =  -27793.39654221 Ry
     estimated scf accuracy    <       0.00436935 Ry

     iteration #  8     ecut=    40.00 Ry     beta= 0.70
     Davidson diagonalization with overlap
     c_bands:  1 eigenvalues not converged
     c_bands:  2 eigenvalues not converged
     ethr =  1.18E-06,  avg # of iterations =  6.2

     negative rho (up, down):  6.575E-05 0.000E+00

     total cpu time spent up to now is      186.5 secs

     total energy              =  -27793.39681129 Ry
     estimated scf accuracy    <       0.00108269 Ry

     iteration #  9     ecut=    40.00 Ry     beta= 0.70
     Davidson diagonalization with overlap
     ethr =  2.93E-07,  avg # of iterations =  4.4

     negative rho (up, down):  6.462E-05 0.000E+00

     total cpu time spent up to now is      203.6 secs

     total energy              =  -27793.39698809 Ry
     estimated scf accuracy    <       0.00071363 Ry

     iteration # 10     ecut=    40.00 Ry     beta= 0.70
     Davidson diagonalization with overlap
     ethr =  1.93E-07,  avg # of iterations =  2.0

     negative rho (up, down):  8.721E-05 0.000E+00

     total cpu time spent up to now is      216.4 secs

     total energy              =  -27793.39704180 Ry
     estimated scf accuracy    <       0.00059481 Ry

     iteration # 11     ecut=    40.00 Ry     beta= 0.70
     Davidson diagonalization with overlap
     ethr =  1.61E-07,  avg # of iterations =  3.5

     negative rho (up, down):  1.725E-04 0.000E+00

     total cpu time spent up to now is      230.5 secs

     total energy              =  -27793.39712386 Ry
     estimated scf accuracy    <       0.00034186 Ry

     iteration # 12     ecut=    40.00 Ry     beta= 0.70
     Davidson diagonalization with overlap
     ethr =  9.26E-08,  avg # of iterations =  4.8

     negative rho (up, down):  2.325E-04 0.000E+00

     total cpu time spent up to now is      246.6 secs

     total energy              =  -27793.39716066 Ry
     estimated scf accuracy    <       0.00018749 Ry

     iteration # 13     ecut=    40.00 Ry     beta= 0.70
     Davidson diagonalization with overlap
     ethr =  5.08E-08,  avg # of iterations =  1.8

     negative rho (up, down):  7.456E-04 0.000E+00

     total cpu time spent up to now is      259.1 secs

     total energy              =  -27793.39725185 Ry
     estimated scf accuracy    <       0.00008120 Ry

     iteration # 14     ecut=    40.00 Ry     beta= 0.70
     Davidson diagonalization with overlap
     ethr =  2.20E-08,  avg # of iterations =  7.3

     negative rho (up, down):  9.633E-04 0.000E+00

     total cpu time spent up to now is      275.4 secs

     total energy              =  -27793.39728274 Ry
     estimated scf accuracy    <       0.00005355 Ry

     iteration # 15     ecut=    40.00 Ry     beta= 0.70
     Davidson diagonalization with overlap
     ethr =  1.45E-08,  avg # of iterations =  1.6

     negative rho (up, down):  2.230E-03 0.000E+00

     total cpu time spent up to now is      287.8 secs

     total energy              =  -27793.39730005 Ry
     estimated scf accuracy    <       0.00004279 Ry

     iteration # 16     ecut=    40.00 Ry     beta= 0.70
     Davidson diagonalization with overlap
     ethr =  1.16E-08,  avg # of iterations =  3.2

     negative rho (up, down):  2.770E-03 0.000E+00

     total cpu time spent up to now is      302.1 secs

     total energy              =  -27793.39730180 Ry
     estimated scf accuracy    <       0.00000570 Ry

     iteration # 17     ecut=    40.00 Ry     beta= 0.70
     Davidson diagonalization with overlap
     ethr =  1.55E-09,  avg # of iterations =  4.5

     negative rho (up, down):  3.100E-03 0.000E+00

     total cpu time spent up to now is      325.5 secs

     total energy              =  -27793.39730318 Ry
     estimated scf accuracy    <       0.00000443 Ry

     iteration # 18     ecut=    40.00 Ry     beta= 0.70
     Davidson diagonalization with overlap
     ethr =  1.20E-09,  avg # of iterations =  1.2

     negative rho (up, down):  3.076E-03 0.000E+00

     total cpu time spent up to now is      337.0 secs

     End of self-consistent calculation

          k = 0.0000 0.0000 0.0000 ( 42913 PWs)   bands (ev):

   -10.0631  -9.3036  -5.8946  -4.8772  -4.5632  -4.1509  -3.7744  -3.5923
    -3.5686  -3.5530  -3.5170  -3.4983  -3.4107  -3.3753  -3.2661  -3.2138
    -3.0079  -2.9939  -2.9493  -2.9274  -2.8571  -2.8258  -2.6729  -2.5981
    -2.5879  -2.4490  -2.3653  -2.3549  -2.3549  -2.3418  -2.3199  -2.2425
    -2.2267  -2.1923  -2.1921  -2.1578  -2.1485  -2.1404  -2.0427  -2.0241
    -1.9737  -1.9546  -1.9383  -1.9040  -1.7132  -1.7010  -1.6269  -1.5830
    -1.5244  -1.5077  -1.4791  -1.4608  -1.4369  -1.3927  -1.3561  -1.3038
    -1.2081  -1.2024  -1.1542  -1.1445  -1.1176  -0.9753  -0.8589  -0.8175
    -0.7794  -0.7420  -0.6926  -0.6633  -0.6235  -0.5655  -0.5562  -0.5023
    -0.4945  -0.4589  -0.4497  -0.4434  -0.4292  -0.4066  -0.3853  -0.3847
    -0.3716  -0.3378  -0.3283  -0.3255  -0.3031  -0.2970  -0.2901  -0.2761
    -0.2553  -0.2086  -0.1869  -0.0631  -0.0551  -0.0136  -0.0117   0.0282
     0.0429   0.0495   0.0737   0.1006   0.1143   0.1600   0.1682   0.1856
     0.2128   0.2132   0.2412   0.2804   0.3363   0.3467   0.3820   0.3853
     0.4319   0.5536   0.6257   0.6779   0.6842   0.7436   0.7988   0.8153
     0.8956   0.9760   0.9812   1.0091   1.0175   1.0617   1.0631   1.0693
     1.0738   1.0986   1.1324   1.1441   1.2604   1.2838   1.3412   1.3497
     1.3818   1.3987   1.4440   1.4767   1.5531   1.5642   1.5736   1.5797
     1.6201   1.6218   1.6385   1.6879   1.7573   1.7587   1.8272   1.8757
     1.9220   1.9335   1.9432   1.9504   1.9785   2.0100   2.0124   2.0316
     2.0580   2.0647   2.0752   2.0969   2.0991   2.1118   2.1229   2.1301
     2.1333   2.1448   2.1789   2.2184   2.2420   2.2468   2.2764   2.3138
     2.3170   2.3625   2.3876   2.4027   2.4047   2.4199   2.4328   2.4732
     2.4756   2.5040   2.5280   2.5737   2.5802   2.6995   2.7070   2.7437
     2.7980   2.8205   2.8369   2.8496   2.8725   2.9521   3.1183   3.2377
     3.3745   3.4822   3.6523   3.7234   4.4813   4.6308   4.6969   4.9538
     5.4428   5.5770   5.9575   6.0480   6.2444   6.2744   6.7869   7.1061
     7.6577   7.6616   7.7217   7.7431   7.8718   7.8856

          k = 0.0000 0.2309 0.0000 ( 42996 PWs)   bands (ev):

   -10.0448  -9.3193  -5.7542  -4.8829  -4.4292  -4.0819  -4.0277  -3.7380
    -3.5420  -3.5404  -3.4487  -3.4128  -3.2850  -3.2432  -3.2183  -3.1905
    -2.9958  -2.9562  -2.9218  -2.9133  -2.8493  -2.7738  -2.7071  -2.5700
    -2.5034  -2.5011  -2.4271  -2.3941  -2.3919  -2.3240  -2.2844  -2.2551
    -2.2389  -2.2265  -2.1830  -2.1502  -2.1492  -2.1060  -2.0833  -1.9760
    -1.9634  -1.9223  -1.8520  -1.8235  -1.7451  -1.7148  -1.6632  -1.5965
    -1.5929  -1.5477  -1.5464  -1.5318  -1.4145  -1.4131  -1.3300  -1.3105
    -1.2465  -1.2216  -1.1678  -1.1641  -1.0578  -1.0275  -0.9041  -0.8658
    -0.8388  -0.8382  -0.8003  -0.7752  -0.7474  -0.7200  -0.6860  -0.6217
    -0.5986  -0.5762  -0.5099  -0.5017  -0.4885  -0.4693  -0.4489  -0.4288
    -0.3631  -0.3331  -0.2978  -0.2965  -0.2745  -0.2595  -0.2440  -0.2234
    -0.2214  -0.1566  -0.0922  -0.0742  -0.0679  -0.0456  -0.0429  -0.0204
    -0.0150   0.0174   0.0409   0.0413   0.0872   0.1159   0.1261   0.1412
     0.1646   0.1850   0.2349   0.2615   0.3246   0.3401   0.3926   0.4318
     0.4379   0.4531   0.4554   0.4918   0.5052   0.6418   0.6507   0.7012
     0.7439   0.7973   0.8220   0.8719   0.8835   0.9656   0.9903   1.0623
     1.1072   1.1297   1.1671   1.1877   1.2094   1.2163   1.2420   1.2577
     1.3097   1.3419   1.3828   1.4097   1.4642   1.4645   1.5044   1.5181
     1.5780   1.5875   1.6050   1.6230   1.6687   1.6974   1.7339   1.7748
     1.8165   1.8379   1.8488   1.9415   1.9655   1.9855   2.0039   2.0175
     2.0459   2.0749   2.0790   2.1235   2.1507   2.1803   2.2315   2.2584
     2.2947   2.3660   2.3705   2.3912   2.3956   2.4098   2.4544   2.4683
     2.4901   2.5137   2.5581   2.5613   2.6029   2.6253   2.6839   2.6888
     2.7061   2.7430   2.7465   2.7720   2.8163   2.8402   2.8557   2.8857
     2.9088   2.9769   2.9772   3.0601   3.1027   3.1510   3.2875   3.4235
     3.5876   3.7973   3.8849   4.2384   4.3851   4.6641   4.8074   5.1494
     5.2013   5.6246   5.9080   6.2421   6.3140   6.4864   6.6409   6.8527
     6.9288   7.2105   7.5237   7.6607   7.8030   7.9053

          k = 0.0000 0.4619 0.0000 ( 43046 PWs)   bands (ev):

   -10.0133  -9.3466  -5.3611  -4.9235  -4.6327  -4.0597  -3.9504  -3.7525
    -3.6223  -3.4959  -3.4819  -3.3041  -3.1445  -3.1379  -3.0667  -3.0328
    -2.9332  -2.8952  -2.8523  -2.7598  -2.7470  -2.7034  -2.6291  -2.6279
    -2.5504  -2.5409  -2.5285  -2.4860  -2.4629  -2.4123  -2.3998  -2.3270
    -2.3076  -2.1818  -2.1719  -2.0979  -2.0807  -2.0231  -2.0048  -1.9483
    -1.9157  -1.8846  -1.8599  -1.8410  -1.7700  -1.7373  -1.6902  -1.6565
    -1.6004  -1.5712  -1.5242  -1.4671  -1.4663  -1.4067  -1.3843  -1.3706
    -1.3321  -1.3143  -1.2403  -1.2142  -1.1416  -1.1178  -1.0745  -1.0130
    -0.9967  -0.9342  -0.8704  -0.8663  -0.8364  -0.8211  -0.7623  -0.7130
    -0.7037  -0.6763  -0.6417  -0.6377  -0.5989  -0.5308  -0.4984  -0.4673
    -0.4516  -0.4092  -0.3585  -0.3329  -0.3256  -0.3048  -0.2944  -0.2580
    -0.2420  -0.2214  -0.1866  -0.1666  -0.1331  -0.1269  -0.0789  -0.0774
    -0.0284  -0.0131   0.0030   0.0160   0.0724   0.0789   0.0964   0.1470
     0.1642   0.2022   0.2295   0.2730   0.2750   0.3119   0.3382   0.3829
     0.4169   0.4445   0.4609   0.4822   0.5340   0.6251   0.6511   0.6852
     0.7148   0.7305   0.7800   0.8064   0.8406   0.8469   0.8605   0.9139
     0.9269   0.9397   0.9997   1.0614   1.0782   1.0935   1.1292   1.1486
     1.1895   1.2488   1.2922   1.3413   1.3781   1.4368   1.4508   1.4917
     1.5681   1.5782   1.6001   1.6010   1.6707   1.6914   1.7004   1.7470
     1.7472   1.8259   1.8284   1.8860   1.9131   1.9196   1.9539   2.0335
     2.0349   2.0599   2.1291   2.1348   2.2054   2.2454   2.2942   2.3171
     2.3992   2.4089   2.4194   2.4491   2.4771   2.4897   2.5411   2.5556
     2.6055   2.6188   2.6705   2.6979   2.7303   2.7358   2.7470   2.8184
     2.8668   2.9331   2.9865   2.9924   3.0052   3.0421   3.0651   3.1352
     3.2401   3.2902   3.4984   3.6276   3.9230   3.9339   4.1417   4.2144
     4.2490   4.4957   4.5050   4.6796   4.8677   4.8953   5.1676   5.2772
     5.3720   5.4745   5.6135   5.6474   6.0094   6.0549   6.3200   6.4885
     6.5030   6.8301   7.0612   7.2623   7.3985   7.7256

          k = 0.2000-0.1155 0.0000 ( 42996 PWs)   bands (ev):

   -10.0516  -9.3085  -5.7550  -4.8578  -4.4563  -4.1998  -3.9068  -3.6965
    -3.6180  -3.5166  -3.4321  -3.3907  -3.3119  -3.2357  -3.2051  -3.1339
    -3.0903  -3.0000  -2.9318  -2.9130  -2.8269  -2.7545  -2.6618  -2.5970
    -2.5418  -2.4953  -2.4153  -2.4057  -2.3853  -2.2861  -2.2740  -2.2563
    -2.2433  -2.2267  -2.2001  -2.1772  -2.1353  -2.1118  -2.0667  -2.0223
    -1.9710  -1.8806  -1.8720  -1.8243  -1.7820  -1.7094  -1.6329  -1.6021
    -1.5714  -1.5555  -1.5412  -1.5003  -1.4451  -1.3974  -1.3272  -1.2889
    -1.2763  -1.2037  -1.1840  -1.1404  -1.0791  -1.0525  -0.9155  -0.8728
    -0.8555  -0.8325  -0.8027  -0.7825  -0.7495  -0.7178  -0.6737  -0.6208
    -0.6088  -0.5771  -0.5313  -0.5004  -0.4856  -0.4791  -0.4453  -0.3849
    -0.3583  -0.3278  -0.3207  -0.3059  -0.2895  -0.2573  -0.2424  -0.2286
    -0.2002  -0.1528  -0.1357  -0.0952  -0.0762  -0.0549  -0.0408  -0.0183
    -0.0010   0.0256   0.0452   0.0719   0.0999   0.1137   0.1249   0.1471
     0.1687   0.1844   0.2213   0.2744   0.3353   0.3641   0.3839   0.4050
     0.4373   0.4511   0.4752   0.5071   0.5697   0.5940   0.6517   0.6991
     0.7449   0.8050   0.8169   0.8654   0.8960   0.9795   0.9962   1.0498
     1.0798   1.1191   1.1465   1.1739   1.2043   1.2319   1.2590   1.2704
     1.3152   1.3231   1.4012   1.4302   1.4635   1.4858   1.5073   1.5304
     1.5872   1.5954   1.6193   1.6669   1.7006   1.7351   1.7475   1.7805
     1.8250   1.8438   1.8567   1.9311   1.9719   1.9938   2.0079   2.0333
     2.0579   2.0785   2.1030   2.1491   2.1769   2.1837   2.2158   2.2666
     2.2911   2.3362   2.3521   2.3713   2.3963   2.4079   2.4299   2.4518
     2.4820   2.5180   2.5463   2.5686   2.6041   2.6248   2.6630   2.6990
     2.7105   2.7410   2.7637   2.7685   2.8115   2.8202   2.8269   2.8498
     2.9009   2.9686   2.9830   3.0639   3.0962   3.1356   3.2415   3.3537
     3.6347   3.7830   3.9513   4.1579   4.4424   4.6492   4.7395   5.1012
     5.3618   5.5930   5.8802   6.0629   6.3549   6.4929   6.6565   6.7251
     6.9119   7.2993   7.5016   7.7672   7.8700   7.9076

          k = 0.2000 0.1155 0.0000 ( 42996 PWs)   bands (ev):

   -10.0516  -9.3085  -5.7550  -4.8578  -4.4563  -4.1998  -3.9067  -3.6965
    -3.6180  -3.5166  -3.4321  -3.3907  -3.3120  -3.2357  -3.2051  -3.1339
    -3.0903  -3.0000  -2.9319  -2.9131  -2.8270  -2.7544  -2.6618  -2.5970
    -2.5419  -2.4953  -2.4153  -2.4057  -2.3853  -2.2862  -2.2740  -2.2564
    -2.2433  -2.2267  -2.2001  -2.1771  -2.1353  -2.1118  -2.0668  -2.0223
    -1.9710  -1.8805  -1.8720  -1.8243  -1.7819  -1.7094  -1.6328  -1.6021
    -1.5714  -1.5555  -1.5412  -1.5002  -1.4451  -1.3975  -1.3272  -1.2889
    -1.2764  -1.2037  -1.1840  -1.1404  -1.0791  -1.0525  -0.9154  -0.8727
    -0.8555  -0.8325  -0.8027  -0.7825  -0.7495  -0.7178  -0.6737  -0.6209
    -0.6088  -0.5771  -0.5313  -0.5004  -0.4857  -0.4790  -0.4453  -0.3851
    -0.3584  -0.3277  -0.3207  -0.3058  -0.2895  -0.2573  -0.2424  -0.2286
    -0.2002  -0.1529  -0.1357  -0.0952  -0.0762  -0.0548  -0.0408  -0.0183
    -0.0010   0.0257   0.0452   0.0719   0.0999   0.1137   0.1248   0.1471
     0.1686   0.1844   0.2213   0.2744   0.3352   0.3641   0.3839   0.4050
     0.4373   0.4512   0.4752   0.5071   0.5697   0.5939   0.6517   0.6991
     0.7450   0.8051   0.8169   0.8653   0.8959   0.9796   0.9962   1.0498
     1.0798   1.1191   1.1463   1.1739   1.2043   1.2319   1.2590   1.2703
     1.3152   1.3231   1.4012   1.4302   1.4635   1.4858   1.5072   1.5303
     1.5872   1.5954   1.6192   1.6669   1.7006   1.7351   1.7475   1.7805
     1.8250   1.8438   1.8567   1.9312   1.9719   1.9939   2.0079   2.0333
     2.0579   2.0785   2.1029   2.1490   2.1769   2.1837   2.2158   2.2666
     2.2910   2.3362   2.3521   2.3713   2.3963   2.4079   2.4299   2.4518
     2.4820   2.5179   2.5462   2.5685   2.6040   2.6249   2.6629   2.6990
     2.7104   2.7410   2.7637   2.7685   2.8115   2.8203   2.8269   2.8498
     2.9010   2.9686   2.9830   3.0639   3.0961   3.1356   3.2416   3.3538
     3.6347   3.7830   3.9514   4.1579   4.4424   4.6492   4.7395   5.1011
     5.3618   5.5930   5.8802   6.0630   6.3550   6.4929   6.6564   6.7250
     6.9119   7.2993   7.5015   7.7672   7.8702   7.9072

          k = 0.2000 0.3464 0.0000 ( 43046 PWs)   bands (ev):

   -10.0269  -9.3298  -5.4860  -4.8681  -4.3691  -4.2455  -4.1560  -3.8342
    -3.5911  -3.3678  -3.2968  -3.2264  -3.1664  -3.1558  -3.1150  -3.0737
    -3.0553  -2.9841  -2.9451  -2.8985  -2.7378  -2.6516  -2.6189  -2.5918
    -2.5634  -2.5227  -2.4964  -2.4493  -2.3658  -2.3495  -2.3239  -2.3016
    -2.2870  -2.2577  -2.1979  -2.1795  -2.1306  -2.1101  -2.0898  -2.0123
    -1.9548  -1.8926  -1.8502  -1.7749  -1.7319  -1.7207  -1.6549  -1.6228
    -1.5817  -1.5647  -1.5050  -1.4837  -1.4490  -1.4089  -1.3562  -1.3254
    -1.2945  -1.2275  -1.1820  -1.1706  -1.1380  -1.1009  -1.0573  -1.0266
    -0.9596  -0.9427  -0.8815  -0.8584  -0.8172  -0.7723  -0.7645  -0.7246
    -0.7081  -0.6435  -0.6238  -0.5927  -0.5681  -0.5439  -0.5034  -0.4543
    -0.4284  -0.4024  -0.3682  -0.3456  -0.3299  -0.2942  -0.2777  -0.2469
    -0.2311  -0.1877  -0.1548  -0.1428  -0.1191  -0.0874  -0.0808  -0.0425
    -0.0340  -0.0141   0.0166   0.0498   0.0693   0.0997   0.1116   0.1434
     0.1725   0.1850   0.2058   0.2326   0.2437   0.2650   0.3054   0.3460
     0.3704   0.4003   0.4438   0.4963   0.5338   0.5921   0.6379   0.6664
     0.7267   0.7683   0.7902   0.8281   0.8487   0.8836   0.9155   0.9256
     0.9907   0.9997   1.0320   1.0734   1.1049   1.1414   1.1964   1.2177
     1.2467   1.2718   1.3233   1.3593   1.4144   1.4342   1.4468   1.4850
     1.5003   1.5469   1.5813   1.6014   1.6538   1.6792   1.7194   1.7549
     1.7869   1.8028   1.8160   1.8569   1.8974   1.9081   1.9616   2.0001
     2.0820   2.1223   2.1422   2.1978   2.2433   2.2734   2.3254   2.3426
     2.4137   2.4415   2.4890   2.5081   2.5216   2.5361   2.5669   2.5909
     2.6203   2.6278   2.6430   2.6740   2.7158   2.7306   2.7552   2.7838
     2.8101   2.8402   2.8728   2.9445   2.9792   3.0247   3.0476   3.0878
     3.1509   3.2144   3.2637   3.3456   3.7493   3.8050   3.8985   3.9488
     4.0903   4.1857   4.3154   4.5994   4.6744   4.8026   5.1146   5.2379
     5.3757   5.4235   5.5945   6.0635   6.2071   6.3400   6.5040   6.6263
     6.8316   6.9488   7.1903   7.2135   7.4803   7.5209

          k = 0.2000-0.5774 0.0000 ( 43014 PWs)   bands (ev):

   -10.0108  -9.3437  -5.0845  -4.9503  -4.7230  -4.3918  -3.8111  -3.7499
    -3.6610  -3.5601  -3.3102  -3.2164  -3.1161  -3.0528  -2.9830  -2.9567
    -2.8858  -2.8497  -2.8071  -2.7668  -2.7071  -2.6995  -2.6684  -2.6620
    -2.6150  -2.5797  -2.5080  -2.4768  -2.4532  -2.4438  -2.3728  -2.3497
    -2.3212  -2.2629  -2.2271  -2.1989  -2.1103  -2.0706  -2.0574  -2.0486
    -1.9367  -1.8915  -1.8297  -1.7859  -1.7441  -1.6928  -1.6800  -1.6377
    -1.6101  -1.5747  -1.5343  -1.4328  -1.3884  -1.3406  -1.3344  -1.2958
    -1.2798  -1.2443  -1.2087  -1.1573  -1.1447  -1.1146  -1.0881  -1.0506
    -0.9938  -0.9713  -0.9417  -0.9000  -0.8879  -0.8785  -0.8366  -0.7787
    -0.7704  -0.7364  -0.7274  -0.6783  -0.6504  -0.6015  -0.5776  -0.5423
    -0.4993  -0.4740  -0.4627  -0.4343  -0.3971  -0.3663  -0.3345  -0.3096
    -0.2564  -0.2252  -0.2150  -0.1709  -0.1391  -0.0850  -0.0669  -0.0400
     0.0018   0.0113   0.0251   0.0793   0.0909   0.1083   0.1168   0.1305
     0.1752   0.2016   0.2246   0.2568   0.2634   0.2782   0.2933   0.2975
     0.3444   0.3883   0.4145   0.4898   0.5305   0.5927   0.6014   0.6816
     0.7013   0.7116   0.7517   0.7684   0.7803   0.8319   0.8696   0.8915
     0.9297   0.9622   0.9876   1.0371   1.0770   1.0936   1.1068   1.1738
     1.2192   1.2728   1.3279   1.3500   1.3915   1.4183   1.4562   1.4841
     1.4973   1.5229   1.5426   1.5927   1.6230   1.6437   1.6630   1.6947
     1.7049   1.7529   1.7992   1.8189   1.8897   1.9618   2.0375   2.0410
     2.0851   2.1440   2.1836   2.2084   2.2476   2.2932   2.2966   2.3783
     2.4275   2.4523   2.4915   2.5309   2.5474   2.5685   2.5995   2.6277
     2.6346   2.6911   2.7097   2.7203   2.7688   2.7726   2.8097   2.8656
     2.9068   2.9403   2.9923   3.0100   3.0277   3.0518   3.0791   3.2194
     3.2811   3.5356   3.7082   3.8369   4.0455   4.1415   4.2279   4.2914
     4.4247   4.6525   4.7325   4.8240   4.9453   5.0958   5.2167   5.3741
     5.4638   5.7207   5.7721   5.8872   5.9804   6.0735   6.1389   6.2900
     6.3691   6.4224   6.8526   7.1264   7.2423   7.3330

          k = 0.2000-0.3464 0.0000 ( 43046 PWs)   bands (ev):

   -10.0269  -9.3298  -5.4860  -4.8681  -4.3690  -4.2455  -4.1560  -3.8342
    -3.5911  -3.3678  -3.2967  -3.2263  -3.1664  -3.1558  -3.1150  -3.0737
    -3.0554  -2.9841  -2.9451  -2.8985  -2.7378  -2.6514  -2.6189  -2.5919
    -2.5634  -2.5226  -2.4964  -2.4493  -2.3658  -2.3496  -2.3240  -2.3016
    -2.2871  -2.2577  -2.1978  -2.1796  -2.1306  -2.1100  -2.0898  -2.0122
    -1.9549  -1.8926  -1.8501  -1.7749  -1.7320  -1.7207  -1.6549  -1.6229
    -1.5818  -1.5647  -1.5050  -1.4837  -1.4490  -1.4089  -1.3562  -1.3255
    -1.2945  -1.2274  -1.1820  -1.1707  -1.1380  -1.1009  -1.0573  -1.0266
    -0.9596  -0.9427  -0.8815  -0.8585  -0.8172  -0.7724  -0.7645  -0.7246
    -0.7082  -0.6436  -0.6238  -0.5927  -0.5680  -0.5438  -0.5034  -0.4543
    -0.4284  -0.4024  -0.3682  -0.3455  -0.3298  -0.2942  -0.2777  -0.2470
    -0.2310  -0.1877  -0.1548  -0.1427  -0.1192  -0.0874  -0.0808  -0.0424
    -0.0340  -0.0140   0.0166   0.0498   0.0692   0.0997   0.1116   0.1432
     0.1725   0.1850   0.2058   0.2326   0.2437   0.2650   0.3054   0.3460
     0.3704   0.4004   0.4438   0.4963   0.5337   0.5921   0.6379   0.6665
     0.7267   0.7683   0.7902   0.8281   0.8487   0.8836   0.9155   0.9256
     0.9908   0.9997   1.0320   1.0733   1.1049   1.1413   1.1964   1.2178
     1.2467   1.2719   1.3234   1.3593   1.4144   1.4342   1.4468   1.4850
     1.5003   1.5469   1.5812   1.6014   1.6537   1.6791   1.7194   1.7549
     1.7869   1.8028   1.8160   1.8568   1.8974   1.9080   1.9616   2.0000
     2.0820   2.1224   2.1422   2.1978   2.2433   2.2734   2.3254   2.3426
     2.4136   2.4415   2.4890   2.5082   2.5216   2.5362   2.5669   2.5909
     2.6204   2.6278   2.6430   2.6740   2.7158   2.7307   2.7552   2.7838
     2.8101   2.8402   2.8728   2.9445   2.9791   3.0247   3.0475   3.0877
     3.1509   3.2145   3.2637   3.3456   3.7494   3.8050   3.8985   3.9488
     4.0902   4.1856   4.3154   4.5993   4.6744   4.8026   5.1145   5.2379
     5.3757   5.4235   5.5945   6.0635   6.2070   6.3400   6.5039   6.6262
     6.8317   6.9488   7.1903   7.2136   7.4803   7.5210

          k = 0.4000-0.2309 0.0000 ( 43046 PWs)   bands (ev):

   -10.0325  -9.3169  -5.3600  -4.8724  -4.6861  -4.1420  -3.9687  -3.6791
    -3.6330  -3.4863  -3.3858  -3.2696  -3.1949  -3.1646  -3.0810  -3.0308
    -2.9483  -2.9149  -2.8431  -2.7839  -2.7117  -2.6902  -2.6492  -2.6404
    -2.5608  -2.5238  -2.5196  -2.4905  -2.4763  -2.4296  -2.3774  -2.3373
    -2.3271  -2.2334  -2.1689  -2.1118  -2.0910  -2.0458  -2.0150  -1.9873
    -1.9212  -1.8794  -1.8647  -1.8213  -1.7913  -1.7574  -1.6656  -1.6351
    -1.6054  -1.5234  -1.5028  -1.4672  -1.4516  -1.4098  -1.3840  -1.3709
    -1.3368  -1.2867  -1.2389  -1.2133  -1.1516  -1.1103  -1.0651  -1.0407
    -1.0036  -0.9862  -0.9176  -0.8934  -0.8496  -0.7872  -0.7623  -0.7158
    -0.6949  -0.6609  -0.6283  -0.5793  -0.5455  -0.5269  -0.4866  -0.4705
    -0.4577  -0.4199  -0.3728  -0.3566  -0.3358  -0.2968  -0.2934  -0.2592
    -0.2331  -0.2152  -0.1923  -0.1786  -0.1493  -0.1204  -0.1019  -0.0603
    -0.0514  -0.0286  -0.0036   0.0131   0.0737   0.1031   0.1125   0.1283
     0.1620   0.1970   0.2397   0.2825   0.2954   0.3065   0.3459   0.4004
     0.4189   0.4313   0.4725   0.4986   0.5439   0.6156   0.6505   0.6740
     0.6991   0.7411   0.7715   0.8036   0.8191   0.8414   0.8718   0.9018
     0.9264   0.9411   1.0059   1.0623   1.0905   1.1107   1.1397   1.1691
     1.2076   1.2718   1.3018   1.3733   1.3890   1.4294   1.4735   1.5127
     1.5489   1.5916   1.6285   1.6668   1.6839   1.7036   1.7165   1.7499
     1.7853   1.8245   1.8539   1.8811   1.9326   1.9476   1.9866   2.0251
     2.0448   2.0691   2.1540   2.1863   2.2123   2.2555   2.2900   2.3541
     2.3868   2.4087   2.4186   2.4329   2.4655   2.5150   2.5347   2.5440
     2.5877   2.6384   2.6633   2.6855   2.7101   2.7269   2.7579   2.8222
     2.8674   2.9082   2.9793   2.9903   3.0071   3.0369   3.0602   3.1977
     3.2430   3.2986   3.4076   3.5629   3.7450   3.9317   4.1288   4.1846
     4.2502   4.4310   4.5132   4.6901   4.8522   4.9070   5.1008   5.2225
     5.3684   5.4463   5.5396   5.6828   5.9742   6.1256   6.2836   6.3533
     6.4734   6.8144   6.9659   7.2446   7.5292   7.7030

          k = 0.4000-0.0000 0.0000 ( 43046 PWs)   bands (ev):

   -10.0383  -9.3118  -5.4860  -4.8412  -4.3686  -4.3273  -4.1554  -3.8345
    -3.4958  -3.3189  -3.3029  -3.2246  -3.2026  -3.1610  -3.1334  -3.0806
    -3.0723  -2.9986  -2.9518  -2.9013  -2.8175  -2.6181  -2.6065  -2.5919
    -2.5189  -2.4945  -2.4701  -2.4484  -2.4099  -2.3623  -2.3469  -2.3253
    -2.2857  -2.2342  -2.1958  -2.1613  -2.1339  -2.1088  -2.0739  -2.0498
    -1.9857  -1.9510  -1.8415  -1.7811  -1.7237  -1.7132  -1.6796  -1.6161
    -1.5278  -1.5224  -1.5066  -1.4781  -1.4481  -1.4062  -1.3699  -1.3467
    -1.2695  -1.2473  -1.2140  -1.1620  -1.1505  -1.0936  -1.0633  -1.0145
    -0.9669  -0.9468  -0.9091  -0.8772  -0.8263  -0.7713  -0.7580  -0.7372
    -0.7061  -0.6512  -0.6090  -0.5867  -0.5458  -0.5371  -0.4864  -0.4636
    -0.4348  -0.3827  -0.3593  -0.3353  -0.3333  -0.2979  -0.2751  -0.2666
    -0.2196  -0.1751  -0.1645  -0.1498  -0.1076  -0.1064  -0.0882  -0.0386
    -0.0312   0.0157   0.0204   0.0469   0.0560   0.1112   0.1194   0.1537
     0.1661   0.1824   0.1879   0.2384   0.2600   0.2762   0.2804   0.3528
     0.3763   0.4245   0.4726   0.4793   0.5200   0.5963   0.6578   0.6823
     0.6930   0.7661   0.7800   0.8279   0.8493   0.8839   0.8966   0.9567
     0.9758   1.0053   1.0227   1.0652   1.0981   1.1397   1.1609   1.2311
     1.2484   1.2950   1.3610   1.3713   1.4206   1.4355   1.4576   1.4741
     1.5005   1.5184   1.5619   1.6189   1.7001   1.7083   1.7506   1.7545
     1.8096   1.8206   1.8457   1.8793   1.8855   1.9247   1.9506   2.0227
     2.0585   2.0978   2.1578   2.2009   2.2568   2.3110   2.3703   2.3925
     2.4201   2.4435   2.4704   2.5087   2.5225   2.5375   2.5721   2.5804
     2.6178   2.6395   2.6529   2.6592   2.6926   2.7371   2.7458   2.7792
     2.8230   2.8676   2.9160   2.9314   2.9901   2.9983   3.0284   3.0726
     3.1150   3.1986   3.2219   3.3762   3.5919   3.7583   3.8402   4.0147
     4.1283   4.2470   4.2839   4.5151   4.8418   4.8862   4.9603   5.1246
     5.2393   5.4595   5.5362   5.8770   6.2554   6.3457   6.5213   6.7380
     6.7923   6.8619   7.0947   7.3230   7.5152   7.5560

          k = 0.4000 0.2309 0.0000 ( 43046 PWs)   bands (ev):

   -10.0325  -9.3169  -5.3600  -4.8725  -4.6861  -4.1420  -3.9686  -3.6791
    -3.6330  -3.4863  -3.3858  -3.2697  -3.1949  -3.1646  -3.0811  -3.0308
    -2.9483  -2.9148  -2.8431  -2.7840  -2.7117  -2.6902  -2.6492  -2.6404
    -2.5608  -2.5239  -2.5196  -2.4905  -2.4763  -2.4297  -2.3773  -2.3373
    -2.3270  -2.2334  -2.1689  -2.1118  -2.0910  -2.0458  -2.0149  -1.9873
    -1.9212  -1.8794  -1.8647  -1.8213  -1.7913  -1.7574  -1.6656  -1.6350
    -1.6054  -1.5234  -1.5028  -1.4673  -1.4516  -1.4099  -1.3840  -1.3709
    -1.3367  -1.2867  -1.2389  -1.2133  -1.1515  -1.1103  -1.0651  -1.0406
    -1.0035  -0.9862  -0.9176  -0.8934  -0.8496  -0.7872  -0.7623  -0.7159
    -0.6949  -0.6608  -0.6284  -0.5794  -0.5456  -0.5269  -0.4868  -0.4706
    -0.4577  -0.4200  -0.3729  -0.3566  -0.3358  -0.2968  -0.2933  -0.2593
    -0.2330  -0.2152  -0.1924  -0.1786  -0.1494  -0.1204  -0.1018  -0.0604
    -0.0515  -0.0286  -0.0036   0.0132   0.0737   0.1031   0.1124   0.1283
     0.1619   0.1970   0.2397   0.2826   0.2953   0.3066   0.3459   0.4004
     0.4189   0.4313   0.4725   0.4986   0.5439   0.6157   0.6506   0.6740
     0.6991   0.7411   0.7715   0.8036   0.8190   0.8414   0.8717   0.9017
     0.9263   0.9410   1.0059   1.0623   1.0905   1.1108   1.1396   1.1691
     1.2076   1.2717   1.3018   1.3732   1.3890   1.4294   1.4734   1.5127
     1.5489   1.5916   1.6285   1.6668   1.6840   1.7036   1.7166   1.7499
     1.7853   1.8246   1.8540   1.8812   1.9327   1.9476   1.9866   2.0251
     2.0448   2.0690   2.1540   2.1862   2.2123   2.2554   2.2900   2.3541
     2.3868   2.4086   2.4185   2.4329   2.4655   2.5150   2.5347   2.5440
     2.5877   2.6384   2.6633   2.6855   2.7101   2.7269   2.7579   2.8223
     2.8675   2.9082   2.9794   2.9904   3.0072   3.0369   3.0603   3.1976
     3.2430   3.2986   3.4077   3.5628   3.7449   3.9317   4.1288   4.1846
     4.2503   4.4309   4.5132   4.6901   4.8522   4.9072   5.1008   5.2225
     5.3684   5.4463   5.5397   5.6827   5.9743   6.1256   6.2836   6.3534
     6.4735   6.8143   6.9659   7.2446   7.5291   7.7030

          k = 0.4000-0.6928 0.0000 ( 43014 PWs)   bands (ev):

   -10.0228  -9.3251  -5.0560  -4.9613  -4.7579  -4.3478  -3.9515  -3.8007
    -3.5514  -3.4421  -3.2998  -3.2327  -3.1240  -3.0767  -3.0146  -2.9689
    -2.8682  -2.8452  -2.8016  -2.7507  -2.7096  -2.7036  -2.6664  -2.6469
    -2.6113  -2.5965  -2.5563  -2.4788  -2.4589  -2.4397  -2.4084  -2.3771
    -2.3138  -2.2822  -2.2214  -2.1824  -2.1158  -2.0850  -2.0464  -2.0336
    -1.9393  -1.8942  -1.8246  -1.8025  -1.7700  -1.7126  -1.6540  -1.6391
    -1.6038  -1.5662  -1.5020  -1.4302  -1.3829  -1.3684  -1.3135  -1.2881
    -1.2598  -1.2306  -1.2019  -1.1868  -1.1668  -1.1116  -1.0846  -1.0430
    -1.0244  -0.9914  -0.9718  -0.9208  -0.9043  -0.8812  -0.8218  -0.7868
    -0.7752  -0.7475  -0.6720  -0.6391  -0.6137  -0.6055  -0.5629  -0.5511
    -0.5266  -0.4682  -0.4522  -0.4283  -0.3972  -0.3615  -0.3365  -0.3132
    -0.2449  -0.2284  -0.1936  -0.1834  -0.1396  -0.0889  -0.0715  -0.0486
    -0.0145   0.0120   0.0575   0.0761   0.0930   0.1050   0.1287   0.1571
     0.1700   0.2057   0.2299   0.2485   0.2706   0.2811   0.2899   0.3145
     0.3325   0.3759   0.4330   0.4627   0.4921   0.5542   0.6088   0.6751
     0.6905   0.7140   0.7438   0.7876   0.7952   0.8368   0.8828   0.9041
     0.9305   0.9568   0.9716   1.0420   1.0853   1.1060   1.1480   1.1858
     1.2359   1.2619   1.3094   1.3355   1.3948   1.4327   1.4449   1.4758
     1.5053   1.5189   1.5491   1.5984   1.6181   1.6292   1.6671   1.7129
     1.7446   1.7827   1.8055   1.8399   1.9192   1.9750   2.0023   2.0387
     2.1201   2.1843   2.1974   2.2230   2.2604   2.2910   2.3310   2.3851
     2.4254   2.4754   2.4989   2.5173   2.5599   2.5757   2.5899   2.6220
     2.6366   2.6743   2.6997   2.7225   2.7544   2.7779   2.7951   2.8868
     2.9041   2.9324   2.9886   3.0009   3.0392   3.0695   3.0834   3.2377
     3.3132   3.4771   3.5933   3.7996   3.9936   4.1656   4.2540   4.3225
     4.4666   4.5029   4.7054   4.8441   4.9971   5.0735   5.2284   5.3070
     5.4210   5.4955   5.7652   5.8839   5.9969   6.0687   6.0923   6.2418
     6.4732   6.5923   6.8329   6.9984   7.1573   7.2510

          k = 0.4000-0.4619 0.0000 ( 43014 PWs)   bands (ev):

   -10.0228  -9.3251  -5.0561  -4.9612  -4.7579  -4.3478  -3.9515  -3.8007
    -3.5514  -3.4421  -3.2998  -3.2326  -3.1240  -3.0768  -3.0147  -2.9689
    -2.8682  -2.8452  -2.8016  -2.7507  -2.7096  -2.7036  -2.6663  -2.6469
    -2.6113  -2.5965  -2.5563  -2.4788  -2.4589  -2.4396  -2.4084  -2.3771
    -2.3138  -2.2822  -2.2215  -2.1824  -2.1158  -2.0850  -2.0465  -2.0337
    -1.9393  -1.8942  -1.8246  -1.8025  -1.7700  -1.7125  -1.6539  -1.6391
    -1.6039  -1.5662  -1.5020  -1.4301  -1.3829  -1.3684  -1.3135  -1.2880
    -1.2597  -1.2306  -1.2019  -1.1870  -1.1669  -1.1116  -1.0846  -1.0431
    -1.0244  -0.9914  -0.9718  -0.9209  -0.9043  -0.8811  -0.8218  -0.7868
    -0.7752  -0.7475  -0.6719  -0.6391  -0.6137  -0.6055  -0.5629  -0.5511
    -0.5266  -0.4682  -0.4521  -0.4283  -0.3972  -0.3615  -0.3365  -0.3132
    -0.2449  -0.2284  -0.1936  -0.1833  -0.1396  -0.0889  -0.0715  -0.0487
    -0.0145   0.0120   0.0576   0.0761   0.0931   0.1051   0.1289   0.1569
     0.1700   0.2057   0.2298   0.2484   0.2707   0.2811   0.2899   0.3145
     0.3325   0.3759   0.4330   0.4628   0.4921   0.5542   0.6089   0.6751
     0.6905   0.7140   0.7438   0.7876   0.7952   0.8369   0.8829   0.9041
     0.9306   0.9568   0.9716   1.0420   1.0853   1.1060   1.1481   1.1858
     1.2359   1.2619   1.3094   1.3355   1.3947   1.4327   1.4449   1.4759
     1.5053   1.5189   1.5491   1.5984   1.6181   1.6292   1.6671   1.7128
     1.7446   1.7827   1.8054   1.8399   1.9191   1.9751   2.0024   2.0388
     2.1201   2.1843   2.1974   2.2230   2.2604   2.2910   2.3310   2.3851
     2.4254   2.4754   2.4989   2.5173   2.5599   2.5757   2.5900   2.6220
     2.6366   2.6743   2.6997   2.7224   2.7545   2.7780   2.7951   2.8869
     2.9042   2.9324   2.9885   3.0009   3.0390   3.0695   3.0833   3.2377
     3.3132   3.4771   3.5934   3.7995   3.9936   4.1656   4.2541   4.3225
     4.4667   4.5029   4.7054   4.8441   4.9971   5.0734   5.2283   5.3070
     5.4210   5.4956   5.7649   5.8839   5.9968   6.0686   6.0923   6.2419
     6.4731   6.5923   6.8329   6.9987   7.1573   7.2511

     the Fermi energy is     2.7860 ev

!    total energy              =  -27793.39730345 Ry
     total all-electron energy =  -1326795.690915 Ry
     estimated scf accuracy    <       0.00000044 Ry
     smearing contrib. (-TS)   =       0.00011770 Ry
     internal energy E=F+TS    =  -27793.39742115 Ry

     The total energy is F=E-TS. E is the sum of the following terms:
     one-electron contribution =  -20749.81982442 Ry
     hartree contribution      =   10688.27006207 Ry
     xc contribution           =    -900.37462819 Ry
     ewald contribution        =    8655.71554801 Ry
     one-center paw contrib.   =  -25487.18857862 Ry

     convergence has been achieved in  18 iterations

     negative rho (up, down):  3.076E-03 0.000E+00

     Forces acting on atoms (cartesian axes, Ry/au):

     atom    1 type  1   force =     0.00013731    0.00001336   -0.00452004
     atom    2 type  1   force =    -0.00013723    0.00000319   -0.00451441
     atom    3 type  1   force =    -0.00000687   -0.00418387   -0.00744206
     atom    4 type  1   force =    -0.00001204    0.00070094   -0.00632313
     atom    5 type  1   force =    -0.00200181    0.00054309   -0.00753863
     atom    6 type  1   force =     0.00200621    0.00055250   -0.00752663
     atom    7 type  1   force =    -0.00178098    0.00031668   -0.00802094
     atom    8 type  1   force =     0.00000542    0.00092973   -0.00493706
     atom    9 type  1   force =     0.00175893    0.00031481   -0.00801439
     atom   10 type  1   force =     0.00001081    0.00096198    0.01876346
     atom   11 type  1   force =    -0.00099391   -0.00128998    0.00074194
     atom   12 type  1   force =     0.00101332   -0.00127582    0.00073651
     atom   13 type  1   force =    -0.00037948    0.00021217    0.00836424
     atom   14 type  1   force =     0.00001925    0.00033458   -0.00547502
     atom   15 type  1   force =     0.00038875    0.00021316    0.00834315
     atom   16 type  1   force =    -0.00293667   -0.00011811    0.01062815
     atom   17 type  1   force =     0.00296846   -0.00012731    0.01060965
     atom   18 type  1   force =    -0.00000443    0.00190172    0.00605512
     atom   19 type  1   force =    -0.00000077   -0.00000416   -0.00000433
     atom   20 type  1   force =    -0.00000531    0.00000036    0.00000427
     atom   21 type  1   force =    -0.00001234   -0.00000447   -0.00000541
     atom   22 type  1   force =    -0.00001399    0.00000541    0.00001189
     atom   23 type  1   force =     0.00000631    0.00000285    0.00000672
     atom   24 type  1   force =    -0.00000503    0.00001424    0.00000518
     atom   25 type  1   force =    -0.00000162   -0.00000674   -0.00000759
     atom   26 type  1   force =    -0.00000889    0.00000390    0.00000116
     atom   27 type  1   force =    -0.00000574   -0.00000611   -0.00000742
     atom   28 type  1   force =     0.00001115    0.00000872    0.00000271
     atom   29 type  1   force =    -0.00000470   -0.00001302    0.00000073
     atom   30 type  1   force =     0.00000155   -0.00000227    0.00000547
     atom   31 type  1   force =     0.00000281    0.00000377    0.00001241
     atom   32 type  1   force =    -0.00001008   -0.00000464    0.00000210
     atom   33 type  1   force =     0.00000003   -0.00000193    0.00000289
     atom   34 type  1   force =    -0.00000496   -0.00000394    0.00000260
     atom   35 type  1   force =    -0.00000546    0.00000696    0.00001411
     atom   36 type  1   force =     0.00000171   -0.00000686    0.00000481
     atom   37 type  2   force =    -0.00000649    0.00000350    0.00001252
     atom   38 type  3   force =     0.00000696   -0.00000206   -0.00000308
     atom   39 type  2   force =    -0.00000014    0.00000366    0.00000836
     The non-local contrib.  to forces
     atom    1 type  1   force =    -0.00033670    0.00012170   -0.01975213
     atom    2 type  1   force =     0.00034706    0.00011255   -0.01975087
     atom    3 type  1   force =    -0.00000380   -0.00006954   -0.02064497
     atom    4 type  1   force =    -0.00000552    0.00058292   -0.01914116
     atom    5 type  1   force =     0.00120997   -0.00071806   -0.02571721
     atom    6 type  1   force =    -0.00119664   -0.00070838   -0.02570186
     atom    7 type  1   force =    -0.00216080   -0.00025952   -0.01960711
     atom    8 type  1   force =     0.00000871   -0.00035182   -0.02159482
     atom    9 type  1   force =     0.00214715   -0.00026077   -0.01960378
     atom   10 type  1   force =     0.00000906   -0.00018531    0.00301387
     atom   11 type  1   force =    -0.00426598   -0.00020062    0.00134555
     atom   12 type  1   force =     0.00428621   -0.00018385    0.00134633
     atom   13 type  1   force =    -0.00161862   -0.00299951    0.00157912
     atom   14 type  1   force =     0.00002272    0.00279601   -0.00225702
     atom   15 type  1   force =     0.00162916   -0.00299623    0.00157086
     atom   16 type  1   force =     0.00306262    0.00116431    0.00025623
     atom   17 type  1   force =    -0.00302643    0.00115159    0.00024349
     atom   18 type  1   force =    -0.00000775    0.00019194    0.00438071
     atom   19 type  1   force =    -0.01057388   -0.00154875    0.00800870
     atom   20 type  1   force =     0.01055610   -0.00154844    0.00801663
     atom   21 type  1   force =    -0.00000082    0.00286018    0.01426577
     atom   22 type  1   force =    -0.00002545    0.00736709    0.02658022
     atom   23 type  1   force =     0.00875456   -0.00651242    0.00454836
     atom   24 type  1   force =    -0.00875050   -0.00650558    0.00455335
     atom   25 type  1   force =    -0.00503787    0.00238458    0.00181162
     atom   26 type  1   force =    -0.00001113   -0.00350051    0.01554806
     atom   27 type  1   force =     0.00502764    0.00237405    0.00181559
     atom   28 type  1   force =     0.07887513    0.04240681   -0.01067803
     atom   29 type  1   force =    -0.07888469    0.04235879   -0.01067207
     atom   30 type  1   force =    -0.00000603   -0.02378880    0.01992826
     atom   31 type  1   force =     0.00002276   -0.03345837   -0.05554606
     atom   32 type  1   force =    -0.02399155   -0.00106199    0.02225273
     atom   33 type  1   force =     0.02397800   -0.00104996    0.02224281
     atom   34 type  1   force =    -0.04476399   -0.02434414   -0.04149166
     atom   35 type  1   force =    -0.00000189    0.02604324    0.02362187
     atom   36 type  1   force =     0.04476662   -0.02437712   -0.04148575
     atom   37 type  2   force =     0.00001206    0.03981044   -0.26460237
     atom   38 type  3   force =     0.00001420   -0.00346565   -0.08094874
     atom   39 type  2   force =    -0.00000330   -0.05658400   -0.13275512
     The ionic contribution  to forces
     atom    1 type  1   force =     0.00487700   -0.00197632  -94.37158085
     atom    2 type  1   force =    -0.00486644   -0.00191377  -94.37156529
     atom    3 type  1   force =    -0.00000979   -0.03315843  -94.38444604
     atom    4 type  1   force =     0.00005683    0.00344618  -94.36317693
     atom    5 type  1   force =    -0.02885186   -0.00228601  -94.41382877
     atom    6 type  1   force =     0.02879622   -0.00230816  -94.41395354
     atom    7 type  1   force =    -0.01998505    0.00723611  -94.36649417
     atom    8 type  1   force =    -0.00004965    0.02362900  -94.40090939
     atom    9 type  1   force =     0.02003563    0.00727400  -94.36658315
     atom   10 type  1   force =     0.00032371    0.01887591  -33.37754230
     atom   11 type  1   force =    -0.22084501   -0.18459080  -33.45302970
     atom   12 type  1   force =     0.22092138   -0.18515477  -33.45351174
     atom   13 type  1   force =    -0.16276401   -0.02918592  -33.35106421
     atom   14 type  1   force =    -0.00047264    0.17572517  -33.64559219
     atom   15 type  1   force =     0.16356564   -0.02915067  -33.35171188
     atom   16 type  1   force =    -0.04067701    0.11188853  -33.41899482
     atom   17 type  1   force =     0.04073353    0.11221135  -33.41939518
     atom   18 type  1   force =     0.00028598   -0.01377120  -33.13657203
     atom   19 type  1   force =     0.21910564    0.01039526   28.58097187
     atom   20 type  1   force =    -0.21823158    0.01103951   28.58281770
     atom   21 type  1   force =    -0.00111388   -0.15697632   26.05096898
     atom   22 type  1   force =     0.00055369    0.05621839   28.24541825
     atom   23 type  1   force =    -0.21666450    0.03881504   27.32568395
     atom   24 type  1   force =     0.21596369    0.03943221   27.32299383
     atom   25 type  1   force =    -0.18204524   -0.13070140   28.07247745
     atom   26 type  1   force =    -0.00026933    0.20932557   28.41686883
     atom   27 type  1   force =     0.18196444   -0.12979891   28.07174317
     atom   28 type  1   force =    -2.32523651   -1.06093535   89.46220326
     atom   29 type  1   force =     2.32577389   -1.06077532   89.46411890
     atom   30 type  1   force =    -0.00007650    0.78183092   88.29879862
     atom   31 type  1   force =     0.00089038   -1.05616502   88.28488476
     atom   32 type  1   force =     0.67195215   -0.13592818   88.22421513
     atom   33 type  1   force =    -0.67323365   -0.13596491   88.22250783
     atom   34 type  1   force =     3.47344593    1.42122689   88.15593516
     atom   35 type  1   force =    -0.00037109   -0.26421393   88.55054056
     atom   36 type  1   force =    -3.47256592    1.42169582   88.15020706
     atom   37 type  2   force =    -0.00019329   -0.54424765   45.09772155
     atom   38 type  3   force =    -0.00040008    0.17064566   12.40537593
     atom   39 type  2   force =    -0.00032271    0.53829154   45.07349939
     The local contribution  to forces
     atom    1 type  1   force =    -0.00442258    0.00189714   94.37027069
     atom    2 type  1   force =     0.00437815    0.00187953   94.37025674
     atom    3 type  1   force =     0.00002942    0.02907069   94.38078806
     atom    4 type  1   force =    -0.00003340   -0.00336698   94.35935742
     atom    5 type  1   force =     0.02564404    0.00348273   94.41543825
     atom    6 type  1   force =    -0.02562821    0.00345725   94.41552414
     atom    7 type  1   force =     0.02047846   -0.00666042   94.36120685
     atom    8 type  1   force =    -0.00000783   -0.02238708   94.40121231
     atom    9 type  1   force =    -0.02048416   -0.00669347   94.36127242
     atom   10 type  1   force =    -0.00031048   -0.01788357   33.39380311
     atom   11 type  1   force =     0.22347981    0.18300616   33.45267650
     atom   12 type  1   force =    -0.22356537    0.18350391   33.45313123
     atom   13 type  1   force =     0.16398172    0.03219336   33.35846978
     atom   14 type  1   force =     0.00040613   -0.17779015   33.64210505
     atom   15 type  1   force =    -0.16471920    0.03213049   33.35910414
     atom   16 type  1   force =     0.03450798   -0.11279883   33.42997408
     atom   17 type  1   force =    -0.03461927   -0.11307338   33.43038139
     atom   18 type  1   force =    -0.00023052    0.01566834   33.13990610
     atom   19 type  1   force =    -0.20838368   -0.00871259  -28.58574453
     atom   20 type  1   force =     0.20756353   -0.00931666  -28.58759321
     atom   21 type  1   force =     0.00106185    0.15360947  -26.06360109
     atom   22 type  1   force =    -0.00049572   -0.06314360  -28.26832136
     atom   23 type  1   force =     0.20725015   -0.03243966  -27.32883394
     atom   24 type  1   force =    -0.20659920   -0.03303822  -27.32612233
     atom   25 type  1   force =     0.18594633    0.12784177  -28.07308388
     atom   26 type  1   force =     0.00025331   -0.20550564  -28.42989860
     atom   27 type  1   force =    -0.18584843    0.12700303  -28.07233007
     atom   28 type  1   force =     2.22723228    1.00926009  -89.44965774
     atom   29 type  1   force =    -2.22773984    1.00915303  -89.45159055
     atom   30 type  1   force =     0.00007196   -0.75936803  -88.30329407
     atom   31 type  1   force =    -0.00088300    1.09240053  -88.23776499
     atom   32 type  1   force =    -0.65027075    0.13663945  -88.23044800
     atom   33 type  1   force =     0.65151901    0.13666398  -88.22869735
     atom   34 type  1   force =    -3.41148913   -1.38919112  -88.11348985
     atom   35 type  1   force =     0.00034687    0.24012074  -88.55763555
     atom   36 type  1   force =     3.41061851   -1.38960727  -88.10774924
     atom   37 type  2   force =     0.00018873    0.50582173  -44.83841611
     atom   38 type  3   force =     0.00039276   -0.16720327  -12.32444978
     atom   39 type  2   force =     0.00033202   -0.48233187  -44.94320574
     The core correction contribution to forces
     atom    1 type  1   force =     0.00002308   -0.00009172    0.01687661
     atom    2 type  1   force =    -0.00002280   -0.00009158    0.01687632
     atom    3 type  1   force =     0.00000006   -0.00011047    0.01719201
     atom    4 type  1   force =     0.00000033   -0.00000154    0.01690681
     atom    5 type  1   force =    -0.00007075    0.00003448    0.01685992
     atom    6 type  1   force =     0.00007101    0.00003438    0.01686018
     atom    7 type  1   force =    -0.00011853    0.00001338    0.01714788
     atom    8 type  1   force =    -0.00000024    0.00009676    0.01662438
     atom    9 type  1   force =     0.00011882    0.00001328    0.01714791
     atom   10 type  1   force =    -0.00000072    0.00005922   -0.00015946
     atom   11 type  1   force =     0.00064766    0.00039868    0.00019298
     atom   12 type  1   force =    -0.00064939    0.00039980    0.00019421
     atom   13 type  1   force =     0.00004045    0.00019035   -0.00026100
     atom   14 type  1   force =     0.00000009   -0.00046226    0.00069074
     atom   15 type  1   force =    -0.00004255    0.00019042   -0.00025895
     atom   16 type  1   force =     0.00009552   -0.00031042   -0.00022145
     atom   17 type  1   force =    -0.00009634   -0.00031089   -0.00021962
     atom   18 type  1   force =    -0.00000095   -0.00010388   -0.00122789
     atom   19 type  1   force =    -0.00018451   -0.00025037   -0.00318152
     atom   20 type  1   force =     0.00018305   -0.00025099   -0.00318238
     atom   21 type  1   force =     0.00000285    0.00032323   -0.00156275
     atom   22 type  1   force =     0.00000025   -0.00036653   -0.00355591
     atom   23 type  1   force =     0.00061063    0.00018152   -0.00129259
     atom   24 type  1   force =    -0.00060962    0.00017976   -0.00129305
     atom   25 type  1   force =     0.00109050    0.00045635   -0.00110583
     atom   26 type  1   force =     0.00000092   -0.00035163   -0.00251005
     atom   27 type  1   force =    -0.00108933    0.00045541   -0.00110545
     atom   28 type  1   force =     0.01875967    0.00909694   -0.00200180
     atom   29 type  1   force =    -0.01876209    0.00909664   -0.00200377
     atom   30 type  1   force =     0.00000022    0.00136453   -0.01540858
     atom   31 type  1   force =    -0.00000347   -0.00270658    0.00823319
     atom   32 type  1   force =     0.00239889    0.00026091   -0.01591132
     atom   33 type  1   force =    -0.00239516    0.00026105   -0.01591239
     atom   34 type  1   force =    -0.01701006   -0.00759035   -0.00113819
     atom   35 type  1   force =     0.00000099   -0.00203644   -0.01643857
     atom   36 type  1   force =     0.01700739   -0.00759175   -0.00113409
     atom   37 type  2   force =    -0.00000939   -0.00140130    0.00541700
     atom   38 type  3   force =     0.00000000    0.00000000    0.00000000
     atom   39 type  2   force =    -0.00000508    0.00060727    0.00248510
     The Hubbard contrib.    to forces
     atom    1 type  1   force =     0.00000000    0.00000000    0.00000000
     atom    2 type  1   force =     0.00000000    0.00000000    0.00000000
     atom    3 type  1   force =     0.00000000    0.00000000    0.00000000
     atom    4 type  1   force =     0.00000000    0.00000000    0.00000000
     atom    5 type  1   force =     0.00000000    0.00000000    0.00000000
     atom    6 type  1   force =     0.00000000    0.00000000    0.00000000
     atom    7 type  1   force =     0.00000000    0.00000000    0.00000000
     atom    8 type  1   force =     0.00000000    0.00000000    0.00000000
     atom    9 type  1   force =     0.00000000    0.00000000    0.00000000
     atom   10 type  1   force =     0.00000000    0.00000000    0.00000000
     atom   11 type  1   force =     0.00000000    0.00000000    0.00000000
     atom   12 type  1   force =     0.00000000    0.00000000    0.00000000
     atom   13 type  1   force =     0.00000000    0.00000000    0.00000000
     atom   14 type  1   force =     0.00000000    0.00000000    0.00000000
     atom   15 type  1   force =     0.00000000    0.00000000    0.00000000
     atom   16 type  1   force =     0.00000000    0.00000000    0.00000000
     atom   17 type  1   force =     0.00000000    0.00000000    0.00000000
     atom   18 type  1   force =     0.00000000    0.00000000    0.00000000
     atom   19 type  1   force =     0.00000000    0.00000000    0.00000000
     atom   20 type  1   force =     0.00000000    0.00000000    0.00000000
     atom   21 type  1   force =     0.00000000    0.00000000    0.00000000
     atom   22 type  1   force =     0.00000000    0.00000000    0.00000000
     atom   23 type  1   force =     0.00000000    0.00000000    0.00000000
     atom   24 type  1   force =     0.00000000    0.00000000    0.00000000
     atom   25 type  1   force =     0.00000000    0.00000000    0.00000000
     atom   26 type  1   force =     0.00000000    0.00000000    0.00000000
     atom   27 type  1   force =     0.00000000    0.00000000    0.00000000
     atom   28 type  1   force =     0.00000000    0.00000000    0.00000000
     atom   29 type  1   force =     0.00000000    0.00000000    0.00000000
     atom   30 type  1   force =     0.00000000    0.00000000    0.00000000
     atom   31 type  1   force =     0.00000000    0.00000000    0.00000000
     atom   32 type  1   force =     0.00000000    0.00000000    0.00000000
     atom   33 type  1   force =     0.00000000    0.00000000    0.00000000
     atom   34 type  1   force =     0.00000000    0.00000000    0.00000000
     atom   35 type  1   force =     0.00000000    0.00000000    0.00000000
     atom   36 type  1   force =     0.00000000    0.00000000    0.00000000
     atom   37 type  2   force =     0.00000000    0.00000000    0.00000000
     atom   38 type  3   force =     0.00000000    0.00000000    0.00000000
     atom   39 type  2   force =     0.00000000    0.00000000    0.00000000
     The SCF correction term to forces
     atom    1 type  1   force =    -0.00000000    0.00000000   -0.00000000
     atom    2 type  1   force =     0.00000000   -0.00000000   -0.00000000
     atom    3 type  1   force =    -0.00000000    0.00000000   -0.00000000
     atom    4 type  1   force =    -0.00000000    0.00000000   -0.00000000
     atom    5 type  1   force =     0.00000000    0.00000000   -0.00000000
     atom    6 type  1   force =    -0.00000000    0.00000000   -0.00000000
     atom    7 type  1   force =     0.00000000   -0.00000000   -0.00000000
     atom    8 type  1   force =     0.00000000   -0.00000000   -0.00000000
     atom    9 type  1   force =    -0.00000000   -0.00000000   -0.00000000
     atom   10 type  1   force =    -0.00000000    0.00000000   -0.00000000
     atom   11 type  1   force =    -0.00000000    0.00000000   -0.00000000
     atom   12 type  1   force =     0.00000000    0.00000000   -0.00000000
     atom   13 type  1   force =    -0.00000000   -0.00000000   -0.00000000
     atom   14 type  1   force =     0.00000000    0.00000000   -0.00000000
     atom   15 type  1   force =    -0.00000000    0.00000000   -0.00000000
     atom   16 type  1   force =     0.00000000   -0.00000000   -0.00000000
     atom   17 type  1   force =    -0.00000000   -0.00000000   -0.00000000
     atom   18 type  1   force =    -0.00000000   -0.00000000   -0.00000000
     atom   19 type  1   force =     0.00003546    0.00008777   -0.00011704
     atom   20 type  1   force =    -0.00007661    0.00005242   -0.00011265
     atom   21 type  1   force =     0.00003747    0.00015445   -0.00013449
     atom   22 type  1   force =    -0.00004696   -0.00009446   -0.00016751
     atom   23 type  1   force =     0.00005526   -0.00006614   -0.00015724
     atom   24 type  1   force =    -0.00000961   -0.00007846   -0.00018480
     atom   25 type  1   force =     0.00004446   -0.00001256   -0.00016513
     atom   26 type  1   force =     0.00001713    0.00001159   -0.00006528
     atom   27 type  1   force =    -0.00006026   -0.00006420   -0.00018886
     atom   28 type  1   force =     0.00038038    0.00015572    0.00007884
     atom   29 type  1   force =    -0.00039217    0.00012933    0.00009003
     atom   30 type  1   force =     0.00001169   -0.00006540   -0.00007695
     atom   31 type  1   force =    -0.00002407   -0.00009131    0.00014732
     atom   32 type  1   force =    -0.00009903    0.00006067   -0.00016463
     atom   33 type  1   force =     0.00013163    0.00006339   -0.00019620
     atom   34 type  1   force =    -0.00018790   -0.00012973    0.00012894
     atom   35 type  1   force =     0.00001946    0.00006883   -0.00013238
     atom   36 type  1   force =     0.00017490   -0.00015106    0.00010863
     atom   37 type  2   force =    -0.00000480   -0.00000424   -0.00016574
     atom   38 type  3   force =    -0.00000013   -0.00000331   -0.00003868
     atom   39 type  2   force =    -0.00000129   -0.00000380   -0.00007346

     Total force =     0.000053     Total SCF correction =     0.000981
     SCF correction compared to forces is large: reduce conv_thr to get better values

     Writing all to output data dir ./pwscf.save/

     init_run     :     11.02s CPU     11.34s WALL (       1 calls)
     electrons    :    318.24s CPU    325.62s WALL (       1 calls)
     forces       :      3.74s CPU      4.33s WALL (       1 calls)

     Called by init_run:
     wfcinit      :      5.92s CPU      6.09s WALL (       1 calls)
     potinit      :      3.45s CPU      3.53s WALL (       1 calls)
     hinit0       :      1.05s CPU      1.07s WALL (       1 calls)

     Called by electrons:
     c_bands      :    270.63s CPU    274.36s WALL (      19 calls)
     sum_band     :     30.17s CPU     31.04s WALL (      19 calls)
     v_of_rho     :      8.40s CPU     10.15s WALL (      19 calls)
     newd         :      2.89s CPU      3.60s WALL (      19 calls)
     PAW_pot      :      4.10s CPU      4.21s WALL (      19 calls)
     mix_rho      :      4.08s CPU      4.16s WALL (      19 calls)
     vdW_kernel   :      1.72s CPU      1.73s WALL (       1 calls)

     Called by c_bands:
     init_us_2    :      2.71s CPU      2.75s WALL (     520 calls)
     init_us_2:cp :      2.71s CPU      2.75s WALL (     520 calls)
     cegterg      :    263.29s CPU    266.72s WALL (     247 calls)

     Called by *egterg:
     cdiaghg      :     85.12s CPU     85.76s WALL (    1360 calls)
     h_psi        :    113.85s CPU    115.58s WALL (    1386 calls)
     s_psi        :     15.02s CPU     15.17s WALL (    1386 calls)
     g_psi        :      0.44s CPU      0.44s WALL (    1126 calls)

     Called by h_psi:
     h_psi:calbec :     18.46s CPU     19.02s WALL (    1386 calls)
     vloc_psi     :     79.01s CPU     80.00s WALL (    1386 calls)
     add_vuspsi   :     15.25s CPU     15.43s WALL (    1386 calls)

     General routines
     calbec       :     26.38s CPU     27.06s WALL (    1685 calls)
     fft          :      4.93s CPU      6.75s WALL (    1257 calls)
     ffts         :      2.51s CPU      2.54s WALL (    4457 calls)
     fftw         :     77.00s CPU     77.96s WALL (  318238 calls)
     interpolate  :      0.67s CPU      0.71s WALL (      19 calls)

     Parallel routines

     PWSCF        :   5m34.79s CPU   5m46.10s WALL


   This run was terminated on:   3:56:13   5Dec2025            

=------------------------------------------------------------------------------=
   JOB DONE.
=------------------------------------------------------------------------------=
