
     Program PWSCF v.7.1 starts on 17Dec2025 at 10:16: 2 
        Git branch: heads/qe-7.1
        Last git commit: 48ba0178f8fede6d020eb786884699a9f063f55d-dirty
        Last git commit date: Fri Jan 27 14:22:33 2023 +0000
        Last git commit subject: Merge branch 'fix_hubbard' into 'develop'

     This program is part of the open-source Quantum ESPRESSO suite
     for quantum simulation of materials; please cite
         "P. Giannozzi et al., J. Phys.:Condens. Matter 21 395502 (2009);
         "P. Giannozzi et al., J. Phys.:Condens. Matter 29 465901 (2017);
         "P. Giannozzi et al., J. Chem. Phys. 152 154105 (2020);
          URL http://www.quantum-espresso.org", 
     in publications or presentations arising from this work. More details at
     http://www.quantum-espresso.org/quote

     Parallel version (MPI), running on    96 processors

     MPI processes distributed on     2 nodes
     206179 MiB available memory on the printing compute node when the environment starts

     Reading input from espresso.pwi
Warning: card &CELL ignored
Warning: card / ignored
Warning: card &FCP ignored
Warning: card / ignored
Warning: card &RISM ignored
Warning: card / ignored

     Current dimensions of program PWSCF are:
     Max number of different atomic species (ntypx) = 10
     Max number of k-points (npk) =  40000
     Max angular momentum in pseudopotentials (lmaxx) =  4
     file Co.pbe-n-kjpaw_psl.1.0.0.UPF: wavefunction(s)  4S 3D renormalized
     file C.pbe-n-kjpaw_psl.1.0.0.UPF: wavefunction(s)  2S 2P renormalized
     file O.pbe-nl-kjpaw_psl.1.0.0.UPF: wavefunction(s)  2S 2P renormalized
     file H.pbe-kjpaw_psl.1.0.0.UPF: wavefunction(s)  1S renormalized

     **************************************************************************
     Initializing libbeef V0.1.2 with the BEEF-vdW functional.
     Citation: Wellendorff et al., PRB 85, 235149 (2012).
     **************************************************************************


     IMPORTANT: XC functional enforced from input :
     Exchange-correlation= BEEF-VDW
                           (   1   4  43  14   2   0   0)
     Any further DFT definition will be discarded
     Please, verify this is what you really want


     R & G space division:  proc/nbgrp/npool/nimage =      96
     Subspace diagonalization in iterative solution of the eigenvalue problem:
     one sub-group per band group will be used
     custom distributed-memory algorithm (size of sub-group:  2*  2 procs)


     Parallelization info
     --------------------
     sticks:   dense  smooth     PW     G-vecs:    dense   smooth      PW
     Min          43      28      7                 7829     4248     595
     Max          44      29      8                 7845     4281     630
     Sum        4153    2773    757               752179   409445   59217

     Using Slab Decomposition



     bravais-lattice index     =            0
     lattice parameter (alat)  =      14.1729  a.u.
     unit-cell volume          =    8574.3059 (a.u.)^3
     number of atoms/cell      =           39
     number of atomic types    =            4
     number of electrons       =       335.00
     number of Kohn-Sham states=          202
     kinetic-energy cutoff     =      50.0000  Ry
     charge density cutoff     =     300.0000  Ry
     scf convergence threshold =      1.0E-08
     mixing beta               =       0.7000
     number of iterations used =            8  local-TF  mixing
     Exchange-correlation= BEEF-VDW
                           (   1   4  43  14   2   0   0)

     celldm(1)=  14.172946  celldm(2)=   0.000000  celldm(3)=   0.000000
     celldm(4)=   0.000000  celldm(5)=   0.000000  celldm(6)=   0.000000

     crystal axes: (cart. coord. in units of alat)
               a(1) = (   1.000000   0.000000   0.000000 )  
               a(2) = (   0.500000   0.866025   0.000000 )  
               a(3) = (   0.000000   0.000000   3.477667 )  

     reciprocal axes: (cart. coord. in units 2 pi/alat)
               b(1) = (  1.000000 -0.577350  0.000000 )  
               b(2) = (  0.000000  1.154701  0.000000 )  
               b(3) = (  0.000000  0.000000  0.287549 )  


     PseudoPot. # 1 for Co read from file:
     /users/kbadger1/espresso/pseudo/pslibrary.1.0.0/pbe/PSEUDOPOTENTIALS/Co.pbe-n-kjpaw_psl.1.0.0.UPF
     MD5 check sum: 88af6ec42553d4236c267fdfcb472151
     Pseudo is Projector augmented-wave + core cor, Zval =  9.0
     Generated using 'atomic' code by A. Dal Corso  v.7.0
     Shape of augmentation charge: PSQ
     Using radial grid of 1193 points,  6 beta functions with: 
                l(1) =   0
                l(2) =   0
                l(3) =   1
                l(4) =   1
                l(5) =   2
                l(6) =   2
     Q(r) pseudized with 0 coefficients 


     PseudoPot. # 2 for C  read from file:
     /users/kbadger1/espresso/pseudo/pslibrary.1.0.0/pbe/PSEUDOPOTENTIALS/C.pbe-n-kjpaw_psl.1.0.0.UPF
     MD5 check sum: 6408e75cdba28732cea38a4db8498ce4
     Pseudo is Projector augmented-wave + core cor, Zval =  4.0
     Generated using 'atomic' code by A. Dal Corso  v.7.0
     Shape of augmentation charge: PSQ
     Using radial grid of 1073 points,  4 beta functions with: 
                l(1) =   0
                l(2) =   0
                l(3) =   1
                l(4) =   1
     Q(r) pseudized with 0 coefficients 


     PseudoPot. # 3 for O  read from file:
     /users/kbadger1/espresso/pseudo/pslibrary.1.0.0/pbe/PSEUDOPOTENTIALS/O.pbe-nl-kjpaw_psl.1.0.0.UPF
     MD5 check sum: f0439fab3598ca4e468f064226030408
     Pseudo is Projector augmented-wave + core cor, Zval =  6.0
     Generated using 'atomic' code by A. Dal Corso  v.7.0
     Shape of augmentation charge: PSQ
     Using radial grid of 1095 points,  4 beta functions with: 
                l(1) =   0
                l(2) =   0
                l(3) =   1
                l(4) =   1
     Q(r) pseudized with 0 coefficients 


     PseudoPot. # 4 for H  read from file:
     /users/kbadger1/espresso/pseudo/pslibrary.1.0.0/pbe/PSEUDOPOTENTIALS/H.pbe-kjpaw_psl.1.0.0.UPF
     MD5 check sum: fe4c6fa958fa6d3815bf5d2419cbf1df
     Pseudo is Projector augmented-wave, Zval =  1.0
     Generated using 'atomic' code by A. Dal Corso  v.7.0
     Shape of augmentation charge: PSQ
     Using radial grid of  929 points,  2 beta functions with: 
                l(1) =   0
                l(2) =   0
     Q(r) pseudized with 0 coefficients 


     atomic species   valence    mass     pseudopotential
        Co             9.00    58.93319     Co( 1.00)
        C              4.00    12.00000     C ( 1.00)
        O              6.00    15.99491     O ( 1.00)
        H              1.00     1.00783     H ( 1.00)

     Starting magnetic structure 
     atomic species   magnetization
        Co           1.000
        C            1.000
        O            0.000
        H            0.000

     No symmetry found



   Cartesian axes

     site n.     atom                  positions (alat units)
         1           Co  tau(   1) = (   0.0000000   0.1924501   1.3333333  )
         2           Co  tau(   2) = (   0.3333333   0.1924501   1.3333333  )
         3           Co  tau(   3) = (   0.6666667   0.1924501   1.3333333  )
         4           Co  tau(   4) = (   0.1666667   0.4811252   1.3333333  )
         5           Co  tau(   5) = (   0.5000000   0.4811252   1.3333333  )
         6           Co  tau(   6) = (   0.8333333   0.4811252   1.3333333  )
         7           Co  tau(   7) = (   0.3333333   0.7698004   1.3333333  )
         8           Co  tau(   8) = (   0.6666667   0.7698004   1.3333333  )
         9           Co  tau(   9) = (   1.0000000   0.7698004   1.3333333  )
        10           Co  tau(  10) = (   0.0000000   0.0000000   1.6036667  )
        11           Co  tau(  11) = (   0.3333333   0.0000000   1.6036667  )
        12           Co  tau(  12) = (   0.6666667   0.0000000   1.6036667  )
        13           Co  tau(  13) = (   0.1666667   0.2886751   1.6036667  )
        14           Co  tau(  14) = (   0.5000000   0.2886751   1.6036667  )
        15           Co  tau(  15) = (   0.8333333   0.2886751   1.6036667  )
        16           Co  tau(  16) = (   0.3333333   0.5773503   1.6036667  )
        17           Co  tau(  17) = (   0.6666667   0.5773503   1.6036667  )
        18           Co  tau(  18) = (   1.0000000   0.5773503   1.6036667  )
        19           Co  tau(  19) = (   0.0000000   0.1924501   1.8740000  )
        20           Co  tau(  20) = (   0.3333333   0.1924501   1.8740000  )
        21           Co  tau(  21) = (   0.6666667   0.1924501   1.8740000  )
        22           Co  tau(  22) = (   0.1666667   0.4811252   1.8740000  )
        23           Co  tau(  23) = (   0.5000000   0.4811252   1.8740000  )
        24           Co  tau(  24) = (   0.8333333   0.4811252   1.8740000  )
        25           Co  tau(  25) = (   0.3333333   0.7698004   1.8740000  )
        26           Co  tau(  26) = (   0.6666667   0.7698004   1.8740000  )
        27           Co  tau(  27) = (   1.0000000   0.7698004   1.8740000  )
        28           Co  tau(  28) = (   0.0000000   0.0000000   2.1443333  )
        29           Co  tau(  29) = (   0.3333333   0.0000000   2.1443333  )
        30           Co  tau(  30) = (   0.6666667   0.0000000   2.1443333  )
        31           Co  tau(  31) = (   0.1666667   0.2886751   2.1443333  )
        32           Co  tau(  32) = (   0.5000000   0.2886751   2.1443333  )
        33           Co  tau(  33) = (   0.8333333   0.2886751   2.1443333  )
        34           Co  tau(  34) = (   0.3333333   0.5773503   2.1443333  )
        35           Co  tau(  35) = (   0.6666667   0.5773503   2.1443333  )
        36           Co  tau(  36) = (   1.0000000   0.5773503   2.1443333  )
        37           C   tau(  37) = (   0.3799103   0.2231721   2.3526779  )
        38           O   tau(  38) = (   0.2524459   0.1235044   2.4052223  )
        39           H   tau(  39) = (   0.4580504   0.2889050   2.4573051  )

     number of k points=    13  Marzari-Vanderbilt smearing, width (Ry)=  0.0010
                       cart. coord. in units 2pi/alat
        k(    1) = (   0.0000000   0.0000000   0.0000000), wk =   0.0400000
        k(    2) = (   0.0000000   0.2309401   0.0000000), wk =   0.0800000
        k(    3) = (   0.0000000   0.4618802   0.0000000), wk =   0.0800000
        k(    4) = (   0.2000000  -0.1154701   0.0000000), wk =   0.0800000
        k(    5) = (   0.2000000   0.1154701   0.0000000), wk =   0.0800000
        k(    6) = (   0.2000000   0.3464102   0.0000000), wk =   0.0800000
        k(    7) = (   0.2000000  -0.5773503   0.0000000), wk =   0.0800000
        k(    8) = (   0.2000000  -0.3464102   0.0000000), wk =   0.0800000
        k(    9) = (   0.4000000  -0.2309401   0.0000000), wk =   0.0800000
        k(   10) = (   0.4000000   0.0000000   0.0000000), wk =   0.0800000
        k(   11) = (   0.4000000   0.2309401   0.0000000), wk =   0.0800000
        k(   12) = (   0.4000000  -0.6928203   0.0000000), wk =   0.0800000
        k(   13) = (   0.4000000  -0.4618802   0.0000000), wk =   0.0800000

     Dense  grid:   752179 G-vectors     FFT dimensions: (  80,  80, 288)

     Smooth grid:   409445 G-vectors     FFT dimensions: (  64,  64, 225)

     Estimated max dynamical RAM per process >      99.02 MB

     Estimated total dynamical RAM >       9.28 GB
     Generating pointlists ...
     new r_m :   0.1028 (alat units)  1.4571 (a.u.) for type    1
     new r_m :   0.0603 (alat units)  0.8547 (a.u.) for type    2
     new r_m :   0.0702 (alat units)  0.9946 (a.u.) for type    3
     new r_m :   0.0603 (alat units)  0.8547 (a.u.) for type    4

     Initial potential from superposition of free atoms

     starting charge     334.9897, renormalised to     335.0000

     negative rho (up, down):  3.018E-03 4.712E-04


     %%%%%%%%%%%%%%%%%%%%%%%%%%%%%%%%%%%%%%%%%%%%%%%%%%%%%%%%%%%%%%%%%%%%%%%%
     %                                                                      %
     % You are using vdW-DF, which was implemented by the Thonhauser group. %
     % Please cite the following two papers that made this development      %
     % possible and the two reviews that describe the various versions:     %
     %                                                                      %
     %   T. Thonhauser et al., PRL 115, 136402 (2015).                      %
     %   T. Thonhauser et al., PRB 76, 125112 (2007).                       %
     %   K. Berland et al., Rep. Prog. Phys. 78, 066501 (2015).             %
     %   D.C. Langreth et al., J. Phys.: Condens. Matter 21, 084203 (2009). %
     %                                                                      %
     % If you are calculating stress with vdW-DF, please also cite:         %
     %                                                                      %
     %   R. Sabatini et al., J. Phys.: Condens. Matter 24, 424209 (2012).   %
     %   C.M. Frostenson et al., Electr. Struct. 4, 014001 (2022).          %
     %                                                                      %
     %%%%%%%%%%%%%%%%%%%%%%%%%%%%%%%%%%%%%%%%%%%%%%%%%%%%%%%%%%%%%%%%%%%%%%%%

     %%%%%%%%%%%%%%%%%%%%%%%%%%%%%%%%%%%%%%%%%%%%%%%%%%%%%%%%%%%%%%%%%%%%%%%%
     %                                                                      %
     %  vdW-DF NEWS:                                                        %
     %                                                                      %
     %  * vdW-DF3 is now available. DOI: 10.1021/acs.jctc.0c00471           %
     %    use with input_dft = 'vdW-DF3-opt1' or 'vdW-DF3-opt2'             %
     %                                                                      %
     %  * Unscreened and range-separated hybrid vdW-DF-cx functionals       %
     %    DOI: 10.1063/1.4986522 and 10.1088/1361-648X/ac2ad2               %
     %    use with input_dft = 'vdW-DF-cx0'    and 'vdW-DF-ahcx'            %
     %  * Unscreened and range-separated hybrid vdW-DF2-b86r functionals    %
     %    DOI: 10.1063/1.4986522 and DOI: 10.1103/PhysRevX.12.041003        %
     %    use with input_dft = 'vdW-DF2-br0' and 'vdW-DF2-ahbr'             %
     %                                                                      %
     %%%%%%%%%%%%%%%%%%%%%%%%%%%%%%%%%%%%%%%%%%%%%%%%%%%%%%%%%%%%%%%%%%%%%%%%


     Starting wfcs are  333 randomized atomic wfcs
     Checking if some PAW data can be deallocated... 

     total cpu time spent up to now is       12.1 secs

     per-process dynamical memory:   230.0 Mb

     Self-consistent Calculation

     iteration #  1     ecut=    50.00 Ry     beta= 0.70
     Davidson diagonalization with overlap
     ethr =  1.00E-02,  avg # of iterations =  2.0

     negative rho (up, down):  2.272E-05 4.399E-08

     total cpu time spent up to now is       34.6 secs

     total energy              =   -6053.08560087 Ry
     estimated scf accuracy    <      39.62002926 Ry

     total magnetization       =    69.00 Bohr mag/cell
     absolute magnetization    =    81.17 Bohr mag/cell

     iteration #  2     ecut=    50.00 Ry     beta= 0.70
     Davidson diagonalization with overlap
     ethr =  1.00E-02,  avg # of iterations =  1.0

     negative rho (up, down):  2.338E-06 5.972E-09

     total cpu time spent up to now is       48.8 secs

     total energy              =   -6052.54337986 Ry
     estimated scf accuracy    <      24.49529453 Ry

     total magnetization       =    68.96 Bohr mag/cell
     absolute magnetization    =    76.81 Bohr mag/cell

     iteration #  3     ecut=    50.00 Ry     beta= 0.70
     Davidson diagonalization with overlap
     ethr =  7.31E-03,  avg # of iterations =  1.0

     total cpu time spent up to now is       67.5 secs

     total energy              =   -6055.14201794 Ry
     estimated scf accuracy    <      85.81566239 Ry

     total magnetization       =    66.25 Bohr mag/cell
     absolute magnetization    =    73.29 Bohr mag/cell

     iteration #  4     ecut=    50.00 Ry     beta= 0.70
     Davidson diagonalization with overlap
     ethr =  7.31E-03,  avg # of iterations =  1.0

     total cpu time spent up to now is       84.9 secs

     total energy              =   -6056.31439374 Ry
     estimated scf accuracy    <       5.85397287 Ry

     total magnetization       =    60.64 Bohr mag/cell
     absolute magnetization    =    70.42 Bohr mag/cell

     iteration #  5     ecut=    50.00 Ry     beta= 0.70
     Davidson diagonalization with overlap
     ethr =  1.75E-03,  avg # of iterations =  1.3

     total cpu time spent up to now is       98.4 secs

     total energy              =   -6056.36762298 Ry
     estimated scf accuracy    <       2.16813581 Ry

     total magnetization       =    60.40 Bohr mag/cell
     absolute magnetization    =    69.73 Bohr mag/cell

     iteration #  6     ecut=    50.00 Ry     beta= 0.70
     Davidson diagonalization with overlap
     ethr =  6.47E-04,  avg # of iterations =  1.5

     total cpu time spent up to now is      118.0 secs

     total energy              =   -6056.47425081 Ry
     estimated scf accuracy    <       0.61008419 Ry

     total magnetization       =    60.37 Bohr mag/cell
     absolute magnetization    =    69.52 Bohr mag/cell

     iteration #  7     ecut=    50.00 Ry     beta= 0.70
     Davidson diagonalization with overlap
     ethr =  1.82E-04,  avg # of iterations =  4.5

     total cpu time spent up to now is      134.8 secs

     total energy              =   -6056.50523666 Ry
     estimated scf accuracy    <       0.91625051 Ry

     total magnetization       =    60.26 Bohr mag/cell
     absolute magnetization    =    69.16 Bohr mag/cell

     iteration #  8     ecut=    50.00 Ry     beta= 0.70
     Davidson diagonalization with overlap
     ethr =  1.82E-04,  avg # of iterations =  1.6

     total cpu time spent up to now is      154.7 secs

     total energy              =   -6056.51281989 Ry
     estimated scf accuracy    <       0.15223483 Ry

     total magnetization       =    60.65 Bohr mag/cell
     absolute magnetization    =    69.30 Bohr mag/cell

     iteration #  9     ecut=    50.00 Ry     beta= 0.70
     Davidson diagonalization with overlap
     c_bands:  3 eigenvalues not converged
     c_bands:  1 eigenvalues not converged
     c_bands:  2 eigenvalues not converged
     c_bands:  1 eigenvalues not converged
     ethr =  4.54E-05,  avg # of iterations = 13.2

     total cpu time spent up to now is      190.0 secs

     total energy              =   -6056.53939567 Ry
     estimated scf accuracy    <       0.24338233 Ry

     total magnetization       =    61.24 Bohr mag/cell
     absolute magnetization    =    69.21 Bohr mag/cell

     iteration # 10     ecut=    50.00 Ry     beta= 0.70
     Davidson diagonalization with overlap
     ethr =  4.54E-05,  avg # of iterations =  1.3

     total cpu time spent up to now is      208.0 secs

     total energy              =   -6056.54231953 Ry
     estimated scf accuracy    <       0.17309019 Ry

     total magnetization       =    61.28 Bohr mag/cell
     absolute magnetization    =    69.15 Bohr mag/cell

     iteration # 11     ecut=    50.00 Ry     beta= 0.70
     Davidson diagonalization with overlap
     ethr =  4.54E-05,  avg # of iterations =  1.1

     total cpu time spent up to now is      220.8 secs

     total energy              =   -6056.53221631 Ry
     estimated scf accuracy    <       0.10729653 Ry

     total magnetization       =    61.24 Bohr mag/cell
     absolute magnetization    =    69.00 Bohr mag/cell

     iteration # 12     ecut=    50.00 Ry     beta= 0.70
     Davidson diagonalization with overlap
     ethr =  3.20E-05,  avg # of iterations =  2.0

     negative rho (up, down):  8.763E-07 0.000E+00

     total cpu time spent up to now is      240.4 secs

     total energy              =   -6056.53423846 Ry
     estimated scf accuracy    <       0.09811078 Ry

     total magnetization       =    61.25 Bohr mag/cell
     absolute magnetization    =    68.80 Bohr mag/cell

     iteration # 13     ecut=    50.00 Ry     beta= 0.70
     Davidson diagonalization with overlap
     ethr =  2.93E-05,  avg # of iterations =  1.3

     total cpu time spent up to now is      253.7 secs

     total energy              =   -6056.53273138 Ry
     estimated scf accuracy    <       0.09276329 Ry

     total magnetization       =    61.26 Bohr mag/cell
     absolute magnetization    =    68.75 Bohr mag/cell

     iteration # 14     ecut=    50.00 Ry     beta= 0.70
     Davidson diagonalization with overlap
     ethr =  2.77E-05,  avg # of iterations =  1.3

     negative rho (up, down):  8.421E-07 0.000E+00

     total cpu time spent up to now is      271.6 secs

     total energy              =   -6056.52984699 Ry
     estimated scf accuracy    <       0.07629912 Ry

     total magnetization       =    61.24 Bohr mag/cell
     absolute magnetization    =    68.82 Bohr mag/cell

     iteration # 15     ecut=    50.00 Ry     beta= 0.70
     Davidson diagonalization with overlap
     ethr =  2.28E-05,  avg # of iterations =  1.0

     negative rho (up, down):  3.421E-04 7.171E-05

     total cpu time spent up to now is      284.6 secs

     total energy              =   -6056.52720460 Ry
     estimated scf accuracy    <       0.08543349 Ry

     total magnetization       =    61.25 Bohr mag/cell
     absolute magnetization    =    68.76 Bohr mag/cell

     iteration # 16     ecut=    50.00 Ry     beta= 0.70
     Davidson diagonalization with overlap
     ethr =  2.28E-05,  avg # of iterations =  1.2

     negative rho (up, down):  1.154E-02 1.037E-02

     total cpu time spent up to now is      303.5 secs

     total energy              =   -6056.52172356 Ry
     estimated scf accuracy    <       0.06206840 Ry

     total magnetization       =    61.25 Bohr mag/cell
     absolute magnetization    =    68.75 Bohr mag/cell

     iteration # 17     ecut=    50.00 Ry     beta= 0.70
     Davidson diagonalization with overlap
     c_bands:  2 eigenvalues not converged
     ethr =  1.85E-05,  avg # of iterations =  3.0

     negative rho (up, down):  1.970E-02 1.818E-02

     total cpu time spent up to now is      318.7 secs

     total energy              =   -6056.52124882 Ry
     estimated scf accuracy    <       0.02405316 Ry

     total magnetization       =    61.24 Bohr mag/cell
     absolute magnetization    =    68.79 Bohr mag/cell

     iteration # 18     ecut=    50.00 Ry     beta= 0.70
     Davidson diagonalization with overlap
     c_bands:  1 eigenvalues not converged
     ethr =  7.18E-06,  avg # of iterations =  3.6

     negative rho (up, down):  6.808E-03 5.752E-03

     total cpu time spent up to now is      339.3 secs

     total energy              =   -6056.52157583 Ry
     estimated scf accuracy    <       0.06427100 Ry

     total magnetization       =    61.24 Bohr mag/cell
     absolute magnetization    =    68.74 Bohr mag/cell

     iteration # 19     ecut=    50.00 Ry     beta= 0.70
     Davidson diagonalization with overlap
     ethr =  7.18E-06,  avg # of iterations =  1.2

     negative rho (up, down):  1.059E-02 9.435E-03

     total cpu time spent up to now is      357.7 secs

     total energy              =   -6056.52089048 Ry
     estimated scf accuracy    <       0.02864189 Ry

     total magnetization       =    61.24 Bohr mag/cell
     absolute magnetization    =    68.76 Bohr mag/cell

     iteration # 20     ecut=    50.00 Ry     beta= 0.70
     Davidson diagonalization with overlap
     ethr =  7.18E-06,  avg # of iterations =  1.1

     negative rho (up, down):  1.491E-02 1.368E-02

     total cpu time spent up to now is      371.7 secs

     total energy              =   -6056.51965128 Ry
     estimated scf accuracy    <       0.02435954 Ry

     total magnetization       =    61.24 Bohr mag/cell
     absolute magnetization    =    68.76 Bohr mag/cell

     iteration # 21     ecut=    50.00 Ry     beta= 0.70
     Davidson diagonalization with overlap
     ethr =  7.18E-06,  avg # of iterations =  1.1

     negative rho (up, down):  1.427E-02 1.312E-02

     total cpu time spent up to now is      389.9 secs

     total energy              =   -6056.51926774 Ry
     estimated scf accuracy    <       0.01741520 Ry

     total magnetization       =    61.24 Bohr mag/cell
     absolute magnetization    =    68.76 Bohr mag/cell

     iteration # 22     ecut=    50.00 Ry     beta= 0.70
     Davidson diagonalization with overlap
     ethr =  5.20E-06,  avg # of iterations =  1.2

     negative rho (up, down):  2.497E-02 2.395E-02

     total cpu time spent up to now is      403.0 secs

     total energy              =   -6056.51819728 Ry
     estimated scf accuracy    <       0.01189458 Ry

     total magnetization       =    61.24 Bohr mag/cell
     absolute magnetization    =    68.77 Bohr mag/cell

     iteration # 23     ecut=    50.00 Ry     beta= 0.70
     Davidson diagonalization with overlap
     ethr =  3.55E-06,  avg # of iterations =  1.6

     negative rho (up, down):  1.607E-02 1.533E-02

     total cpu time spent up to now is      423.4 secs

     total energy              =   -6056.51751745 Ry
     estimated scf accuracy    <       0.00531859 Ry

     total magnetization       =    61.24 Bohr mag/cell
     absolute magnetization    =    68.78 Bohr mag/cell

     iteration # 24     ecut=    50.00 Ry     beta= 0.70
     Davidson diagonalization with overlap
     c_bands:  4 eigenvalues not converged
     ethr =  1.59E-06,  avg # of iterations =  3.4

     negative rho (up, down):  1.440E-02 1.366E-02

     total cpu time spent up to now is      438.9 secs

     total energy              =   -6056.51751167 Ry
     estimated scf accuracy    <       0.01007683 Ry

     total magnetization       =    61.24 Bohr mag/cell
     absolute magnetization    =    68.79 Bohr mag/cell

     iteration # 25     ecut=    50.00 Ry     beta= 0.70
     Davidson diagonalization with overlap
     ethr =  1.59E-06,  avg # of iterations =  1.6

     negative rho (up, down):  9.713E-03 9.009E-03

     total cpu time spent up to now is      457.0 secs

     total energy              =   -6056.51757428 Ry
     estimated scf accuracy    <       0.00254744 Ry

     total magnetization       =    61.24 Bohr mag/cell
     absolute magnetization    =    68.79 Bohr mag/cell

     iteration # 26     ecut=    50.00 Ry     beta= 0.70
     Davidson diagonalization with overlap
     ethr =  7.60E-07,  avg # of iterations =  1.5

     negative rho (up, down):  1.156E-02 1.098E-02

     total cpu time spent up to now is      473.1 secs

     total energy              =   -6056.51781943 Ry
     estimated scf accuracy    <       0.00675435 Ry

     total magnetization       =    61.24 Bohr mag/cell
     absolute magnetization    =    68.79 Bohr mag/cell

     iteration # 27     ecut=    50.00 Ry     beta= 0.70
     Davidson diagonalization with overlap
     ethr =  7.60E-07,  avg # of iterations =  1.7

     negative rho (up, down):  8.060E-03 7.449E-03

     total cpu time spent up to now is      490.7 secs

     total energy              =   -6056.51789322 Ry
     estimated scf accuracy    <       0.00075463 Ry

     total magnetization       =    61.24 Bohr mag/cell
     absolute magnetization    =    68.80 Bohr mag/cell

     iteration # 28     ecut=    50.00 Ry     beta= 0.70
     Davidson diagonalization with overlap
     ethr =  2.25E-07,  avg # of iterations =  2.5

     negative rho (up, down):  6.307E-03 5.645E-03

     total cpu time spent up to now is      510.1 secs

     total energy              =   -6056.51801724 Ry
     estimated scf accuracy    <       0.00122453 Ry

     total magnetization       =    61.24 Bohr mag/cell
     absolute magnetization    =    68.80 Bohr mag/cell

     iteration # 29     ecut=    50.00 Ry     beta= 0.70
     Davidson diagonalization with overlap
     ethr =  2.25E-07,  avg # of iterations =  1.7

     negative rho (up, down):  6.650E-03 5.965E-03

     total cpu time spent up to now is      524.2 secs

     total energy              =   -6056.51810548 Ry
     estimated scf accuracy    <       0.00048692 Ry

     total magnetization       =    61.24 Bohr mag/cell
     absolute magnetization    =    68.80 Bohr mag/cell

     iteration # 30     ecut=    50.00 Ry     beta= 0.70
     Davidson diagonalization with overlap
     ethr =  1.45E-07,  avg # of iterations =  2.1

     negative rho (up, down):  5.093E-03 4.248E-03

     total cpu time spent up to now is      544.8 secs

     total energy              =   -6056.51808298 Ry
     estimated scf accuracy    <       0.00098139 Ry

     total magnetization       =    61.24 Bohr mag/cell
     absolute magnetization    =    68.80 Bohr mag/cell

     iteration # 31     ecut=    50.00 Ry     beta= 0.70
     Davidson diagonalization with overlap
     ethr =  1.45E-07,  avg # of iterations =  1.1

     negative rho (up, down):  4.259E-03 3.340E-03

     total cpu time spent up to now is      558.2 secs

     total energy              =   -6056.51809102 Ry
     estimated scf accuracy    <       0.00012756 Ry

     total magnetization       =    61.24 Bohr mag/cell
     absolute magnetization    =    68.80 Bohr mag/cell

     iteration # 32     ecut=    50.00 Ry     beta= 0.70
     Davidson diagonalization with overlap
     ethr =  3.81E-08,  avg # of iterations =  2.4

     negative rho (up, down):  3.309E-03 2.249E-03

     total cpu time spent up to now is      577.7 secs

     total energy              =   -6056.51808140 Ry
     estimated scf accuracy    <       0.00003574 Ry

     total magnetization       =    61.24 Bohr mag/cell
     absolute magnetization    =    68.80 Bohr mag/cell

     iteration # 33     ecut=    50.00 Ry     beta= 0.70
     Davidson diagonalization with overlap
     ethr =  1.07E-08,  avg # of iterations =  7.4

     negative rho (up, down):  3.399E-03 2.344E-03

     total cpu time spent up to now is      602.0 secs

     total energy              =   -6056.51808485 Ry
     estimated scf accuracy    <       0.00008682 Ry

     total magnetization       =    61.24 Bohr mag/cell
     absolute magnetization    =    68.80 Bohr mag/cell

     iteration # 34     ecut=    50.00 Ry     beta= 0.70
     Davidson diagonalization with overlap
     ethr =  1.07E-08,  avg # of iterations =  1.3

     negative rho (up, down):  3.333E-03 2.256E-03

     total cpu time spent up to now is      616.9 secs

     total energy              =   -6056.51808173 Ry
     estimated scf accuracy    <       0.00004622 Ry

     total magnetization       =    61.24 Bohr mag/cell
     absolute magnetization    =    68.80 Bohr mag/cell

     iteration # 35     ecut=    50.00 Ry     beta= 0.70
     Davidson diagonalization with overlap
     ethr =  1.07E-08,  avg # of iterations =  1.4

     negative rho (up, down):  2.821E-03 1.702E-03

     total cpu time spent up to now is      635.4 secs

     total energy              =   -6056.51807022 Ry
     estimated scf accuracy    <       0.00005089 Ry

     total magnetization       =    61.24 Bohr mag/cell
     absolute magnetization    =    68.80 Bohr mag/cell

     iteration # 36     ecut=    50.00 Ry     beta= 0.70
     Davidson diagonalization with overlap
     ethr =  1.07E-08,  avg # of iterations =  1.7

     negative rho (up, down):  3.054E-03 1.960E-03

     total cpu time spent up to now is      649.4 secs

     total energy              =   -6056.51807697 Ry
     estimated scf accuracy    <       0.00005849 Ry

     total magnetization       =    61.24 Bohr mag/cell
     absolute magnetization    =    68.80 Bohr mag/cell

     iteration # 37     ecut=    50.00 Ry     beta= 0.70
     Davidson diagonalization with overlap
     ethr =  1.07E-08,  avg # of iterations =  1.3

     negative rho (up, down):  2.505E-03 1.388E-03

     total cpu time spent up to now is      669.0 secs

     total energy              =   -6056.51807982 Ry
     estimated scf accuracy    <       0.00004378 Ry

     total magnetization       =    61.24 Bohr mag/cell
     absolute magnetization    =    68.80 Bohr mag/cell

     iteration # 38     ecut=    50.00 Ry     beta= 0.70
     Davidson diagonalization with overlap
     ethr =  1.07E-08,  avg # of iterations =  1.4

     negative rho (up, down):  2.297E-03 1.209E-03

     total cpu time spent up to now is      687.3 secs

     total energy              =   -6056.51807785 Ry
     estimated scf accuracy    <       0.00005776 Ry

     total magnetization       =    61.24 Bohr mag/cell
     absolute magnetization    =    68.80 Bohr mag/cell

     iteration # 39     ecut=    50.00 Ry     beta= 0.70
     Davidson diagonalization with overlap
     ethr =  1.07E-08,  avg # of iterations =  1.1

     negative rho (up, down):  2.329E-03 1.216E-03

     total cpu time spent up to now is      700.8 secs

     total energy              =   -6056.51808049 Ry
     estimated scf accuracy    <       0.00000342 Ry

     total magnetization       =    61.24 Bohr mag/cell
     absolute magnetization    =    68.80 Bohr mag/cell

     iteration # 40     ecut=    50.00 Ry     beta= 0.70
     Davidson diagonalization with overlap
     c_bands:  1 eigenvalues not converged
     ethr =  1.02E-09,  avg # of iterations =  5.1

     negative rho (up, down):  2.260E-03 1.157E-03

     total cpu time spent up to now is      723.2 secs

     total energy              =   -6056.51808037 Ry
     estimated scf accuracy    <       0.00001638 Ry

     total magnetization       =    61.24 Bohr mag/cell
     absolute magnetization    =    68.80 Bohr mag/cell

     iteration # 41     ecut=    50.00 Ry     beta= 0.70
     Davidson diagonalization with overlap
     ethr =  1.02E-09,  avg # of iterations =  1.7

     negative rho (up, down):  2.258E-03 1.156E-03

     total cpu time spent up to now is      738.7 secs

     total energy              =   -6056.51808080 Ry
     estimated scf accuracy    <       0.00000104 Ry

     total magnetization       =    61.24 Bohr mag/cell
     absolute magnetization    =    68.80 Bohr mag/cell

     iteration # 42     ecut=    50.00 Ry     beta= 0.70
     Davidson diagonalization with overlap
     ethr =  3.11E-10,  avg # of iterations =  4.5

     negative rho (up, down):  2.262E-03 1.159E-03

     total cpu time spent up to now is      760.0 secs

     total energy              =   -6056.51808095 Ry
     estimated scf accuracy    <       0.00000058 Ry

     total magnetization       =    61.24 Bohr mag/cell
     absolute magnetization    =    68.80 Bohr mag/cell

     iteration # 43     ecut=    50.00 Ry     beta= 0.70
     Davidson diagonalization with overlap
     ethr =  1.73E-10,  avg # of iterations =  3.0

     negative rho (up, down):  2.251E-03 1.149E-03

     total cpu time spent up to now is      780.2 secs

     total energy              =   -6056.51808099 Ry
     estimated scf accuracy    <       0.00000084 Ry

     total magnetization       =    61.24 Bohr mag/cell
     absolute magnetization    =    68.80 Bohr mag/cell

     iteration # 44     ecut=    50.00 Ry     beta= 0.70
     Davidson diagonalization with overlap
     ethr =  1.73E-10,  avg # of iterations =  1.4

     negative rho (up, down):  2.272E-03 1.168E-03

     total cpu time spent up to now is      795.3 secs

     total energy              =   -6056.51808110 Ry
     estimated scf accuracy    <       0.00000043 Ry

     total magnetization       =    61.24 Bohr mag/cell
     absolute magnetization    =    68.80 Bohr mag/cell

     iteration # 45     ecut=    50.00 Ry     beta= 0.70
     Davidson diagonalization with overlap
     ethr =  1.29E-10,  avg # of iterations =  1.8

     negative rho (up, down):  2.281E-03 1.176E-03

     total cpu time spent up to now is      814.7 secs

     total energy              =   -6056.51808111 Ry
     estimated scf accuracy    <       0.00000040 Ry

     total magnetization       =    61.24 Bohr mag/cell
     absolute magnetization    =    68.80 Bohr mag/cell

     iteration # 46     ecut=    50.00 Ry     beta= 0.70
     Davidson diagonalization with overlap
     ethr =  1.19E-10,  avg # of iterations =  1.2

     negative rho (up, down):  2.258E-03 1.155E-03

     total cpu time spent up to now is      828.3 secs

     total energy              =   -6056.51808110 Ry
     estimated scf accuracy    <       0.00000032 Ry

     total magnetization       =    61.24 Bohr mag/cell
     absolute magnetization    =    68.80 Bohr mag/cell

     iteration # 47     ecut=    50.00 Ry     beta= 0.70
     Davidson diagonalization with overlap
     ethr =  9.44E-11,  avg # of iterations =  1.4

     negative rho (up, down):  2.262E-03 1.158E-03

     total cpu time spent up to now is      846.9 secs

     total energy              =   -6056.51808110 Ry
     estimated scf accuracy    <       0.00000010 Ry

     total magnetization       =    61.24 Bohr mag/cell
     absolute magnetization    =    68.80 Bohr mag/cell

     iteration # 48     ecut=    50.00 Ry     beta= 0.70
     Davidson diagonalization with overlap
     ethr =  3.06E-11,  avg # of iterations =  3.9

     negative rho (up, down):  2.256E-03 1.153E-03

     total cpu time spent up to now is      869.7 secs

     total energy              =   -6056.51808110 Ry
     estimated scf accuracy    <       0.00000034 Ry

     total magnetization       =    61.24 Bohr mag/cell
     absolute magnetization    =    68.80 Bohr mag/cell

     iteration # 49     ecut=    50.00 Ry     beta= 0.70
     Davidson diagonalization with overlap
     ethr =  3.06E-11,  avg # of iterations =  1.4

     negative rho (up, down):  2.245E-03 1.142E-03

     total cpu time spent up to now is      883.6 secs

     total energy              =   -6056.51808109 Ry
     estimated scf accuracy    <       0.00000010 Ry

     total magnetization       =    61.24 Bohr mag/cell
     absolute magnetization    =    68.80 Bohr mag/cell

     iteration # 50     ecut=    50.00 Ry     beta= 0.70
     Davidson diagonalization with overlap
     ethr =  2.85E-11,  avg # of iterations =  1.8

     negative rho (up, down):  2.232E-03 1.130E-03

     total cpu time spent up to now is      902.9 secs

     total energy              =   -6056.51808107 Ry
     estimated scf accuracy    <       0.00000005 Ry

     total magnetization       =    61.24 Bohr mag/cell
     absolute magnetization    =    68.80 Bohr mag/cell

     iteration # 51     ecut=    50.00 Ry     beta= 0.70
     Davidson diagonalization with overlap
     ethr =  1.44E-11,  avg # of iterations =  4.0

     negative rho (up, down):  2.230E-03 1.128E-03

     total cpu time spent up to now is      925.0 secs

     total energy              =   -6056.51808107 Ry
     estimated scf accuracy    <       0.00000008 Ry

     total magnetization       =    61.24 Bohr mag/cell
     absolute magnetization    =    68.80 Bohr mag/cell

     iteration # 52     ecut=    50.00 Ry     beta= 0.70
     Davidson diagonalization with overlap
     ethr =  1.44E-11,  avg # of iterations =  1.2

     negative rho (up, down):  2.225E-03 1.123E-03

     Magnetic moment per site  (integrated on atomic sphere of radius R)
     atom   1 (R=0.103)  charge=  6.2364  magn=  1.7690
     atom   2 (R=0.103)  charge=  6.2372  magn=  1.7588
     atom   3 (R=0.103)  charge=  6.2370  magn=  1.7642
     atom   4 (R=0.103)  charge=  6.2369  magn=  1.7656
     atom   5 (R=0.103)  charge=  6.2371  magn=  1.7635
     atom   6 (R=0.103)  charge=  6.2363  magn=  1.7711
     atom   7 (R=0.103)  charge=  6.2370  magn=  1.7712
     atom   8 (R=0.103)  charge=  6.2362  magn=  1.7696
     atom   9 (R=0.103)  charge=  6.2368  magn=  1.7638
     atom  10 (R=0.103)  charge=  6.2423  magn=  1.6925
     atom  11 (R=0.103)  charge=  6.2428  magn=  1.7007
     atom  12 (R=0.103)  charge=  6.2422  magn=  1.6968
     atom  13 (R=0.103)  charge=  6.2428  magn=  1.6992
     atom  14 (R=0.103)  charge=  6.2435  magn=  1.6846
     atom  15 (R=0.103)  charge=  6.2432  magn=  1.6959
     atom  16 (R=0.103)  charge=  6.2423  magn=  1.6963
     atom  17 (R=0.103)  charge=  6.2431  magn=  1.6984
     atom  18 (R=0.103)  charge=  6.2429  magn=  1.6909
     atom  19 (R=0.103)  charge=  6.2407  magn=  1.6926
     atom  20 (R=0.103)  charge=  6.2392  magn=  1.7316
     atom  21 (R=0.103)  charge=  6.2433  magn=  1.6740
     atom  22 (R=0.103)  charge=  6.2436  magn=  1.6888
     atom  23 (R=0.103)  charge=  6.2437  magn=  1.6743
     atom  24 (R=0.103)  charge=  6.2417  magn=  1.7048
     atom  25 (R=0.103)  charge=  6.2422  magn=  1.6957
     atom  26 (R=0.103)  charge=  6.2406  magn=  1.6948
     atom  27 (R=0.103)  charge=  6.2439  magn=  1.6788
     atom  28 (R=0.103)  charge=  6.2420  magn=  1.7908
     atom  29 (R=0.103)  charge=  6.2484  magn=  1.6911
     atom  30 (R=0.103)  charge=  6.2370  magn=  1.7738
     atom  31 (R=0.103)  charge=  6.2512  magn=  1.6778
     atom  32 (R=0.103)  charge=  6.2682  magn=  1.1637
     atom  33 (R=0.103)  charge=  6.2368  magn=  1.7652
     atom  34 (R=0.103)  charge=  6.2379  magn=  1.7673
     atom  35 (R=0.103)  charge=  6.2382  magn=  1.7648
     atom  36 (R=0.103)  charge=  6.2342  magn=  1.7962
     atom  37 (R=0.060)  charge=  0.8277  magn= -0.0216
     atom  38 (R=0.070)  charge=  3.2512  magn=  0.0230
     atom  39 (R=0.060)  charge=  0.5023  magn=  0.0027

     total cpu time spent up to now is      938.4 secs

     End of self-consistent calculation

 ------ SPIN UP ------------


          k = 0.0000 0.0000 0.0000 ( 51087 PWs)   bands (ev):

   -21.4823 -10.3038  -7.4953  -6.8970  -6.2322  -5.6390  -5.3835  -4.5832
    -4.5662  -4.5620  -4.5614  -4.5562  -4.5272  -4.5043  -4.1945  -4.0444
    -4.0320  -4.0288  -4.0216  -3.9819  -3.9739  -3.5378  -3.5156  -3.5113
    -3.5082  -3.4863  -3.4605  -3.3898  -3.3846  -3.3833  -3.3805  -3.3715
    -3.3486  -3.3093  -3.3063  -3.0058  -2.9983  -2.9924  -2.9898  -2.9692
    -2.9567  -2.9365  -2.9271  -2.9230  -2.9175  -2.9164  -2.9143  -2.7665
    -2.7633  -2.7408  -2.7233  -2.6977  -2.6880  -2.6842  -2.6741  -2.6561
    -2.6534  -2.6471  -2.6419  -2.5608  -2.5568  -2.5533  -2.5463  -2.5441
    -2.4827  -2.2570  -2.0462  -2.0213  -2.0176  -2.0150  -2.0105  -1.9084
    -1.9058  -1.8797  -1.8763  -1.8661  -1.8518  -1.8401  -1.8337  -1.8318
    -1.8237  -1.7826  -1.7812  -1.7387  -1.7321  -1.7270  -1.7128  -1.7032
    -1.6980  -1.6899  -1.6876  -1.6852  -1.6664  -1.6587  -1.6568  -1.6522
    -1.6494  -1.6458  -1.6417  -1.6400  -1.6351  -1.6329  -1.6317  -1.6291
    -1.6204  -1.5808  -1.5730  -1.5634  -1.5585  -1.4851  -1.4802  -1.4428
    -1.2792  -1.2298  -1.1963  -1.1906  -1.1844  -1.1817  -1.1688  -1.1554
    -1.1472  -1.1458  -1.1154  -1.0990  -1.0958  -0.9765  -0.9752  -0.9687
    -0.9457  -0.9357  -0.8245  -0.7973  -0.7765  -0.7700  -0.7618  -0.7292
    -0.7074  -0.6987  -0.6968  -0.6960  -0.6931  -0.6646  -0.5892  -0.5791
    -0.4723  -0.4524  -0.4481  -0.4459  -0.4366  -0.4102  -0.3874  -0.3844
    -0.3821  -0.3785  -0.3735  -0.3711  -0.3675  -0.3600  -0.3579  -0.3522
    -0.3484  -0.3435  -0.3316  -0.3193  -0.3078  -0.3053  -0.3040  -0.2973
    -0.2785  -0.2783  -0.2604  -0.2512  -0.2488  -0.2346  -0.2301  -0.2272
    -0.2253  -0.2179  -0.1935  -0.1745  -0.1636  -0.1545  -0.1483  -0.1427
    -0.1413  -0.1378  -0.1305  -0.1230  -0.1125  -0.1032  -0.0585  -0.0541
    -0.0506  -0.0492   0.0089   0.0147   0.0174   0.0232   0.0284   0.0519
     0.4345   1.0337

          k = 0.0000 0.2309 0.0000 ( 51134 PWs)   bands (ev):

   -21.4823 -10.3040  -7.3584  -6.8706  -6.1577  -5.6242  -5.3998  -5.2472
    -4.8116  -4.7963  -4.4359  -4.3035  -4.2235  -4.2201  -4.1574  -4.1011
    -4.0701  -4.0286  -3.9574  -3.9063  -3.8868  -3.6432  -3.5286  -3.5153
    -3.4553  -3.4252  -3.3964  -3.3900  -3.3879  -3.3780  -3.3634  -3.3473
    -3.3177  -3.2737  -3.2671  -3.2408  -3.2369  -3.0665  -3.0238  -3.0105
    -2.9747  -2.9579  -2.9525  -2.9442  -2.8826  -2.8435  -2.8240  -2.7962
    -2.7856  -2.7805  -2.7645  -2.7452  -2.6547  -2.6462  -2.6256  -2.5894
    -2.5796  -2.5698  -2.5444  -2.5337  -2.5135  -2.4917  -2.4714  -2.4642
    -2.4156  -2.2953  -2.1536  -2.1228  -2.1106  -2.0822  -2.0498  -1.9954
    -1.9823  -1.9726  -1.9646  -1.9573  -1.9431  -1.9292  -1.9098  -1.8711
    -1.8402  -1.8347  -1.8191  -1.7827  -1.7711  -1.7688  -1.7587  -1.7471
    -1.7417  -1.7312  -1.7278  -1.7261  -1.7136  -1.7000  -1.6734  -1.6533
    -1.6326  -1.6084  -1.5794  -1.5506  -1.5439  -1.5363  -1.5330  -1.5206
    -1.5080  -1.5033  -1.4913  -1.4845  -1.4829  -1.4601  -1.4470  -1.4309
    -1.4183  -1.4103  -1.3730  -1.3398  -1.3205  -1.2522  -1.2243  -1.2125
    -1.2012  -1.1968  -1.1826  -1.1788  -1.1758  -1.1513  -1.0767  -1.0324
    -1.0009  -0.9904  -0.9357  -0.9273  -0.9023  -0.8582  -0.8346  -0.8223
    -0.7889  -0.7509  -0.7232  -0.7125  -0.6845  -0.6801  -0.6461  -0.6418
    -0.6317  -0.6121  -0.5932  -0.5625  -0.5510  -0.5362  -0.5315  -0.5271
    -0.4674  -0.4570  -0.4483  -0.4426  -0.4249  -0.4118  -0.3811  -0.3770
    -0.3727  -0.3649  -0.3576  -0.3505  -0.3280  -0.3219  -0.3088  -0.2804
    -0.2639  -0.2471  -0.2383  -0.2124  -0.2053  -0.1827  -0.1555  -0.1324
    -0.1233  -0.1180  -0.1084  -0.1029  -0.0847  -0.0768  -0.0660  -0.0611
    -0.0293   0.0060   0.0151   0.0256   0.0479   0.0529   0.0869   0.0955
     0.1098   0.1485   0.3894   0.3974   0.4879   0.5674   0.6332   0.6654
     0.7446   0.8630

          k = 0.0000 0.4619 0.0000 ( 51204 PWs)   bands (ev):

   -21.4823 -10.3042  -7.0513  -6.7350  -6.1845  -5.9633  -5.4900  -5.2672
    -4.9527  -4.9306  -4.8167  -4.1131  -4.0703  -4.0559  -4.0166  -3.9793
    -3.8672  -3.8643  -3.8213  -3.7410  -3.7294  -3.7182  -3.6229  -3.5508
    -3.5440  -3.5420  -3.5348  -3.4830  -3.4586  -3.4280  -3.4202  -3.2710
    -3.2640  -3.2568  -3.2412  -3.2203  -3.2118  -3.1343  -3.1165  -3.1017
    -3.0891  -3.0831  -2.9792  -2.9127  -2.8834  -2.8072  -2.7844  -2.7623
    -2.7435  -2.7070  -2.7033  -2.6959  -2.6859  -2.6644  -2.6135  -2.5998
    -2.5713  -2.5427  -2.5310  -2.4431  -2.3946  -2.3885  -2.3621  -2.3297
    -2.2923  -2.2736  -2.2557  -2.2355  -2.2176  -2.1646  -2.1150  -2.1059
    -2.0987  -2.0961  -2.0839  -2.0716  -2.0572  -2.0478  -2.0076  -1.9921
    -1.9790  -1.9536  -1.9272  -1.9107  -1.8856  -1.8605  -1.8081  -1.7858
    -1.7756  -1.7597  -1.7478  -1.7277  -1.6984  -1.6812  -1.6666  -1.6570
    -1.6499  -1.6373  -1.6224  -1.5996  -1.5945  -1.5819  -1.5715  -1.5437
    -1.5406  -1.5218  -1.4743  -1.4626  -1.4260  -1.3916  -1.3814  -1.3649
    -1.3552  -1.3367  -1.2941  -1.2635  -1.2548  -1.2387  -1.2336  -1.2282
    -1.2149  -1.2101  -1.2013  -1.1981  -1.1849  -1.1838  -1.1669  -1.1563
    -1.1379  -1.1188  -1.0554  -1.0277  -1.0016  -0.9918  -0.9738  -0.9595
    -0.9344  -0.8788  -0.8762  -0.8539  -0.8432  -0.8003  -0.7862  -0.7345
    -0.7198  -0.6874  -0.6662  -0.6568  -0.6423  -0.6268  -0.6036  -0.5375
    -0.4940  -0.4752  -0.4569  -0.4492  -0.4432  -0.4360  -0.4282  -0.4124
    -0.3978  -0.3780  -0.3269  -0.3047  -0.2895  -0.2792  -0.2735  -0.2659
    -0.2560  -0.2433  -0.2315  -0.2195  -0.2020  -0.1866  -0.1228  -0.0984
    -0.0921  -0.0823  -0.0612  -0.0158   0.0026   0.0095   0.0351   0.0582
     0.0788   0.1204   0.1243   0.1448   0.1485   0.1511   0.1688   0.1780
     0.2534   0.2677   0.3476   0.9659   1.1426   1.3185   1.3805   1.4156
     1.6054   1.7578

          k = 0.2000-0.1155 0.0000 ( 51134 PWs)   bands (ev):

   -21.4823 -10.3036  -7.3588  -6.8706  -6.1608  -5.6340  -5.3996  -5.2317
    -4.8129  -4.8028  -4.4307  -4.2955  -4.2241  -4.2208  -4.1556  -4.1009
    -4.0774  -4.0313  -3.9518  -3.9091  -3.8894  -3.6401  -3.5310  -3.5156
    -3.4478  -3.4230  -3.3978  -3.3903  -3.3867  -3.3776  -3.3696  -3.3472
    -3.3179  -3.2741  -3.2677  -3.2411  -3.2374  -3.0612  -3.0214  -3.0120
    -2.9775  -2.9600  -2.9509  -2.9445  -2.8774  -2.8421  -2.8242  -2.7975
    -2.7865  -2.7806  -2.7675  -2.7435  -2.6500  -2.6479  -2.6226  -2.5951
    -2.5783  -2.5715  -2.5459  -2.5348  -2.5183  -2.4927  -2.4722  -2.4667
    -2.4109  -2.2962  -2.1533  -2.1222  -2.1089  -2.0820  -2.0487  -1.9925
    -1.9819  -1.9732  -1.9671  -1.9592  -1.9422  -1.9275  -1.9046  -1.8732
    -1.8426  -1.8366  -1.8216  -1.7827  -1.7752  -1.7693  -1.7603  -1.7472
    -1.7412  -1.7301  -1.7268  -1.7256  -1.7111  -1.6971  -1.6781  -1.6505
    -1.6333  -1.6009  -1.5867  -1.5513  -1.5413  -1.5372  -1.5316  -1.5217
    -1.5047  -1.5034  -1.4939  -1.4843  -1.4827  -1.4592  -1.4450  -1.4322
    -1.4189  -1.4108  -1.3679  -1.3339  -1.3243  -1.2589  -1.2282  -1.2130
    -1.2025  -1.1929  -1.1843  -1.1796  -1.1766  -1.1488  -1.0693  -1.0390
    -1.0082  -0.9975  -0.9348  -0.9268  -0.9025  -0.8550  -0.8349  -0.8254
    -0.7911  -0.7417  -0.7166  -0.7088  -0.6849  -0.6784  -0.6527  -0.6425
    -0.6290  -0.6111  -0.5990  -0.5625  -0.5487  -0.5366  -0.5319  -0.5272
    -0.4697  -0.4558  -0.4518  -0.4428  -0.4233  -0.4030  -0.3842  -0.3789
    -0.3725  -0.3642  -0.3572  -0.3483  -0.3263  -0.3204  -0.3108  -0.2878
    -0.2636  -0.2471  -0.2406  -0.2104  -0.1996  -0.1854  -0.1564  -0.1338
    -0.1250  -0.1184  -0.1062  -0.1013  -0.0801  -0.0759  -0.0666  -0.0605
    -0.0311   0.0061   0.0136   0.0257   0.0474   0.0535   0.0873   0.0936
     0.1079   0.1473   0.3864   0.3964   0.4988   0.5650   0.6401   0.6577
     0.7639   0.8699

          k = 0.2000 0.1155 0.0000 ( 51134 PWs)   bands (ev):

   -21.4823 -10.3044  -7.3574  -6.8709  -6.1507  -5.6069  -5.3904  -5.2945
    -4.8048  -4.7865  -4.4402  -4.3247  -4.2265  -4.2165  -4.1576  -4.1064
    -4.0474  -4.0263  -3.9630  -3.9001  -3.8876  -3.6407  -3.5325  -3.5211
    -3.4448  -3.4242  -3.3933  -3.3905  -3.3892  -3.3785  -3.3596  -3.3496
    -3.3127  -3.2737  -3.2713  -3.2398  -3.2364  -3.0604  -3.0119  -3.0105
    -2.9726  -2.9678  -2.9523  -2.9501  -2.8820  -2.8428  -2.8379  -2.8025
    -2.7867  -2.7814  -2.7640  -2.7540  -2.6536  -2.6477  -2.6334  -2.6052
    -2.5846  -2.5543  -2.5447  -2.5253  -2.5116  -2.4864  -2.4734  -2.4680
    -2.4208  -2.2796  -2.1543  -2.1289  -2.1091  -2.0817  -2.0487  -1.9869
    -1.9828  -1.9760  -1.9660  -1.9553  -1.9484  -1.9274  -1.8927  -1.8774
    -1.8539  -1.8314  -1.8077  -1.7913  -1.7704  -1.7698  -1.7620  -1.7410
    -1.7358  -1.7313  -1.7301  -1.7276  -1.7067  -1.7005  -1.6672  -1.6628
    -1.6226  -1.5987  -1.5826  -1.5529  -1.5396  -1.5339  -1.5275  -1.5205
    -1.5097  -1.5034  -1.5006  -1.4844  -1.4838  -1.4591  -1.4421  -1.4310
    -1.4201  -1.4145  -1.3891  -1.3474  -1.3206  -1.2287  -1.2181  -1.2142
    -1.2062  -1.1977  -1.1928  -1.1820  -1.1757  -1.1702  -1.0602  -1.0329
    -0.9946  -0.9754  -0.9371  -0.9267  -0.8967  -0.8621  -0.8435  -0.8287
    -0.7715  -0.7481  -0.7325  -0.7093  -0.6903  -0.6826  -0.6505  -0.6448
    -0.6235  -0.6171  -0.5951  -0.5526  -0.5432  -0.5348  -0.5253  -0.5197
    -0.4800  -0.4600  -0.4514  -0.4407  -0.4316  -0.3989  -0.3896  -0.3762
    -0.3710  -0.3620  -0.3603  -0.3424  -0.3273  -0.3252  -0.3045  -0.2848
    -0.2630  -0.2461  -0.2307  -0.2245  -0.1990  -0.1900  -0.1469  -0.1322
    -0.1246  -0.1188  -0.1142  -0.1005  -0.0784  -0.0729  -0.0673  -0.0581
    -0.0279   0.0088   0.0163   0.0234   0.0511   0.0535   0.0860   0.0984
     0.1225   0.1411   0.3784   0.3933   0.4560   0.5528   0.6273   0.6515
     0.7260   0.8847

          k = 0.2000 0.3464 0.0000 ( 51202 PWs)   bands (ev):

   -21.4823 -10.3049  -7.1244  -6.7979  -6.0491  -5.6823  -5.6443  -5.4158
    -5.3312  -4.5296  -4.4789  -4.2288  -4.2181  -4.1731  -4.0140  -4.0068
    -3.9161  -3.9112  -3.8955  -3.7759  -3.7547  -3.6446  -3.6287  -3.5635
    -3.5226  -3.4316  -3.4254  -3.4116  -3.3950  -3.3765  -3.3607  -3.3390
    -3.3255  -3.3036  -3.2890  -3.2557  -3.2162  -3.1766  -3.1714  -3.0812
    -3.0503  -2.9637  -2.9489  -2.9212  -2.9032  -2.8965  -2.8095  -2.7819
    -2.7495  -2.7168  -2.7120  -2.7051  -2.6657  -2.6476  -2.6336  -2.6247
    -2.6093  -2.5343  -2.4904  -2.4359  -2.4259  -2.4152  -2.3874  -2.3713
    -2.3579  -2.2520  -2.2338  -2.1711  -2.1656  -2.1283  -2.1071  -2.0908
    -2.0723  -2.0661  -2.0535  -2.0421  -2.0202  -2.0051  -2.0020  -1.9919
    -1.9765  -1.9312  -1.8933  -1.8744  -1.8102  -1.8029  -1.7936  -1.7679
    -1.7621  -1.7307  -1.7209  -1.6993  -1.6890  -1.6645  -1.6543  -1.6440
    -1.6341  -1.6275  -1.6137  -1.6054  -1.5975  -1.5906  -1.5693  -1.5496
    -1.5442  -1.5285  -1.4928  -1.4721  -1.4567  -1.4304  -1.4167  -1.4073
    -1.3935  -1.3818  -1.3520  -1.3333  -1.3117  -1.3011  -1.2821  -1.2456
    -1.2399  -1.2295  -1.2283  -1.2146  -1.1966  -1.1762  -1.1627  -1.1278
    -1.0886  -1.0643  -1.0514  -1.0135  -0.9667  -0.9362  -0.9156  -0.8531
    -0.8162  -0.8060  -0.7941  -0.7849  -0.7723  -0.7606  -0.7479  -0.7379
    -0.7094  -0.6984  -0.6686  -0.6468  -0.6287  -0.6164  -0.6033  -0.5865
    -0.5676  -0.5539  -0.5258  -0.5105  -0.5029  -0.4573  -0.4044  -0.3621
    -0.3406  -0.3235  -0.3121  -0.2958  -0.2897  -0.2729  -0.2640  -0.2559
    -0.2517  -0.2393  -0.1784  -0.1577  -0.1526  -0.1396  -0.1025  -0.0884
    -0.0751  -0.0706  -0.0625  -0.0508  -0.0393  -0.0297  -0.0223  -0.0031
     0.0002   0.0207   0.0883   0.0950   0.1041   0.1466   0.1487   0.1597
     0.4638   0.4919   0.5555   0.6063   0.8181   0.8346   1.1050   1.3344
     1.3894   1.5594

          k = 0.2000-0.5774 0.0000 ( 51262 PWs)   bands (ev):

   -21.4823 -10.3044  -6.9810  -6.4241  -6.3935  -5.9543  -5.7266  -5.4304
    -5.0861  -4.9543  -4.5522  -4.2117  -3.9758  -3.9289  -3.8359  -3.8001
    -3.7939  -3.7689  -3.7593  -3.7332  -3.6950  -3.6833  -3.6799  -3.6739
    -3.5966  -3.5663  -3.5334  -3.5266  -3.5036  -3.4960  -3.3997  -3.3698
    -3.3479  -3.3399  -3.3163  -3.2762  -3.2076  -3.1796  -3.0948  -3.0554
    -3.0494  -3.0005  -2.9694  -2.9485  -2.9216  -2.8411  -2.8385  -2.8289
    -2.7638  -2.7536  -2.6839  -2.6547  -2.6336  -2.6132  -2.5624  -2.5551
    -2.5038  -2.4694  -2.4628  -2.4516  -2.4449  -2.4279  -2.3987  -2.3367
    -2.2933  -2.2621  -2.2462  -2.2361  -2.2299  -2.1759  -2.1544  -2.1178
    -2.0986  -2.0781  -2.0669  -2.0533  -2.0397  -2.0224  -1.9938  -1.9906
    -1.9732  -1.9629  -1.9493  -1.9204  -1.9197  -1.9015  -1.8490  -1.8429
    -1.8120  -1.7866  -1.7580  -1.7420  -1.7089  -1.6954  -1.6773  -1.6601
    -1.6420  -1.6387  -1.6307  -1.6174  -1.6090  -1.6005  -1.5709  -1.5493
    -1.5072  -1.4908  -1.4766  -1.4703  -1.4565  -1.4495  -1.4431  -1.4356
    -1.4277  -1.4187  -1.4014  -1.3774  -1.3515  -1.3261  -1.3100  -1.2858
    -1.2355  -1.2242  -1.1951  -1.1800  -1.1644  -1.1490  -1.1402  -1.1144
    -1.0794  -1.0701  -1.0583  -1.0158  -0.9759  -0.9355  -0.9200  -0.9008
    -0.8922  -0.8813  -0.8702  -0.8436  -0.8219  -0.8113  -0.7853  -0.7542
    -0.7345  -0.7143  -0.7014  -0.6899  -0.6660  -0.6367  -0.6206  -0.6115
    -0.5927  -0.5766  -0.5636  -0.5560  -0.5153  -0.4859  -0.4675  -0.3752
    -0.3178  -0.3073  -0.2971  -0.2884  -0.2833  -0.2749  -0.2680  -0.2445
    -0.2176  -0.2108  -0.2000  -0.1928  -0.1632  -0.1437  -0.0758  -0.0713
    -0.0611  -0.0440  -0.0298  -0.0206   0.0209   0.0320   0.0351   0.0395
     0.0557   0.1195   0.1278   0.1349   0.1492   0.1530   0.1804   0.2044
     0.2736   0.5110   0.5949   0.8460   1.3271   1.4367   1.5169   1.7706
     1.8931   1.9698

          k = 0.2000-0.3464 0.0000 ( 51202 PWs)   bands (ev):

   -21.4823 -10.3035  -7.1264  -6.8008  -6.0627  -5.7130  -5.6427  -5.4202
    -5.2727  -4.5558  -4.4480  -4.2302  -4.2226  -4.1658  -4.0123  -4.0080
    -3.9182  -3.9004  -3.8880  -3.7759  -3.7741  -3.6387  -3.6326  -3.5660
    -3.5238  -3.4469  -3.4265  -3.4082  -3.3883  -3.3714  -3.3622  -3.3527
    -3.3305  -3.3083  -3.2931  -3.2579  -3.2184  -3.1783  -3.1648  -3.0669
    -3.0579  -2.9512  -2.9469  -2.9275  -2.9123  -2.8837  -2.7901  -2.7534
    -2.7417  -2.7239  -2.7157  -2.7002  -2.6669  -2.6551  -2.6319  -2.6197
    -2.6085  -2.5147  -2.4899  -2.4484  -2.4346  -2.4041  -2.3873  -2.3732
    -2.3480  -2.2997  -2.2418  -2.1741  -2.1526  -2.1313  -2.1191  -2.0875
    -2.0808  -2.0618  -2.0514  -2.0367  -2.0215  -2.0138  -2.0008  -1.9943
    -1.9740  -1.9355  -1.8876  -1.8523  -1.8154  -1.7987  -1.7840  -1.7687
    -1.7598  -1.7419  -1.7188  -1.6995  -1.6876  -1.6700  -1.6520  -1.6453
    -1.6403  -1.6285  -1.6252  -1.6043  -1.5964  -1.5867  -1.5709  -1.5560
    -1.5433  -1.5327  -1.5103  -1.4682  -1.4558  -1.4338  -1.4121  -1.4068
    -1.3906  -1.3836  -1.3738  -1.3219  -1.3077  -1.2997  -1.2819  -1.2615
    -1.2381  -1.2317  -1.2252  -1.2033  -1.2026  -1.1816  -1.1660  -1.1198
    -1.0976  -1.0651  -1.0602  -1.0133  -0.9588  -0.9455  -0.9157  -0.8222
    -0.8140  -0.8020  -0.7952  -0.7854  -0.7759  -0.7606  -0.7516  -0.7306
    -0.7138  -0.6912  -0.6727  -0.6495  -0.6391  -0.6126  -0.6065  -0.5888
    -0.5646  -0.5530  -0.5265  -0.5112  -0.5053  -0.4670  -0.3929  -0.3529
    -0.3408  -0.3311  -0.3119  -0.2995  -0.2894  -0.2744  -0.2705  -0.2582
    -0.2472  -0.2354  -0.1711  -0.1632  -0.1518  -0.1470  -0.1034  -0.0819
    -0.0773  -0.0711  -0.0654  -0.0457  -0.0397  -0.0318  -0.0228  -0.0134
     0.0111   0.0411   0.0886   0.0911   0.1047   0.1401   0.1499   0.1720
     0.4520   0.4917   0.5184   0.6808   0.7521   0.8398   1.1651   1.3576
     1.3725   1.5918

          k = 0.4000-0.2309 0.0000 ( 51204 PWs)   bands (ev):

   -21.4823 -10.3032  -7.0513  -6.7368  -6.1928  -5.9677  -5.5066  -5.2376
    -4.9517  -4.9406  -4.8034  -4.1088  -4.0781  -4.0584  -4.0178  -3.9744
    -3.8684  -3.8641  -3.8195  -3.7416  -3.7293  -3.7184  -3.6177  -3.5513
    -3.5459  -3.5409  -3.5357  -3.4808  -3.4506  -3.4262  -3.4205  -3.2796
    -3.2642  -3.2596  -3.2443  -3.2214  -3.2117  -3.1295  -3.1114  -3.1029
    -3.0880  -3.0832  -2.9731  -2.9208  -2.8797  -2.8082  -2.7821  -2.7624
    -2.7435  -2.7059  -2.7008  -2.6975  -2.6885  -2.6627  -2.6160  -2.6006
    -2.5698  -2.5476  -2.5293  -2.4449  -2.3958  -2.3895  -2.3630  -2.3273
    -2.2843  -2.2691  -2.2581  -2.2367  -2.2233  -2.1649  -2.1310  -2.1041
    -2.0990  -2.0972  -2.0872  -2.0700  -2.0585  -2.0470  -2.0047  -1.9921
    -1.9757  -1.9571  -1.9277  -1.9145  -1.8849  -1.8639  -1.8063  -1.7914
    -1.7765  -1.7615  -1.7429  -1.7247  -1.6986  -1.6756  -1.6652  -1.6581
    -1.6466  -1.6373  -1.6204  -1.5987  -1.5942  -1.5819  -1.5693  -1.5459
    -1.5381  -1.5199  -1.4768  -1.4731  -1.4214  -1.3935  -1.3751  -1.3627
    -1.3594  -1.3347  -1.2996  -1.2638  -1.2563  -1.2401  -1.2336  -1.2281
    -1.2169  -1.2146  -1.1996  -1.1956  -1.1849  -1.1783  -1.1684  -1.1559
    -1.1341  -1.1178  -1.0503  -1.0283  -1.0033  -0.9937  -0.9720  -0.9568
    -0.9355  -0.8873  -0.8759  -0.8537  -0.8449  -0.7993  -0.7852  -0.7345
    -0.7244  -0.6827  -0.6649  -0.6553  -0.6397  -0.6281  -0.6038  -0.5399
    -0.4874  -0.4801  -0.4609  -0.4466  -0.4443  -0.4351  -0.4317  -0.4127
    -0.4025  -0.3844  -0.3244  -0.3034  -0.2876  -0.2810  -0.2748  -0.2672
    -0.2586  -0.2422  -0.2294  -0.2190  -0.2011  -0.1800  -0.1235  -0.0985
    -0.0937  -0.0831  -0.0624  -0.0088   0.0010   0.0139   0.0349   0.0643
     0.0787   0.1204   0.1231   0.1450   0.1491   0.1518   0.1681   0.1779
     0.2531   0.2676   0.3664   0.9354   1.1772   1.3295   1.3797   1.4146
     1.6080   1.7507

          k = 0.4000 0.0000 0.0000 ( 51202 PWs)   bands (ev):

   -21.4823 -10.3043  -7.1248  -6.7988  -6.0542  -5.6976  -5.6396  -5.4183
    -5.3135  -4.5382  -4.4657  -4.2297  -4.2221  -4.1706  -4.0137  -4.0058
    -3.9148  -3.9077  -3.8939  -3.7771  -3.7616  -3.6435  -3.6277  -3.5653
    -3.5228  -3.4329  -3.4262  -3.4042  -3.3948  -3.3765  -3.3585  -3.3415
    -3.3265  -3.3036  -3.2926  -3.2547  -3.2168  -3.1760  -3.1715  -3.0749
    -3.0501  -2.9654  -2.9502  -2.9216  -2.9011  -2.8947  -2.8042  -2.7803
    -2.7492  -2.7193  -2.7122  -2.7055  -2.6683  -2.6492  -2.6342  -2.6272
    -2.6077  -2.5401  -2.4905  -2.4367  -2.4285  -2.4133  -2.3925  -2.3722
    -2.3553  -2.2623  -2.2220  -2.1699  -2.1610  -2.1273  -2.1088  -2.0898
    -2.0728  -2.0673  -2.0538  -2.0420  -2.0220  -2.0047  -2.0024  -1.9899
    -1.9770  -1.9327  -1.8932  -1.8670  -1.8106  -1.8078  -1.7976  -1.7670
    -1.7603  -1.7280  -1.7232  -1.6989  -1.6869  -1.6632  -1.6542  -1.6440
    -1.6340  -1.6262  -1.6152  -1.6062  -1.5955  -1.5912  -1.5673  -1.5491
    -1.5434  -1.5293  -1.4960  -1.4724  -1.4568  -1.4291  -1.4139  -1.4077
    -1.3947  -1.3848  -1.3582  -1.3327  -1.3065  -1.3035  -1.2810  -1.2569
    -1.2392  -1.2306  -1.2276  -1.2149  -1.1965  -1.1742  -1.1638  -1.1266
    -1.0887  -1.0656  -1.0518  -1.0220  -0.9619  -0.9326  -0.9162  -0.8562
    -0.8122  -0.8057  -0.7939  -0.7835  -0.7743  -0.7598  -0.7456  -0.7316
    -0.7121  -0.6964  -0.6702  -0.6466  -0.6298  -0.6159  -0.6018  -0.5866
    -0.5653  -0.5524  -0.5248  -0.5117  -0.5058  -0.4612  -0.4071  -0.3606
    -0.3402  -0.3235  -0.3132  -0.2965  -0.2836  -0.2788  -0.2681  -0.2577
    -0.2497  -0.2386  -0.1787  -0.1585  -0.1516  -0.1399  -0.1030  -0.0859
    -0.0752  -0.0692  -0.0609  -0.0458  -0.0390  -0.0289  -0.0205  -0.0096
     0.0059   0.0213   0.0876   0.0947   0.1064   0.1454   0.1496   0.1605
     0.4629   0.4922   0.5428   0.6420   0.8100   0.8328   1.0975   1.3268
     1.4011   1.5458

          k = 0.4000 0.2309 0.0000 ( 51204 PWs)   bands (ev):

   -21.4823 -10.3054  -7.0509  -6.7312  -6.1587  -5.9652  -5.4231  -5.3758
    -4.9508  -4.9094  -4.8519  -4.1252  -4.0528  -4.0411  -4.0104  -3.9848
    -3.8684  -3.8602  -3.8214  -3.7356  -3.7262  -3.7222  -3.6380  -3.5494
    -3.5473  -3.5361  -3.5336  -3.4833  -3.4563  -3.4264  -3.4138  -3.2674
    -3.2650  -3.2433  -3.2336  -3.2155  -3.2090  -3.1389  -3.1024  -3.0977
    -3.0900  -3.0856  -2.9805  -2.9276  -2.9017  -2.8239  -2.8012  -2.7632
    -2.7513  -2.7100  -2.7054  -2.6949  -2.6827  -2.6743  -2.6047  -2.6040
    -2.5791  -2.5655  -2.5348  -2.4417  -2.3937  -2.3821  -2.3774  -2.3238
    -2.2791  -2.2629  -2.2588  -2.2414  -2.1834  -2.1648  -2.1484  -2.1064
    -2.1005  -2.0931  -2.0821  -2.0738  -2.0528  -2.0490  -2.0221  -1.9793
    -1.9731  -1.9490  -1.9259  -1.8938  -1.8760  -1.8611  -1.8030  -1.7949
    -1.7801  -1.7694  -1.7481  -1.7342  -1.6892  -1.6721  -1.6640  -1.6570
    -1.6464  -1.6252  -1.6206  -1.5963  -1.5931  -1.5812  -1.5573  -1.5489
    -1.5320  -1.5193  -1.4747  -1.4513  -1.4062  -1.3969  -1.3767  -1.3641
    -1.3389  -1.3344  -1.3028  -1.2624  -1.2537  -1.2409  -1.2346  -1.2308
    -1.2177  -1.2152  -1.2032  -1.2005  -1.1965  -1.1861  -1.1612  -1.1566
    -1.1438  -1.1095  -1.0569  -1.0276  -0.9999  -0.9853  -0.9691  -0.9607
    -0.9405  -0.8944  -0.8720  -0.8499  -0.8469  -0.7955  -0.7916  -0.7501
    -0.7250  -0.6842  -0.6574  -0.6521  -0.6357  -0.6220  -0.5822  -0.5709
    -0.4980  -0.4782  -0.4561  -0.4484  -0.4441  -0.4336  -0.4230  -0.4214
    -0.3979  -0.3662  -0.3374  -0.2974  -0.2913  -0.2801  -0.2762  -0.2679
    -0.2597  -0.2283  -0.2247  -0.2147  -0.2047  -0.1974  -0.1140  -0.1001
    -0.0926  -0.0870  -0.0592  -0.0255   0.0007   0.0096   0.0425   0.0506
     0.0779   0.1218   0.1227   0.1467   0.1478   0.1516   0.1756   0.1954
     0.2501   0.2630   0.3392   0.9519   1.1693   1.2722   1.3703   1.3932
     1.6512   1.7492

          k = 0.4000-0.6928 0.0000 ( 51262 PWs)   bands (ev):

   -21.4823 -10.3051  -6.9819  -6.4169  -6.3773  -5.9807  -5.7189  -5.3654
    -5.1686  -4.9779  -4.5169  -4.2090  -3.9763  -3.9313  -3.8449  -3.8011
    -3.7930  -3.7721  -3.7577  -3.7412  -3.6893  -3.6839  -3.6793  -3.6678
    -3.5972  -3.5700  -3.5313  -3.5233  -3.5029  -3.5004  -3.3868  -3.3577
    -3.3446  -3.3376  -3.3060  -3.2744  -3.2218  -3.1744  -3.1047  -3.0508
    -3.0483  -3.0006  -2.9734  -2.9501  -2.9160  -2.8493  -2.8426  -2.8265
    -2.7779  -2.7643  -2.6808  -2.6564  -2.6340  -2.6239  -2.5796  -2.5554
    -2.5036  -2.4702  -2.4649  -2.4544  -2.4471  -2.4329  -2.4071  -2.3295
    -2.2689  -2.2525  -2.2487  -2.2412  -2.2062  -2.1770  -2.1659  -2.1260
    -2.1015  -2.0765  -2.0642  -2.0566  -2.0443  -2.0187  -1.9986  -1.9860
    -1.9752  -1.9619  -1.9575  -1.9224  -1.9187  -1.8777  -1.8492  -1.8401
    -1.8326  -1.7876  -1.7507  -1.7418  -1.7185  -1.6804  -1.6628  -1.6600
    -1.6409  -1.6380  -1.6312  -1.6165  -1.6087  -1.5813  -1.5670  -1.5288
    -1.4969  -1.4877  -1.4789  -1.4663  -1.4528  -1.4491  -1.4413  -1.4349
    -1.4225  -1.4079  -1.3946  -1.3838  -1.3644  -1.3327  -1.3099  -1.3014
    -1.2536  -1.2314  -1.1893  -1.1762  -1.1699  -1.1580  -1.1457  -1.1169
    -1.0792  -1.0713  -1.0585  -1.0115  -0.9550  -0.9375  -0.9220  -0.9117
    -0.8949  -0.8822  -0.8591  -0.8478  -0.8245  -0.8036  -0.7763  -0.7633
    -0.7436  -0.7123  -0.6983  -0.6915  -0.6684  -0.6267  -0.6189  -0.5969
    -0.5913  -0.5839  -0.5670  -0.5549  -0.5077  -0.4914  -0.4693  -0.3841
    -0.3195  -0.3103  -0.3009  -0.2917  -0.2819  -0.2717  -0.2638  -0.2494
    -0.2191  -0.2107  -0.1983  -0.1921  -0.1668  -0.1377  -0.0750  -0.0708
    -0.0600  -0.0422  -0.0296  -0.0187   0.0173   0.0282   0.0406   0.0449
     0.0537   0.1022   0.1278   0.1309   0.1472   0.1577   0.1752   0.2013
     0.2726   0.5207   0.6083   0.8921   1.2572   1.4351   1.4985   1.7834
     1.8891   1.9378

          k = 0.4000-0.4619 0.0000 ( 51262 PWs)   bands (ev):

   -21.4823 -10.3037  -6.9806  -6.4280  -6.3978  -5.9510  -5.7229  -5.4571
    -5.0470  -4.9563  -4.5644  -4.2138  -3.9757  -3.9248  -3.8271  -3.7987
    -3.7943  -3.7692  -3.7612  -3.7324  -3.6975  -3.6832  -3.6797  -3.6749
    -3.5954  -3.5666  -3.5323  -3.5281  -3.5036  -3.4957  -3.3956  -3.3704
    -3.3478  -3.3387  -3.3187  -3.2778  -3.2173  -3.1798  -3.0822  -3.0541
    -3.0488  -3.0054  -2.9709  -2.9459  -2.9218  -2.8409  -2.8381  -2.8309
    -2.7636  -2.7541  -2.6816  -2.6533  -2.6361  -2.6123  -2.5649  -2.5553
    -2.5031  -2.4704  -2.4626  -2.4514  -2.4456  -2.4260  -2.3985  -2.3340
    -2.2960  -2.2612  -2.2453  -2.2350  -2.2306  -2.1762  -2.1565  -2.1260
    -2.1040  -2.0750  -2.0670  -2.0528  -2.0345  -2.0231  -1.9947  -1.9874
    -1.9740  -1.9642  -1.9499  -1.9245  -1.9198  -1.9121  -1.8503  -1.8412
    -1.8137  -1.7836  -1.7566  -1.7365  -1.7083  -1.6934  -1.6786  -1.6568
    -1.6474  -1.6371  -1.6283  -1.6187  -1.6059  -1.5958  -1.5722  -1.5551
    -1.5081  -1.4918  -1.4762  -1.4716  -1.4542  -1.4496  -1.4429  -1.4341
    -1.4282  -1.4174  -1.4006  -1.3784  -1.3490  -1.3268  -1.3081  -1.2912
    -1.2341  -1.2192  -1.1948  -1.1857  -1.1640  -1.1489  -1.1424  -1.1106
    -1.0788  -1.0701  -1.0568  -1.0180  -0.9738  -0.9350  -0.9267  -0.9008
    -0.8920  -0.8820  -0.8700  -0.8440  -0.8221  -0.8114  -0.7837  -0.7517
    -0.7361  -0.7152  -0.7018  -0.6856  -0.6685  -0.6401  -0.6172  -0.6106
    -0.5944  -0.5745  -0.5628  -0.5577  -0.5162  -0.4844  -0.4707  -0.3753
    -0.3192  -0.3069  -0.3003  -0.2921  -0.2803  -0.2747  -0.2723  -0.2393
    -0.2216  -0.2095  -0.1991  -0.1901  -0.1635  -0.1443  -0.0764  -0.0722
    -0.0569  -0.0451  -0.0310  -0.0221   0.0217   0.0315   0.0338   0.0410
     0.0540   0.1237   0.1296   0.1417   0.1510   0.1553   0.1805   0.2055
     0.2838   0.5083   0.5818   0.8540   1.3326   1.4345   1.5304   1.7306
     1.9197   1.9688

 ------ SPIN DOWN ----------


          k = 0.0000 0.0000 0.0000 ( 51087 PWs)   bands (ev):

   -21.4482 -10.3689  -7.6172  -6.8693  -6.2724  -5.6264  -5.3667  -4.3905
    -4.3693  -4.3677  -4.3626  -4.3585  -4.3249  -4.2259  -3.5160  -3.4939
    -3.4913  -3.4848  -3.4606  -3.4311  -3.3260  -2.5953  -2.5456  -2.5438
    -2.5358  -2.5123  -2.4620  -2.1351  -2.0839  -2.0783  -2.0742  -2.0689
    -2.0526  -1.9021  -1.8747  -1.8119  -1.7946  -1.7912  -1.7800  -1.7645
    -1.6876  -1.6851  -1.6411  -1.6362  -1.6177  -1.5490  -1.5285  -1.5261
    -1.4968  -1.4819  -1.3378  -1.2790  -1.2645  -1.2597  -1.2524  -1.2416
    -1.2412  -1.2317  -1.2148  -1.1928  -1.1851  -1.1678  -1.1624  -1.1529
    -1.1265  -1.0333  -0.7296  -0.6052  -0.6004  -0.5806  -0.5762  -0.4472
    -0.3904  -0.2927  -0.2692  -0.2621  -0.2521  -0.2502  -0.2419  -0.2119
    -0.1939  -0.1874  -0.1743  -0.1654  -0.1649  -0.1642  -0.1064  -0.0909
    -0.0747  -0.0612  -0.0548  -0.0430  -0.0241  -0.0086  -0.0070  -0.0013
     0.0003   0.0010   0.0259   0.0276   0.0283   0.0354   0.0814   0.0970
     0.1654   0.1876   0.1963   0.2386   0.2439   0.2543   0.2552   0.2582
     0.2622   0.2659   0.2670   0.3128   0.3358   0.3360   0.4017   0.4034
     0.4263   0.4427   0.4466   0.4619   0.6352   0.6452   0.6741   0.6970
     0.7304   0.7371   0.7422   0.7441   0.8336   0.9921   1.0394   1.0798
     1.0859   1.1404   1.2708   1.2906   1.2993   1.3079   1.3086   1.3116
     1.3262   1.4631   1.4650   1.4745   1.4813   1.4831   1.5026   1.5095
     1.5190   1.5393   1.5619   1.5679   1.5990   1.6070   1.6127   1.6283
     1.6304   1.6338   1.6388   1.6517   1.6772   1.6950   1.7171   1.7310
     1.7372   1.7487   1.7525   1.7573   1.7603   1.7662   1.7677   1.8028
     1.8167   1.8348   1.8371   1.8379   1.8526   1.8536   1.8593   1.8884
     1.8940   1.8986   1.9056   1.9087   1.9118   1.9197   1.9269   1.9290
     1.9352   1.9555   1.9859   1.9878   2.1318   2.1348   2.1414   2.1453
     2.1471   2.1481

          k = 0.0000 0.2309 0.0000 ( 51134 PWs)   bands (ev):

   -21.4482 -10.3691  -7.4734  -6.8438  -6.1908  -5.6356  -5.3930  -5.2591
    -4.7505  -4.7325  -4.2264  -4.0830  -3.8207  -3.8120  -3.7308  -3.6790
    -3.5257  -3.2671  -3.1524  -3.1246  -3.0426  -2.7752  -2.5785  -2.5311
    -2.4996  -2.4431  -2.4153  -2.2277  -2.1280  -2.1144  -2.1069  -2.0846
    -2.0622  -2.0275  -2.0175  -1.9967  -1.9723  -1.8806  -1.8352  -1.7868
    -1.7514  -1.7464  -1.6940  -1.5925  -1.5554  -1.5527  -1.5345  -1.4713
    -1.4026  -1.3972  -1.3487  -1.3130  -1.2984  -1.2759  -1.2556  -1.2510
    -1.2371  -1.2196  -1.1606  -1.1339  -1.1140  -1.0956  -1.0774  -1.0447
    -1.0049  -0.9256  -0.7761  -0.6460  -0.6334  -0.6146  -0.5964  -0.5456
    -0.4827  -0.4636  -0.4171  -0.4076  -0.2991  -0.2895  -0.2741  -0.2574
    -0.2436  -0.2323  -0.2166  -0.2038  -0.1932  -0.1790  -0.1464  -0.0939
    -0.0728  -0.0543  -0.0488  -0.0400  -0.0171   0.0048   0.0113   0.0232
     0.0288   0.0381   0.0430   0.0501   0.0517   0.0577   0.0953   0.1076
     0.1319   0.1420   0.1530   0.1586   0.1851   0.1983   0.2128   0.2301
     0.2591   0.2659   0.3196   0.3394   0.3583   0.3739   0.3794   0.4027
     0.5147   0.5357   0.5845   0.6151   0.6202   0.6597   0.6727   0.6945
     0.7026   0.7213   0.7228   0.7255   0.9068   0.9589   1.0316   1.0521
     1.0573   1.0659   1.0842   1.0975   1.1305   1.1521   1.2125   1.2434
     1.2737   1.3051   1.3342   1.3445   1.3724   1.3896   1.4188   1.4575
     1.4778   1.5109   1.5195   1.5336   1.5451   1.5615   1.5848   1.5937
     1.6240   1.6578   1.6675   1.6903   1.7179   1.7223   1.7367   1.7660
     1.7831   1.7890   1.8007   1.8059   1.8198   1.8445   1.8805   1.8893
     1.8958   1.9033   1.9328   1.9421   1.9515   1.9668   1.9817   1.9890
     2.0021   2.0397   2.0426   2.0465   2.0685   2.0742   2.0815   2.0957
     2.1077   2.1328   2.1381   2.1474   2.2186   2.2366   2.2393   2.2678
     2.3172   2.3375

          k = 0.0000 0.4619 0.0000 ( 51204 PWs)   bands (ev):

   -21.4482 -10.3694  -7.0947  -6.7730  -6.2688  -5.9817  -5.5165  -5.2781
    -4.9670  -4.9367  -4.8055  -3.8846  -3.8519  -3.7418  -3.2585  -3.2001
    -3.1944  -3.0798  -2.9309  -2.8861  -2.7578  -2.7435  -2.6054  -2.5959
    -2.5674  -2.5243  -2.4841  -2.4468  -2.3618  -2.3499  -2.3267  -2.2786
    -2.2656  -2.0794  -2.0582  -1.9997  -1.9768  -1.9051  -1.8689  -1.8567
    -1.8431  -1.8262  -1.7260  -1.5836  -1.5512  -1.5213  -1.4993  -1.4684
    -1.3390  -1.3292  -1.3086  -1.2990  -1.2910  -1.2650  -1.2594  -1.2410
    -1.2123  -1.1476  -1.1409  -1.1327  -1.1022  -1.0858  -0.9696  -0.9239
    -0.8500  -0.7995  -0.7483  -0.6791  -0.6566  -0.6267  -0.6049  -0.5852
    -0.5719  -0.5512  -0.5144  -0.4902  -0.4693  -0.4286  -0.3958  -0.3774
    -0.3529  -0.3282  -0.3057  -0.3019  -0.2690  -0.2501  -0.1930  -0.1413
    -0.1165  -0.1068  -0.0678  -0.0435  -0.0313   0.0018   0.0122   0.0373
     0.0603   0.0753   0.0869   0.0995   0.1071   0.1126   0.1358   0.1575
     0.1676   0.1941   0.2043   0.2108   0.2159   0.2237   0.2345   0.2599
     0.2727   0.2917   0.3445   0.4034   0.4177   0.4241   0.4553   0.4745
     0.4760   0.4997   0.5130   0.5597   0.5850   0.5886   0.6025   0.6337
     0.6538   0.6650   0.6854   0.7030   0.7289   0.7810   0.8457   0.8762
     0.9145   0.9303   1.0103   1.0610   1.1129   1.1346   1.1529   1.1594
     1.1794   1.1961   1.2261   1.2576   1.2670   1.3534   1.4074   1.4426
     1.4520   1.4701   1.5000   1.5222   1.5581   1.5717   1.5935   1.6132
     1.6423   1.6523   1.6882   1.7226   1.7557   1.7665   1.7860   1.8064
     1.8096   1.8201   1.8354   1.8610   1.8805   1.8908   1.9047   1.9293
     1.9449   1.9776   2.0079   2.0350   2.0548   2.0753   2.0843   2.0922
     2.0960   2.1107   2.1331   2.1414   2.1490   2.1663   2.1715   2.1740
     2.1851   2.2218   2.3111   2.3865   2.4070   2.5019   2.5793   2.8270
     2.8970   2.9469

          k = 0.2000-0.1155 0.0000 ( 51134 PWs)   bands (ev):

   -21.4482 -10.3687  -7.4738  -6.8437  -6.1941  -5.6470  -5.3917  -5.2415
    -4.7533  -4.7388  -4.2173  -4.0752  -3.8212  -3.8127  -3.7384  -3.6865
    -3.5230  -3.2670  -3.1558  -3.1278  -3.0344  -2.7621  -2.5883  -2.5343
    -2.4914  -2.4492  -2.4172  -2.2203  -2.1302  -2.1151  -2.1048  -2.0870
    -2.0614  -2.0300  -2.0177  -1.9974  -1.9746  -1.8803  -1.8340  -1.7767
    -1.7530  -1.7410  -1.6983  -1.5939  -1.5565  -1.5527  -1.5365  -1.4622
    -1.4087  -1.3974  -1.3472  -1.3202  -1.2989  -1.2754  -1.2568  -1.2497
    -1.2344  -1.2264  -1.1656  -1.1345  -1.1160  -1.0930  -1.0781  -1.0444
    -1.0041  -0.9199  -0.7785  -0.6473  -0.6321  -0.6138  -0.5980  -0.5443
    -0.4821  -0.4654  -0.4163  -0.4094  -0.3012  -0.2896  -0.2759  -0.2589
    -0.2432  -0.2312  -0.2157  -0.2019  -0.1948  -0.1805  -0.1452  -0.0933
    -0.0691  -0.0547  -0.0468  -0.0434  -0.0182   0.0027   0.0116   0.0229
     0.0318   0.0376   0.0437   0.0509   0.0524   0.0565   0.0960   0.1063
     0.1319   0.1419   0.1554   0.1584   0.1830   0.2024   0.2120   0.2280
     0.2593   0.2611   0.3192   0.3300   0.3593   0.3737   0.3790   0.4026
     0.5117   0.5407   0.6020   0.6147   0.6307   0.6540   0.6712   0.6965
     0.7042   0.7208   0.7215   0.7264   0.9032   0.9595   1.0334   1.0543
     1.0591   1.0638   1.0867   1.0959   1.1352   1.1501   1.2113   1.2433
     1.2749   1.3042   1.3350   1.3425   1.3736   1.3891   1.4183   1.4524
     1.4826   1.5083   1.5219   1.5371   1.5454   1.5609   1.5850   1.5940
     1.6182   1.6488   1.6787   1.6866   1.7166   1.7224   1.7377   1.7595
     1.7849   1.7918   1.8003   1.8035   1.8253   1.8406   1.8801   1.8885
     1.8951   1.9062   1.9316   1.9414   1.9518   1.9668   1.9827   1.9900
     2.0033   2.0411   2.0433   2.0470   2.0690   2.0749   2.0831   2.0995
     2.1111   2.1327   2.1360   2.1479   2.2136   2.2359   2.2395   2.2765
     2.3126   2.3362

          k = 0.2000 0.1155 0.0000 ( 51134 PWs)   bands (ev):

   -21.4482 -10.3696  -7.4724  -6.8443  -6.1835  -5.6148  -5.3787  -5.3184
    -4.7357  -4.7247  -4.2330  -4.1144  -3.8203  -3.8147  -3.6971  -3.6706
    -3.5301  -3.2663  -3.1471  -3.1293  -3.0464  -2.7842  -2.5555  -2.5414
    -2.4899  -2.4397  -2.4282  -2.2050  -2.1383  -2.1084  -2.1048  -2.0874
    -2.0704  -2.0290  -2.0185  -1.9923  -1.9821  -1.8821  -1.8328  -1.8046
    -1.7512  -1.7500  -1.6803  -1.6424  -1.5657  -1.5526  -1.4954  -1.4377
    -1.4209  -1.3907  -1.3489  -1.3351  -1.2923  -1.2705  -1.2600  -1.2527
    -1.2427  -1.1945  -1.1803  -1.1365  -1.1179  -1.0843  -1.0732  -1.0451
    -0.9960  -0.9058  -0.7947  -0.6458  -0.6361  -0.6044  -0.5912  -0.5506
    -0.5027  -0.4530  -0.4170  -0.4110  -0.3131  -0.2797  -0.2763  -0.2625
    -0.2305  -0.2256  -0.2204  -0.2016  -0.1959  -0.1751  -0.1540  -0.0964
    -0.0664  -0.0557  -0.0438  -0.0421  -0.0248   0.0127   0.0134   0.0269
     0.0292   0.0372   0.0390   0.0490   0.0505   0.0588   0.0969   0.1017
     0.1368   0.1388   0.1585   0.1598   0.1711   0.2078   0.2179   0.2300
     0.2578   0.2642   0.3197   0.3523   0.3647   0.3683   0.3748   0.4025
     0.5143   0.5435   0.5708   0.6134   0.6215   0.6695   0.6768   0.6937
     0.6993   0.7138   0.7229   0.7257   0.8635   0.9713   1.0299   1.0473
     1.0539   1.0657   1.0886   1.1014   1.1232   1.1882   1.2232   1.2524
     1.2803   1.2879   1.3333   1.3544   1.3802   1.3951   1.3979   1.4202
     1.4833   1.5107   1.5332   1.5436   1.5594   1.5746   1.5821   1.6021
     1.6113   1.6534   1.6700   1.6910   1.6992   1.7316   1.7377   1.7670
     1.7846   1.7904   1.8001   1.8071   1.8218   1.8377   1.8799   1.8821
     1.8933   1.8974   1.9323   1.9400   1.9558   1.9699   1.9774   1.9909
     2.0056   2.0406   2.0438   2.0474   2.0697   2.0717   2.0786   2.1025
     2.1066   2.1343   2.1359   2.1461   2.2223   2.2321   2.2416   2.2747
     2.3130   2.3360

          k = 0.2000 0.3464 0.0000 ( 51202 PWs)   bands (ev):

   -21.4482 -10.3700  -7.2037  -6.8003  -6.0564  -5.7572  -5.7252  -5.4352
    -5.3289  -4.4794  -4.4002  -4.0134  -3.9953  -3.8881  -3.1843  -3.1709
    -3.1652  -3.1528  -3.0560  -2.9646  -2.8773  -2.8639  -2.8351  -2.4976
    -2.4512  -2.4152  -2.4030  -2.3352  -2.3169  -2.2982  -2.2385  -2.2093
    -2.1988  -2.1909  -2.1643  -2.0543  -2.0111  -1.9217  -1.8273  -1.8186
    -1.7807  -1.7562  -1.6899  -1.6789  -1.6188  -1.5200  -1.4965  -1.4612
    -1.3616  -1.3348  -1.2966  -1.2928  -1.2900  -1.2697  -1.2455  -1.2352
    -1.2219  -1.2074  -1.1588  -1.1073  -1.0745  -1.0001  -0.9550  -0.9169
    -0.8537  -0.8205  -0.7827  -0.7150  -0.6207  -0.5964  -0.5839  -0.5486
    -0.5333  -0.5068  -0.4976  -0.4777  -0.4346  -0.4131  -0.3865  -0.3733
    -0.3633  -0.3408  -0.3287  -0.3062  -0.2566  -0.2118  -0.1569  -0.1406
    -0.1270  -0.1117  -0.0678  -0.0484  -0.0372  -0.0226  -0.0103  -0.0013
     0.0139   0.0410   0.0479   0.0587   0.0727   0.0881   0.1146   0.1416
     0.1513   0.1578   0.1735   0.1824   0.1956   0.2007   0.2190   0.2286
     0.2903   0.3202   0.3252   0.3448   0.4300   0.4559   0.4753   0.4879
     0.5151   0.5344   0.5600   0.6003   0.6222   0.6340   0.6492   0.6562
     0.6629   0.6753   0.7236   0.7540   0.7960   0.8352   0.9482   0.9591
     1.0183   1.0606   1.0780   1.0961   1.1148   1.1293   1.1449   1.1558
     1.1737   1.1887   1.1998   1.2225   1.2522   1.3239   1.3474   1.3654
     1.3951   1.4168   1.4286   1.4542   1.4820   1.5164   1.5328   1.5497
     1.6031   1.6650   1.7363   1.7667   1.7683   1.7908   1.8096   1.8244
     1.8272   1.8380   1.8563   1.8661   1.8823   1.9261   1.9415   1.9479
     1.9594   1.9865   2.0003   2.0046   2.0234   2.0435   2.0483   2.0760
     2.0816   2.0915   2.0946   2.1192   2.1260   2.1567   2.1746   2.1884
     2.2176   2.2253   2.3271   2.3485   2.3965   2.4632   2.4966   2.6251
     2.7357   2.8154

          k = 0.2000-0.5774 0.0000 ( 51262 PWs)   bands (ev):

   -21.4482 -10.3695  -6.9557  -6.5441  -6.4756  -5.9675  -5.7960  -5.4510
    -5.1215  -4.9663  -4.5166  -4.0649  -3.5434  -3.3956  -3.2035  -3.1962
    -3.1750  -2.9761  -2.9436  -2.8040  -2.7852  -2.7778  -2.6523  -2.6431
    -2.6384  -2.6059  -2.6029  -2.5829  -2.4249  -2.3043  -2.2556  -2.2351
    -2.2197  -2.1994  -2.1654  -2.1634  -2.0699  -2.0405  -1.8554  -1.8013
    -1.7192  -1.7014  -1.6950  -1.6216  -1.5769  -1.5484  -1.4641  -1.4515
    -1.4158  -1.4026  -1.3936  -1.2830  -1.2400  -1.2324  -1.2209  -1.2027
    -1.1708  -1.1083  -1.0705  -1.0526  -1.0075  -0.9986  -0.9752  -0.8813
    -0.8745  -0.8141  -0.7082  -0.6814  -0.6621  -0.6293  -0.6033  -0.5963
    -0.5533  -0.5279  -0.5088  -0.4823  -0.4429  -0.4288  -0.3933  -0.3801
    -0.3601  -0.3434  -0.3309  -0.3168  -0.3123  -0.3032  -0.2694  -0.2480
    -0.2418  -0.2104  -0.1834  -0.1570  -0.1230  -0.0876  -0.0572  -0.0199
     0.0082   0.0478   0.0554   0.0792   0.0832   0.1099   0.1213   0.1372
     0.1703   0.1985   0.2147   0.2339   0.2475   0.2617   0.3170   0.3451
[...]
     atom    8 type  1   force =    -0.00034322   -0.00492910   -0.09988232
     atom    9 type  1   force =     0.00033620    0.00338773   -0.10519618
     atom   10 type  1   force =     0.00142165    0.00106791   -0.01392897
     atom   11 type  1   force =    -0.00068619    0.00015422   -0.00824866
     atom   12 type  1   force =     0.00003481    0.00189548   -0.01160678
     atom   13 type  1   force =    -0.00060685   -0.00062214   -0.00899136
     atom   14 type  1   force =     0.00068245    0.00074904   -0.01071023
     atom   15 type  1   force =    -0.00046868    0.00042350   -0.01005489
     atom   16 type  1   force =     0.00166851   -0.00125219   -0.01145903
     atom   17 type  1   force =    -0.00035970   -0.00131479   -0.00998300
     atom   18 type  1   force =    -0.00079063   -0.00078536   -0.01476705
     atom   19 type  1   force =    -0.00375951   -0.00020862    0.00671049
     atom   20 type  1   force =    -0.00158881    0.00122221    0.00267049
     atom   21 type  1   force =     0.00235144   -0.00517263    0.01161152
     atom   22 type  1   force =     0.00209643    0.00284493    0.01085952
     atom   23 type  1   force =    -0.00268800    0.00561964    0.01041016
     atom   24 type  1   force =     0.00063043    0.00113593    0.01929755
     atom   25 type  1   force =     0.00184678    0.00110952    0.01833095
     atom   26 type  1   force =    -0.00359415   -0.00437291    0.00533060
     atom   27 type  1   force =     0.00588206   -0.00131034    0.00547625
     atom   28 type  1   force =     0.04712732    0.02133333    0.15617735
     atom   29 type  1   force =    -0.02296086    0.07814122    0.17610724
     atom   30 type  1   force =    -0.01183463    0.00264473    0.11647892
     atom   31 type  1   force =     0.04623903   -0.07671121    0.19087817
     atom   32 type  1   force =     0.00497912    0.01271244    0.07483595
     atom   33 type  1   force =     0.00038197    0.00060743    0.11083277
     atom   34 type  1   force =    -0.00094428   -0.01159938    0.11583252
     atom   35 type  1   force =    -0.00114680    0.00157118    0.11661734
     atom   36 type  1   force =    -0.00147561    0.00033416    0.10112660
     atom   37 type  2   force =    -0.33597530   -0.23070537    0.17276503
     atom   38 type  3   force =     1.71179734    1.30496330   -1.23984811
     atom   39 type  4   force =    -0.04254213   -0.03556666   -0.05534373
     The ionic contribution  to forces
     atom    1 type  1   force =    -0.00941267    0.00099917 -111.23586797
     atom    2 type  1   force =     0.00065701    0.00090207 -111.25347469
     atom    3 type  1   force =     0.00875563   -0.00003277 -111.23455588
     atom    4 type  1   force =    -0.00445489    0.00833696 -111.23355905
     atom    5 type  1   force =     0.00390383    0.00727735 -111.23466332
     atom    6 type  1   force =     0.00055109   -0.00026156 -111.22582934
     atom    7 type  1   force =    -0.00120729   -0.00063266 -111.22594900
     atom    8 type  1   force =    -0.00429444   -0.00833326 -111.23687935
     atom    9 type  1   force =     0.00550172   -0.00825530 -111.23445709
     atom   10 type  1   force =    -0.05488787   -0.02843361  -40.18905673
     atom   11 type  1   force =     0.00846326   -0.07041181  -40.28344495
     atom   12 type  1   force =     0.04642533   -0.03071666  -40.17227585
     atom   13 type  1   force =    -0.05958680    0.04523003  -40.27556102
     atom   14 type  1   force =     0.06140082    0.03656535  -40.27233954
     atom   15 type  1   force =    -0.00180678    0.01472353  -40.15485974
     atom   16 type  1   force =    -0.00615802    0.05284946  -40.17051865
     atom   17 type  1   force =     0.01085942   -0.01275117  -40.16025162
     atom   18 type  1   force =    -0.00470459   -0.00705379  -40.14815281
     atom   19 type  1   force =    -0.46900424    0.05501674   31.24472510
     atom   20 type  1   force =     0.03224695    0.04797623   30.26139440
     atom   21 type  1   force =     0.43559113   -0.00727855   31.31050611
     atom   22 type  1   force =    -0.21746898    0.40379042   31.36271941
     atom   23 type  1   force =     0.19249323    0.36615952   31.30432047
     atom   24 type  1   force =     0.02565963   -0.01177718   31.68836695
     atom   25 type  1   force =    -0.05758329   -0.02940246   31.68316093
     atom   26 type  1   force =    -0.21279721   -0.42250776   31.19090674
     atom   27 type  1   force =     0.26992539   -0.40245889   31.32031711
     atom   28 type  1   force =    -2.30329547   -1.17143364  103.19717164
     atom   29 type  1   force =     0.85502013   -4.65466136   98.72523879
     atom   30 type  1   force =     1.62178775   -1.06885499  103.97265389
     atom   31 type  1   force =    -3.70873452    2.99378981   99.52688677
     atom   32 type  1   force =     4.20048692    2.41459833   98.75591740
     atom   33 type  1   force =    -0.06206443    0.41050651  104.35505892
     atom   34 type  1   force =    -0.21962160    1.85885483  103.98424522
     atom   35 type  1   force =     0.28716074   -0.42138757  104.22811218
     atom   36 type  1   force =    -0.08339246   -0.20527030  104.50279007
     atom   37 type  2   force =     4.55933922    3.61082016   56.16061109
     atom   38 type  3   force =    -6.67073367   -5.04095842   88.85435010
     atom   39 type  4   force =     1.52498002    1.27447725   15.31224330
     The local contribution  to forces
     atom    1 type  1   force =     0.01340181   -0.00322771  111.34044008
     atom    2 type  1   force =    -0.00331745   -0.00297929  111.35934860
     atom    3 type  1   force =    -0.01016576    0.00163251  111.34378328
     atom    4 type  1   force =     0.00078003   -0.00686241  111.34151865
     atom    5 type  1   force =    -0.00307714   -0.00998985  111.34418451
     atom    6 type  1   force =     0.00156274    0.00119487  111.33135856
     atom    7 type  1   force =     0.00036850    0.00027980  111.33261078
     atom    8 type  1   force =     0.00492929    0.01351732  111.33963960
     atom    9 type  1   force =    -0.00617572    0.00483609  111.34181287
     atom   10 type  1   force =     0.05434161    0.02787058   40.18139579
     atom   11 type  1   force =    -0.00937194    0.06984292   40.27203468
     atom   12 type  1   force =    -0.04537016    0.02875228   40.16477801
     atom   13 type  1   force =     0.05937442   -0.04600078   40.26443107
     atom   14 type  1   force =    -0.06075486   -0.03636553   40.26082318
     atom   15 type  1   force =     0.00241229   -0.01550435   40.14410733
     atom   16 type  1   force =     0.00490706   -0.05083547   40.16235577
     atom   17 type  1   force =    -0.01063674    0.01425658   40.14914999
     atom   18 type  1   force =     0.00593133    0.00809204   40.14132123
     atom   19 type  1   force =     0.47216254   -0.05361591  -31.22954465
     atom   20 type  1   force =    -0.03003636   -0.04917601  -30.24444261
     atom   21 type  1   force =    -0.43694377    0.01124453  -31.30361590
     atom   22 type  1   force =     0.21515064   -0.40613066  -31.35210198
     atom   23 type  1   force =    -0.19013151   -0.36910503  -31.29738962
     atom   24 type  1   force =    -0.02556685    0.01130418  -31.68422544
     atom   25 type  1   force =     0.05603431    0.02819184  -31.67579788
     atom   26 type  1   force =     0.21856171    0.42598052  -31.17378229
     atom   27 type  1   force =    -0.27584796    0.40354437  -31.30610128
     atom   28 type  1   force =     2.24662916    1.14480033 -103.36456216
     atom   29 type  1   force =    -0.83260069    4.55214226  -98.90713710
     atom   30 type  1   force =    -1.60113308    1.06251203 -104.09669671
     atom   31 type  1   force =     3.64688238   -2.90414835  -99.72215400
     atom   32 type  1   force =    -4.19489627   -2.42478531  -98.82969230
     atom   33 type  1   force =     0.05995899   -0.40834301 -104.47652683
     atom   34 type  1   force =     0.21961408   -1.83637876 -104.10842026
     atom   35 type  1   force =    -0.28433582    0.41653237 -104.35722598
     atom   36 type  1   force =     0.08285403    0.20288265 -104.61265454
     atom   37 type  2   force =    -4.22821608   -3.38333867  -56.33371308
     atom   38 type  3   force =     4.97121089    3.74517841  -87.63690729
     atom   39 type  4   force =    -1.47550583   -1.23226530  -15.24264780
     The core correction contribution to forces
     atom    1 type  1   force =     0.00030513   -0.00016096    0.01026931
     atom    2 type  1   force =    -0.00032522   -0.00017152    0.00974348
     atom    3 type  1   force =    -0.00012012    0.00006948    0.01052149
     atom    4 type  1   force =    -0.00027206   -0.00009289    0.01007216
     atom    5 type  1   force =     0.00007836   -0.00013699    0.01043668
     atom    6 type  1   force =    -0.00009732   -0.00014174    0.00996992
     atom    7 type  1   force =    -0.00022195   -0.00014258    0.00993996
     atom    8 type  1   force =     0.00013993    0.00041808    0.01026352
     atom    9 type  1   force =    -0.00024369   -0.00015298    0.01015756
     atom   10 type  1   force =     0.00001237    0.00004315   -0.00207742
     atom   11 type  1   force =    -0.00021469    0.00016156   -0.00167194
     atom   12 type  1   force =     0.00034156    0.00005811   -0.00194184
     atom   13 type  1   force =     0.00005983   -0.00018078   -0.00171531
     atom   14 type  1   force =     0.00020418    0.00011330   -0.00204615
     atom   15 type  1   force =    -0.00005543    0.00003184   -0.00159183
     atom   16 type  1   force =     0.00018873    0.00021501   -0.00191097
     atom   17 type  1   force =     0.00006134   -0.00000119   -0.00162313
     atom   18 type  1   force =    -0.00012921   -0.00010989   -0.00190561
     atom   19 type  1   force =    -0.00049469   -0.00036654    0.00140816
     atom   20 type  1   force =    -0.00014441   -0.00015017    0.00186668
     atom   21 type  1   force =     0.00055638   -0.00068250    0.00091992
     atom   22 type  1   force =    -0.00033361    0.00007493    0.00143163
     atom   23 type  1   force =    -0.00017178    0.00085096    0.00079914
     atom   24 type  1   force =    -0.00005018    0.00001842    0.00205580
     atom   25 type  1   force =     0.00041121    0.00023574    0.00184373
     atom   26 type  1   force =    -0.00053311   -0.00032214    0.00135533
     atom   27 type  1   force =     0.00006605   -0.00027493    0.00109317
     atom   28 type  1   force =     0.00230831    0.00153283   -0.00726589
     atom   29 type  1   force =    -0.00079200    0.01323525    0.00299097
     atom   30 type  1   force =    -0.00286514    0.00310780   -0.00882123
     atom   31 type  1   force =     0.01090603   -0.00615827    0.00060884
     atom   32 type  1   force =    -0.00789771   -0.00298238    0.00207190
     atom   33 type  1   force =    -0.00118467   -0.00047013   -0.00984057
     atom   34 type  1   force =     0.00094499   -0.00467100   -0.00877860
     atom   35 type  1   force =    -0.00045690   -0.00061535   -0.00983263
     atom   36 type  1   force =     0.00017355   -0.00003659   -0.01070329
     atom   37 type  2   force =     0.00344217    0.00182837   -0.00174897
     atom   38 type  3   force =    -0.01424766   -0.01087211    0.01131123
     atom   39 type  4   force =     0.00000000    0.00000000    0.00000000
     The Hubbard contrib.    to forces
     atom    1 type  1   force =     0.00000000    0.00000000    0.00000000
     atom    2 type  1   force =     0.00000000    0.00000000    0.00000000
     atom    3 type  1   force =     0.00000000    0.00000000    0.00000000
     atom    4 type  1   force =     0.00000000    0.00000000    0.00000000
     atom    5 type  1   force =     0.00000000    0.00000000    0.00000000
     atom    6 type  1   force =     0.00000000    0.00000000    0.00000000
     atom    7 type  1   force =     0.00000000    0.00000000    0.00000000
     atom    8 type  1   force =     0.00000000    0.00000000    0.00000000
     atom    9 type  1   force =     0.00000000    0.00000000    0.00000000
     atom   10 type  1   force =     0.00000000    0.00000000    0.00000000
     atom   11 type  1   force =     0.00000000    0.00000000    0.00000000
     atom   12 type  1   force =     0.00000000    0.00000000    0.00000000
     atom   13 type  1   force =     0.00000000    0.00000000    0.00000000
     atom   14 type  1   force =     0.00000000    0.00000000    0.00000000
     atom   15 type  1   force =     0.00000000    0.00000000    0.00000000
     atom   16 type  1   force =     0.00000000    0.00000000    0.00000000
     atom   17 type  1   force =     0.00000000    0.00000000    0.00000000
     atom   18 type  1   force =     0.00000000    0.00000000    0.00000000
     atom   19 type  1   force =     0.00000000    0.00000000    0.00000000
     atom   20 type  1   force =     0.00000000    0.00000000    0.00000000
     atom   21 type  1   force =     0.00000000    0.00000000    0.00000000
     atom   22 type  1   force =     0.00000000    0.00000000    0.00000000
     atom   23 type  1   force =     0.00000000    0.00000000    0.00000000
     atom   24 type  1   force =     0.00000000    0.00000000    0.00000000
     atom   25 type  1   force =     0.00000000    0.00000000    0.00000000
     atom   26 type  1   force =     0.00000000    0.00000000    0.00000000
     atom   27 type  1   force =     0.00000000    0.00000000    0.00000000
     atom   28 type  1   force =     0.00000000    0.00000000    0.00000000
     atom   29 type  1   force =     0.00000000    0.00000000    0.00000000
     atom   30 type  1   force =     0.00000000    0.00000000    0.00000000
     atom   31 type  1   force =     0.00000000    0.00000000    0.00000000
     atom   32 type  1   force =     0.00000000    0.00000000    0.00000000
     atom   33 type  1   force =     0.00000000    0.00000000    0.00000000
     atom   34 type  1   force =     0.00000000    0.00000000    0.00000000
     atom   35 type  1   force =     0.00000000    0.00000000    0.00000000
     atom   36 type  1   force =     0.00000000    0.00000000    0.00000000
     atom   37 type  2   force =     0.00000000    0.00000000    0.00000000
     atom   38 type  3   force =     0.00000000    0.00000000    0.00000000
     atom   39 type  4   force =     0.00000000    0.00000000    0.00000000
     The SCF correction term to forces
     atom    1 type  1   force =    -0.00000000   -0.00000000    0.00000000
     atom    2 type  1   force =    -0.00000000   -0.00000000    0.00000000
     atom    3 type  1   force =     0.00000000    0.00000000    0.00000000
     atom    4 type  1   force =    -0.00000000   -0.00000000    0.00000000
     atom    5 type  1   force =     0.00000000    0.00000000    0.00000000
     atom    6 type  1   force =    -0.00000000   -0.00000000    0.00000000
     atom    7 type  1   force =     0.00000000    0.00000000    0.00000000
     atom    8 type  1   force =     0.00000000    0.00000000    0.00000000
     atom    9 type  1   force =    -0.00000000   -0.00000000    0.00000000
     atom   10 type  1   force =     0.00000000    0.00000000   -0.00000000
     atom   11 type  1   force =    -0.00000000   -0.00000000   -0.00000000
     atom   12 type  1   force =     0.00000000   -0.00000000   -0.00000000
     atom   13 type  1   force =    -0.00000000   -0.00000000   -0.00000000
     atom   14 type  1   force =     0.00000000    0.00000000   -0.00000000
     atom   15 type  1   force =     0.00000000    0.00000000   -0.00000000
     atom   16 type  1   force =     0.00000000    0.00000000   -0.00000000
     atom   17 type  1   force =     0.00000000    0.00000000   -0.00000000
     atom   18 type  1   force =    -0.00000000   -0.00000000   -0.00000000
     atom   19 type  1   force =     0.00000000   -0.00000000   -0.00000000
     atom   20 type  1   force =    -0.00000000    0.00000000   -0.00000000
     atom   21 type  1   force =    -0.00000000   -0.00000000   -0.00000000
     atom   22 type  1   force =     0.00000000    0.00000000   -0.00000000
     atom   23 type  1   force =    -0.00000000    0.00000000   -0.00000000
     atom   24 type  1   force =     0.00000000    0.00000000   -0.00000000
     atom   25 type  1   force =     0.00000000   -0.00000000   -0.00000000
     atom   26 type  1   force =    -0.00000000    0.00000000   -0.00000000
     atom   27 type  1   force =    -0.00000000   -0.00000000   -0.00000000
     atom   28 type  1   force =    -0.00000000   -0.00000000   -0.00000000
     atom   29 type  1   force =    -0.00000000    0.00000000   -0.00000000
     atom   30 type  1   force =     0.00000000   -0.00000000   -0.00000000
     atom   31 type  1   force =     0.00000000    0.00000000   -0.00000000
     atom   32 type  1   force =    -0.00000000   -0.00000000   -0.00000000
     atom   33 type  1   force =     0.00000000   -0.00000000   -0.00000000
     atom   34 type  1   force =    -0.00000000    0.00000000   -0.00000000
     atom   35 type  1   force =    -0.00000000    0.00000000   -0.00000000
     atom   36 type  1   force =     0.00000000    0.00000000   -0.00000000
     atom   37 type  2   force =    -0.00000889    0.00000086    0.00000462
     atom   38 type  3   force =    -0.00000924    0.00000396    0.00001432
     atom   39 type  4   force =    -0.00000199   -0.00000076    0.00000195

     Total force =     0.020818     Total SCF correction =     0.000020

     Writing all to output data dir ./pwscf.save/

     init_run     :     11.29s CPU     11.76s WALL (       1 calls)
     electrons    :    905.88s CPU    926.50s WALL (       1 calls)
     forces       :      3.46s CPU      3.59s WALL (       1 calls)

     Called by init_run:
     wfcinit      :      8.24s CPU      8.58s WALL (       1 calls)
     potinit      :      1.96s CPU      2.06s WALL (       1 calls)
     hinit0       :      0.83s CPU      0.85s WALL (       1 calls)

     Called by electrons:
     c_bands      :    761.37s CPU    778.83s WALL (      52 calls)
     sum_band     :     92.27s CPU     93.70s WALL (      52 calls)
     v_of_rho     :     10.80s CPU     11.72s WALL (      53 calls)
     newd         :      5.03s CPU      5.10s WALL (      53 calls)
     PAW_pot      :     19.41s CPU     19.70s WALL (      53 calls)
     mix_rho      :     18.10s CPU     18.43s WALL (      52 calls)
     vdW_kernel   :      1.08s CPU      1.09s WALL (       1 calls)

     Called by c_bands:
     init_us_2    :      9.05s CPU      9.20s WALL (    2756 calls)
     init_us_2:cp :      9.03s CPU      9.20s WALL (    2756 calls)
     cegterg      :    735.08s CPU    750.57s WALL (    1352 calls)

     Called by *egterg:
     cdiaghg      :    198.50s CPU    199.95s WALL (    4351 calls)
     h_psi        :    362.96s CPU    374.59s WALL (    4377 calls)
     s_psi        :     37.97s CPU     38.50s WALL (    4377 calls)
     g_psi        :      0.99s CPU      1.01s WALL (    2999 calls)

     Called by h_psi:
     h_psi:calbec :     58.29s CPU     59.26s WALL (    4377 calls)
     vloc_psi     :    263.70s CPU    273.66s WALL (    4377 calls)
     add_vuspsi   :     38.55s CPU     39.21s WALL (    4377 calls)

     General routines
     calbec       :     83.79s CPU     85.07s WALL (    5833 calls)
     fft          :      7.78s CPU      8.74s WALL (    4794 calls)
     ffts         :     11.44s CPU     11.67s WALL (   22945 calls)
     fftw         :    299.04s CPU    309.58s WALL ( 1400120 calls)
     interpolate  :      0.58s CPU      0.60s WALL (     106 calls)

     Parallel routines

     PWSCF        :  15m30.32s CPU  15m57.03s WALL


   This run was terminated on:  10:31:59  17Dec2025            

=------------------------------------------------------------------------------=
   JOB DONE.
=------------------------------------------------------------------------------=
