
     Program PWSCF v.7.1 starts on  4Feb2025 at 13: 1:43 
        Git branch: heads/qe-7.1
        Last git commit: 48ba0178f8fede6d020eb786884699a9f063f55d-dirty
        Last git commit date: Fri Jan 27 14:22:33 2023 +0000
        Last git commit subject: Merge branch 'fix_hubbard' into 'develop'

     This program is part of the open-source Quantum ESPRESSO suite
     for quantum simulation of materials; please cite
         "P. Giannozzi et al., J. Phys.:Condens. Matter 21 395502 (2009);
         "P. Giannozzi et al., J. Phys.:Condens. Matter 29 465901 (2017);
         "P. Giannozzi et al., J. Chem. Phys. 152 154105 (2020);
          URL http://www.quantum-espresso.org", 
     in publications or presentations arising from this work. More details at
     http://www.quantum-espresso.org/quote

     Parallel version (MPI), running on    48 processors

     MPI processes distributed on     1 nodes
     241803 MiB available memory on the printing compute node when the environment starts

     Reading input from espresso.pwi
Warning: card &CELL ignored
Warning: card / ignored
Warning: card &FCP ignored
Warning: card / ignored
Warning: card &RISM ignored
Warning: card / ignored

     Current dimensions of program PWSCF are:
     Max number of different atomic species (ntypx) = 10
     Max number of k-points (npk) =  40000
     Max angular momentum in pseudopotentials (lmaxx) =  4
     file Pt.pbe-n-kjpaw_psl.1.0.0.UPF: wavefunction(s)  6S 5D renormalized
     file H.pbe-kjpaw_psl.1.0.0.UPF: wavefunction(s)  1S renormalized
     file C.pbe-n-kjpaw_psl.1.0.0.UPF: wavefunction(s)  2S 2P renormalized

     **************************************************************************
     Initializing libbeef V0.1.2 with the BEEF-vdW functional.
     Citation: Wellendorff et al., PRB 85, 235149 (2012).
     **************************************************************************


     IMPORTANT: XC functional enforced from input :
     Exchange-correlation= BEEF-VDW
                           (   1   4  43  14   2   0   0)
     Any further DFT definition will be discarded
     Please, verify this is what you really want


     R & G space division:  proc/nbgrp/npool/nimage =      48
     Subspace diagonalization in iterative solution of the eigenvalue problem:
     one sub-group per band group will be used
     custom distributed-memory algorithm (size of sub-group:  2*  2 procs)


     Parallelization info
     --------------------
     sticks:   dense  smooth     PW     G-vecs:    dense   smooth      PW
     Min         150      59     16                30552     7447    1068
     Max         151      60     17                30571     7456    1081
     Sum        7243    2839    769              1467143   357639   51591

     Using Slab Decomposition



     bravais-lattice index     =            0
     lattice parameter (alat)  =      16.0028  a.u.
     unit-cell volume          =   10463.1828 (a.u.)^3
     number of atoms/cell      =           38
     number of atomic types    =            3
     number of electrons       =       365.00
     number of Kohn-Sham states=          220
     kinetic-energy cutoff     =      40.0000  Ry
     charge density cutoff     =     410.0000  Ry
     scf convergence threshold =      1.0E-06
     mixing beta               =       0.7000
     number of iterations used =            8  local-TF  mixing
     Exchange-correlation= BEEF-VDW
                           (   1   4  43  14   2   0   0)

     celldm(1)=  16.002787  celldm(2)=   0.000000  celldm(3)=   0.000000
     celldm(4)=   0.000000  celldm(5)=   0.000000  celldm(6)=   0.000000

     crystal axes: (cart. coord. in units of alat)
               a(1) = (   1.000000   0.000000   0.000000 )  
               a(2) = (   0.500000   0.866025   0.000000 )  
               a(3) = (   0.000000   0.000000   2.948128 )  

     reciprocal axes: (cart. coord. in units 2 pi/alat)
               b(1) = (  1.000000 -0.577350  0.000000 )  
               b(2) = (  0.000000  1.154701  0.000000 )  
               b(3) = (  0.000000  0.000000  0.339198 )  


     PseudoPot. # 1 for Pt read from file:
     /users/kbadger1/espresso/pseudo/pslibrary.1.0.0/pbe/PSEUDOPOTENTIALS/Pt.pbe-n-kjpaw_psl.1.0.0.UPF
     MD5 check sum: 2e24a0b5bf98a4ed1a57fa81bca8c143
     Pseudo is Projector augmented-wave + core cor, Zval = 10.0
     Generated using 'atomic' code by A. Dal Corso  v.7.0
     Shape of augmentation charge: PSQ
     Using radial grid of 1277 points,  6 beta functions with: 
                l(1) =   0
                l(2) =   0
                l(3) =   1
                l(4) =   1
                l(5) =   2
                l(6) =   2
     Q(r) pseudized with 0 coefficients 


     PseudoPot. # 2 for H  read from file:
     /users/kbadger1/espresso/pseudo/pslibrary.1.0.0/pbe/PSEUDOPOTENTIALS/H.pbe-kjpaw_psl.1.0.0.UPF
     MD5 check sum: fe4c6fa958fa6d3815bf5d2419cbf1df
     Pseudo is Projector augmented-wave, Zval =  1.0
     Generated using 'atomic' code by A. Dal Corso  v.7.0
     Shape of augmentation charge: PSQ
     Using radial grid of  929 points,  2 beta functions with: 
                l(1) =   0
                l(2) =   0
     Q(r) pseudized with 0 coefficients 


     PseudoPot. # 3 for C  read from file:
     /users/kbadger1/espresso/pseudo/pslibrary.1.0.0/pbe/PSEUDOPOTENTIALS/C.pbe-n-kjpaw_psl.1.0.0.UPF
     MD5 check sum: 6408e75cdba28732cea38a4db8498ce4
     Pseudo is Projector augmented-wave + core cor, Zval =  4.0
     Generated using 'atomic' code by A. Dal Corso  v.7.0
     Shape of augmentation charge: PSQ
     Using radial grid of 1073 points,  4 beta functions with: 
                l(1) =   0
                l(2) =   0
                l(3) =   1
                l(4) =   1
     Q(r) pseudized with 0 coefficients 


     atomic species   valence    mass     pseudopotential
        Pt            10.00   195.08400     Pt( 1.00)
        H              1.00     1.00800     H ( 1.00)
        C              4.00    12.01100     C ( 1.00)

     No symmetry found



   Cartesian axes

     site n.     atom                  positions (alat units)
         1           Pt  tau(   1) = (   0.0000000   0.0000000   1.0037422  )
         2           Pt  tau(   2) = (   0.3340014   0.0000000   1.0037422  )
         3           Pt  tau(   3) = (   0.6680027   0.0000000   1.0037422  )
         4           Pt  tau(   4) = (   0.1670007   0.2892537   1.0037422  )
         5           Pt  tau(   5) = (   0.5010021   0.2892537   1.0037422  )
         6           Pt  tau(   6) = (   0.8350034   0.2892537   1.0037422  )
         7           Pt  tau(   7) = (   0.3340014   0.5785073   1.0037422  )
         8           Pt  tau(   8) = (   0.6680027   0.5785073   1.0037422  )
         9           Pt  tau(   9) = (   1.0020041   0.5785073   1.0037422  )
        10           Pt  tau(  10) = (   0.1670007   0.0964179   1.2764532  )
        11           Pt  tau(  11) = (   0.5010021   0.0964179   1.2764532  )
        12           Pt  tau(  12) = (   0.8350034   0.0964179   1.2764532  )
        13           Pt  tau(  13) = (   0.3340014   0.3856716   1.2764532  )
        14           Pt  tau(  14) = (   0.6680027   0.3856716   1.2764532  )
        15           Pt  tau(  15) = (   1.0020041   0.3856716   1.2764532  )
        16           Pt  tau(  16) = (   0.5010021   0.6749252   1.2764532  )
        17           Pt  tau(  17) = (   0.8350034   0.6749252   1.2764532  )
        18           Pt  tau(  18) = (   1.1690048   0.6749252   1.2764532  )
        19           Pt  tau(  19) = (   0.0018225   0.1970390   1.5482047  )
        20           Pt  tau(  20) = (   0.3344022   0.1969074   1.5478955  )
        21           Pt  tau(  21) = (   0.6681353   0.1969157   1.5456216  )
        22           Pt  tau(  22) = (   0.1681897   0.4889380   1.5444418  )
        23           Pt  tau(  23) = (   0.5012134   0.4863114   1.5458529  )
        24           Pt  tau(  24) = (   0.8351019   0.4863255   1.5457697  )
        25           Pt  tau(  25) = (   0.3370004   0.7766593   1.5497896  )
        26           Pt  tau(  26) = (   0.6682099   0.7758000   1.5502401  )
        27           Pt  tau(  27) = (   0.9995624   0.7765313   1.5494323  )
        28           Pt  tau(  28) = (  -0.0023050   0.0100071   1.8400192  )
        29           Pt  tau(  29) = (   0.3390061   0.0100058   1.8398052  )
        30           Pt  tau(  30) = (   0.6682988   0.0110033   1.8230537  )
        31           Pt  tau(  31) = (   0.1683351   0.3140301   1.8215570  )
        32           Pt  tau(  32) = (   0.5052096   0.3011869   1.8205721  )
        33           Pt  tau(  33) = (   0.8313713   0.3012058   1.8206418  )
        34           Pt  tau(  34) = (   0.3364461   0.5906956   1.8228330  )
        35           Pt  tau(  35) = (   0.6683168   0.5847955   1.8214295  )
        36           Pt  tau(  36) = (   1.0001460   0.5906980   1.8226892  )
        37           H   tau(  37) = (   0.1684814   0.1725571   2.0751956  )
        38           C   tau(  38) = (   0.1684504   0.1229556   1.9562932  )

     number of k points=    13  Marzari-Vanderbilt smearing, width (Ry)=  0.0200
                       cart. coord. in units 2pi/alat
        k(    1) = (   0.0000000   0.0000000   0.0000000), wk =   0.0800000
        k(    2) = (   0.0000000   0.2309401   0.0000000), wk =   0.1600000
        k(    3) = (   0.0000000   0.4618802   0.0000000), wk =   0.1600000
        k(    4) = (   0.2000000  -0.1154701   0.0000000), wk =   0.1600000
        k(    5) = (   0.2000000   0.1154701   0.0000000), wk =   0.1600000
        k(    6) = (   0.2000000   0.3464102   0.0000000), wk =   0.1600000
        k(    7) = (   0.2000000  -0.5773503   0.0000000), wk =   0.1600000
        k(    8) = (   0.2000000  -0.3464102   0.0000000), wk =   0.1600000
        k(    9) = (   0.4000000  -0.2309401   0.0000000), wk =   0.1600000
        k(   10) = (   0.4000000   0.0000000   0.0000000), wk =   0.1600000
        k(   11) = (   0.4000000   0.2309401   0.0000000), wk =   0.1600000
        k(   12) = (   0.4000000  -0.6928203   0.0000000), wk =   0.1600000
        k(   13) = (   0.4000000  -0.4618802   0.0000000), wk =   0.1600000

     Dense  grid:  1467143 G-vectors     FFT dimensions: ( 108, 108, 320)

     Smooth grid:   357639 G-vectors     FFT dimensions: (  72,  72, 192)

     Estimated max dynamical RAM per process >     214.57 MB

     Estimated total dynamical RAM >      10.06 GB

     Initial potential from superposition of free atoms

     starting charge     364.9938, renormalised to     365.0000

     negative rho (up, down):  3.538E-03 0.000E+00


     %%%%%%%%%%%%%%%%%%%%%%%%%%%%%%%%%%%%%%%%%%%%%%%%%%%%%%%%%%%%%%%%%%%%%%%%
     %                                                                      %
     % You are using vdW-DF, which was implemented by the Thonhauser group. %
     % Please cite the following two papers that made this development      %
     % possible and the two reviews that describe the various versions:     %
     %                                                                      %
     %   T. Thonhauser et al., PRL 115, 136402 (2015).                      %
     %   T. Thonhauser et al., PRB 76, 125112 (2007).                       %
     %   K. Berland et al., Rep. Prog. Phys. 78, 066501 (2015).             %
     %   D.C. Langreth et al., J. Phys.: Condens. Matter 21, 084203 (2009). %
     %                                                                      %
     % If you are calculating stress with vdW-DF, please also cite:         %
     %                                                                      %
     %   R. Sabatini et al., J. Phys.: Condens. Matter 24, 424209 (2012).   %
     %                                                                      %
     %%%%%%%%%%%%%%%%%%%%%%%%%%%%%%%%%%%%%%%%%%%%%%%%%%%%%%%%%%%%%%%%%%%%%%%%

     %%%%%%%%%%%%%%%%%%%%%%%%%%%%%%%%%%%%%%%%%%%%%%%%%%%%%%%%%%%%%%%%%%%%%%%%
     %                                                                      %
     %  vdW-DF NEWS:                                                        %
     %                                                                      %
     %  * vdW-DF3 is now available. DOI: 10.1021/acs.jctc.0c00471           %
     %    use with input_dft = 'vdW-DF3-opt1' or 'vdW-DF3-opt2'             %
     %                                                                      %
     %  * Unscreened and range-separated hybrid vdW-DF-cx functionals       %
     %    DOI: 10.1063/1.4986522 and 10.1088/1361-648X/ac2ad2               %
     %    use with input_dft = 'vdW-DF-cx0'    and 'vdW-DF-ahcx'            %
     %  * Unscreened and range-separated hybrid vdW-DF2-b86r functionals    %
     %    DOI: 10.1063/1.4986522 and DOI: 10.1103/PhysRevX.12.041003        %
     %    use with input_dft = 'vdW-DF2-br0' and 'vdW-DF2-ahbr'             %
     %                                                                      %
     %%%%%%%%%%%%%%%%%%%%%%%%%%%%%%%%%%%%%%%%%%%%%%%%%%%%%%%%%%%%%%%%%%%%%%%%


     Starting wfcs are  329 randomized atomic wfcs
     Checking if some PAW data can be deallocated... 

     total cpu time spent up to now is       21.9 secs

     per-process dynamical memory:   212.9 Mb

     Self-consistent Calculation

     iteration #  1     ecut=    40.00 Ry     beta= 0.70
     Davidson diagonalization with overlap
     ethr =  1.00E-02,  avg # of iterations =  2.0

     Threshold (ethr) on eigenvalues was too large:
     Diagonalizing with lowered threshold

     Davidson diagonalization with overlap
     ethr =  5.40E-04,  avg # of iterations =  4.9

     negative rho (up, down):  1.139E-02 0.000E+00

     total cpu time spent up to now is       65.4 secs

     total energy              =  -27774.14143615 Ry
     estimated scf accuracy    <       2.23645783 Ry

     iteration #  2     ecut=    40.00 Ry     beta= 0.70
     Davidson diagonalization with overlap
     ethr =  6.13E-04,  avg # of iterations =  2.0

     negative rho (up, down):  8.844E-03 0.000E+00

     total cpu time spent up to now is       88.7 secs

     total energy              =  -27774.34699956 Ry
     estimated scf accuracy    <       0.88452428 Ry

     iteration #  3     ecut=    40.00 Ry     beta= 0.70
     Davidson diagonalization with overlap
     ethr =  2.42E-04,  avg # of iterations =  2.2

     negative rho (up, down):  5.631E-03 0.000E+00

     total cpu time spent up to now is      111.9 secs

     total energy              =  -27774.41736969 Ry
     estimated scf accuracy    <       0.27210823 Ry

     iteration #  4     ecut=    40.00 Ry     beta= 0.70
     Davidson diagonalization with overlap
     ethr =  7.46E-05,  avg # of iterations =  8.2

     negative rho (up, down):  3.027E-03 0.000E+00

     total cpu time spent up to now is      141.7 secs

     total energy              =  -27774.45102592 Ry
     estimated scf accuracy    <       0.09145108 Ry

     iteration #  5     ecut=    40.00 Ry     beta= 0.70
     Davidson diagonalization with overlap
     ethr =  2.51E-05,  avg # of iterations =  7.5

     negative rho (up, down):  1.293E-03 0.000E+00

     total cpu time spent up to now is      174.8 secs

     total energy              =  -27774.46657976 Ry
     estimated scf accuracy    <       0.05724940 Ry

     iteration #  6     ecut=    40.00 Ry     beta= 0.70
     Davidson diagonalization with overlap
     ethr =  1.57E-05,  avg # of iterations =  2.0

     negative rho (up, down):  4.425E-04 0.000E+00

     total cpu time spent up to now is      199.2 secs

     total energy              =  -27774.46910854 Ry
     estimated scf accuracy    <       0.00610377 Ry

     iteration #  7     ecut=    40.00 Ry     beta= 0.70
     Davidson diagonalization with overlap
     ethr =  1.67E-06,  avg # of iterations = 15.3

     negative rho (up, down):  2.224E-04 0.000E+00

     total cpu time spent up to now is      259.1 secs

     total energy              =  -27774.47138083 Ry
     estimated scf accuracy    <       0.00219729 Ry

     iteration #  8     ecut=    40.00 Ry     beta= 0.70
     Davidson diagonalization with overlap
     ethr =  6.02E-07,  avg # of iterations =  2.8

     negative rho (up, down):  1.589E-04 0.000E+00

     total cpu time spent up to now is      274.1 secs

     total energy              =  -27774.47165473 Ry
     estimated scf accuracy    <       0.00071472 Ry

     iteration #  9     ecut=    40.00 Ry     beta= 0.70
     Davidson diagonalization with overlap
     ethr =  1.96E-07,  avg # of iterations =  3.5

     negative rho (up, down):  1.467E-04 0.000E+00

     total cpu time spent up to now is      301.6 secs

     total energy              =  -27774.47174657 Ry
     estimated scf accuracy    <       0.00047312 Ry

     iteration # 10     ecut=    40.00 Ry     beta= 0.70
     Davidson diagonalization with overlap
     ethr =  1.30E-07,  avg # of iterations =  2.4

     negative rho (up, down):  1.727E-04 0.000E+00

     total cpu time spent up to now is      325.5 secs

     total energy              =  -27774.47178892 Ry
     estimated scf accuracy    <       0.00031946 Ry

     iteration # 11     ecut=    40.00 Ry     beta= 0.70
     Davidson diagonalization with overlap
     ethr =  8.75E-08,  avg # of iterations =  3.3

     negative rho (up, down):  3.954E-04 0.000E+00

     total cpu time spent up to now is      349.6 secs

     total energy              =  -27774.47185622 Ry
     estimated scf accuracy    <       0.00020212 Ry

     iteration # 12     ecut=    40.00 Ry     beta= 0.70
     Davidson diagonalization with overlap
     ethr =  5.54E-08,  avg # of iterations =  5.6

     negative rho (up, down):  5.644E-04 0.000E+00

     total cpu time spent up to now is      366.1 secs

     total energy              =  -27774.47189409 Ry
     estimated scf accuracy    <       0.00012425 Ry

     iteration # 13     ecut=    40.00 Ry     beta= 0.70
     Davidson diagonalization with overlap
     ethr =  3.40E-08,  avg # of iterations =  2.0

     negative rho (up, down):  1.692E-03 0.000E+00

     total cpu time spent up to now is      389.0 secs

     total energy              =  -27774.47194751 Ry
     estimated scf accuracy    <       0.00006405 Ry

     iteration # 14     ecut=    40.00 Ry     beta= 0.70
     Davidson diagonalization with overlap
     c_bands:  1 eigenvalues not converged
     c_bands:  1 eigenvalues not converged
     ethr =  1.75E-08,  avg # of iterations =  7.8

     negative rho (up, down):  1.580E-03 0.000E+00

     total cpu time spent up to now is      416.4 secs

     total energy              =  -27774.47196648 Ry
     estimated scf accuracy    <       0.00002908 Ry

     iteration # 15     ecut=    40.00 Ry     beta= 0.70
     Davidson diagonalization with overlap
     ethr =  7.97E-09,  avg # of iterations =  2.0

     negative rho (up, down):  2.817E-03 0.000E+00

     total cpu time spent up to now is      441.6 secs

     total energy              =  -27774.47196979 Ry
     estimated scf accuracy    <       0.00001690 Ry

     iteration # 16     ecut=    40.00 Ry     beta= 0.70
     Davidson diagonalization with overlap
     ethr =  4.63E-09,  avg # of iterations =  2.0

     negative rho (up, down):  3.332E-03 0.000E+00

     total cpu time spent up to now is      454.6 secs

     total energy              =  -27774.47196928 Ry
     estimated scf accuracy    <       0.00000380 Ry

     iteration # 17     ecut=    40.00 Ry     beta= 0.70
     Davidson diagonalization with overlap
     ethr =  1.04E-09,  avg # of iterations =  5.7

     negative rho (up, down):  3.475E-03 0.000E+00

     total cpu time spent up to now is      499.6 secs

     total energy              =  -27774.47197020 Ry
     estimated scf accuracy    <       0.00000101 Ry

     iteration # 18     ecut=    40.00 Ry     beta= 0.70
     Davidson diagonalization with overlap
     ethr =  2.76E-10,  avg # of iterations =  4.2

     negative rho (up, down):  3.393E-03 0.000E+00

     total cpu time spent up to now is      529.6 secs

     End of self-consistent calculation

          k = 0.0000 0.0000 0.0000 ( 44645 PWs)   bands (ev):

   -10.2271  -6.4332  -5.2575  -4.8249  -4.1229  -4.1101  -4.0724  -4.0282
    -4.0152  -4.0047  -3.9942  -3.8507  -3.7205  -3.6745  -3.4877  -3.4781
    -3.4715  -3.4048  -3.3431  -3.3023  -3.0347  -3.0253  -3.0104  -2.9034
    -2.8537  -2.8493  -2.7988  -2.7960  -2.7878  -2.6967  -2.6959  -2.6783
    -2.6108  -2.6051  -2.5760  -2.5400  -2.5351  -2.5191  -2.4989  -2.4812
    -2.4634  -2.1505  -2.0985  -2.0228  -1.9508  -1.9334  -1.9190  -1.8998
    -1.8844  -1.8712  -1.8609  -1.8030  -1.7758  -1.6927  -1.6924  -1.6491
    -1.5739  -1.5537  -1.2318  -1.2116  -1.1629  -1.1481  -1.1445  -1.1013
    -1.0774  -0.9891  -0.9688  -0.9422  -0.9316  -0.9265  -0.9178  -0.9085
    -0.8948  -0.8798  -0.8775  -0.8479  -0.8298  -0.8280  -0.8191  -0.7913
    -0.7729  -0.7549  -0.7361  -0.7263  -0.7139  -0.7006  -0.5217  -0.4977
    -0.4885  -0.4693  -0.4542  -0.4499  -0.4384  -0.4370  -0.4014  -0.3973
    -0.3825  -0.2930  -0.2925  -0.2508  -0.2477  -0.2131  -0.1601  -0.1585
    -0.1393  -0.0901  -0.0798  -0.0684  -0.0325   0.0306   0.0445   0.3253
     0.3428   0.3522   0.4160   0.4267   0.4487   0.4563   0.4705   0.4770
     0.5526   0.5677   0.6163   0.6242   0.6295   0.6557   0.6682   0.7107
     0.7246   0.7760   0.8485   0.8751   0.8881   0.9574   0.9668   0.9725
     1.1321   1.1649   1.1752   1.1820   1.2180   1.2425   1.2442   1.2587
     1.3149   1.3201   1.3716   1.3841   1.4040   1.4164   1.4404   1.5145
     1.5410   1.5734   1.5933   1.6006   1.6141   1.6193   1.6274   1.6281
     1.6454   1.6595   1.6624   1.7126   1.7350   1.7368   1.7408   1.7573
     1.8167   1.8247   1.8328   1.8339   1.8531   1.8811   1.8936   1.9238
     1.9748   1.9816   1.9853   1.9936   2.0001   2.0330   2.0589   2.0591
     2.0919   2.1047   2.1293   2.1451   2.1777   2.2502   2.2984   2.3733
     2.3838   2.3988   2.4219   2.4255   2.4399   2.8925   2.9627   3.0988
     3.2605   3.2891   3.3050   3.3207   4.4057   4.4337   5.3276   5.6058
     5.6071   5.6268   6.0664   6.1443   6.7896   7.2441   7.2448   7.2787
     7.3099   7.3861   7.4120   7.4301

          k = 0.0000 0.2309 0.0000 ( 44694 PWs)   bands (ev):

   -10.2236  -6.2891  -5.1588  -4.7809  -4.5161  -4.1775  -4.1586  -3.9317
    -3.8903  -3.8370  -3.8018  -3.7857  -3.6393  -3.6257  -3.5706  -3.4344
    -3.4090  -3.3872  -3.2549  -3.2390  -3.0910  -2.9884  -2.9506  -2.9492
    -2.8798  -2.8713  -2.8413  -2.7854  -2.7759  -2.7111  -2.7039  -2.6989
    -2.6649  -2.6450  -2.5816  -2.5791  -2.4601  -2.4503  -2.3781  -2.3586
    -2.3280  -2.1702  -2.1396  -2.0790  -2.0518  -2.0451  -2.0132  -1.9788
    -1.9194  -1.8974  -1.8232  -1.7775  -1.7474  -1.6797  -1.6407  -1.6249
    -1.5806  -1.5494  -1.4013  -1.3173  -1.3102  -1.2851  -1.2585  -1.2485
    -1.1944  -1.1346  -1.1201  -1.1124  -1.0826  -1.0427  -1.0033  -0.9863
    -0.9531  -0.9321  -0.9041  -0.8306  -0.8239  -0.8062  -0.7453  -0.7424
    -0.7294  -0.7048  -0.6943  -0.6924  -0.6718  -0.5696  -0.5621  -0.5302
    -0.5095  -0.4969  -0.4802  -0.4764  -0.4511  -0.4097  -0.3932  -0.3845
    -0.3539  -0.3438  -0.3061  -0.2941  -0.2916  -0.2433  -0.2202  -0.1959
    -0.1719  -0.1225  -0.0693  -0.0679  -0.0583  -0.0285  -0.0262   0.0035
     0.0050   0.1571   0.1628   0.1870   0.3272   0.3856   0.4118   0.4448
     0.4522   0.4679   0.4878   0.5240   0.6455   0.6925   0.7115   0.7335
     0.7791   0.7815   0.7978   0.8149   0.8628   0.8690   0.8988   0.9032
     1.0048   1.0441   1.0532   1.0831   1.1230   1.1634   1.1975   1.2492
     1.2546   1.2847   1.2892   1.3449   1.3690   1.4151   1.4282   1.4395
     1.4446   1.4979   1.5179   1.5756   1.5815   1.6201   1.6247   1.6423
     1.6618   1.7203   1.7486   1.7982   1.8078   1.8617   1.9095   1.9256
     1.9294   1.9593   1.9831   1.9878   1.9949   2.0567   2.0621   2.0644
     2.1040   2.1102   2.1596   2.1621   2.2139   2.2571   2.2845   2.3093
     2.3354   2.3468   2.3652   2.3838   2.3950   2.4200   2.4784   2.5149
     2.5635   2.6078   2.6628   2.7144   2.7258   2.8013   2.9799   3.0907
     3.3901   3.6822   3.9208   4.0058   4.3338   4.5256   5.1183   5.3789
     5.5978   5.9330   6.1059   6.2443   6.3816   6.4483   6.9807   7.1102
     7.1877   7.4145   7.5235   7.5253

          k = 0.0000 0.4619 0.0000 ( 44748 PWs)   bands (ev):

   -10.2179  -5.8751  -5.2641  -4.9527  -4.5260  -4.2040  -4.2021  -4.0418
    -3.7844  -3.6634  -3.5906  -3.5689  -3.5261  -3.4557  -3.4131  -3.3472
    -3.2520  -3.2253  -3.2073  -3.1126  -3.1011  -3.0875  -3.0498  -3.0235
    -2.9824  -2.9563  -2.9503  -2.9141  -2.8600  -2.8395  -2.6404  -2.6362
    -2.6076  -2.5904  -2.5095  -2.4802  -2.4104  -2.4047  -2.3536  -2.3502
    -2.3154  -2.2157  -2.2016  -2.1312  -2.0567  -2.0227  -1.9873  -1.9777
    -1.9026  -1.8979  -1.8784  -1.8412  -1.8337  -1.8082  -1.7050  -1.6727
    -1.6565  -1.5921  -1.5362  -1.5063  -1.4906  -1.4615  -1.4196  -1.4133
    -1.3029  -1.2692  -1.2172  -1.1941  -1.1695  -1.1373  -1.0937  -1.0860
    -1.0236  -0.9538  -0.9295  -0.9111  -0.8828  -0.8737  -0.8403  -0.8027
    -0.7942  -0.7621  -0.7444  -0.7405  -0.7185  -0.6947  -0.6881  -0.6642
    -0.6376  -0.5742  -0.5717  -0.5325  -0.5048  -0.4950  -0.4687  -0.4534
    -0.3959  -0.3397  -0.3126  -0.3046  -0.2679  -0.2448  -0.2382  -0.2005
    -0.1657  -0.1244  -0.0938  -0.0518  -0.0486   0.0019   0.0500   0.1016
     0.1553   0.1601   0.2346   0.2544   0.2690   0.2937   0.3220   0.3497
     0.3754   0.4160   0.4168   0.4500   0.4712   0.4822   0.5028   0.5431
     0.5567   0.6038   0.6650   0.6756   0.7266   0.7690   0.8203   0.8298
     0.9102   0.9622   0.9838   1.0291   1.0553   1.0817   1.1670   1.1694
     1.2309   1.2634   1.2838   1.2959   1.3147   1.3531   1.3673   1.3853
     1.4049   1.4723   1.4873   1.5309   1.5608   1.5928   1.6277   1.6420
     1.7112   1.7465   1.8211   1.8286   1.8649   1.9139   1.9711   1.9770
     2.0031   2.0058   2.0358   2.0586   2.1206   2.1361   2.1520   2.1859
     2.2598   2.2854   2.2952   2.3087   2.3198   2.3479   2.3510   2.3912
     2.5094   2.5235   2.5632   2.5720   2.5756   2.6675   2.8175   2.9494
     2.9827   3.0706   3.2925   3.5811   3.6155   3.7589   3.8503   3.8942
     4.2544   4.3301   4.4650   4.5770   4.8805   4.9089   5.0020   5.0898
     5.1320   5.2870   5.3929   5.7791   5.8944   6.0518   6.2825   6.7048
     6.7668   7.1898   7.2617   7.4011

          k = 0.2000-0.1155 0.0000 ( 44694 PWs)   bands (ev):

   -10.2239  -6.2888  -5.1503  -4.7666  -4.5482  -4.1813  -4.1365  -3.9330
    -3.9008  -3.8402  -3.8109  -3.7699  -3.6782  -3.6139  -3.5716  -3.4252
    -3.4043  -3.3865  -3.2909  -3.2240  -3.0795  -2.9902  -2.9606  -2.9432
    -2.8781  -2.8717  -2.8395  -2.7989  -2.7734  -2.7268  -2.7021  -2.6827
    -2.6593  -2.6461  -2.5894  -2.5733  -2.4699  -2.4419  -2.3731  -2.3407
    -2.3251  -2.1762  -2.1121  -2.0823  -2.0520  -2.0338  -2.0088  -1.9889
    -1.9023  -1.8835  -1.8530  -1.7619  -1.7530  -1.6878  -1.6567  -1.6175
    -1.5778  -1.5403  -1.3739  -1.3060  -1.2948  -1.2754  -1.2491  -1.2062
    -1.1788  -1.1683  -1.1538  -1.1246  -1.0880  -1.0423  -1.0005  -0.9701
    -0.9620  -0.9334  -0.9016  -0.8719  -0.8536  -0.8208  -0.7444  -0.7314
    -0.7214  -0.6942  -0.6843  -0.6735  -0.6298  -0.5815  -0.5698  -0.5386
    -0.5169  -0.4954  -0.4874  -0.4797  -0.4482  -0.4299  -0.3846  -0.3667
    -0.3522  -0.3434  -0.3228  -0.2954  -0.2734  -0.2422  -0.2210  -0.1897
    -0.1839  -0.1210  -0.0948  -0.0843  -0.0617  -0.0335  -0.0164   0.0046
     0.0104   0.1023   0.1843   0.2429   0.3359   0.3807   0.4024   0.4236
     0.4395   0.4579   0.4926   0.5421   0.6235   0.6849   0.7166   0.7267
     0.7644   0.7870   0.7994   0.8067   0.8549   0.8728   0.8899   0.9120
     1.0148   1.0447   1.0528   1.0684   1.0838   1.1637   1.1999   1.2364
     1.2486   1.2636   1.2987   1.3434   1.3646   1.4074   1.4253   1.4458
     1.4588   1.5098   1.5138   1.5766   1.5851   1.6192   1.6349   1.6489
     1.6692   1.6997   1.7714   1.7853   1.8032   1.8523   1.8826   1.9247
     1.9339   1.9514   1.9778   1.9877   2.0004   2.0490   2.0684   2.0735
     2.1003   2.1173   2.1395   2.1455   2.2255   2.2432   2.2888   2.3155
     2.3420   2.3618   2.3766   2.3981   2.4209   2.4423   2.4842   2.5184
     2.5607   2.6078   2.6753   2.7148   2.7426   2.7850   2.9747   3.1268
     3.4156   3.6907   3.9169   3.9857   4.3254   4.5113   5.0910   5.4180
     5.6362   5.9235   6.0972   6.2433   6.3908   6.4291   6.9991   7.0771
     7.1635   7.4090   7.4922   7.5408

          k = 0.2000 0.1155 0.0000 ( 44694 PWs)   bands (ev):

   -10.2239  -6.2888  -5.1503  -4.7664  -4.5496  -4.1802  -4.1354  -3.9339
    -3.9011  -3.8403  -3.8116  -3.7700  -3.6791  -3.6119  -3.5695  -3.4251
    -3.4085  -3.3869  -3.2898  -3.2230  -3.0788  -2.9896  -2.9595  -2.9425
    -2.8788  -2.8746  -2.8405  -2.7994  -2.7745  -2.7245  -2.7051  -2.6832
    -2.6556  -2.6468  -2.5878  -2.5746  -2.4695  -2.4413  -2.3715  -2.3420
    -2.3250  -2.1767  -2.1125  -2.0830  -2.0501  -2.0320  -2.0073  -1.9906
    -1.9041  -1.8843  -1.8515  -1.7611  -1.7541  -1.6859  -1.6587  -1.6176
    -1.5769  -1.5409  -1.3723  -1.3051  -1.2941  -1.2747  -1.2493  -1.2043
    -1.1809  -1.1691  -1.1556  -1.1232  -1.0866  -1.0402  -1.0004  -0.9675
    -0.9619  -0.9332  -0.9013  -0.8742  -0.8573  -0.8210  -0.7457  -0.7308
    -0.7220  -0.6921  -0.6842  -0.6729  -0.6316  -0.5848  -0.5680  -0.5386
    -0.5150  -0.4945  -0.4871  -0.4805  -0.4486  -0.4278  -0.3875  -0.3698
    -0.3508  -0.3444  -0.3247  -0.2917  -0.2723  -0.2430  -0.2220  -0.1903
    -0.1842  -0.1223  -0.0958  -0.0861  -0.0599  -0.0307  -0.0117   0.0005
     0.0067   0.1026   0.1845   0.2469   0.3348   0.3799   0.4013   0.4249
     0.4388   0.4582   0.4928   0.5415   0.6215   0.6852   0.7158   0.7262
     0.7658   0.7865   0.7989   0.8057   0.8553   0.8716   0.8895   0.9110
     1.0190   1.0443   1.0528   1.0677   1.0845   1.1646   1.1973   1.2350
     1.2480   1.2640   1.2994   1.3449   1.3661   1.4070   1.4230   1.4461
     1.4585   1.5092   1.5150   1.5766   1.5849   1.6190   1.6338   1.6490
     1.6695   1.7007   1.7713   1.7852   1.8015   1.8530   1.8810   1.9251
     1.9333   1.9518   1.9785   1.9869   2.0000   2.0499   2.0692   2.0739
     2.0988   2.1175   2.1385   2.1440   2.2269   2.2434   2.2869   2.3164
     2.3444   2.3617   2.3768   2.4001   2.4228   2.4444   2.4849   2.5181
     2.5597   2.6069   2.6740   2.7150   2.7432   2.7849   2.9764   3.1291
     3.4153   3.6914   3.9155   3.9841   4.3244   4.5124   5.0902   5.4201
     5.6365   5.9234   6.0964   6.2420   6.3924   6.4292   6.9988   7.0757
     7.1622   7.4091   7.4916   7.5409

          k = 0.2000 0.3464 0.0000 ( 44714 PWs)   bands (ev):

   -10.2193  -6.0088  -5.0198  -4.8174  -4.7873  -4.5639  -3.9029  -3.8145
    -3.7124  -3.6963  -3.6770  -3.6515  -3.6159  -3.5492  -3.5333  -3.4637
    -3.3675  -3.2595  -3.1276  -3.1172  -3.1085  -3.0713  -3.0160  -2.9838
    -2.9087  -2.9017  -2.8673  -2.8061  -2.7843  -2.7742  -2.7300  -2.6938
    -2.6677  -2.6345  -2.6192  -2.5678  -2.4907  -2.4453  -2.3648  -2.2571
    -2.2288  -2.1537  -2.1288  -2.0982  -2.0783  -2.0390  -2.0182  -1.9719
    -1.9149  -1.8847  -1.8534  -1.8183  -1.7609  -1.7149  -1.6882  -1.6377
    -1.6188  -1.5764  -1.5463  -1.5257  -1.4199  -1.4063  -1.3583  -1.3406
    -1.3141  -1.2453  -1.2268  -1.2167  -1.1849  -1.1479  -1.0619  -1.0363
    -1.0011  -0.9904  -0.9686  -0.9470  -0.8905  -0.8706  -0.8177  -0.7897
    -0.7391  -0.7310  -0.7191  -0.6795  -0.6616  -0.6409  -0.6260  -0.6023
    -0.5922  -0.5667  -0.5400  -0.5032  -0.4546  -0.4399  -0.4097  -0.3997
    -0.3838  -0.3683  -0.3422  -0.3106  -0.2885  -0.2749  -0.2679  -0.2472
    -0.2345  -0.2285  -0.1987  -0.1207  -0.1021  -0.0505   0.0047   0.0307
     0.0632   0.0774   0.1695   0.2085   0.2444   0.2928   0.3053   0.3731
     0.4171   0.4321   0.4558   0.4907   0.5080   0.5502   0.5765   0.5926
     0.6368   0.6540   0.7255   0.7881   0.7975   0.8211   0.8554   0.8831
     0.9488   0.9665   1.0070   1.0357   1.0442   1.1161   1.1300   1.1603
     1.1852   1.2119   1.2617   1.2883   1.3214   1.3689   1.3837   1.3978
     1.4077   1.4263   1.4446   1.4598   1.4930   1.5572   1.6059   1.6855
     1.7152   1.7661   1.8331   1.9261   1.9410   1.9588   1.9789   2.0021
     2.0546   2.0859   2.1077   2.1266   2.1527   2.1607   2.1758   2.1937
     2.2096   2.2288   2.2607   2.2945   2.3259   2.3391   2.3804   2.3992
     2.4430   2.5074   2.5625   2.6039   2.6176   2.6456   2.6794   2.7270
     2.7842   2.8502   3.0229   3.2721   3.3924   3.5879   3.6440   3.8758
     3.9131   4.0192   4.3997   4.5260   4.7174   4.8117   4.8881   5.0502
     5.1658   5.7969   5.9061   6.1065   6.1843   6.3982   6.6208   6.7907
     6.8553   6.8673   6.9883   7.2501

          k = 0.2000-0.5774 0.0000 ( 44692 PWs)   bands (ev):

   -10.2165  -5.5033  -5.4705  -4.9207  -4.8534  -4.3240  -4.1376  -3.8142
    -3.6726  -3.6398  -3.5597  -3.4853  -3.4182  -3.4117  -3.3679  -3.2893
    -3.2541  -3.2092  -3.1831  -3.1701  -3.1535  -3.1101  -3.0665  -3.0136
    -2.9805  -2.9622  -2.9339  -2.9258  -2.8663  -2.8340  -2.7270  -2.6755
    -2.6551  -2.6013  -2.5635  -2.5298  -2.5265  -2.4292  -2.3541  -2.3271
    -2.2683  -2.2351  -2.1362  -2.1201  -2.0757  -2.0187  -2.0008  -1.9175
    -1.8744  -1.8248  -1.7810  -1.7472  -1.7331  -1.7117  -1.6865  -1.6473
    -1.6311  -1.5648  -1.5606  -1.5407  -1.5177  -1.4761  -1.4600  -1.4516
    -1.4002  -1.3651  -1.3402  -1.2657  -1.2373  -1.2139  -1.1216  -1.1034
    -1.0573  -1.0482  -1.0286  -1.0156  -0.9710  -0.9576  -0.8951  -0.8692
    -0.8653  -0.8264  -0.7965  -0.7523  -0.7145  -0.6680  -0.6459  -0.6305
    -0.6174  -0.5287  -0.5194  -0.5014  -0.4758  -0.4374  -0.4276  -0.3834
    -0.3618  -0.3474  -0.3243  -0.3091  -0.2978  -0.2947  -0.2426  -0.2370
    -0.2088  -0.1982  -0.1928  -0.1650  -0.1481  -0.1411  -0.1023   0.0706
     0.0922   0.1383   0.1645   0.2086   0.2756   0.2865   0.3131   0.3389
     0.3541   0.3909   0.3993   0.4472   0.4684   0.4810   0.5202   0.5620
     0.6159   0.6500   0.6717   0.6893   0.7429   0.7724   0.8517   0.8665
     0.9295   0.9389   0.9927   1.0156   1.0316   1.0653   1.0858   1.1069
     1.1348   1.1559   1.2130   1.2327   1.2503   1.2700   1.3068   1.3564
     1.3823   1.4048   1.4584   1.5195   1.5929   1.6227   1.6852   1.7441
     1.7861   1.7959   1.8496   1.8674   1.9240   1.9327   1.9880   2.0417
     2.0766   2.0970   2.1268   2.1561   2.1678   2.2032   2.2176   2.2764
     2.2941   2.3034   2.3193   2.3648   2.3765   2.3901   2.4561   2.4769
     2.5205   2.5633   2.5789   2.5875   2.6450   2.6613   2.7300   2.8375
     3.2406   3.5467   3.6366   3.7753   3.8478   3.9847   4.0659   4.0917
     4.2687   4.4761   4.5849   4.7831   4.8756   4.9054   5.2498   5.2695
     5.4272   5.5020   5.5853   5.6633   5.7923   5.9333   6.1060   6.1896
     6.4589   6.7408   6.8664   6.9487

          k = 0.2000-0.3464 0.0000 ( 44714 PWs)   bands (ev):

   -10.2193  -6.0087  -5.0198  -4.8109  -4.7941  -4.5637  -3.8977  -3.8168
    -3.7110  -3.6984  -3.6775  -3.6519  -3.6193  -3.5497  -3.5337  -3.4627
    -3.3660  -3.2579  -3.1259  -3.1182  -3.1089  -3.0687  -3.0162  -2.9874
    -2.9074  -2.9032  -2.8680  -2.8032  -2.7828  -2.7770  -2.7324  -2.6972
    -2.6636  -2.6349  -2.6143  -2.5690  -2.4891  -2.4461  -2.3651  -2.2589
    -2.2308  -2.1504  -2.1290  -2.1001  -2.0788  -2.0378  -2.0201  -1.9736
    -1.9158  -1.8846  -1.8512  -1.8195  -1.7616  -1.7136  -1.6901  -1.6354
    -1.6186  -1.5785  -1.5464  -1.5245  -1.4166  -1.4083  -1.3611  -1.3408
    -1.3168  -1.2448  -1.2295  -1.2167  -1.1842  -1.1482  -1.0619  -1.0374
    -1.0011  -0.9896  -0.9681  -0.9460  -0.8894  -0.8720  -0.8207  -0.7904
    -0.7397  -0.7322  -0.7199  -0.6779  -0.6607  -0.6378  -0.6273  -0.6024
    -0.5917  -0.5650  -0.5401  -0.5012  -0.4540  -0.4384  -0.4095  -0.3980
    -0.3822  -0.3675  -0.3408  -0.3094  -0.2884  -0.2750  -0.2666  -0.2482
    -0.2369  -0.2303  -0.1952  -0.1244  -0.1016  -0.0502   0.0052   0.0311
     0.0656   0.0788   0.1671   0.2090   0.2449   0.2915   0.3041   0.3735
     0.4195   0.4335   0.4536   0.4916   0.5067   0.5519   0.5757   0.5914
     0.6364   0.6526   0.7247   0.7890   0.7978   0.8220   0.8537   0.8846
     0.9493   0.9670   1.0072   1.0337   1.0493   1.1153   1.1292   1.1614
     1.1857   1.2124   1.2601   1.2873   1.3217   1.3671   1.3833   1.3966
     1.4054   1.4281   1.4466   1.4589   1.4956   1.5602   1.6040   1.6858
     1.7150   1.7667   1.8331   1.9258   1.9408   1.9587   1.9793   2.0012
     2.0545   2.0852   2.1077   2.1271   2.1538   2.1603   2.1780   2.1932
     2.2101   2.2279   2.2600   2.2961   2.3257   2.3394   2.3797   2.3989
     2.4439   2.5071   2.5594   2.6037   2.6150   2.6448   2.6771   2.7256
     2.7865   2.8502   3.0242   3.2725   3.3937   3.5881   3.6420   3.8758
     3.9120   4.0183   4.4000   4.5259   4.7171   4.8122   4.8882   5.0515
     5.1659   5.7953   5.9027   6.1071   6.1838   6.3993   6.6207   6.7921
     6.8541   6.8676   6.9902   7.2500

          k = 0.4000-0.2309 0.0000 ( 44748 PWs)   bands (ev):

   -10.2187  -5.8731  -5.2508  -4.9372  -4.5466  -4.2079  -4.1858  -4.0574
    -3.8175  -3.7005  -3.6218  -3.5692  -3.5323  -3.4365  -3.4063  -3.3441
    -3.2484  -3.2314  -3.2117  -3.1486  -3.1024  -3.0845  -3.0395  -3.0243
    -2.9983  -2.9701  -2.9359  -2.9173  -2.8565  -2.8329  -2.6309  -2.6230
    -2.5962  -2.5895  -2.5110  -2.4738  -2.3887  -2.3680  -2.3505  -2.3310
    -2.2701  -2.2011  -2.1653  -2.1093  -2.0625  -2.0306  -1.9997  -1.9676
    -1.9319  -1.9031  -1.8688  -1.8485  -1.8293  -1.8065  -1.6967  -1.6687
    -1.6486  -1.5950  -1.5526  -1.4927  -1.4426  -1.4372  -1.4170  -1.4020
    -1.2829  -1.2518  -1.2466  -1.2097  -1.1821  -1.1286  -1.1136  -1.0898
    -1.0216  -0.9812  -0.9590  -0.9212  -0.8818  -0.8762  -0.8221  -0.8054
    -0.7806  -0.7591  -0.7425  -0.7171  -0.7052  -0.6916  -0.6832  -0.6570
    -0.6354  -0.5992  -0.5435  -0.5385  -0.5184  -0.4864  -0.4574  -0.4255
    -0.4015  -0.3688  -0.3374  -0.3171  -0.2821  -0.2666  -0.2500  -0.2116
    -0.1835  -0.1493  -0.0926  -0.0567  -0.0424  -0.0165   0.0277   0.0604
     0.1197   0.1831   0.2248   0.2499   0.2637   0.3035   0.3557   0.3650
     0.3890   0.4105   0.4424   0.4631   0.4752   0.4985   0.5103   0.5163
     0.5430   0.6092   0.6550   0.6682   0.7129   0.7446   0.7984   0.8413
     0.8773   0.9429   0.9630   1.0234   1.0520   1.1012   1.1495   1.1818
     1.2372   1.2462   1.2845   1.3042   1.3219   1.3345   1.3827   1.3941
     1.4114   1.4776   1.4997   1.5379   1.5613   1.5790   1.5897   1.6443
     1.7048   1.7465   1.7947   1.8370   1.8653   1.9099   1.9689   1.9759
     1.9945   2.0045   2.0251   2.0623   2.1104   2.1210   2.1412   2.1738
     2.2616   2.2797   2.3004   2.3160   2.3219   2.3429   2.3802   2.4131
     2.5249   2.5560   2.5739   2.5840   2.6011   2.6779   2.8172   2.8707
     2.9885   3.1366   3.2996   3.6001   3.6063   3.7460   3.8702   3.9339
     4.2563   4.3255   4.4841   4.6292   4.8810   4.9214   5.0146   5.0752
     5.1116   5.3032   5.4233   5.8037   5.8648   6.0760   6.2494   6.6710
     6.7197   7.1872   7.2698   7.3943

          k = 0.4000 0.0000 0.0000 ( 44714 PWs)   bands (ev):

   -10.2198  -6.0076  -4.9917  -4.8176  -4.7976  -4.5780  -3.9174  -3.8238
    -3.7159  -3.7045  -3.6736  -3.6549  -3.6055  -3.5585  -3.5197  -3.5029
    -3.3529  -3.2582  -3.1471  -3.1111  -3.1100  -3.0766  -3.0171  -3.0064
    -2.9107  -2.8945  -2.8515  -2.7997  -2.7871  -2.7407  -2.7339  -2.6850
    -2.6740  -2.6376  -2.6236  -2.5745  -2.5195  -2.4463  -2.2800  -2.2418
    -2.2118  -2.1708  -2.1371  -2.0975  -2.0666  -2.0425  -2.0107  -1.9526
    -1.9149  -1.9026  -1.8512  -1.7996  -1.7540  -1.7323  -1.6882  -1.6416
    -1.6260  -1.5802  -1.5502  -1.5252  -1.4036  -1.3811  -1.3460  -1.3069
    -1.2643  -1.2500  -1.2361  -1.2113  -1.1729  -1.1413  -1.0682  -1.0331
    -1.0136  -1.0020  -0.9940  -0.9776  -0.8823  -0.8546  -0.8316  -0.8095
    -0.7272  -0.7129  -0.6971  -0.6833  -0.6631  -0.6508  -0.6294  -0.6043
    -0.5910  -0.5770  -0.5741  -0.5214  -0.4661  -0.4553  -0.4130  -0.4037
    -0.3893  -0.3502  -0.3373  -0.3217  -0.2991  -0.2808  -0.2624  -0.2471
    -0.2402  -0.2072  -0.1956  -0.1079  -0.0934  -0.0444   0.0044   0.0187
     0.0408   0.0759   0.1514   0.1875   0.2468   0.2947   0.3151   0.3821
     0.3975   0.4120   0.4397   0.4963   0.5275   0.5503   0.5706   0.5861
     0.6395   0.7035   0.7261   0.7669   0.7845   0.8174   0.8401   0.8770
     0.9176   0.9633   0.9852   1.0349   1.0439   1.1141   1.1331   1.1425
     1.1688   1.1987   1.2726   1.3079   1.3238   1.3688   1.3841   1.4087
     1.4224   1.4300   1.4523   1.4743   1.5071   1.5581   1.5975   1.6868
     1.7046   1.7474   1.8248   1.9316   1.9367   1.9523   1.9799   1.9949
     2.0454   2.0926   2.1150   2.1184   2.1368   2.1604   2.1654   2.1886
     2.1965   2.2294   2.2749   2.2969   2.3177   2.3570   2.3763   2.3964
     2.4360   2.5322   2.5836   2.6183   2.6482   2.6597   2.6937   2.7212
     2.7816   2.8408   3.0260   3.2839   3.3667   3.5396   3.6712   3.9037
     3.9201   4.0975   4.3952   4.5092   4.7284   4.8210   4.8831   5.0473
     5.1620   5.7669   5.9696   6.1078   6.2187   6.3950   6.5743   6.7717
     6.8391   6.8689   6.9950   7.2538

          k = 0.4000 0.2309 0.0000 ( 44748 PWs)   bands (ev):

   -10.2187  -5.8733  -5.2510  -4.9372  -4.5464  -4.2065  -4.1863  -4.0593
    -3.8184  -3.6990  -3.6210  -3.5689  -3.5329  -3.4358  -3.4055  -3.3457
    -3.2496  -3.2349  -3.2113  -3.1472  -3.1013  -3.0845  -3.0393  -3.0241
    -2.9979  -2.9719  -2.9356  -2.9177  -2.8561  -2.8325  -2.6323  -2.6209
    -2.5976  -2.5868  -2.5118  -2.4721  -2.3893  -2.3686  -2.3522  -2.3318
    -2.2692  -2.1999  -2.1639  -2.1087  -2.0658  -2.0280  -1.9952  -1.9652
    -1.9349  -1.9018  -1.8680  -1.8498  -1.8281  -1.8053  -1.6991  -1.6678
    -1.6499  -1.5940  -1.5527  -1.4920  -1.4414  -1.4361  -1.4162  -1.4013
    -1.2839  -1.2496  -1.2457  -1.2102  -1.1824  -1.1310  -1.1109  -1.0900
    -1.0232  -0.9833  -0.9580  -0.9226  -0.8829  -0.8775  -0.8196  -0.8041
    -0.7791  -0.7587  -0.7396  -0.7152  -0.7057  -0.6924  -0.6836  -0.6575
    -0.6376  -0.5974  -0.5421  -0.5375  -0.5197  -0.4868  -0.4597  -0.4250
    -0.4016  -0.3728  -0.3387  -0.3146  -0.2858  -0.2707  -0.2544  -0.2119
    -0.1866  -0.1467  -0.0940  -0.0544  -0.0411  -0.0162   0.0262   0.0599
     0.1180   0.1843   0.2231   0.2501   0.2634   0.3043   0.3538   0.3673
     0.3911   0.4101   0.4419   0.4645   0.4759   0.4966   0.5120   0.5163
     0.5413   0.6088   0.6546   0.6683   0.7138   0.7451   0.7987   0.8388
     0.8784   0.9422   0.9616   1.0245   1.0510   1.1016   1.1502   1.1818
     1.2347   1.2470   1.2835   1.3061   1.3220   1.3351   1.3824   1.3944
     1.4097   1.4798   1.4993   1.5389   1.5609   1.5770   1.5896   1.6440
     1.7049   1.7436   1.7935   1.8361   1.8666   1.9103   1.9686   1.9761
     1.9949   2.0047   2.0251   2.0607   2.1094   2.1225   2.1399   2.1727
     2.2617   2.2794   2.3004   2.3168   2.3231   2.3438   2.3824   2.4144
     2.5259   2.5580   2.5763   2.5839   2.6021   2.6787   2.8165   2.8693
     2.9903   3.1379   3.2980   3.6000   3.6065   3.7442   3.8699   3.9329
     4.2557   4.3270   4.4872   4.6317   4.8808   4.9209   5.0138   5.0746
     5.1107   5.3052   5.4248   5.8021   5.8649   6.0802   6.2469   6.6720
     6.7179   7.1865   7.2695   7.3943

          k = 0.4000-0.6928 0.0000 ( 44692 PWs)   bands (ev):

   -10.2170  -5.4983  -5.4676  -4.9494  -4.8055  -4.3426  -4.1540  -3.8050
    -3.7143  -3.6517  -3.5570  -3.4903  -3.4241  -3.4040  -3.3617  -3.3061
    -3.2548  -3.1983  -3.1944  -3.1748  -3.1238  -3.1036  -3.0868  -3.0371
    -2.9755  -2.9704  -2.9578  -2.9268  -2.8520  -2.8278  -2.7190  -2.6701
    -2.6441  -2.5891  -2.5568  -2.5275  -2.5093  -2.3906  -2.3539  -2.3205
    -2.2463  -2.1983  -2.1493  -2.1164  -2.0942  -2.0154  -1.9684  -1.9458
    -1.8899  -1.8334  -1.7902  -1.7774  -1.7323  -1.6886  -1.6499  -1.6347
    -1.6118  -1.5717  -1.5556  -1.5228  -1.5053  -1.4885  -1.4674  -1.4351
    -1.3938  -1.3879  -1.3225  -1.2734  -1.2401  -1.1957  -1.1422  -1.0908
    -1.0798  -1.0623  -1.0236  -1.0131  -0.9800  -0.9296  -0.8918  -0.8697
    -0.8527  -0.8269  -0.8030  -0.7679  -0.6952  -0.6654  -0.6476  -0.6389
    -0.6163  -0.5710  -0.5329  -0.4864  -0.4529  -0.4324  -0.4195  -0.3906
    -0.3813  -0.3639  -0.3420  -0.3391  -0.3043  -0.2746  -0.2519  -0.2268
    -0.2195  -0.2021  -0.1938  -0.1799  -0.1505  -0.1331  -0.0928   0.0314
     0.0943   0.1313   0.1482   0.2023   0.2687   0.3041   0.3186   0.3453
     0.3579   0.3852   0.4105   0.4487   0.4585   0.4935   0.5335   0.5688
     0.5856   0.6545   0.6739   0.6902   0.7250   0.7533   0.8426   0.8869
     0.9168   0.9471   0.9910   1.0170   1.0447   1.0604   1.0943   1.1054
     1.1324   1.1479   1.2159   1.2364   1.2596   1.2705   1.3172   1.3329
     1.3768   1.3886   1.4416   1.5059   1.5943   1.6222   1.6824   1.7462
     1.7882   1.8056   1.8481   1.8668   1.9286   1.9415   1.9882   2.0272
     2.0659   2.0921   2.1250   2.1406   2.1571   2.2120   2.2324   2.2726
     2.2922   2.3010   2.3214   2.3579   2.3676   2.3868   2.4506   2.4724
     2.5274   2.5783   2.5936   2.6186   2.6576   2.6917   2.7265   2.8415
     3.2376   3.4695   3.6997   3.7748   3.8670   4.0059   4.0545   4.0706
     4.2806   4.4474   4.6253   4.8042   4.8943   4.9423   5.2454   5.2745
     5.4618   5.5064   5.6131   5.6674   5.7750   5.9082   6.1193   6.1541
     6.4719   6.7494   6.8330   6.8974

          k = 0.4000-0.4619 0.0000 ( 44692 PWs)   bands (ev):

   -10.2170  -5.4976  -5.4679  -4.9493  -4.8062  -4.3427  -4.1523  -3.8070
    -3.7131  -3.6518  -3.5570  -3.4891  -3.4245  -3.4063  -3.3613  -3.3057
    -3.2524  -3.2047  -3.1845  -3.1775  -3.1248  -3.1039  -3.0861  -3.0374
    -2.9755  -2.9710  -2.9590  -2.9259  -2.8527  -2.8260  -2.7207  -2.6686
    -2.6449  -2.5902  -2.5541  -2.5289  -2.5097  -2.3935  -2.3520  -2.3198
    -2.2476  -2.1975  -2.1505  -2.1164  -2.0929  -2.0154  -1.9693  -1.9465
    -1.8871  -1.8385  -1.7925  -1.7753  -1.7331  -1.6872  -1.6502  -1.6363
    -1.6130  -1.5712  -1.5536  -1.5231  -1.5051  -1.4865  -1.4684  -1.4360
    -1.3956  -1.3871  -1.3219  -1.2730  -1.2429  -1.1953  -1.1404  -1.0909
    -1.0806  -1.0629  -1.0232  -1.0132  -0.9786  -0.9305  -0.8917  -0.8695
    -0.8551  -0.8261  -0.8038  -0.7693  -0.6961  -0.6641  -0.6471  -0.6383
    -0.6177  -0.5681  -0.5343  -0.4863  -0.4525  -0.4335  -0.4171  -0.3931
    -0.3794  -0.3603  -0.3409  -0.3369  -0.3017  -0.2731  -0.2518  -0.2295
    -0.2158  -0.2007  -0.1939  -0.1841  -0.1519  -0.1329  -0.0935   0.0341
     0.0951   0.1289   0.1527   0.1976   0.2718   0.3043   0.3188   0.3474
     0.3592   0.3855   0.4059   0.4489   0.4573   0.4938   0.5323   0.5682
     0.5843   0.6538   0.6762   0.6902   0.7253   0.7523   0.8433   0.8883
     0.9186   0.9468   0.9926   1.0164   1.0460   1.0554   1.0918   1.1051
     1.1339   1.1491   1.2153   1.2357   1.2589   1.2703   1.3172   1.3335
     1.3763   1.3905   1.4445   1.5050   1.5955   1.6246   1.6826   1.7452
     1.7878   1.8053   1.8462   1.8684   1.9280   1.9411   1.9877   2.0269
     2.0664   2.0938   2.1237   2.1410   2.1589   2.2127   2.2309   2.2735
     2.2921   2.3010   2.3219   2.3571   2.3682   2.3857   2.4513   2.4720
     2.5265   2.5765   2.5910   2.6186   2.6573   2.6910   2.7263   2.8416
     3.2388   3.4684   3.6995   3.7746   3.8664   4.0077   4.0559   4.0704
     4.2805   4.4485   4.6246   4.8050   4.8924   4.9414   5.2433   5.2733
     5.4652   5.5049   5.6127   5.6607   5.7787   5.9083   6.1187   6.1541
     6.4727   6.7494   6.8329   6.8985

     the Fermi energy is     2.3698 ev

!    total energy              =  -27774.47197075 Ry
     total all-electron energy =  -1326719.001485 Ry
     estimated scf accuracy    <       0.00000039 Ry
     smearing contrib. (-TS)   =       0.00556048 Ry
     internal energy E=F+TS    =  -27774.47753123 Ry

     The total energy is F=E-TS. E is the sum of the following terms:
     one-electron contribution =  -22919.74425895 Ry
     hartree contribution      =   11766.25014857 Ry
     xc contribution           =    -895.68371979 Ry
     ewald contribution        =    9755.29064625 Ry
     one-center paw contrib.   =  -25480.59034731 Ry

     convergence has been achieved in  18 iterations

     negative rho (up, down):  3.393E-03 0.000E+00

     Forces acting on atoms (cartesian axes, Ry/au):

     atom    1 type  1   force =     0.00270429    0.00074977   -0.00593930
     atom    2 type  1   force =     0.00022723    0.00151658   -0.00449222
     atom    3 type  1   force =    -0.00163413    0.00259252   -0.00512404
     atom    4 type  1   force =     0.00211834   -0.00159751   -0.00484370
     atom    5 type  1   force =     0.00029407   -0.00041718   -0.00378962
     atom    6 type  1   force =    -0.00225860    0.00027190   -0.00437132
     atom    7 type  1   force =     0.00256009   -0.00403111   -0.00617288
     atom    8 type  1   force =    -0.00038464   -0.00307634   -0.00439874
     atom    9 type  1   force =    -0.00320691   -0.00250335   -0.00532355
     atom   10 type  1   force =     0.00309911    0.00246863    0.00872226
     atom   11 type  1   force =     0.00082434    0.00179810    0.00417138
     atom   12 type  1   force =    -0.00257741    0.00287440    0.00562279
     atom   13 type  1   force =     0.00206841    0.00148060    0.00065661
     atom   14 type  1   force =    -0.00001184    0.00164811    0.00099261
     atom   15 type  1   force =    -0.00229985    0.00336829    0.00164907
     atom   16 type  1   force =     0.00066305   -0.00134539    0.00539824
     atom   17 type  1   force =     0.00086932   -0.00040182    0.00491607
     atom   18 type  1   force =    -0.00311192    0.00437303   -0.00758188
     atom   19 type  1   force =    -0.00012838    0.00068100   -0.00039944
     atom   20 type  1   force =     0.00012672    0.00071110   -0.00038473
     atom   21 type  1   force =     0.00000528    0.00054707    0.00018216
     atom   22 type  1   force =    -0.00000342    0.00135593   -0.00119008
     atom   23 type  1   force =     0.00016415    0.00061749    0.00022188
     atom   24 type  1   force =    -0.00018141    0.00060826    0.00019268
     atom   25 type  1   force =     0.00013038    0.00066292   -0.00017546
     atom   26 type  1   force =    -0.00002082    0.00060369    0.00044010
     atom   27 type  1   force =    -0.00012673    0.00068151   -0.00023261
     atom   28 type  1   force =     0.00083143    0.00138865    0.00064866
     atom   29 type  1   force =    -0.00082918    0.00137343    0.00067753
     atom   30 type  1   force =    -0.00002216    0.00085913   -0.00014076
     atom   31 type  1   force =     0.00001237   -0.00164413   -0.00059877
     atom   32 type  1   force =     0.00003027    0.00088910    0.00043691
     atom   33 type  1   force =     0.00000405    0.00089314    0.00040489
     atom   34 type  1   force =    -0.00033075    0.00044127   -0.00064005
     atom   35 type  1   force =     0.00001449    0.00112945    0.00072057
     atom   36 type  1   force =     0.00034972    0.00045581   -0.00063467
     atom   37 type  2   force =     0.00003791   -0.02529263    0.01802641
     atom   38 type  3   force =    -0.00000688    0.00326858    0.00235296
     The non-local contrib.  to forces
     atom    1 type  1   force =     0.00225106    0.00145548   -0.01766557
     atom    2 type  1   force =     0.00062664    0.00200983   -0.01826923
     atom    3 type  1   force =    -0.00094163    0.00204175   -0.01756329
     atom    4 type  1   force =     0.00191032   -0.00014189   -0.01750020
     atom    5 type  1   force =     0.00032252   -0.00005063   -0.01706959
     atom    6 type  1   force =    -0.00184863    0.00022732   -0.01619886
     atom    7 type  1   force =     0.00006756   -0.00132644   -0.01766836
     atom    8 type  1   force =    -0.00052805   -0.00123845   -0.01563764
     atom    9 type  1   force =    -0.00050424   -0.00049912   -0.01732802
     atom   10 type  1   force =     0.00184981    0.00319131    0.00074201
     atom   11 type  1   force =     0.00008284    0.00430662   -0.00001763
     atom   12 type  1   force =    -0.00062490    0.00482233    0.00042174
     atom   13 type  1   force =     0.00187651   -0.00028735   -0.00089045
     atom   14 type  1   force =     0.00012357    0.00157310   -0.00190159
     atom   15 type  1   force =    -0.00221138    0.00032832   -0.00039672
     atom   16 type  1   force =     0.00262811    0.00048132    0.00116710
     atom   17 type  1   force =    -0.00205638    0.00062080    0.00122862
     atom   18 type  1   force =    -0.00211254    0.00302845    0.00357191
     atom   19 type  1   force =     0.00061814    0.00316998    0.01129615
     atom   20 type  1   force =    -0.00076647    0.00332519    0.01179608
     atom   21 type  1   force =     0.00008423    0.00361816    0.00503013
     atom   22 type  1   force =     0.00001417   -0.00098262    0.00508629
     atom   23 type  1   force =     0.00176514   -0.00109896    0.00510300
     atom   24 type  1   force =    -0.00185614   -0.00122508    0.00540742
     atom   25 type  1   force =    -0.00659790   -0.00214816   -0.00527841
     atom   26 type  1   force =    -0.00019077    0.00040942    0.01161305
     atom   27 type  1   force =     0.00671932   -0.00217171   -0.00458200
     atom   28 type  1   force =     0.03868425    0.01744583   -0.04003882
     atom   29 type  1   force =    -0.03891654    0.01735774   -0.04023168
     atom   30 type  1   force =    -0.00004024   -0.00046882    0.01277647
     atom   31 type  1   force =    -0.00010895   -0.06171613   -0.00138734
     atom   32 type  1   force =    -0.01758746   -0.00735924    0.01846134
     atom   33 type  1   force =     0.01739166   -0.00728098    0.01847655
     atom   34 type  1   force =    -0.00367849   -0.00585185    0.01528686
     atom   35 type  1   force =    -0.00005945    0.01203867    0.01798141
     atom   36 type  1   force =     0.00361190   -0.00587406    0.01526385
     atom   37 type  2   force =    -0.00001571   -0.03278972   -0.07307139
     atom   38 type  3   force =    -0.00028711    0.05483597   -0.10505046
     The ionic contribution  to forces
     atom    1 type  1   force =     0.14162682    0.07320150  -96.91766386
     atom    2 type  1   force =     0.01230533    0.13633479  -96.85609654
     atom    3 type  1   force =    -0.13349789    0.21325897  -96.87586268
     atom    4 type  1   force =     0.13164040   -0.07016260  -96.88124632
     atom    5 type  1   force =     0.00896258   -0.00108524  -96.82644820
     atom    6 type  1   force =    -0.13366632    0.07705474  -96.83785939
     atom    7 type  1   force =     0.12744594   -0.21039301  -96.89096109
     atom    8 type  1   force =     0.00532137   -0.14241787  -96.82324597
     atom    9 type  1   force =    -0.14814112   -0.06819016  -96.84101137
     atom   10 type  1   force =     0.14064421    0.00935683  -33.46803045
     atom   11 type  1   force =    -0.04964745    0.07603000  -33.56207558
     atom   12 type  1   force =    -0.07122025    0.13392113  -33.48478154
     atom   13 type  1   force =     0.13943383   -0.13397218  -33.62883253
     atom   14 type  1   force =    -0.01398017    0.03852780  -33.68287711
     atom   15 type  1   force =    -0.12978923   -0.00263399  -33.57525490
     atom   16 type  1   force =     0.16441603   -0.06719989  -33.41216071
     atom   17 type  1   force =    -0.05634879    0.00906452  -33.43568971
     atom   18 type  1   force =    -0.12836802    0.13228945  -33.36887432
     atom   19 type  1   force =     0.00023730   -0.14825854   30.57996576
     atom   20 type  1   force =     0.01466448   -0.16904640   30.47410293
     atom   21 type  1   force =    -0.01767324   -0.08800936   29.91105951
     atom   22 type  1   force =    -0.00876622    0.14969033   29.63319194
     atom   23 type  1   force =     0.00335356    0.10115706   29.96615063
     atom   24 type  1   force =     0.00163879    0.12448903   29.94262845
     atom   25 type  1   force =    -0.01943351    0.01640113   30.95490351
     atom   26 type  1   force =     0.02608499    0.06160938   31.17114184
     atom   27 type  1   force =    -0.00222576    0.02146584   30.83303638
     atom   28 type  1   force =    -2.99833385   -2.00060888   93.73802558
     atom   29 type  1   force =     3.00207503   -2.00247352   93.68494100
     atom   30 type  1   force =    -0.00837521   -0.07556709   94.05096529
     atom   31 type  1   force =     0.00092474    3.10571924   90.40731817
     atom   32 type  1   force =     0.36833992    0.22894088   93.56330045
     atom   33 type  1   force =    -0.37275383    0.23524095   93.58514008
     atom   34 type  1   force =     0.00220925    0.05156451   94.12773857
     atom   35 type  1   force =     0.00272978   -0.31913513   93.69143443
     atom   36 type  1   force =    -0.00640588    0.05852725   94.09697886
     atom   37 type  2   force =     0.00100960    0.72354179   12.89893137
     atom   38 type  3   force =     0.00356280   -0.27823326   46.05801750
     The local contribution  to forces
     atom    1 type  1   force =    -0.14053619   -0.07369879   96.91237076
     atom    2 type  1   force =    -0.01296722   -0.13642501   96.85292753
     atom    3 type  1   force =     0.13255027   -0.21226727   96.87115214
     atom    4 type  1   force =    -0.13107962    0.06832620   96.87691279
     atom    5 type  1   force =    -0.00904674    0.00077751   96.82286598
     atom    6 type  1   force =     0.13299783   -0.07685794   96.83281759
     atom    7 type  1   force =    -0.12449449    0.20709435   96.88532532
     atom    8 type  1   force =    -0.00525945    0.14031029   96.81769159
     atom    9 type  1   force =     0.14496925    0.06587802   96.83593852
     atom   10 type  1   force =    -0.13908582   -0.01015558   33.47593273
     atom   11 type  1   force =     0.05020488   -0.07827925   33.56584763
     atom   12 type  1   force =     0.06926564   -0.13552342   33.48977050
     atom   13 type  1   force =    -0.13884312    0.13562757   33.62974942
     atom   14 type  1   force =     0.01381623   -0.03813886   33.68498158
     atom   15 type  1   force =     0.12931160    0.00576028   33.57681347
     atom   16 type  1   force =    -0.16592712    0.06517764   33.41644942
     atom   17 type  1   force =     0.05897734   -0.01017029   33.43937023
     atom   18 type  1   force =     0.12708862   -0.13052005   33.35798557
     atom   19 type  1   force =    -0.00052979    0.14545183  -30.58833058
     atom   20 type  1   force =    -0.01426438    0.16617416  -30.48295771
     atom   21 type  1   force =     0.01763466    0.08500375  -29.91416094
     atom   22 type  1   force =     0.00879740   -0.14725983  -29.63667075
     atom   23 type  1   force =    -0.00508184   -0.09909099  -29.96936025
     atom   24 type  1   force =     0.00011124   -0.12238637  -29.94611914
     atom   25 type  1   force =     0.02630520   -0.01351441  -30.94741632
     atom   26 type  1   force =    -0.02598389   -0.06086159  -31.17904882
     atom   27 type  1   force =    -0.00466066   -0.01852764  -30.82624791
     atom   28 type  1   force =     2.94596220    1.97516421  -93.69207189
     atom   29 type  1   force =    -2.94948156    1.97711371  -93.63879139
     atom   30 type  1   force =     0.00842692    0.07728740  -94.04791114
     atom   31 type  1   force =    -0.00079656   -3.03114650  -90.40447713
     atom   32 type  1   force =    -0.35278151   -0.22172508  -93.56535627
     atom   33 type  1   force =     0.35741240   -0.22814486  -93.58723803
     atom   34 type  1   force =     0.00159584   -0.04525179  -94.12784496
     atom   35 type  1   force =    -0.00270091    0.31036643  -93.69294886
     atom   36 type  1   force =     0.00273473   -0.05218804  -94.09704212
     atom   37 type  2   force =    -0.00095227   -0.71604989  -12.80788351
     atom   38 type  3   force =    -0.00339126    0.22745383  -45.95345438
     The core correction contribution to forces
     atom    1 type  1   force =    -0.00045603   -0.00025652    0.01747560
     atom    2 type  1   force =     0.00002181   -0.00044356    0.01734030
     atom    3 type  1   force =     0.00032813   -0.00038606    0.01750992
     atom    4 type  1   force =    -0.00038083    0.00026396    0.01735657
     atom    5 type  1   force =     0.00005492    0.00008228    0.01724721
     atom    6 type  1   force =     0.00029380   -0.00007314    0.01724759
     atom    7 type  1   force =    -0.00024647    0.00055387    0.01757660
     atom    8 type  1   force =     0.00004046    0.00033308    0.01727551
     atom    9 type  1   force =     0.00030437    0.00020813    0.01744247
     atom   10 type  1   force =    -0.00039511   -0.00010057    0.00055933
     atom   11 type  1   force =     0.00007885   -0.00018652    0.00093664
     atom   12 type  1   force =     0.00020514   -0.00035776    0.00073760
     atom   13 type  1   force =    -0.00030471    0.00016886    0.00112862
     atom   14 type  1   force =     0.00000900   -0.00009603    0.00129116
     atom   15 type  1   force =     0.00032347   -0.00014493    0.00097574
     atom   16 type  1   force =    -0.00025515    0.00020165    0.00046227
     atom   17 type  1   force =    -0.00001240    0.00004571    0.00050884
     atom   18 type  1   force =     0.00040234   -0.00049800    0.00030558
     atom   19 type  1   force =    -0.00043249    0.00022606   -0.00326805
     atom   20 type  1   force =     0.00043297    0.00024636   -0.00323557
     atom   21 type  1   force =     0.00000769    0.00002951   -0.00162718
     atom   22 type  1   force =     0.00000389   -0.00011756   -0.00263716
     atom   23 type  1   force =     0.00021637   -0.00020847   -0.00165233
     atom   24 type  1   force =    -0.00020528   -0.00021146   -0.00167610
     atom   25 type  1   force =     0.00006307   -0.00011117   -0.00227743
     atom   26 type  1   force =    -0.00002361   -0.00063822   -0.00328455
     atom   27 type  1   force =    -0.00006827   -0.00011663   -0.00226431
     atom   28 type  1   force =     0.01438616    0.00923446   -0.00549923
     atom   29 type  1   force =    -0.01438939    0.00925289   -0.00542895
     atom   30 type  1   force =    -0.00000327   -0.00041033   -0.01601050
     atom   31 type  1   force =     0.00001238   -0.01434635   -0.00228859
     atom   32 type  1   force =     0.00210345    0.00107998   -0.01604931
     atom   33 type  1   force =    -0.00210146    0.00108874   -0.01606771
     atom   34 type  1   force =    -0.00040754    0.00001939   -0.01592734
     atom   35 type  1   force =     0.00000959   -0.00212298   -0.01590904
     atom   36 type  1   force =     0.00040098    0.00002227   -0.01590717
     atom   37 type  2   force =     0.00000000    0.00000000    0.00000000
     atom   38 type  3   force =     0.00011424   -0.00084236    0.00273656
     The Hubbard contrib.    to forces
     atom    1 type  1   force =     0.00000000    0.00000000    0.00000000
     atom    2 type  1   force =     0.00000000    0.00000000    0.00000000
     atom    3 type  1   force =     0.00000000    0.00000000    0.00000000
     atom    4 type  1   force =     0.00000000    0.00000000    0.00000000
     atom    5 type  1   force =     0.00000000    0.00000000    0.00000000
     atom    6 type  1   force =     0.00000000    0.00000000    0.00000000
     atom    7 type  1   force =     0.00000000    0.00000000    0.00000000
     atom    8 type  1   force =     0.00000000    0.00000000    0.00000000
     atom    9 type  1   force =     0.00000000    0.00000000    0.00000000
     atom   10 type  1   force =     0.00000000    0.00000000    0.00000000
     atom   11 type  1   force =     0.00000000    0.00000000    0.00000000
     atom   12 type  1   force =     0.00000000    0.00000000    0.00000000
     atom   13 type  1   force =     0.00000000    0.00000000    0.00000000
     atom   14 type  1   force =     0.00000000    0.00000000    0.00000000
     atom   15 type  1   force =     0.00000000    0.00000000    0.00000000
     atom   16 type  1   force =     0.00000000    0.00000000    0.00000000
     atom   17 type  1   force =     0.00000000    0.00000000    0.00000000
     atom   18 type  1   force =     0.00000000    0.00000000    0.00000000
     atom   19 type  1   force =     0.00000000    0.00000000    0.00000000
     atom   20 type  1   force =     0.00000000    0.00000000    0.00000000
     atom   21 type  1   force =     0.00000000    0.00000000    0.00000000
     atom   22 type  1   force =     0.00000000    0.00000000    0.00000000
     atom   23 type  1   force =     0.00000000    0.00000000    0.00000000
     atom   24 type  1   force =     0.00000000    0.00000000    0.00000000
     atom   25 type  1   force =     0.00000000    0.00000000    0.00000000
     atom   26 type  1   force =     0.00000000    0.00000000    0.00000000
     atom   27 type  1   force =     0.00000000    0.00000000    0.00000000
     atom   28 type  1   force =     0.00000000    0.00000000    0.00000000
     atom   29 type  1   force =     0.00000000    0.00000000    0.00000000
     atom   30 type  1   force =     0.00000000    0.00000000    0.00000000
     atom   31 type  1   force =     0.00000000    0.00000000    0.00000000
     atom   32 type  1   force =     0.00000000    0.00000000    0.00000000
     atom   33 type  1   force =     0.00000000    0.00000000    0.00000000
     atom   34 type  1   force =     0.00000000    0.00000000    0.00000000
     atom   35 type  1   force =     0.00000000    0.00000000    0.00000000
     atom   36 type  1   force =     0.00000000    0.00000000    0.00000000
     atom   37 type  2   force =     0.00000000    0.00000000    0.00000000
     atom   38 type  3   force =     0.00000000    0.00000000    0.00000000
     The SCF correction term to forces
     atom    1 type  1   force =    -0.00000000    0.00000000   -0.00000000
     atom    2 type  1   force =     0.00000000    0.00000000   -0.00000000
     atom    3 type  1   force =    -0.00000000   -0.00000000   -0.00000000
     atom    4 type  1   force =     0.00000000    0.00000000   -0.00000000
     atom    5 type  1   force =     0.00000000   -0.00000000   -0.00000000
     atom    6 type  1   force =    -0.00000000   -0.00000000   -0.00000000
     atom    7 type  1   force =    -0.00000000    0.00000000   -0.00000000
     atom    8 type  1   force =     0.00000000   -0.00000000   -0.00000000
     atom    9 type  1   force =     0.00000000    0.00000000   -0.00000000
     atom   10 type  1   force =     0.00000000    0.00000000   -0.00000000
     atom   11 type  1   force =     0.00000000   -0.00000000   -0.00000000
     atom   12 type  1   force =    -0.00000000    0.00000000   -0.00000000
     atom   13 type  1   force =    -0.00000000   -0.00000000   -0.00000000
     atom   14 type  1   force =     0.00000000   -0.00000000   -0.00000000
     atom   15 type  1   force =     0.00000000    0.00000000   -0.00000000
     atom   16 type  1   force =    -0.00000000   -0.00000000   -0.00000000
     atom   17 type  1   force =     0.00000000    0.00000000   -0.00000000
     atom   18 type  1   force =    -0.00000000    0.00000000   -0.00000000
     atom   19 type  1   force =    -0.00001851    0.00009170   -0.00011917
     atom   20 type  1   force =     0.00006315    0.00001182   -0.00014691
     atom   21 type  1   force =    -0.00004502   -0.00009496   -0.00017581
     atom   22 type  1   force =    -0.00004962    0.00002566   -0.00021684
     atom   23 type  1   force =    -0.00008605   -0.00014111   -0.00007562
     atom   24 type  1   force =     0.00013301   -0.00005784   -0.00010439
     atom   25 type  1   force =    -0.00020346    0.00003557   -0.00016325
     atom   26 type  1   force =     0.00009549    0.00008473   -0.00003786
     atom   27 type  1   force =     0.00011168    0.00003167   -0.00023122
     atom   28 type  1   force =     0.00013569    0.00015305    0.00017657
     atom   29 type  1   force =    -0.00011370    0.00012264    0.00013211
     atom   30 type  1   force =    -0.00002733    0.00001800   -0.00001732
     atom   31 type  1   force =    -0.00001621   -0.00015435    0.00017967
     atom   32 type  1   force =    -0.00004109   -0.00004741    0.00002425
     atom   33 type  1   force =     0.00005831   -0.00001069    0.00003755
     atom   34 type  1   force =    -0.00004678   -0.00003896    0.00005037
     atom   35 type  1   force =     0.00003852   -0.00001751    0.00010617
     atom   36 type  1   force =     0.00001101   -0.00003158    0.00001546
     atom   37 type  2   force =    -0.00000068    0.00000522   -0.00000650
     atom   38 type  3   force =    -0.00000251    0.00005442    0.00004728

     Total force =     0.031676     Total SCF correction =     0.000756

     Writing all to output data dir ./pwscf.save/

     init_run     :     21.31s CPU     21.69s WALL (       1 calls)
     electrons    :    488.37s CPU    507.92s WALL (       1 calls)
     forces       :      4.09s CPU      4.56s WALL (       1 calls)

     Called by init_run:
     wfcinit      :     16.39s CPU     16.63s WALL (       1 calls)
     potinit      :      3.24s CPU      3.33s WALL (       1 calls)
     hinit0       :      1.06s CPU      1.08s WALL (       1 calls)

     Called by electrons:
     c_bands      :    387.90s CPU    402.96s WALL (      19 calls)
     sum_band     :     63.79s CPU     65.18s WALL (      19 calls)
     v_of_rho     :      8.68s CPU     10.54s WALL (      19 calls)
     newd         :      2.62s CPU      3.24s WALL (      19 calls)
     PAW_pot      :      4.34s CPU      4.45s WALL (      19 calls)
     mix_rho      :     23.10s CPU     23.46s WALL (      19 calls)
     vdW_kernel   :      1.69s CPU      1.70s WALL (       1 calls)

     Called by c_bands:
     init_us_2    :      2.74s CPU      2.88s WALL (     520 calls)
     init_us_2:cp :      2.74s CPU      2.88s WALL (     520 calls)
     cegterg      :    380.26s CPU    394.85s WALL (     247 calls)

     Called by *egterg:
     cdiaghg      :     82.98s CPU     84.00s WALL (    1345 calls)
     h_psi        :    193.87s CPU    204.97s WALL (    1371 calls)
     s_psi        :     14.73s CPU     15.06s WALL (    1371 calls)
     g_psi        :      0.46s CPU      0.47s WALL (    1111 calls)

     Called by h_psi:
     h_psi:calbec :     28.68s CPU     30.12s WALL (    1371 calls)
     vloc_psi     :    149.00s CPU    158.27s WALL (    1371 calls)
     add_vuspsi   :     15.04s CPU     15.41s WALL (    1371 calls)

     General routines
     calbec       :     41.12s CPU     42.76s WALL (    1670 calls)
     fft          :      7.71s CPU      9.48s WALL (    1257 calls)
     ffts         :     11.47s CPU     11.64s WALL (    4845 calls)
     fftw         :    173.45s CPU    180.53s WALL (  322824 calls)
     interpolate  :      0.60s CPU      0.66s WALL (      19 calls)

     Parallel routines

     PWSCF        :   8m35.88s CPU   8m58.98s WALL


   This run was terminated on:  13:10:42   4Feb2025            

=------------------------------------------------------------------------------=
   JOB DONE.
=------------------------------------------------------------------------------=
