
     Program PWSCF v.7.1 starts on 14Dec2025 at  9:30: 4 
        Git branch: heads/qe-7.1
        Last git commit: 48ba0178f8fede6d020eb786884699a9f063f55d-dirty
        Last git commit date: Fri Jan 27 14:22:33 2023 +0000
        Last git commit subject: Merge branch 'fix_hubbard' into 'develop'

     This program is part of the open-source Quantum ESPRESSO suite
     for quantum simulation of materials; please cite
         "P. Giannozzi et al., J. Phys.:Condens. Matter 21 395502 (2009);
         "P. Giannozzi et al., J. Phys.:Condens. Matter 29 465901 (2017);
         "P. Giannozzi et al., J. Chem. Phys. 152 154105 (2020);
          URL http://www.quantum-espresso.org", 
     in publications or presentations arising from this work. More details at
     http://www.quantum-espresso.org/quote

     Parallel version (MPI), running on    96 processors

     MPI processes distributed on     2 nodes
     29849 MiB available memory on the printing compute node when the environment starts

     Reading input from espresso.pwi
Warning: card &CELL ignored
Warning: card / ignored
Warning: card &FCP ignored
Warning: card / ignored
Warning: card &RISM ignored
Warning: card / ignored

     Current dimensions of program PWSCF are:
     Max number of different atomic species (ntypx) = 10
     Max number of k-points (npk) =  40000
     Max angular momentum in pseudopotentials (lmaxx) =  4
     file Co.pbe-n-kjpaw_psl.1.0.0.UPF: wavefunction(s)  4S 3D renormalized
     file C.pbe-n-kjpaw_psl.1.0.0.UPF: wavefunction(s)  2S 2P renormalized
     file O.pbe-nl-kjpaw_psl.1.0.0.UPF: wavefunction(s)  2S 2P renormalized
     file H.pbe-kjpaw_psl.1.0.0.UPF: wavefunction(s)  1S renormalized

     **************************************************************************
     Initializing libbeef V0.1.2 with the BEEF-vdW functional.
     Citation: Wellendorff et al., PRB 85, 235149 (2012).
     **************************************************************************


     IMPORTANT: XC functional enforced from input :
     Exchange-correlation= BEEF-VDW
                           (   1   4  43  14   2   0   0)
     Any further DFT definition will be discarded
     Please, verify this is what you really want


     R & G space division:  proc/nbgrp/npool/nimage =      96
     Subspace diagonalization in iterative solution of the eigenvalue problem:
     one sub-group per band group will be used
     custom distributed-memory algorithm (size of sub-group:  2*  2 procs)


     Parallelization info
     --------------------
     sticks:   dense  smooth     PW     G-vecs:    dense   smooth      PW
     Min          43      28      7                 7829     4248     595
     Max          44      29      8                 7845     4281     630
     Sum        4153    2773    757               752179   409445   59217

     Using Slab Decomposition



     bravais-lattice index     =            0
     lattice parameter (alat)  =      14.1729  a.u.
     unit-cell volume          =    8574.3059 (a.u.)^3
     number of atoms/cell      =           39
     number of atomic types    =            4
     number of electrons       =       335.00
     number of Kohn-Sham states=          202
     kinetic-energy cutoff     =      50.0000  Ry
     charge density cutoff     =     300.0000  Ry
     scf convergence threshold =      1.0E-08
     mixing beta               =       0.7000
     number of iterations used =            8  local-TF  mixing
     Exchange-correlation= BEEF-VDW
                           (   1   4  43  14   2   0   0)

     celldm(1)=  14.172946  celldm(2)=   0.000000  celldm(3)=   0.000000
     celldm(4)=   0.000000  celldm(5)=   0.000000  celldm(6)=   0.000000

     crystal axes: (cart. coord. in units of alat)
               a(1) = (   1.000000   0.000000   0.000000 )  
               a(2) = (   0.500000   0.866025   0.000000 )  
               a(3) = (   0.000000   0.000000   3.477667 )  

     reciprocal axes: (cart. coord. in units 2 pi/alat)
               b(1) = (  1.000000 -0.577350  0.000000 )  
               b(2) = (  0.000000  1.154701  0.000000 )  
               b(3) = (  0.000000  0.000000  0.287549 )  


     PseudoPot. # 1 for Co read from file:
     /users/kbadger1/espresso/pseudo/pslibrary.1.0.0/pbe/PSEUDOPOTENTIALS/Co.pbe-n-kjpaw_psl.1.0.0.UPF
     MD5 check sum: 88af6ec42553d4236c267fdfcb472151
     Pseudo is Projector augmented-wave + core cor, Zval =  9.0
     Generated using 'atomic' code by A. Dal Corso  v.7.0
     Shape of augmentation charge: PSQ
     Using radial grid of 1193 points,  6 beta functions with: 
                l(1) =   0
                l(2) =   0
                l(3) =   1
                l(4) =   1
                l(5) =   2
                l(6) =   2
     Q(r) pseudized with 0 coefficients 


     PseudoPot. # 2 for C  read from file:
     /users/kbadger1/espresso/pseudo/pslibrary.1.0.0/pbe/PSEUDOPOTENTIALS/C.pbe-n-kjpaw_psl.1.0.0.UPF
     MD5 check sum: 6408e75cdba28732cea38a4db8498ce4
     Pseudo is Projector augmented-wave + core cor, Zval =  4.0
     Generated using 'atomic' code by A. Dal Corso  v.7.0
     Shape of augmentation charge: PSQ
     Using radial grid of 1073 points,  4 beta functions with: 
                l(1) =   0
                l(2) =   0
                l(3) =   1
                l(4) =   1
     Q(r) pseudized with 0 coefficients 


     PseudoPot. # 3 for O  read from file:
     /users/kbadger1/espresso/pseudo/pslibrary.1.0.0/pbe/PSEUDOPOTENTIALS/O.pbe-nl-kjpaw_psl.1.0.0.UPF
     MD5 check sum: f0439fab3598ca4e468f064226030408
     Pseudo is Projector augmented-wave + core cor, Zval =  6.0
     Generated using 'atomic' code by A. Dal Corso  v.7.0
     Shape of augmentation charge: PSQ
     Using radial grid of 1095 points,  4 beta functions with: 
                l(1) =   0
                l(2) =   0
                l(3) =   1
                l(4) =   1
     Q(r) pseudized with 0 coefficients 


     PseudoPot. # 4 for H  read from file:
     /users/kbadger1/espresso/pseudo/pslibrary.1.0.0/pbe/PSEUDOPOTENTIALS/H.pbe-kjpaw_psl.1.0.0.UPF
     MD5 check sum: fe4c6fa958fa6d3815bf5d2419cbf1df
     Pseudo is Projector augmented-wave, Zval =  1.0
     Generated using 'atomic' code by A. Dal Corso  v.7.0
     Shape of augmentation charge: PSQ
     Using radial grid of  929 points,  2 beta functions with: 
                l(1) =   0
                l(2) =   0
     Q(r) pseudized with 0 coefficients 


     atomic species   valence    mass     pseudopotential
        Co             9.00    58.93319     Co( 1.00)
        C              4.00    12.01100     C ( 1.00)
        O              6.00    15.99900     O ( 1.00)
        H              1.00     1.00800     H ( 1.00)

     Starting magnetic structure 
     atomic species   magnetization
        Co           1.000
        C            1.000
        O            0.000
        H            0.000

     No symmetry found



   Cartesian axes

     site n.     atom                  positions (alat units)
         1           Co  tau(   1) = (   0.0000000   0.1924501   1.3333333  )
         2           Co  tau(   2) = (   0.3333333   0.1924501   1.3333333  )
         3           Co  tau(   3) = (   0.6666667   0.1924501   1.3333333  )
         4           Co  tau(   4) = (   0.1666667   0.4811252   1.3333333  )
         5           Co  tau(   5) = (   0.5000000   0.4811252   1.3333333  )
         6           Co  tau(   6) = (   0.8333333   0.4811252   1.3333333  )
         7           Co  tau(   7) = (   0.3333333   0.7698004   1.3333333  )
         8           Co  tau(   8) = (   0.6666667   0.7698004   1.3333333  )
         9           Co  tau(   9) = (   1.0000000   0.7698004   1.3333333  )
        10           Co  tau(  10) = (   0.0000000   0.0000000   1.6036667  )
        11           Co  tau(  11) = (   0.3333333   0.0000000   1.6036667  )
        12           Co  tau(  12) = (   0.6666667   0.0000000   1.6036667  )
        13           Co  tau(  13) = (   0.1666667   0.2886751   1.6036667  )
        14           Co  tau(  14) = (   0.5000000   0.2886751   1.6036667  )
        15           Co  tau(  15) = (   0.8333333   0.2886751   1.6036667  )
        16           Co  tau(  16) = (   0.3333333   0.5773503   1.6036667  )
        17           Co  tau(  17) = (   0.6666667   0.5773503   1.6036667  )
        18           Co  tau(  18) = (   1.0000000   0.5773503   1.6036667  )
        19           Co  tau(  19) = (   0.0000000   0.1924501   1.8740000  )
        20           Co  tau(  20) = (   0.3333333   0.1924501   1.8740000  )
        21           Co  tau(  21) = (   0.6666667   0.1924501   1.8740000  )
        22           Co  tau(  22) = (   0.1666667   0.4811252   1.8740000  )
        23           Co  tau(  23) = (   0.5000000   0.4811252   1.8740000  )
        24           Co  tau(  24) = (   0.8333333   0.4811252   1.8740000  )
        25           Co  tau(  25) = (   0.3333333   0.7698004   1.8740000  )
        26           Co  tau(  26) = (   0.6666667   0.7698004   1.8740000  )
        27           Co  tau(  27) = (   1.0000000   0.7698004   1.8740000  )
        28           Co  tau(  28) = (   0.0000000   0.0000000   2.1443333  )
        29           Co  tau(  29) = (   0.3333333   0.0000000   2.1443333  )
        30           Co  tau(  30) = (   0.6666667   0.0000000   2.1443333  )
        31           Co  tau(  31) = (   0.1666667   0.2886751   2.1443333  )
        32           Co  tau(  32) = (   0.5000000   0.2886751   2.1443333  )
        33           Co  tau(  33) = (   0.8333333   0.2886751   2.1443333  )
        34           Co  tau(  34) = (   0.3333333   0.5773503   2.1443333  )
        35           Co  tau(  35) = (   0.6666667   0.5773503   2.1443333  )
        36           Co  tau(  36) = (   1.0000000   0.5773503   2.1443333  )
        37           C   tau(  37) = (   0.1614697   0.0126883   2.3387109  )
        38           O   tau(  38) = (   0.1653061   0.0239776   2.4965772  )
        39           H   tau(  39) = (   0.5004471   0.0860482   2.2726887  )

     number of k points=    13  Marzari-Vanderbilt smearing, width (Ry)=  0.0010
                       cart. coord. in units 2pi/alat
        k(    1) = (   0.0000000   0.0000000   0.0000000), wk =   0.0400000
        k(    2) = (   0.0000000   0.2309401   0.0000000), wk =   0.0800000
        k(    3) = (   0.0000000   0.4618802   0.0000000), wk =   0.0800000
        k(    4) = (   0.2000000  -0.1154701   0.0000000), wk =   0.0800000
        k(    5) = (   0.2000000   0.1154701   0.0000000), wk =   0.0800000
        k(    6) = (   0.2000000   0.3464102   0.0000000), wk =   0.0800000
        k(    7) = (   0.2000000  -0.5773503   0.0000000), wk =   0.0800000
        k(    8) = (   0.2000000  -0.3464102   0.0000000), wk =   0.0800000
        k(    9) = (   0.4000000  -0.2309401   0.0000000), wk =   0.0800000
        k(   10) = (   0.4000000   0.0000000   0.0000000), wk =   0.0800000
        k(   11) = (   0.4000000   0.2309401   0.0000000), wk =   0.0800000
        k(   12) = (   0.4000000  -0.6928203   0.0000000), wk =   0.0800000
        k(   13) = (   0.4000000  -0.4618802   0.0000000), wk =   0.0800000

     Dense  grid:   752179 G-vectors     FFT dimensions: (  80,  80, 288)

     Smooth grid:   409445 G-vectors     FFT dimensions: (  64,  64, 225)

     Estimated max dynamical RAM per process >      99.02 MB

     Estimated total dynamical RAM >       9.28 GB
     Generating pointlists ...
     new r_m :   0.0936 (alat units)  1.3269 (a.u.) for type    1
     new r_m :   0.0653 (alat units)  0.9256 (a.u.) for type    2
     new r_m :   0.0653 (alat units)  0.9256 (a.u.) for type    3
     new r_m :   0.0936 (alat units)  1.3269 (a.u.) for type    4

     Initial potential from superposition of free atoms

     starting charge     334.9897, renormalised to     335.0000

     negative rho (up, down):  3.046E-03 4.482E-04


     %%%%%%%%%%%%%%%%%%%%%%%%%%%%%%%%%%%%%%%%%%%%%%%%%%%%%%%%%%%%%%%%%%%%%%%%
     %                                                                      %
     % You are using vdW-DF, which was implemented by the Thonhauser group. %
     % Please cite the following two papers that made this development      %
     % possible and the two reviews that describe the various versions:     %
     %                                                                      %
     %   T. Thonhauser et al., PRL 115, 136402 (2015).                      %
     %   T. Thonhauser et al., PRB 76, 125112 (2007).                       %
     %   K. Berland et al., Rep. Prog. Phys. 78, 066501 (2015).             %
     %   D.C. Langreth et al., J. Phys.: Condens. Matter 21, 084203 (2009). %
     %                                                                      %
     % If you are calculating stress with vdW-DF, please also cite:         %
     %                                                                      %
     %   R. Sabatini et al., J. Phys.: Condens. Matter 24, 424209 (2012).   %
     %   C.M. Frostenson et al., Electr. Struct. 4, 014001 (2022).          %
     %                                                                      %
     %%%%%%%%%%%%%%%%%%%%%%%%%%%%%%%%%%%%%%%%%%%%%%%%%%%%%%%%%%%%%%%%%%%%%%%%

     %%%%%%%%%%%%%%%%%%%%%%%%%%%%%%%%%%%%%%%%%%%%%%%%%%%%%%%%%%%%%%%%%%%%%%%%
     %                                                                      %
     %  vdW-DF NEWS:                                                        %
     %                                                                      %
     %  * vdW-DF3 is now available. DOI: 10.1021/acs.jctc.0c00471           %
     %    use with input_dft = 'vdW-DF3-opt1' or 'vdW-DF3-opt2'             %
     %                                                                      %
     %  * Unscreened and range-separated hybrid vdW-DF-cx functionals       %
     %    DOI: 10.1063/1.4986522 and 10.1088/1361-648X/ac2ad2               %
     %    use with input_dft = 'vdW-DF-cx0'    and 'vdW-DF-ahcx'            %
     %  * Unscreened and range-separated hybrid vdW-DF2-b86r functionals    %
     %    DOI: 10.1063/1.4986522 and DOI: 10.1103/PhysRevX.12.041003        %
     %    use with input_dft = 'vdW-DF2-br0' and 'vdW-DF2-ahbr'             %
     %                                                                      %
     %%%%%%%%%%%%%%%%%%%%%%%%%%%%%%%%%%%%%%%%%%%%%%%%%%%%%%%%%%%%%%%%%%%%%%%%


     Starting wfcs are  333 randomized atomic wfcs
     Checking if some PAW data can be deallocated... 

     total cpu time spent up to now is       12.4 secs

     per-process dynamical memory:   230.9 Mb

     Self-consistent Calculation

     iteration #  1     ecut=    50.00 Ry     beta= 0.70
     Davidson diagonalization with overlap
     ethr =  1.00E-02,  avg # of iterations =  2.0

     negative rho (up, down):  3.431E-05 7.791E-08

     total cpu time spent up to now is       34.7 secs

     total energy              =   -6053.13217320 Ry
     estimated scf accuracy    <      39.07223682 Ry

     total magnetization       =    69.00 Bohr mag/cell
     absolute magnetization    =    81.19 Bohr mag/cell

     iteration #  2     ecut=    50.00 Ry     beta= 0.70
     Davidson diagonalization with overlap
     ethr =  1.00E-02,  avg # of iterations =  1.0

     negative rho (up, down):  5.273E-06 1.961E-08

     total cpu time spent up to now is       48.8 secs

     total energy              =   -6052.71356674 Ry
     estimated scf accuracy    <      24.10701776 Ry

     total magnetization       =    69.00 Bohr mag/cell
     absolute magnetization    =    76.76 Bohr mag/cell

     iteration #  3     ecut=    50.00 Ry     beta= 0.70
     Davidson diagonalization with overlap
     ethr =  7.20E-03,  avg # of iterations =  1.5

     negative rho (up, down):  1.846E-08 0.000E+00

     total cpu time spent up to now is       67.5 secs

     total energy              =   -6055.17316938 Ry
     estimated scf accuracy    <      86.60381262 Ry

     total magnetization       =    66.12 Bohr mag/cell
     absolute magnetization    =    73.62 Bohr mag/cell

     iteration #  4     ecut=    50.00 Ry     beta= 0.70
     Davidson diagonalization with overlap
     ethr =  7.20E-03,  avg # of iterations =  1.0

     total cpu time spent up to now is       81.8 secs

     total energy              =   -6056.46922818 Ry
     estimated scf accuracy    <       5.25893916 Ry

     total magnetization       =    60.34 Bohr mag/cell
     absolute magnetization    =    70.19 Bohr mag/cell

     iteration #  5     ecut=    50.00 Ry     beta= 0.70
     Davidson diagonalization with overlap
     ethr =  1.57E-03,  avg # of iterations =  1.2

     total cpu time spent up to now is       99.5 secs

     total energy              =   -6056.46003176 Ry
     estimated scf accuracy    <       1.80644446 Ry

     total magnetization       =    60.58 Bohr mag/cell
     absolute magnetization    =    69.87 Bohr mag/cell

     iteration #  6     ecut=    50.00 Ry     beta= 0.70
     Davidson diagonalization with overlap
     ethr =  5.39E-04,  avg # of iterations =  2.5

     total cpu time spent up to now is      115.6 secs

     total energy              =   -6056.55147172 Ry
     estimated scf accuracy    <       0.97097815 Ry

     total magnetization       =    60.12 Bohr mag/cell
     absolute magnetization    =    69.14 Bohr mag/cell

     iteration #  7     ecut=    50.00 Ry     beta= 0.70
     Davidson diagonalization with overlap
     ethr =  2.90E-04,  avg # of iterations =  3.3

     total cpu time spent up to now is      136.7 secs

     total energy              =   -6056.58038811 Ry
     estimated scf accuracy    <       0.55099403 Ry

     total magnetization       =    60.12 Bohr mag/cell
     absolute magnetization    =    68.86 Bohr mag/cell

     iteration #  8     ecut=    50.00 Ry     beta= 0.70
     Davidson diagonalization with overlap
     ethr =  1.64E-04,  avg # of iterations =  2.7

     total cpu time spent up to now is      156.8 secs

     total energy              =   -6056.60662732 Ry
     estimated scf accuracy    <       0.14805190 Ry

     total magnetization       =    60.21 Bohr mag/cell
     absolute magnetization    =    68.76 Bohr mag/cell

     iteration #  9     ecut=    50.00 Ry     beta= 0.70
     Davidson diagonalization with overlap
     c_bands:  2 eigenvalues not converged
     c_bands:  1 eigenvalues not converged
     c_bands:  1 eigenvalues not converged
     ethr =  4.42E-05,  avg # of iterations =  9.6

     total cpu time spent up to now is      184.4 secs

     total energy              =   -6056.61481514 Ry
     estimated scf accuracy    <       0.12833777 Ry

     total magnetization       =    60.51 Bohr mag/cell
     absolute magnetization    =    68.70 Bohr mag/cell

     iteration # 10     ecut=    50.00 Ry     beta= 0.70
     Davidson diagonalization with overlap
     ethr =  3.83E-05,  avg # of iterations =  3.1

     total cpu time spent up to now is      200.0 secs

     total energy              =   -6056.61793279 Ry
     estimated scf accuracy    <       0.14235936 Ry

     total magnetization       =    60.69 Bohr mag/cell
     absolute magnetization    =    68.68 Bohr mag/cell

     iteration # 11     ecut=    50.00 Ry     beta= 0.70
     Davidson diagonalization with overlap
     ethr =  3.83E-05,  avg # of iterations =  1.3

     total cpu time spent up to now is      218.1 secs

     total energy              =   -6056.61346356 Ry
     estimated scf accuracy    <       0.13003193 Ry

     total magnetization       =    60.68 Bohr mag/cell
     absolute magnetization    =    68.59 Bohr mag/cell

     iteration # 12     ecut=    50.00 Ry     beta= 0.70
     Davidson diagonalization with overlap
     ethr =  3.83E-05,  avg # of iterations =  1.7

     negative rho (up, down):  3.972E-07 0.000E+00

     total cpu time spent up to now is      233.1 secs

     total energy              =   -6056.61393983 Ry
     estimated scf accuracy    <       0.08056192 Ry

     total magnetization       =    60.57 Bohr mag/cell
     absolute magnetization    =    68.41 Bohr mag/cell

     iteration # 13     ecut=    50.00 Ry     beta= 0.70
     Davidson diagonalization with overlap
     ethr =  2.40E-05,  avg # of iterations =  1.5

     negative rho (up, down):  5.486E-08 0.000E+00

     total cpu time spent up to now is      251.7 secs

     total energy              =   -6056.61408547 Ry
     estimated scf accuracy    <       0.11349131 Ry

     total magnetization       =    60.63 Bohr mag/cell
     absolute magnetization    =    68.41 Bohr mag/cell

     iteration # 14     ecut=    50.00 Ry     beta= 0.70
     Davidson diagonalization with overlap
     ethr =  2.40E-05,  avg # of iterations =  1.1

     negative rho (up, down):  9.491E-03 7.760E-03

     total cpu time spent up to now is      265.4 secs

     total energy              =   -6056.60865816 Ry
     estimated scf accuracy    <       0.07691274 Ry

     total magnetization       =    60.64 Bohr mag/cell
     absolute magnetization    =    68.38 Bohr mag/cell

     iteration # 15     ecut=    50.00 Ry     beta= 0.70
     Davidson diagonalization with overlap
     ethr =  2.30E-05,  avg # of iterations =  1.3

     negative rho (up, down):  2.257E-02 2.068E-02

     total cpu time spent up to now is      283.3 secs

     total energy              =   -6056.60505737 Ry
     estimated scf accuracy    <       0.03890839 Ry

     total magnetization       =    60.56 Bohr mag/cell
     absolute magnetization    =    68.29 Bohr mag/cell

     iteration # 16     ecut=    50.00 Ry     beta= 0.70
     Davidson diagonalization with overlap
     c_bands:  1 eigenvalues not converged
     c_bands:  1 eigenvalues not converged
     c_bands:  1 eigenvalues not converged
     c_bands:  2 eigenvalues not converged
     ethr =  1.16E-05,  avg # of iterations =  5.6

     negative rho (up, down):  3.197E-02 3.004E-02

     total cpu time spent up to now is      307.4 secs

     total energy              =   -6056.60480927 Ry
     estimated scf accuracy    <       0.05141951 Ry

     total magnetization       =    60.71 Bohr mag/cell
     absolute magnetization    =    68.36 Bohr mag/cell

     iteration # 17     ecut=    50.00 Ry     beta= 0.70
     Davidson diagonalization with overlap
     ethr =  1.16E-05,  avg # of iterations =  1.4

     negative rho (up, down):  2.066E-02 1.910E-02

     total cpu time spent up to now is      321.3 secs

     total energy              =   -6056.60546470 Ry
     estimated scf accuracy    <       0.01842397 Ry

     total magnetization       =    60.71 Bohr mag/cell
     absolute magnetization    =    68.34 Bohr mag/cell

     iteration # 18     ecut=    50.00 Ry     beta= 0.70
     Davidson diagonalization with overlap
     c_bands:  3 eigenvalues not converged
     c_bands:  2 eigenvalues not converged
     ethr =  5.50E-06,  avg # of iterations =  4.3

     negative rho (up, down):  8.846E-03 7.688E-03

     total cpu time spent up to now is      343.3 secs

     total energy              =   -6056.60551846 Ry
     estimated scf accuracy    <       0.01561699 Ry

     total magnetization       =    60.71 Bohr mag/cell
     absolute magnetization    =    68.34 Bohr mag/cell

     iteration # 19     ecut=    50.00 Ry     beta= 0.70
     Davidson diagonalization with overlap
     ethr =  4.66E-06,  avg # of iterations =  1.7

     negative rho (up, down):  1.640E-02 1.500E-02

     total cpu time spent up to now is      362.8 secs

     total energy              =   -6056.60485763 Ry
     estimated scf accuracy    <       0.00952392 Ry

     total magnetization       =    60.73 Bohr mag/cell
     absolute magnetization    =    68.36 Bohr mag/cell

     iteration # 20     ecut=    50.00 Ry     beta= 0.70
     Davidson diagonalization with overlap
     c_bands:  1 eigenvalues not converged
     ethr =  2.84E-06,  avg # of iterations =  4.8

     negative rho (up, down):  1.744E-02 1.638E-02

     total cpu time spent up to now is      379.8 secs

     total energy              =   -6056.60318174 Ry
     estimated scf accuracy    <       0.01443690 Ry

     total magnetization       =    60.74 Bohr mag/cell
     absolute magnetization    =    68.34 Bohr mag/cell

     iteration # 21     ecut=    50.00 Ry     beta= 0.70
     Davidson diagonalization with overlap
     ethr =  2.84E-06,  avg # of iterations =  2.2

     negative rho (up, down):  5.875E-03 5.354E-03

     total cpu time spent up to now is      399.4 secs

     total energy              =   -6056.60283462 Ry
     estimated scf accuracy    <       0.00812299 Ry

     total magnetization       =    60.76 Bohr mag/cell
     absolute magnetization    =    68.32 Bohr mag/cell

     iteration # 22     ecut=    50.00 Ry     beta= 0.70
     Davidson diagonalization with overlap
     ethr =  2.42E-06,  avg # of iterations =  1.8

     negative rho (up, down):  8.296E-03 7.712E-03

     total cpu time spent up to now is      414.4 secs

     total energy              =   -6056.60316432 Ry
     estimated scf accuracy    <       0.00691492 Ry

     total magnetization       =    60.76 Bohr mag/cell
     absolute magnetization    =    68.33 Bohr mag/cell

     iteration # 23     ecut=    50.00 Ry     beta= 0.70
     Davidson diagonalization with overlap
     c_bands:  2 eigenvalues not converged
     ethr =  2.06E-06,  avg # of iterations =  2.2

     negative rho (up, down):  9.914E-03 9.299E-03

     total cpu time spent up to now is      433.9 secs

     total energy              =   -6056.60321200 Ry
     estimated scf accuracy    <       0.00615429 Ry

     total magnetization       =    60.76 Bohr mag/cell
     absolute magnetization    =    68.33 Bohr mag/cell

     iteration # 24     ecut=    50.00 Ry     beta= 0.70
     Davidson diagonalization with overlap
     ethr =  1.84E-06,  avg # of iterations =  1.3

     negative rho (up, down):  8.798E-03 8.000E-03

     total cpu time spent up to now is      452.3 secs

     total energy              =   -6056.60306883 Ry
     estimated scf accuracy    <       0.00198471 Ry

     total magnetization       =    60.76 Bohr mag/cell
     absolute magnetization    =    68.34 Bohr mag/cell

     iteration # 25     ecut=    50.00 Ry     beta= 0.70
     Davidson diagonalization with overlap
     ethr =  5.92E-07,  avg # of iterations =  3.6

     negative rho (up, down):  4.649E-03 3.977E-03

     total cpu time spent up to now is      468.5 secs

     total energy              =   -6056.60327410 Ry
     estimated scf accuracy    <       0.00385156 Ry

     total magnetization       =    60.76 Bohr mag/cell
     absolute magnetization    =    68.34 Bohr mag/cell

     iteration # 26     ecut=    50.00 Ry     beta= 0.70
     Davidson diagonalization with overlap
     ethr =  5.92E-07,  avg # of iterations =  1.8

     negative rho (up, down):  5.481E-03 4.771E-03

     total cpu time spent up to now is      487.5 secs

     total energy              =   -6056.60345657 Ry
     estimated scf accuracy    <       0.00130755 Ry

     total magnetization       =    60.79 Bohr mag/cell
     absolute magnetization    =    68.36 Bohr mag/cell

     iteration # 27     ecut=    50.00 Ry     beta= 0.70
     Davidson diagonalization with overlap
     ethr =  3.90E-07,  avg # of iterations =  1.2

     negative rho (up, down):  4.453E-03 3.675E-03

     total cpu time spent up to now is      501.1 secs

     total energy              =   -6056.60350981 Ry
     estimated scf accuracy    <       0.00024501 Ry

     total magnetization       =    60.78 Bohr mag/cell
     absolute magnetization    =    68.35 Bohr mag/cell

     iteration # 28     ecut=    50.00 Ry     beta= 0.70
     Davidson diagonalization with overlap
     ethr =  7.31E-08,  avg # of iterations =  6.5

     negative rho (up, down):  3.534E-03 2.599E-03

     total cpu time spent up to now is      524.5 secs

     total energy              =   -6056.60356337 Ry
     estimated scf accuracy    <       0.00023494 Ry

     total magnetization       =    60.78 Bohr mag/cell
     absolute magnetization    =    68.35 Bohr mag/cell

     iteration # 29     ecut=    50.00 Ry     beta= 0.70
     Davidson diagonalization with overlap
     ethr =  7.01E-08,  avg # of iterations =  1.7

     negative rho (up, down):  3.115E-03 2.153E-03

     total cpu time spent up to now is      543.6 secs

     total energy              =   -6056.60356193 Ry
     estimated scf accuracy    <       0.00017163 Ry

     total magnetization       =    60.78 Bohr mag/cell
     absolute magnetization    =    68.35 Bohr mag/cell

     iteration # 30     ecut=    50.00 Ry     beta= 0.70
     Davidson diagonalization with overlap
     ethr =  5.12E-08,  avg # of iterations =  1.3

     negative rho (up, down):  2.368E-03 1.289E-03

     total cpu time spent up to now is      557.4 secs

     total energy              =   -6056.60358976 Ry
     estimated scf accuracy    <       0.00008074 Ry

     total magnetization       =    60.78 Bohr mag/cell
     absolute magnetization    =    68.35 Bohr mag/cell

     iteration # 31     ecut=    50.00 Ry     beta= 0.70
     Davidson diagonalization with overlap
     ethr =  2.41E-08,  avg # of iterations =  2.7

     negative rho (up, down):  2.642E-03 1.553E-03

     total cpu time spent up to now is      577.5 secs

     total energy              =   -6056.60358887 Ry
     estimated scf accuracy    <       0.00009557 Ry

     total magnetization       =    60.78 Bohr mag/cell
     absolute magnetization    =    68.35 Bohr mag/cell

     iteration # 32     ecut=    50.00 Ry     beta= 0.70
     Davidson diagonalization with overlap
     ethr =  2.41E-08,  avg # of iterations =  1.3

     negative rho (up, down):  2.628E-03 1.516E-03

     total cpu time spent up to now is      591.3 secs

     total energy              =   -6056.60360324 Ry
     estimated scf accuracy    <       0.00004527 Ry

     total magnetization       =    60.78 Bohr mag/cell
     absolute magnetization    =    68.35 Bohr mag/cell

     iteration # 33     ecut=    50.00 Ry     beta= 0.70
     Davidson diagonalization with overlap
     ethr =  1.35E-08,  avg # of iterations =  1.9

     negative rho (up, down):  2.582E-03 1.478E-03

     total cpu time spent up to now is      610.9 secs

     total energy              =   -6056.60360629 Ry
     estimated scf accuracy    <       0.00001007 Ry

     total magnetization       =    60.78 Bohr mag/cell
     absolute magnetization    =    68.35 Bohr mag/cell

     iteration # 34     ecut=    50.00 Ry     beta= 0.70
     Davidson diagonalization with overlap
     ethr =  3.01E-09,  avg # of iterations =  6.0

     negative rho (up, down):  2.535E-03 1.453E-03

     total cpu time spent up to now is      635.3 secs

     total energy              =   -6056.60360794 Ry
     estimated scf accuracy    <       0.00000368 Ry

     total magnetization       =    60.78 Bohr mag/cell
     absolute magnetization    =    68.34 Bohr mag/cell

     iteration # 35     ecut=    50.00 Ry     beta= 0.70
     Davidson diagonalization with overlap
     ethr =  1.10E-09,  avg # of iterations =  5.7

     negative rho (up, down):  2.504E-03 1.398E-03

     total cpu time spent up to now is      654.8 secs

     total energy              =   -6056.60360770 Ry
     estimated scf accuracy    <       0.00000738 Ry

     total magnetization       =    60.77 Bohr mag/cell
     absolute magnetization    =    68.34 Bohr mag/cell

     iteration # 36     ecut=    50.00 Ry     beta= 0.70
     Davidson diagonalization with overlap
     ethr =  1.10E-09,  avg # of iterations =  1.8

     negative rho (up, down):  2.484E-03 1.387E-03

     total cpu time spent up to now is      674.9 secs

     total energy              =   -6056.60360836 Ry
     estimated scf accuracy    <       0.00000268 Ry

     total magnetization       =    60.78 Bohr mag/cell
     absolute magnetization    =    68.34 Bohr mag/cell

     iteration # 37     ecut=    50.00 Ry     beta= 0.70
     Davidson diagonalization with overlap
     ethr =  7.99E-10,  avg # of iterations =  1.7

     negative rho (up, down):  2.457E-03 1.365E-03

     total cpu time spent up to now is      694.1 secs

     total energy              =   -6056.60360844 Ry
     estimated scf accuracy    <       0.00000452 Ry

     total magnetization       =    60.77 Bohr mag/cell
     absolute magnetization    =    68.34 Bohr mag/cell

     iteration # 38     ecut=    50.00 Ry     beta= 0.70
     Davidson diagonalization with overlap
     ethr =  7.99E-10,  avg # of iterations =  1.3

     negative rho (up, down):  2.421E-03 1.329E-03

     total cpu time spent up to now is      708.0 secs

     total energy              =   -6056.60360850 Ry
     estimated scf accuracy    <       0.00000206 Ry

     total magnetization       =    60.77 Bohr mag/cell
     absolute magnetization    =    68.34 Bohr mag/cell

     iteration # 39     ecut=    50.00 Ry     beta= 0.70
     Davidson diagonalization with overlap
     ethr =  6.15E-10,  avg # of iterations =  1.4

     negative rho (up, down):  2.351E-03 1.266E-03

     total cpu time spent up to now is      727.5 secs

     total energy              =   -6056.60360838 Ry
     estimated scf accuracy    <       0.00000319 Ry

     total magnetization       =    60.77 Bohr mag/cell
     absolute magnetization    =    68.34 Bohr mag/cell

     iteration # 40     ecut=    50.00 Ry     beta= 0.70
     Davidson diagonalization with overlap
     ethr =  6.15E-10,  avg # of iterations =  2.0

     negative rho (up, down):  2.355E-03 1.272E-03

     total cpu time spent up to now is      742.6 secs

     total energy              =   -6056.60360845 Ry
     estimated scf accuracy    <       0.00000167 Ry

     total magnetization       =    60.77 Bohr mag/cell
     absolute magnetization    =    68.34 Bohr mag/cell

     iteration # 41     ecut=    50.00 Ry     beta= 0.70
     Davidson diagonalization with overlap
     ethr =  4.99E-10,  avg # of iterations =  1.3

     negative rho (up, down):  2.332E-03 1.249E-03

     total cpu time spent up to now is      760.7 secs

     total energy              =   -6056.60360846 Ry
     estimated scf accuracy    <       0.00000158 Ry

     total magnetization       =    60.77 Bohr mag/cell
     absolute magnetization    =    68.34 Bohr mag/cell

     iteration # 42     ecut=    50.00 Ry     beta= 0.70
     Davidson diagonalization with overlap
     ethr =  4.71E-10,  avg # of iterations =  1.2

     negative rho (up, down):  2.335E-03 1.249E-03

     total cpu time spent up to now is      774.8 secs

     total energy              =   -6056.60360854 Ry
     estimated scf accuracy    <       0.00000083 Ry

     total magnetization       =    60.77 Bohr mag/cell
     absolute magnetization    =    68.34 Bohr mag/cell

     iteration # 43     ecut=    50.00 Ry     beta= 0.70
     Davidson diagonalization with overlap
     ethr =  2.48E-10,  avg # of iterations =  2.0

     negative rho (up, down):  2.320E-03 1.235E-03

     total cpu time spent up to now is      795.0 secs

     total energy              =   -6056.60360851 Ry
     estimated scf accuracy    <       0.00000148 Ry

     total magnetization       =    60.77 Bohr mag/cell
     absolute magnetization    =    68.34 Bohr mag/cell

     iteration # 44     ecut=    50.00 Ry     beta= 0.70
     Davidson diagonalization with overlap
     ethr =  2.48E-10,  avg # of iterations =  1.1

     negative rho (up, down):  2.276E-03 1.191E-03

     total cpu time spent up to now is      813.2 secs

     total energy              =   -6056.60360853 Ry
     estimated scf accuracy    <       0.00000031 Ry

     total magnetization       =    60.77 Bohr mag/cell
     absolute magnetization    =    68.34 Bohr mag/cell

     iteration # 45     ecut=    50.00 Ry     beta= 0.70
     Davidson diagonalization with overlap
     ethr =  9.11E-11,  avg # of iterations =  3.0

     negative rho (up, down):  2.276E-03 1.189E-03

     total cpu time spent up to now is      829.0 secs

     total energy              =   -6056.60360855 Ry
     estimated scf accuracy    <       0.00000032 Ry

     total magnetization       =    60.77 Bohr mag/cell
     absolute magnetization    =    68.33 Bohr mag/cell

     iteration # 46     ecut=    50.00 Ry     beta= 0.70
     Davidson diagonalization with overlap
     ethr =  9.11E-11,  avg # of iterations =  1.4

     negative rho (up, down):  2.265E-03 1.177E-03

     total cpu time spent up to now is      848.8 secs

     total energy              =   -6056.60360856 Ry
     estimated scf accuracy    <       0.00000008 Ry

     total magnetization       =    60.77 Bohr mag/cell
     absolute magnetization    =    68.33 Bohr mag/cell

     iteration # 47     ecut=    50.00 Ry     beta= 0.70
     Davidson diagonalization with overlap
     ethr =  2.48E-11,  avg # of iterations =  6.1

     negative rho (up, down):  2.261E-03 1.173E-03

     total cpu time spent up to now is      873.1 secs

     total energy              =   -6056.60360856 Ry
     estimated scf accuracy    <       0.00000005 Ry

     total magnetization       =    60.77 Bohr mag/cell
     absolute magnetization    =    68.33 Bohr mag/cell

     iteration # 48     ecut=    50.00 Ry     beta= 0.70
     Davidson diagonalization with overlap
     ethr =  1.56E-11,  avg # of iterations =  2.0

     negative rho (up, down):  2.256E-03 1.167E-03

     total cpu time spent up to now is      887.8 secs

     total energy              =   -6056.60360855 Ry
     estimated scf accuracy    <       0.00000002 Ry

     total magnetization       =    60.77 Bohr mag/cell
     absolute magnetization    =    68.33 Bohr mag/cell

     iteration # 49     ecut=    50.00 Ry     beta= 0.70
     Davidson diagonalization with overlap
     ethr =  5.22E-12,  avg # of iterations =  5.4

     negative rho (up, down):  2.259E-03 1.170E-03

     total cpu time spent up to now is      913.0 secs

     total energy              =   -6056.60360856 Ry
     estimated scf accuracy    <       0.00000002 Ry

     total magnetization       =    60.77 Bohr mag/cell
     absolute magnetization    =    68.33 Bohr mag/cell

     iteration # 50     ecut=    50.00 Ry     beta= 0.70
     Davidson diagonalization with overlap
     ethr =  5.22E-12,  avg # of iterations =  1.2

     negative rho (up, down):  2.249E-03 1.159E-03

     Magnetic moment per site  (integrated on atomic sphere of radius R)
     atom   1 (R=0.094)  charge=  5.8269  magn=  1.6890
     atom   2 (R=0.094)  charge=  5.8279  magn=  1.6842
     atom   3 (R=0.094)  charge=  5.8273  magn=  1.6923
     atom   4 (R=0.094)  charge=  5.8283  magn=  1.6972
     atom   5 (R=0.094)  charge=  5.8277  magn=  1.6930
     atom   6 (R=0.094)  charge=  5.8285  magn=  1.6918
     atom   7 (R=0.094)  charge=  5.8270  magn=  1.6887
     atom   8 (R=0.094)  charge=  5.8274  magn=  1.6870
     atom   9 (R=0.094)  charge=  5.8286  magn=  1.6884
     atom  10 (R=0.094)  charge=  5.8242  magn=  1.6230
     atom  11 (R=0.094)  charge=  5.8254  magn=  1.6261
     atom  12 (R=0.094)  charge=  5.8251  magn=  1.6296
     atom  13 (R=0.094)  charge=  5.8247  magn=  1.6316
     atom  14 (R=0.094)  charge=  5.8254  magn=  1.6247
     atom  15 (R=0.094)  charge=  5.8252  magn=  1.6298
     atom  16 (R=0.094)  charge=  5.8248  magn=  1.6221
     atom  17 (R=0.094)  charge=  5.8251  magn=  1.6302
     atom  18 (R=0.094)  charge=  5.8252  magn=  1.6222
     atom  19 (R=0.094)  charge=  5.8236  magn=  1.6205
     atom  20 (R=0.094)  charge=  5.8247  magn=  1.6368
     atom  21 (R=0.094)  charge=  5.8239  magn=  1.6470
     atom  22 (R=0.094)  charge=  5.8246  magn=  1.6189
     atom  23 (R=0.094)  charge=  5.8247  magn=  1.6018
     atom  24 (R=0.094)  charge=  5.8255  magn=  1.6142
     atom  25 (R=0.094)  charge=  5.8236  magn=  1.5764
     atom  26 (R=0.094)  charge=  5.8220  magn=  1.6447
     atom  27 (R=0.094)  charge=  5.8250  magn=  1.6218
     atom  28 (R=0.094)  charge=  5.8385  magn=  1.2754
     atom  29 (R=0.094)  charge=  5.8447  magn=  1.1603
     atom  30 (R=0.094)  charge=  5.8272  magn=  1.5749
     atom  31 (R=0.094)  charge=  5.8314  magn=  1.6931
     atom  32 (R=0.094)  charge=  5.8294  magn=  1.6317
     atom  33 (R=0.094)  charge=  5.8258  magn=  1.7260
     atom  34 (R=0.094)  charge=  5.8239  magn=  1.7199
     atom  35 (R=0.094)  charge=  5.8291  magn=  1.6948
     atom  36 (R=0.094)  charge=  5.8264  magn=  1.7307
     atom  37 (R=0.065)  charge=  1.0377  magn= -0.0194
     atom  38 (R=0.065)  charge=  2.9094  magn= -0.0436
     atom  39 (R=0.094)  charge=  0.9283  magn= -0.0159

     total cpu time spent up to now is      930.0 secs

     End of self-consistent calculation

 ------ SPIN UP ------------


          k = 0.0000 0.0000 0.0000 ( 51087 PWs)   bands (ev):

   -22.0240  -9.0919  -7.6731  -6.5901  -5.8228  -5.7196  -5.3435  -5.2159
    -4.8384  -4.8282  -4.8258  -4.8123  -4.7992  -4.7876  -4.6469  -4.3939
    -4.2985  -4.2949  -4.2754  -4.2606  -4.2372  -4.1035  -3.7831  -3.7784
    -3.7701  -3.7543  -3.7337  -3.6988  -3.6474  -3.6449  -3.6404  -3.6319
    -3.6182  -3.5699  -3.5669  -3.4930  -3.2632  -3.2568  -3.2552  -3.2521
    -3.1979  -3.1930  -3.1898  -3.1865  -3.1826  -3.1757  -3.1583  -3.1057
    -3.0261  -3.0242  -2.9606  -2.9547  -2.9503  -2.9463  -2.9211  -2.9176
    -2.9168  -2.9163  -2.8878  -2.8672  -2.8181  -2.8154  -2.8090  -2.8021
    -2.7508  -2.6177  -2.3205  -2.2831  -2.2816  -2.2797  -2.2746  -2.1707
    -2.1563  -2.1386  -2.1330  -2.1279  -2.1154  -2.1124  -2.0939  -2.0903
    -2.0659  -2.0499  -2.0467  -2.0208  -1.9981  -1.9911  -1.9777  -1.9679
    -1.9640  -1.9592  -1.9517  -1.9439  -1.9327  -1.9252  -1.9192  -1.9084
    -1.9074  -1.9053  -1.9026  -1.9013  -1.8982  -1.8970  -1.8928  -1.8825
    -1.8774  -1.8591  -1.8442  -1.8340  -1.8303  -1.7503  -1.7477  -1.6380
    -1.5699  -1.4599  -1.4570  -1.4541  -1.4511  -1.4424  -1.4247  -1.4122
    -1.4085  -1.4073  -1.3911  -1.3671  -1.3641  -1.2364  -1.2339  -1.2135
    -1.2103  -1.1362  -1.0877  -1.0636  -1.0466  -1.0342  -1.0049  -0.9860
    -0.9734  -0.9666  -0.9564  -0.9467  -0.9183  -0.8929  -0.8560  -0.8343
    -0.7758  -0.7148  -0.7122  -0.7109  -0.6958  -0.6646  -0.6546  -0.6481
    -0.6475  -0.6410  -0.6390  -0.6332  -0.6324  -0.6252  -0.6234  -0.6146
    -0.6093  -0.6004  -0.5848  -0.5817  -0.5738  -0.5685  -0.5550  -0.5499
    -0.5427  -0.5389  -0.5262  -0.5184  -0.5126  -0.5092  -0.5001  -0.4954
    -0.4924  -0.4878  -0.4740  -0.4559  -0.4373  -0.4165  -0.4131  -0.4075
    -0.4013  -0.3989  -0.3918  -0.3847  -0.3809  -0.3355  -0.3224  -0.3170
    -0.3124  -0.3116  -0.2553  -0.2513  -0.2465  -0.2387  -0.2286  -0.2080
     0.5078   0.6946

          k = 0.0000 0.2309 0.0000 ( 51134 PWs)   bands (ev):

   -22.0240  -9.0816  -7.5326  -6.5000  -5.8416  -5.7320  -5.5269  -5.3331
    -5.2072  -5.0462  -5.0227  -4.6577  -4.5019  -4.4835  -4.4705  -4.4174
    -4.3259  -4.3012  -4.2446  -4.1701  -4.1585  -4.0981  -3.8863  -3.7851
    -3.7780  -3.7077  -3.6639  -3.6518  -3.6487  -3.6337  -3.6277  -3.6157
    -3.5946  -3.5372  -3.5252  -3.5062  -3.4988  -3.4505  -3.2771  -3.2728
    -3.2580  -3.2181  -3.2162  -3.2048  -3.1761  -3.1078  -3.0847  -3.0656
    -3.0512  -3.0478  -3.0273  -3.0013  -2.9636  -2.9113  -2.9022  -2.8772
    -2.8460  -2.8390  -2.8054  -2.8008  -2.7815  -2.7475  -2.7332  -2.7222
    -2.7010  -2.6137  -2.4000  -2.3911  -2.3712  -2.3476  -2.3396  -2.2503
    -2.2432  -2.2291  -2.2257  -2.2139  -2.2084  -2.1966  -2.1683  -2.1165
    -2.1044  -2.0947  -2.0769  -2.0508  -2.0385  -2.0298  -2.0266  -2.0131
    -1.9988  -1.9948  -1.9905  -1.9851  -1.9822  -1.9750  -1.9685  -1.8996
    -1.8843  -1.8721  -1.8169  -1.8144  -1.8035  -1.7964  -1.7877  -1.7845
    -1.7750  -1.7632  -1.7573  -1.7523  -1.7464  -1.7241  -1.7143  -1.6926
    -1.6888  -1.6834  -1.6315  -1.5878  -1.5794  -1.4926  -1.4800  -1.4772
    -1.4722  -1.4505  -1.4441  -1.4355  -1.4167  -1.4144  -1.3729  -1.2868
    -1.2611  -1.2103  -1.1952  -1.1681  -1.1645  -1.1074  -1.0927  -1.0874
    -1.0641  -0.9902  -0.9798  -0.9605  -0.9569  -0.9379  -0.9111  -0.8960
    -0.8895  -0.8693  -0.8622  -0.8424  -0.8180  -0.8003  -0.7955  -0.7911
    -0.7428  -0.7145  -0.7099  -0.7067  -0.6959  -0.6645  -0.6506  -0.6372
    -0.6342  -0.6285  -0.6225  -0.6098  -0.6033  -0.5885  -0.5773  -0.5616
    -0.5266  -0.5132  -0.5024  -0.4779  -0.4526  -0.4417  -0.4162  -0.3900
    -0.3868  -0.3730  -0.3690  -0.3560  -0.3379  -0.3303  -0.3250  -0.2944
    -0.2617  -0.2544  -0.2364  -0.2188  -0.2111  -0.2000  -0.1897  -0.1737
    -0.1202  -0.0504   0.1152   0.1386   0.2079   0.2710   0.3847   0.4102
     0.4529   0.7246

          k = 0.0000 0.4619 0.0000 ( 51204 PWs)   bands (ev):

   -22.0240  -9.0657  -7.1189  -6.5013  -6.2128  -5.8167  -5.6236  -5.3520
    -5.2564  -5.1470  -5.1262  -4.9262  -4.3283  -4.3117  -4.3020  -4.2496
    -4.2148  -4.1260  -4.1226  -4.0559  -3.9926  -3.9854  -3.9805  -3.8270
    -3.8093  -3.8074  -3.7976  -3.7955  -3.7359  -3.6923  -3.6915  -3.5614
    -3.5222  -3.5148  -3.4928  -3.4817  -3.4762  -3.4570  -3.3684  -3.3618
    -3.3493  -3.3438  -3.2690  -3.1997  -3.1436  -3.0987  -3.0537  -3.0358
    -3.0059  -2.9822  -2.9655  -2.9481  -2.9419  -2.9281  -2.9184  -2.8633
    -2.8540  -2.8298  -2.8050  -2.7811  -2.6595  -2.6505  -2.6376  -2.6187
    -2.5635  -2.5372  -2.5127  -2.5009  -2.4917  -2.4201  -2.3687  -2.3665
    -2.3625  -2.3546  -2.3450  -2.3241  -2.3183  -2.2937  -2.2827  -2.2634
    -2.2379  -2.2061  -2.1873  -2.1567  -2.1434  -2.0999  -2.0720  -2.0500
    -2.0339  -2.0178  -2.0044  -1.9924  -1.9722  -1.9382  -1.9297  -1.9199
    -1.9094  -1.8991  -1.8811  -1.8575  -1.8529  -1.8431  -1.8405  -1.8231
    -1.7996  -1.7667  -1.7621  -1.7348  -1.6704  -1.6531  -1.6399  -1.6282
    -1.6133  -1.5768  -1.5470  -1.5260  -1.5239  -1.4996  -1.4973  -1.4905
    -1.4850  -1.4783  -1.4690  -1.4586  -1.4491  -1.4396  -1.4312  -1.4247
    -1.4195  -1.3576  -1.3026  -1.2956  -1.2729  -1.2595  -1.2342  -1.2269
    -1.1937  -1.1380  -1.1277  -1.1194  -1.0739  -1.0513  -1.0242  -0.9905
    -0.9709  -0.9643  -0.9351  -0.9202  -0.9080  -0.8946  -0.8713  -0.7846
    -0.7667  -0.7433  -0.7285  -0.7126  -0.7078  -0.6997  -0.6948  -0.6836
    -0.6790  -0.6482  -0.5739  -0.5608  -0.5505  -0.5402  -0.5319  -0.5270
    -0.5165  -0.5007  -0.4788  -0.4709  -0.4628  -0.4358  -0.3816  -0.3636
    -0.3589  -0.3384  -0.3268  -0.2656  -0.2583  -0.2335  -0.2252  -0.1816
    -0.1613  -0.1453  -0.1407  -0.1290  -0.1151  -0.1081  -0.1069  -0.0684
    -0.0123   0.0013   0.4766   0.5741   0.8721   1.1036   1.1273   1.3306
     1.4300   1.4872

          k = 0.2000-0.1155 0.0000 ( 51134 PWs)   bands (ev):

   -22.0240  -9.0792  -7.5345  -6.5026  -5.8961  -5.7049  -5.5099  -5.3278
    -5.1808  -5.0640  -5.0254  -4.6130  -4.5308  -4.4834  -4.4746  -4.4160
    -4.3521  -4.2944  -4.2242  -4.2010  -4.1525  -4.0683  -3.8978  -3.7836
    -3.7727  -3.7017  -3.6699  -3.6533  -3.6485  -3.6428  -3.6271  -3.6120
    -3.5885  -3.5495  -3.5255  -3.5054  -3.4984  -3.4512  -3.2860  -3.2749
    -3.2658  -3.2207  -3.2155  -3.1984  -3.1756  -3.1144  -3.0829  -3.0662
    -3.0503  -3.0443  -3.0355  -2.9968  -2.9557  -2.9123  -2.9017  -2.8818
    -2.8418  -2.8340  -2.8045  -2.8004  -2.7782  -2.7433  -2.7348  -2.7294
    -2.6869  -2.6185  -2.4027  -2.3895  -2.3634  -2.3471  -2.3402  -2.2504
    -2.2467  -2.2325  -2.2285  -2.2137  -2.2040  -2.1886  -2.1626  -2.1150
    -2.1095  -2.0932  -2.0771  -2.0534  -2.0437  -2.0301  -2.0210  -2.0140
    -2.0019  -1.9981  -1.9951  -1.9912  -1.9816  -1.9755  -1.9441  -1.9006
    -1.8799  -1.8669  -1.8199  -1.8167  -1.8046  -1.7961  -1.7908  -1.7826
    -1.7804  -1.7726  -1.7665  -1.7508  -1.7500  -1.7277  -1.7128  -1.6963
    -1.6863  -1.6725  -1.6431  -1.5996  -1.5784  -1.5097  -1.4770  -1.4755
    -1.4618  -1.4560  -1.4433  -1.4388  -1.4300  -1.3994  -1.3212  -1.2916
    -1.2570  -1.2129  -1.1979  -1.1700  -1.1534  -1.1282  -1.1006  -1.0886
    -1.0367  -1.0104  -0.9972  -0.9687  -0.9549  -0.9419  -0.9154  -0.9046
    -0.8842  -0.8674  -0.8506  -0.8303  -0.8224  -0.8068  -0.7980  -0.7874
    -0.7256  -0.7215  -0.7087  -0.7063  -0.6891  -0.6559  -0.6464  -0.6425
    -0.6368  -0.6284  -0.6232  -0.6124  -0.6061  -0.5843  -0.5774  -0.5554
    -0.5179  -0.5051  -0.4967  -0.4745  -0.4549  -0.4482  -0.4114  -0.3905
    -0.3862  -0.3788  -0.3642  -0.3611  -0.3390  -0.3305  -0.3243  -0.2900
    -0.2642  -0.2497  -0.2372  -0.2169  -0.2108  -0.1972  -0.1844  -0.1692
    -0.1220  -0.0551   0.0975   0.1377   0.1718   0.2577   0.3726   0.4100
     0.4449   0.8009

          k = 0.2000 0.1155 0.0000 ( 51134 PWs)   bands (ev):

   -22.0240  -9.0787  -7.5353  -6.5046  -5.9133  -5.6891  -5.4940  -5.3427
    -5.1738  -5.0534  -5.0448  -4.6007  -4.5213  -4.4824  -4.4776  -4.4141
    -4.3497  -4.3129  -4.2288  -4.1950  -4.1579  -4.0615  -3.8967  -3.7889
    -3.7674  -3.6943  -3.6662  -3.6530  -3.6485  -3.6461  -3.6377  -3.6150
    -3.5721  -3.5553  -3.5298  -3.5041  -3.5001  -3.4535  -3.2899  -3.2722
    -3.2681  -3.2193  -3.2172  -3.2017  -3.1691  -3.1134  -3.0869  -3.0629
    -3.0490  -3.0461  -3.0383  -3.0030  -2.9520  -2.9108  -2.9000  -2.8826
    -2.8464  -2.8260  -2.8053  -2.8004  -2.7852  -2.7393  -2.7364  -2.7270
    -2.6797  -2.6229  -2.3992  -2.3897  -2.3617  -2.3483  -2.3396  -2.2505
    -2.2445  -2.2367  -2.2271  -2.2199  -2.2023  -2.1901  -2.1503  -2.1136
    -2.1076  -2.0951  -2.0750  -2.0498  -2.0443  -2.0351  -2.0287  -2.0115
    -2.0029  -1.9974  -1.9949  -1.9917  -1.9855  -1.9745  -1.9437  -1.9087
    -1.8760  -1.8660  -1.8214  -1.8148  -1.8079  -1.7992  -1.7895  -1.7829
    -1.7795  -1.7716  -1.7652  -1.7510  -1.7497  -1.7400  -1.7063  -1.6989
    -1.6840  -1.6770  -1.6428  -1.6004  -1.5850  -1.5114  -1.4823  -1.4765
    -1.4638  -1.4502  -1.4446  -1.4393  -1.4297  -1.3894  -1.3116  -1.2888
    -1.2578  -1.2156  -1.1950  -1.1735  -1.1481  -1.1352  -1.0973  -1.0874
    -1.0406  -1.0059  -0.9923  -0.9715  -0.9553  -0.9433  -0.9172  -0.9060
    -0.8818  -0.8672  -0.8528  -0.8340  -0.8238  -0.8061  -0.7985  -0.7869
    -0.7265  -0.7162  -0.7092  -0.7076  -0.6964  -0.6586  -0.6510  -0.6410
    -0.6359  -0.6274  -0.6232  -0.6065  -0.6002  -0.5851  -0.5789  -0.5620
    -0.5191  -0.4985  -0.4919  -0.4771  -0.4601  -0.4468  -0.4117  -0.3907
    -0.3864  -0.3801  -0.3643  -0.3602  -0.3386  -0.3286  -0.3263  -0.2910
    -0.2595  -0.2509  -0.2365  -0.2165  -0.2119  -0.1944  -0.1711  -0.1680
    -0.1184  -0.0734   0.1087   0.1368   0.1692   0.2548   0.3784   0.4042
     0.4493   0.7482

          k = 0.2000 0.3464 0.0000 ( 51202 PWs)   bands (ev):

   -22.0240  -9.0656  -7.2587  -6.3791  -6.0398  -5.9264  -5.6981  -5.5229
    -5.3239  -5.1573  -4.7418  -4.6614  -4.4920  -4.4752  -4.3372  -4.2709
    -4.2672  -4.1717  -4.1616  -4.0744  -4.0349  -4.0083  -3.8976  -3.8825
    -3.8252  -3.7806  -3.6878  -3.6731  -3.6470  -3.6409  -3.6331  -3.6135
    -3.5915  -3.5803  -3.5445  -3.5186  -3.4799  -3.4460  -3.4323  -3.4080
    -3.2927  -3.2385  -3.2139  -3.1973  -3.1688  -3.1480  -3.0932  -3.0541
    -3.0123  -2.9899  -2.9767  -2.9596  -2.9461  -2.9162  -2.9049  -2.8899
    -2.8749  -2.8595  -2.7534  -2.7271  -2.6905  -2.6735  -2.6573  -2.6341
    -2.6124  -2.5809  -2.5023  -2.4343  -2.4227  -2.3915  -2.3809  -2.3472
    -2.3356  -2.3245  -2.3158  -2.2916  -2.2852  -2.2668  -2.2593  -2.2525
    -2.2374  -2.1846  -2.1587  -2.1286  -2.0694  -2.0677  -2.0428  -2.0370
    -2.0252  -1.9972  -1.9710  -1.9640  -1.9526  -1.9322  -1.9117  -1.9076
    -1.9022  -1.8916  -1.8860  -1.8734  -1.8564  -1.8454  -1.8380  -1.8217
    -1.8071  -1.8004  -1.7707  -1.7262  -1.7176  -1.6827  -1.6762  -1.6711
    -1.6601  -1.6516  -1.6172  -1.5836  -1.5696  -1.5559  -1.5403  -1.5068
    -1.5054  -1.4945  -1.4836  -1.4652  -1.4520  -1.4311  -1.4252  -1.3756
    -1.3640  -1.3313  -1.3150  -1.2577  -1.2203  -1.1936  -1.1722  -1.1053
    -1.0858  -1.0650  -1.0562  -1.0456  -1.0369  -1.0326  -1.0045  -0.9896
    -0.9766  -0.9600  -0.9440  -0.9076  -0.8987  -0.8735  -0.8634  -0.8458
    -0.8268  -0.8072  -0.7929  -0.7790  -0.7742  -0.7506  -0.6406  -0.6158
    -0.6042  -0.5911  -0.5715  -0.5650  -0.5471  -0.5405  -0.5209  -0.5154
    -0.5000  -0.4721  -0.4469  -0.4330  -0.4125  -0.4044  -0.3668  -0.3446
    -0.3344  -0.3322  -0.3266  -0.3043  -0.2987  -0.2927  -0.2799  -0.2697
    -0.2540  -0.1797  -0.1682  -0.1617  -0.1222  -0.1129  -0.1033   0.0369
     0.1289   0.2341   0.2462   0.4211   0.5122   0.6323   1.0205   1.1143
     1.2226   1.3919

          k = 0.2000-0.5774 0.0000 ( 51262 PWs)   bands (ev):

   -22.0240  -9.0583  -6.7713  -6.6844  -6.2128  -6.0450  -5.7319  -5.5401
    -5.2644  -5.1969  -4.9637  -4.7086  -4.4711  -4.2365  -4.1867  -4.0838
    -4.0572  -4.0469  -4.0229  -4.0201  -3.9681  -3.9525  -3.9422  -3.9402
    -3.9185  -3.8564  -3.7950  -3.7887  -3.7676  -3.7626  -3.7248  -3.6233
    -3.6107  -3.6047  -3.5764  -3.5383  -3.4696  -3.4523  -3.3962  -3.3155
    -3.3091  -3.2522  -3.2305  -3.2044  -3.1822  -3.1229  -3.0978  -3.0818
    -3.0452  -3.0274  -2.9947  -2.9355  -2.9106  -2.8756  -2.8647  -2.8274
    -2.8155  -2.7386  -2.7336  -2.7173  -2.7114  -2.6985  -2.6733  -2.6426
    -2.5772  -2.5231  -2.5100  -2.4987  -2.4702  -2.4401  -2.4152  -2.3719
    -2.3665  -2.3318  -2.3191  -2.3167  -2.3098  -2.2912  -2.2641  -2.2590
    -2.2429  -2.2307  -2.2159  -2.1878  -2.1829  -2.1519  -2.1063  -2.0893
    -2.0697  -2.0314  -2.0221  -1.9971  -1.9735  -1.9449  -1.9333  -1.9215
    -1.9052  -1.9002  -1.8944  -1.8800  -1.8721  -1.8454  -1.8416  -1.7999
    -1.7710  -1.7515  -1.7438  -1.7320  -1.7157  -1.7115  -1.7046  -1.6940
    -1.6840  -1.6732  -1.6615  -1.6332  -1.6014  -1.5841  -1.5674  -1.5510
    -1.4947  -1.4833  -1.4639  -1.4432  -1.4340  -1.4159  -1.4015  -1.3921
    -1.3488  -1.3333  -1.3236  -1.2749  -1.2200  -1.1911  -1.1837  -1.1744
    -1.1504  -1.1401  -1.1296  -1.0927  -1.0832  -1.0677  -1.0487  -1.0390
    -0.9896  -0.9746  -0.9622  -0.9523  -0.9347  -0.8891  -0.8791  -0.8630
    -0.8553  -0.8450  -0.8322  -0.8102  -0.7922  -0.7650  -0.7465  -0.6066
    -0.5860  -0.5745  -0.5615  -0.5498  -0.5384  -0.5327  -0.5224  -0.4934
    -0.4795  -0.4653  -0.4612  -0.4482  -0.4048  -0.3472  -0.3382  -0.3301
    -0.3243  -0.3037  -0.2924  -0.2782  -0.2383  -0.2361  -0.2260  -0.2180
    -0.2158  -0.1473  -0.1349  -0.1307  -0.1173  -0.1080  -0.0862  -0.0607
     0.1051   0.2487   0.4758   0.8618   1.0768   1.1754   1.2897   1.5034
     1.6704   1.7069

          k = 0.2000-0.3464 0.0000 ( 51202 PWs)   bands (ev):

   -22.0240  -9.0664  -7.2562  -6.3778  -6.0204  -5.9339  -5.6979  -5.5518
    -5.3176  -5.1441  -4.7267  -4.6972  -4.4850  -4.4772  -4.3341  -4.2722
    -4.2665  -4.1709  -4.1655  -4.0713  -4.0268  -4.0161  -3.9026  -3.8802
    -3.8250  -3.7820  -3.6872  -3.6723  -3.6602  -3.6417  -3.6283  -3.6022
    -3.5923  -3.5833  -3.5443  -3.5201  -3.4828  -3.4410  -3.4297  -3.4101
    -3.2925  -3.2380  -3.2147  -3.1945  -3.1726  -3.1432  -3.0802  -3.0533
    -3.0108  -2.9897  -2.9696  -2.9661  -2.9511  -2.9209  -2.8977  -2.8904
    -2.8712  -2.8663  -2.7580  -2.7286  -2.6941  -2.6771  -2.6515  -2.6310
    -2.6190  -2.5784  -2.5019  -2.4353  -2.4133  -2.3922  -2.3809  -2.3486
    -2.3401  -2.3231  -2.3169  -2.2924  -2.2836  -2.2654  -2.2545  -2.2518
    -2.2369  -2.1926  -2.1604  -2.1332  -2.0726  -2.0671  -2.0408  -2.0333
    -2.0233  -1.9974  -1.9742  -1.9623  -1.9491  -1.9301  -1.9151  -1.9049
    -1.9012  -1.8939  -1.8850  -1.8703  -1.8554  -1.8499  -1.8319  -1.8166
    -1.8107  -1.8027  -1.7780  -1.7245  -1.7202  -1.6851  -1.6761  -1.6682
    -1.6641  -1.6507  -1.6104  -1.5882  -1.5708  -1.5434  -1.5329  -1.5119
    -1.5048  -1.4951  -1.4902  -1.4612  -1.4472  -1.4342  -1.4269  -1.3754
    -1.3658  -1.3298  -1.3130  -1.2634  -1.2175  -1.1899  -1.1643  -1.1102
    -1.0857  -1.0613  -1.0534  -1.0494  -1.0444  -1.0332  -1.0043  -0.9894
    -0.9735  -0.9614  -0.9481  -0.9108  -0.8963  -0.8756  -0.8629  -0.8431
    -0.8238  -0.8158  -0.7896  -0.7772  -0.7718  -0.7510  -0.6379  -0.6229
    -0.6028  -0.5854  -0.5686  -0.5613  -0.5559  -0.5347  -0.5286  -0.5108
    -0.5025  -0.4780  -0.4407  -0.4329  -0.4124  -0.4061  -0.3672  -0.3439
    -0.3358  -0.3296  -0.3273  -0.3036  -0.3006  -0.2907  -0.2797  -0.2677
    -0.2556  -0.1789  -0.1691  -0.1643  -0.1189  -0.1138  -0.1131   0.0422
     0.1164   0.2346   0.2433   0.4417   0.5145   0.6232   1.0262   1.1112
     1.2272   1.3521

          k = 0.4000-0.2309 0.0000 ( 51204 PWs)   bands (ev):

   -22.0240  -9.0592  -7.1282  -6.5097  -6.2256  -5.8980  -5.5316  -5.3573
    -5.2016  -5.1609  -5.1189  -4.9429  -4.3561  -4.3186  -4.2839  -4.2447
    -4.2058  -4.1277  -4.1241  -4.0286  -3.9982  -3.9847  -3.9576  -3.8317
    -3.8092  -3.8018  -3.7991  -3.7963  -3.7210  -3.6973  -3.6871  -3.6302
    -3.5253  -3.5157  -3.4999  -3.4810  -3.4772  -3.4364  -3.3697  -3.3626
    -3.3518  -3.3425  -3.3063  -3.2154  -3.1343  -3.1061  -3.0421  -3.0293
    -3.0025  -2.9870  -2.9656  -2.9496  -2.9396  -2.9321  -2.9145  -2.8688
    -2.8527  -2.8306  -2.7926  -2.7679  -2.6602  -2.6468  -2.6216  -2.6077
    -2.5735  -2.5344  -2.5198  -2.4994  -2.4919  -2.4243  -2.3696  -2.3653
    -2.3621  -2.3515  -2.3438  -2.3245  -2.3116  -2.3013  -2.2743  -2.2503
    -2.2387  -2.2070  -2.1887  -2.1616  -2.1374  -2.1164  -2.0641  -2.0564
    -2.0343  -2.0224  -2.0078  -1.9829  -1.9771  -1.9337  -1.9277  -1.9149
    -1.9090  -1.8964  -1.8816  -1.8675  -1.8536  -1.8479  -1.8408  -1.8143
    -1.8024  -1.7722  -1.7556  -1.7355  -1.6677  -1.6600  -1.6302  -1.6241
    -1.6088  -1.5809  -1.5595  -1.5235  -1.5148  -1.5052  -1.5009  -1.4901
    -1.4848  -1.4747  -1.4692  -1.4656  -1.4556  -1.4395  -1.4255  -1.4151
    -1.3842  -1.3751  -1.3181  -1.2897  -1.2705  -1.2589  -1.2415  -1.2145
    -1.1960  -1.1509  -1.1227  -1.1160  -1.0928  -1.0681  -1.0335  -1.0094
    -0.9890  -0.9621  -0.9382  -0.9307  -0.9021  -0.8820  -0.8512  -0.8004
    -0.7520  -0.7343  -0.7232  -0.7091  -0.7054  -0.6986  -0.6918  -0.6807
    -0.6663  -0.6507  -0.5673  -0.5601  -0.5489  -0.5420  -0.5295  -0.5163
    -0.5070  -0.4916  -0.4786  -0.4735  -0.4632  -0.4407  -0.3737  -0.3576
    -0.3532  -0.3465  -0.3199  -0.2670  -0.2594  -0.2299  -0.2224  -0.1831
    -0.1597  -0.1434  -0.1377  -0.1175  -0.1133  -0.1098  -0.1035  -0.0708
    -0.0137   0.0001   0.3822   0.6109   0.9154   1.0768   1.1187   1.2442
     1.4421   1.4959

          k = 0.4000 0.0000 0.0000 ( 51202 PWs)   bands (ev):

   -22.0240  -9.0616  -7.2640  -6.3798  -6.0870  -5.9188  -5.6948  -5.4846
    -5.3384  -5.1290  -4.7756  -4.6155  -4.4936  -4.4882  -4.3382  -4.2734
    -4.2626  -4.1694  -4.1610  -4.0995  -4.0413  -3.9570  -3.9005  -3.8832
    -3.8231  -3.7842  -3.6885  -3.6832  -3.6522  -3.6419  -3.6329  -3.6084
    -3.5900  -3.5790  -3.5604  -3.5237  -3.4792  -3.4540  -3.4399  -3.4007
    -3.3090  -3.2448  -3.2154  -3.1916  -3.1635  -3.1539  -3.0801  -3.0462
    -3.0232  -2.9840  -2.9746  -2.9659  -2.9452  -2.9138  -2.9034  -2.8899
    -2.8772  -2.8657  -2.7686  -2.7014  -2.6940  -2.6730  -2.6428  -2.6280
    -2.6173  -2.5772  -2.5039  -2.4341  -2.4126  -2.3910  -2.3830  -2.3465
    -2.3426  -2.3262  -2.3183  -2.2991  -2.2793  -2.2703  -2.2606  -2.2514
    -2.2189  -2.1905  -2.1671  -2.1160  -2.0712  -2.0669  -2.0502  -2.0343
    -2.0164  -2.0052  -1.9803  -1.9575  -1.9524  -1.9311  -1.9064  -1.9025
    -1.9003  -1.8960  -1.8907  -1.8743  -1.8618  -1.8454  -1.8287  -1.8204
    -1.8084  -1.7832  -1.7463  -1.7264  -1.7195  -1.6974  -1.6744  -1.6681
    -1.6586  -1.6453  -1.6290  -1.5875  -1.5688  -1.5554  -1.5373  -1.5273
    -1.5082  -1.4962  -1.4898  -1.4785  -1.4573  -1.4381  -1.4248  -1.3695
    -1.3598  -1.3354  -1.3229  -1.2432  -1.2189  -1.2015  -1.1805  -1.0993
    -1.0825  -1.0654  -1.0622  -1.0438  -1.0403  -1.0283  -1.0055  -0.9979
    -0.9839  -0.9563  -0.9407  -0.8999  -0.8851  -0.8721  -0.8686  -0.8519
    -0.8200  -0.8088  -0.7977  -0.7789  -0.7724  -0.7506  -0.6326  -0.6128
    -0.5950  -0.5813  -0.5718  -0.5620  -0.5574  -0.5328  -0.5256  -0.5193
    -0.4993  -0.4807  -0.4488  -0.4349  -0.4151  -0.3988  -0.3608  -0.3426
    -0.3359  -0.3327  -0.3245  -0.3047  -0.2981  -0.2872  -0.2849  -0.2666
    -0.2542  -0.1774  -0.1703  -0.1629  -0.1252  -0.1186  -0.0915   0.0366
     0.2001   0.2288   0.2709   0.3379   0.5332   0.6112   0.9289   1.1200
     1.2081   1.4661

          k = 0.4000 0.2309 0.0000 ( 51204 PWs)   bands (ev):

   -22.0240  -9.0578  -7.1322  -6.5157  -6.2297  -5.9100  -5.4758  -5.3692
    -5.2296  -5.1524  -5.1165  -4.9378  -4.3541  -4.3165  -4.3028  -4.2399
    -4.2016  -4.1275  -4.1256  -4.0159  -3.9950  -3.9867  -3.9423  -3.8369
    -3.8094  -3.8036  -3.7971  -3.7955  -3.7117  -3.6954  -3.6840  -3.6533
    -3.5275  -3.5233  -3.5062  -3.4817  -3.4800  -3.4305  -3.3691  -3.3613
    -3.3477  -3.3381  -3.3112  -3.2180  -3.1377  -3.0992  -3.0450  -3.0284
    -3.0093  -2.9790  -2.9657  -2.9586  -2.9435  -2.9278  -2.9021  -2.8691
    -2.8562  -2.8311  -2.7994  -2.7578  -2.6546  -2.6490  -2.6274  -2.6109
    -2.5736  -2.5337  -2.5131  -2.5062  -2.4934  -2.4231  -2.3693  -2.3662
    -2.3590  -2.3545  -2.3432  -2.3239  -2.3117  -2.3016  -2.2765  -2.2419
    -2.2365  -2.2071  -2.1896  -2.1662  -2.1397  -2.1088  -2.0639  -2.0525
    -2.0354  -2.0264  -2.0077  -1.9965  -1.9735  -1.9353  -1.9283  -1.9187
    -1.9085  -1.8997  -1.8803  -1.8708  -1.8544  -1.8462  -1.8420  -1.8122
    -1.8005  -1.7849  -1.7508  -1.7360  -1.6698  -1.6610  -1.6326  -1.6230
    -1.6083  -1.5810  -1.5553  -1.5229  -1.5158  -1.5080  -1.5022  -1.4932
    -1.4877  -1.4749  -1.4702  -1.4626  -1.4568  -1.4377  -1.4205  -1.4047
    -1.3907  -1.3751  -1.3241  -1.2889  -1.2696  -1.2509  -1.2356  -1.2149
    -1.2004  -1.1504  -1.1244  -1.1140  -1.0892  -1.0706  -1.0382  -1.0036
    -0.9886  -0.9653  -0.9341  -0.9298  -0.9003  -0.8817  -0.8525  -0.8195
    -0.7459  -0.7300  -0.7165  -0.7097  -0.7051  -0.6969  -0.6900  -0.6797
    -0.6725  -0.6630  -0.5687  -0.5574  -0.5522  -0.5394  -0.5310  -0.5149
    -0.5048  -0.4941  -0.4852  -0.4700  -0.4530  -0.4428  -0.3739  -0.3579
    -0.3535  -0.3469  -0.3195  -0.2648  -0.2602  -0.2270  -0.2235  -0.1830
    -0.1648  -0.1412  -0.1378  -0.1183  -0.1149  -0.1062  -0.0932  -0.0757
    -0.0124   0.0028   0.3919   0.6402   0.8785   1.0399   1.1235   1.2036
     1.4632   1.5325

          k = 0.4000-0.6928 0.0000 ( 51262 PWs)   bands (ev):

   -22.0240  -9.0535  -6.8051  -6.6727  -6.2200  -5.9707  -5.9030  -5.3919
    -5.2137  -5.2045  -5.0399  -4.7044  -4.4721  -4.2354  -4.1823  -4.0601
    -4.0555  -4.0327  -4.0222  -4.0005  -3.9703  -3.9508  -3.9441  -3.9399
    -3.9254  -3.8249  -3.7998  -3.7925  -3.7745  -3.7593  -3.7521  -3.6274
    -3.6093  -3.6060  -3.5883  -3.5636  -3.5062  -3.4458  -3.3569  -3.3139
    -3.3106  -3.2984  -3.2155  -3.2016  -3.1780  -3.1319  -3.0962  -3.0931
    -3.0530  -3.0155  -2.9916  -2.9337  -2.9119  -2.8781  -2.8650  -2.8190
    -2.8040  -2.7406  -2.7307  -2.7260  -2.7129  -2.7028  -2.6528  -2.6401
    -2.5745  -2.5174  -2.5099  -2.4956  -2.4848  -2.4448  -2.4219  -2.3713
    -2.3576  -2.3317  -2.3255  -2.3154  -2.3015  -2.2778  -2.2635  -2.2560
    -2.2377  -2.2242  -2.2042  -2.1903  -2.1823  -2.1448  -2.1216  -2.1028
    -2.0859  -2.0527  -2.0234  -1.9853  -1.9665  -1.9445  -1.9325  -1.9231
    -1.9089  -1.9011  -1.8932  -1.8774  -1.8613  -1.8504  -1.8450  -1.7784
    -1.7646  -1.7500  -1.7441  -1.7330  -1.7156  -1.7081  -1.7029  -1.6961
    -1.6902  -1.6749  -1.6603  -1.6485  -1.6039  -1.5797  -1.5728  -1.5439
    -1.5193  -1.4962  -1.4664  -1.4388  -1.4256  -1.4171  -1.4032  -1.3849
    -1.3413  -1.3354  -1.3098  -1.2628  -1.2259  -1.2034  -1.1823  -1.1747
    -1.1476  -1.1308  -1.1272  -1.1086  -1.0929  -1.0757  -1.0548  -1.0302
    -0.9879  -0.9833  -0.9665  -0.9426  -0.9327  -0.8932  -0.8844  -0.8711
    -0.8531  -0.8446  -0.8259  -0.8105  -0.7815  -0.7703  -0.7452  -0.5932
    -0.5814  -0.5674  -0.5617  -0.5524  -0.5468  -0.5306  -0.5247  -0.4874
    -0.4817  -0.4686  -0.4625  -0.4414  -0.4015  -0.3469  -0.3374  -0.3318
    -0.3125  -0.3043  -0.2879  -0.2530  -0.2456  -0.2356  -0.2278  -0.2202
    -0.2090  -0.2009  -0.1354  -0.1304  -0.1165  -0.1096  -0.0837  -0.0575
     0.1419   0.2631   0.5426   0.7535   1.0346   1.1847   1.2175   1.5725
     1.6777   1.7149

          k = 0.4000-0.4619 0.0000 ( 51262 PWs)   bands (ev):

   -22.0240  -9.0543  -6.7954  -6.6745  -6.2225  -6.0058  -5.8476  -5.4307
    -5.2404  -5.1910  -5.0130  -4.7029  -4.4709  -4.2333  -4.1863  -4.0609
    -4.0554  -4.0408  -4.0220  -4.0166  -3.9713  -3.9491  -3.9431  -3.9400
    -3.9232  -3.8403  -3.7966  -3.7922  -3.7715  -3.7640  -3.7311  -3.6278
    -3.6086  -3.6029  -3.5826  -3.5578  -3.5057  -3.4490  -3.3655  -3.3142
    -3.3103  -3.2941  -3.2190  -3.2020  -3.1801  -3.1270  -3.0975  -3.0889
    -3.0434  -3.0198  -2.9952  -2.9323  -2.9125  -2.8810  -2.8635  -2.8234
    -2.8019  -2.7405  -2.7324  -2.7232  -2.7126  -2.7014  -2.6626  -2.6291
    -2.5744  -2.5173  -2.5094  -2.4981  -2.4814  -2.4366  -2.4294  -2.3733
    -2.3601  -2.3323  -2.3237  -2.3104  -2.3053  -2.2824  -2.2620  -2.2575
    -2.2390  -2.2300  -2.2092  -2.1887  -2.1814  -2.1392  -2.1069  -2.1036
    -2.0838  -2.0617  -2.0193  -1.9866  -1.9677  -1.9409  -1.9317  -1.9256
    -1.9068  -1.9010  -1.8930  -1.8812  -1.8642  -1.8465  -1.8417  -1.7790
    -1.7687  -1.7457  -1.7401  -1.7374  -1.7181  -1.7123  -1.7058  -1.6933
    -1.6889  -1.6811  -1.6579  -1.6434  -1.6033  -1.5803  -1.5741  -1.5409
    -1.5008  -1.4946  -1.4791  -1.4391  -1.4236  -1.4149  -1.4048  -1.3859
    -1.3413  -1.3387  -1.3149  -1.2631  -1.2237  -1.2038  -1.1801  -1.1727
    -1.1489  -1.1335  -1.1223  -1.1185  -1.0864  -1.0732  -1.0546  -1.0321
    -0.9915  -0.9846  -0.9657  -0.9455  -0.9288  -0.8949  -0.8811  -0.8654
    -0.8519  -0.8450  -0.8343  -0.8055  -0.7827  -0.7662  -0.7493  -0.5993
    -0.5793  -0.5649  -0.5600  -0.5519  -0.5400  -0.5343  -0.5209  -0.4869
    -0.4825  -0.4734  -0.4586  -0.4451  -0.4010  -0.3454  -0.3391  -0.3321
    -0.3065  -0.3030  -0.2944  -0.2718  -0.2490  -0.2348  -0.2269  -0.2132
    -0.2082  -0.1863  -0.1333  -0.1323  -0.1168  -0.1087  -0.0843  -0.0601
     0.1288   0.2592   0.5075   0.8425   1.0063   1.1837   1.2282   1.5350
     1.6529   1.7231

 ------ SPIN DOWN ----------


          k = 0.0000 0.0000 0.0000 ( 51087 PWs)   bands (ev):

   -22.1183  -9.1779  -7.8039  -6.6484  -5.8138  -5.6980  -5.3916  -5.1531
    -4.6428  -4.6291  -4.6271  -4.6121  -4.5984  -4.5668  -4.2529  -3.7612
    -3.7567  -3.7433  -3.7329  -3.7208  -3.6453  -3.3461  -2.8215  -2.8124
    -2.8021  -2.7991  -2.7173  -2.6053  -2.3589  -2.3499  -2.3421  -2.3377
    -2.3157  -2.2361  -2.1429  -2.1400  -2.0691  -2.0630  -2.0446  -2.0429
    -1.9592  -1.9572  -1.9088  -1.9054  -1.8441  -1.8247  -1.8074  -1.7953
    -1.7627  -1.7191  -1.5599  -1.5562  -1.5355  -1.5298  -1.5257  -1.5229
    -1.5074  -1.5062  -1.4766  -1.4605  -1.4368  -1.4343  -1.4299  -1.4289
    -1.3498  -1.2668  -0.9116  -0.8856  -0.8477  -0.8457  -0.7862  -0.7239
    -0.6563  -0.5929  -0.5517  -0.5452  -0.5290  -0.5227  -0.5108  -0.4936
    -0.4778  -0.4674  -0.4504  -0.4388  -0.4334  -0.4311  -0.4301  -0.3991
    -0.3732  -0.3277  -0.3207  -0.3032  -0.2974  -0.2857  -0.2736  -0.2712
    -0.2648  -0.2476  -0.2429  -0.2415  -0.2393  -0.2377  -0.2180  -0.1573
    -0.1357  -0.1205  -0.1102  -0.0654  -0.0351  -0.0286  -0.0154  -0.0105
    -0.0083  -0.0038  -0.0014   0.0648   0.0657   0.0719   0.1179   0.1357
     0.1421   0.1608   0.1662   0.2049   0.2763   0.3801   0.3838   0.4421
     0.4523   0.4588   0.4674   0.4728   0.6392   0.6714   0.7702   0.7845
     0.8176   0.8352   0.9994   1.0095   1.0206   1.0343   1.0401   1.0459
     1.0644   1.1623   1.1851   1.1986   1.2140   1.2149   1.2283   1.2502
     1.2526   1.2675   1.2806   1.2929   1.3095   1.3118   1.3239   1.3472
     1.3589   1.3629   1.3698   1.3915   1.4135   1.4195   1.4291   1.4444
     1.4449   1.4572   1.4705   1.4786   1.4825   1.4963   1.4989   1.5330
     1.5431   1.5597   1.5612   1.5701   1.5737   1.5794   1.5860   1.6244
     1.6302   1.6314   1.6342   1.6400   1.6406   1.6532   1.6561   1.6681
     1.6722   1.7169   1.7191   1.8569   1.8657   1.8695   1.8727   1.8746
     1.8764   2.0489

          k = 0.0000 0.2309 0.0000 ( 51134 PWs)   bands (ev):

   -22.1183  -9.1676  -7.6625  -6.5500  -5.8564  -5.7257  -5.5481  -5.3714
    -5.1537  -4.9874  -4.9182  -4.4730  -4.1259  -4.0805  -4.0590  -3.9627
    -3.8541  -3.7755  -3.4605  -3.4089  -3.3686  -3.2641  -2.9331  -2.8138
    -2.7716  -2.7228  -2.6857  -2.6220  -2.4461  -2.3775  -2.3720  -2.3546
    -2.3408  -2.2926  -2.2861  -2.2846  -2.2445  -2.2076  -2.1075  -2.1025
    -2.0204  -2.0161  -1.9450  -1.8712  -1.8353  -1.8243  -1.8110  -1.7040
    -1.6820  -1.6546  -1.6114  -1.5783  -1.5582  -1.5400  -1.5314  -1.5249
    -1.5150  -1.5049  -1.4157  -1.4038  -1.3876  -1.3694  -1.3330  -1.2864
    -1.2500  -1.1620  -0.9624  -0.9215  -0.8970  -0.8933  -0.8338  -0.7957
    -0.7343  -0.7097  -0.6871  -0.6553  -0.5980  -0.5806  -0.5673  -0.5547
    -0.5108  -0.4986  -0.4912  -0.4843  -0.4734  -0.4505  -0.4129  -0.4045
    -0.3942  -0.3208  -0.3197  -0.3078  -0.2864  -0.2749  -0.2559  -0.2487
    -0.2447  -0.2364  -0.2310  -0.2205  -0.2180  -0.2167  -0.1805  -0.1649
    -0.1526  -0.1370  -0.1227  -0.1128  -0.0853  -0.0795  -0.0614  -0.0349
    -0.0329  -0.0029   0.0132   0.0704   0.0906   0.0990   0.1294   0.1324
     0.2200   0.2553   0.2904   0.3442   0.3508   0.3571   0.4175   0.4243
     0.4316   0.4385   0.4470   0.4529   0.5898   0.7029   0.7668   0.7773
     0.7876   0.7988   0.8079   0.8214   0.8687   0.8843   0.9375   0.9563
     0.9931   1.0283   1.0581   1.0662   1.0907   1.1113   1.1342   1.1842
     1.2140   1.2329   1.2420   1.2446   1.2738   1.2796   1.3219   1.3299
     1.3472   1.3689   1.4151   1.4214   1.4360   1.4396   1.4642   1.4768
     1.5130   1.5204   1.5249   1.5293   1.5552   1.6091   1.6130   1.6240
     1.6279   1.6541   1.6562   1.6816   1.6917   1.6969   1.7054   1.7115
     1.7334   1.7715   1.7798   1.7918   1.7946   1.8055   1.8183   1.8340
     1.8587   1.8597   1.8640   1.9015   1.9546   1.9657   1.9685   2.0197
     2.0481   2.1082

          k = 0.0000 0.4619 0.0000 ( 51204 PWs)   bands (ev):

   -22.1183  -9.1515  -7.2421  -6.5880  -6.2584  -5.8093  -5.6709  -5.3956
    -5.2734  -5.1591  -5.1055  -4.8045  -4.1131  -4.0231  -3.8721  -3.4625
    -3.4610  -3.4029  -3.3362  -3.1681  -3.0558  -3.0203  -2.9938  -2.8618
    -2.8586  -2.7993  -2.7478  -2.7027  -2.6430  -2.6218  -2.6088  -2.5581
    -2.5433  -2.4040  -2.3357  -2.3256  -2.2570  -2.2320  -2.1362  -2.1236
    -2.1088  -2.0987  -2.0234  -1.8457  -1.8244  -1.7992  -1.7802  -1.7328
    -1.6088  -1.6003  -1.5918  -1.5780  -1.5621  -1.5412  -1.5335  -1.5116
    -1.4859  -1.4227  -1.4103  -1.3957  -1.3735  -1.3608  -1.2188  -1.1832
    -1.0784  -1.0514  -0.9499  -0.9251  -0.9068  -0.8737  -0.8646  -0.8518
    -0.8330  -0.8118  -0.7883  -0.7804  -0.7105  -0.6955  -0.6697  -0.6455
    -0.6226  -0.6049  -0.5828  -0.5757  -0.5419  -0.5081  -0.4651  -0.4316
    -0.4207  -0.3717  -0.3640  -0.3533  -0.3005  -0.2815  -0.2657  -0.2287
    -0.2171  -0.2034  -0.1890  -0.1821  -0.1727  -0.1674  -0.1192  -0.1097
    -0.1072  -0.0786  -0.0705  -0.0634  -0.0549  -0.0378  -0.0284  -0.0052
     0.0065   0.0189   0.0617   0.0926   0.1441   0.1517   0.1672   0.1960
     0.2070   0.2158   0.2424   0.2619   0.3093   0.3165   0.3318   0.3545
     0.3802   0.4001   0.4120   0.4220   0.4581   0.5145   0.5819   0.5899
     0.6638   0.6897   0.7590   0.7778   0.8299   0.8458   0.8720   0.8781
     0.9025   0.9141   0.9390   0.9863   0.9882   1.0423   1.1657   1.1781
     1.1853   1.2201   1.2283   1.2358   1.2808   1.3008   1.3381   1.3399
     1.3683   1.3861   1.3970   1.4651   1.4756   1.4827   1.5366   1.5418
     1.5464   1.5494   1.5777   1.5851   1.6137   1.6270   1.6386   1.6595
     1.6655   1.7084   1.7260   1.7718   1.7829   1.7964   1.8074   1.8175
     1.8243   1.8604   1.8617   1.8769   1.8868   1.8976   1.9070   1.9089
     1.9550   2.0113   2.0427   2.1044   2.1179   2.1900   2.5448   2.6226
     2.6507   2.7060

          k = 0.2000-0.1155 0.0000 ( 51134 PWs)   bands (ev):

   -22.1183  -9.1654  -7.6642  -6.5528  -5.9112  -5.6969  -5.5227  -5.3726
    -5.1334  -4.9949  -4.9333  -4.4061  -4.2215  -4.0756  -4.0636  -3.9301
    -3.8460  -3.7804  -3.4774  -3.3967  -3.3292  -3.2659  -2.9816  -2.7888
    -2.7804  -2.7413  -2.6835  -2.5976  -2.4613  -2.3752  -2.3722  -2.3620
    -2.3307  -2.3058  -2.2879  -2.2856  -2.2422  -2.1962  -2.1059  -2.1016
    -2.0213  -2.0150  -1.9640  -1.8509  -1.8325  -1.8243  -1.8055  -1.7076
    -1.6782  -1.6523  -1.6163  -1.5719  -1.5607  -1.5378  -1.5312  -1.5274
    -1.5107  -1.4978  -1.4199  -1.4031  -1.3846  -1.3657  -1.3372  -1.2971
    -1.2399  -1.1721  -0.9570  -0.9144  -0.9029  -0.8922  -0.8343  -0.7904
    -0.7634  -0.7211  -0.6854  -0.6542  -0.6078  -0.5761  -0.5612  -0.5473
    -0.5157  -0.5050  -0.4881  -0.4771  -0.4630  -0.4600  -0.4276  -0.4144
    -0.3668  -0.3275  -0.3197  -0.3168  -0.2964  -0.2693  -0.2621  -0.2500
    -0.2428  -0.2360  -0.2276  -0.2222  -0.2166  -0.2131  -0.1795  -0.1664
    -0.1439  -0.1387  -0.1211  -0.1089  -0.1026  -0.0883  -0.0651  -0.0371
    -0.0200  -0.0124   0.0268   0.0694   0.0895   0.1051   0.1161   0.1341
     0.2315   0.2616   0.2975   0.3403   0.3488   0.3700   0.4053   0.4259
     0.4339   0.4428   0.4487   0.4523   0.5974   0.7054   0.7690   0.7812
     0.7885   0.7982   0.8103   0.8266   0.8592   0.8695   0.9423   0.9677
     0.9932   1.0396   1.0660   1.0754   1.1014   1.1164   1.1318   1.1452
     1.2106   1.2325   1.2467   1.2529   1.2722   1.2843   1.3188   1.3287
     1.3426   1.3579   1.4096   1.4202   1.4313   1.4415   1.4599   1.4998
     1.5164   1.5200   1.5265   1.5315   1.5496   1.5991   1.6106   1.6186
     1.6243   1.6489   1.6584   1.6844   1.6950   1.6975   1.7059   1.7178
     1.7334   1.7759   1.7789   1.7947   1.7972   1.8068   1.8161   1.8363
     1.8494   1.8593   1.8634   1.8821   1.9590   1.9639   1.9717   2.0258
     2.0448   2.1034

          k = 0.2000 0.1155 0.0000 ( 51134 PWs)   bands (ev):

   -22.1183  -9.1649  -7.6649  -6.5545  -5.9281  -5.6820  -5.5049  -5.3883
    -5.1213  -4.9924  -4.9514  -4.3722  -4.2278  -4.0811  -4.0642  -3.9630
    -3.8337  -3.7781  -3.4771  -3.4078  -3.3168  -3.2525  -2.9859  -2.8171
    -2.7700  -2.7302  -2.6961  -2.5819  -2.4653  -2.3780  -2.3710  -2.3585
    -2.3351  -2.3057  -2.2883  -2.2859  -2.2481  -2.1860  -2.1046  -2.1024
    -2.0190  -2.0160  -1.9667  -1.8626  -1.8279  -1.8219  -1.7948  -1.7025
    -1.6865  -1.6617  -1.6024  -1.5884  -1.5517  -1.5424  -1.5290  -1.5211
    -1.5190  -1.4791  -1.4367  -1.4009  -1.3847  -1.3652  -1.3380  -1.2978
    -1.2429  -1.1702  -0.9551  -0.9168  -0.9008  -0.8896  -0.8347  -0.8162
    -0.7807  -0.7025  -0.6702  -0.6489  -0.6135  -0.5760  -0.5678  -0.5372
    -0.5203  -0.5100  -0.4859  -0.4751  -0.4689  -0.4502  -0.4433  -0.3939
    -0.3647  -0.3222  -0.3189  -0.3133  -0.3008  -0.2698  -0.2582  -0.2502
    -0.2456  -0.2360  -0.2271  -0.2203  -0.2176  -0.2133  -0.1826  -0.1661
    -0.1510  -0.1374  -0.1217  -0.1100  -0.1074  -0.0901  -0.0589  -0.0401
    -0.0226   0.0003   0.0317   0.0604   0.0895   0.1053   0.1228   0.1339
     0.2028   0.2637   0.2931   0.3377   0.3482   0.3809   0.4069   0.4228
     0.4363   0.4440   0.4472   0.4531   0.6109   0.6987   0.7672   0.7821
     0.7911   0.8036   0.8087   0.8236   0.8497   0.8832   0.9461   0.9628
     0.9937   1.0465   1.0635   1.0788   1.1003   1.1206   1.1304   1.1492
     1.2058   1.2303   1.2474   1.2566   1.2741   1.2842   1.3129   1.3278
     1.3390   1.3611   1.4127   1.4175   1.4323   1.4408   1.4588   1.5003
     1.5171   1.5209   1.5262   1.5378   1.5440   1.5926   1.6100   1.6185
     1.6267   1.6519   1.6556   1.6839   1.6920   1.7020   1.7035   1.7176
     1.7349   1.7770   1.7792   1.7932   1.7981   1.8065   1.8207   1.8353
     1.8491   1.8579   1.8633   1.8761   1.9581   1.9645   1.9744   2.0235
     2.0475   2.1003

          k = 0.2000 0.3464 0.0000 ( 51202 PWs)   bands (ev):

   -22.1183  -9.1518  -7.3844  -6.4116  -6.1002  -6.0067  -5.7019  -5.5464
    -5.3696  -5.1100  -4.6631  -4.5271  -4.2691  -4.2447  -3.9250  -3.4435
    -3.4295  -3.4249  -3.4148  -3.2934  -3.1629  -3.1309  -3.1055  -2.9079
    -2.7608  -2.6890  -2.6759  -2.6512  -2.5838  -2.5731  -2.5619  -2.4781
    -2.4716  -2.4646  -2.4288  -2.3168  -2.3007  -2.2561  -2.0982  -2.0880
    -2.0663  -1.9993  -1.9627  -1.9488  -1.9077  -1.7968  -1.7392  -1.7353
    -1.6401  -1.6091  -1.5708  -1.5675  -1.5566  -1.5463  -1.5217  -1.5100
    -1.4992  -1.4806  -1.4241  -1.3795  -1.3515  -1.3005  -1.1961  -1.1689
    -1.1073  -1.0827  -0.9929  -0.9315  -0.8956  -0.8703  -0.8376  -0.8283
    -0.8033  -0.7792  -0.7438  -0.7264  -0.7099  -0.6829  -0.6584  -0.6464
    -0.6385  -0.6244  -0.6025  -0.5728  -0.5410  -0.4519  -0.4394  -0.4234
    -0.4095  -0.3854  -0.3560  -0.3375  -0.3199  -0.3052  -0.2902  -0.2834
    -0.2662  -0.2453  -0.2284  -0.2175  -0.1970  -0.1838  -0.1664  -0.1334
    -0.1191  -0.1147  -0.1045  -0.0906  -0.0707  -0.0653  -0.0521  -0.0437
     0.0392   0.0488   0.0567   0.0746   0.1164   0.1727   0.2040   0.2225
     0.2468   0.2594   0.2987   0.3244   0.3516   0.3574   0.3718   0.3814
     0.3880   0.4113   0.4299   0.4764   0.5166   0.6118   0.6775   0.6977
     0.7429   0.7687   0.7972   0.8240   0.8413   0.8510   0.8612   0.8802
     0.8959   0.9046   0.9265   0.9407   0.9791   1.0259   1.0835   1.0891
     1.1169   1.1468   1.1482   1.1783   1.2015   1.2492   1.2662   1.3139
     1.3289   1.3716   1.4626   1.4890   1.5015   1.5152   1.5317   1.5412
     1.5662   1.5759   1.5907   1.5958   1.6571   1.6635   1.6770   1.6830
     1.6940   1.7191   1.7329   1.7445   1.7562   1.7720   1.7756   1.7974
     1.8171   1.8182   1.8289   1.8439   1.8505   1.8624   1.9064   1.9344
     1.9433   1.9910   2.0485   2.0740   2.1777   2.2096   2.3539   2.4534
     2.5293   2.5466

          k = 0.2000-0.5774 0.0000 ( 51262 PWs)   bands (ev):

   -22.1183  -9.1445  -6.8706  -6.8047  -6.2629  -6.0933  -5.7323  -5.5959
    -5.3086  -5.2405  -4.8879  -4.5790  -4.3097  -3.7920  -3.4800  -3.4606
    -3.4561  -3.3843  -3.2106  -3.1392  -3.0500  -3.0410  -3.0352  -2.9094
    -2.9047  -2.8909  -2.8664  -2.8651  -2.7466  -2.6226  -2.5238  -2.5152
    -2.4931  -2.4644  -2.4394  -2.4237  -2.3631  -2.3142  -2.2543  -2.0344
    -1.9786  -1.9693  -1.9629  -1.9093  -1.8805  -1.7957  -1.7347  -1.7233
    -1.6864  -1.6728  -1.6618  -1.5640  -1.5497  -1.5084  -1.4997  -1.4814
    -1.4445  -1.3917  -1.3409  -1.3325  -1.2906  -1.2691  -1.2448  -1.1450
    -1.0974  -0.9908  -0.9568  -0.9468  -0.9303  -0.8752  -0.8712  -0.8303
    -0.8168  -0.7997  -0.7746  -0.7478  -0.7214  -0.6915  -0.6752  -0.6704
    -0.6399  -0.6299  -0.6098  -0.5966  -0.5897  -0.5743  -0.5403  -0.5224
    -0.5105  -0.4732  -0.4477  -0.4302  -0.3718  -0.3578  -0.3332  -0.2937
    -0.2606  -0.2294  -0.2210  -0.1999  -0.1887  -0.1677  -0.1627  -0.1333
    -0.1040  -0.0831  -0.0609  -0.0457  -0.0141  -0.0073   0.0356   0.0749
     0.0965   0.1100   0.1250   0.1306   0.1512   0.1723   0.2277   0.2380
     0.2455   0.2629   0.2987   0.3101   0.3224   0.3433   0.3767   0.4019
     0.4113   0.4301   0.4410   0.4702   0.4787   0.4993   0.5218   0.5539
     0.6114   0.6637   0.7071   0.7634   0.7889   0.8094   0.8187   0.8324
     0.8561   0.8727   0.8868   0.9217   1.0068   1.0217   1.0381   1.0739
     1.0910   1.1007   1.1495   1.1790   1.1928   1.2055   1.2578   1.3119
     1.3505   1.3960   1.4488   1.4558   1.5296   1.5448   1.5803   1.5868
     1.5935   1.6051   1.6143   1.6338   1.6624   1.6762   1.6838   1.6971
     1.7201   1.7570   1.7650   1.7767   1.7869   1.7904   1.7935   1.7993
     1.8169   1.8420   1.8587   1.8901   1.8958   1.9093   1.9175   1.9360
[...]
     atom    8 type  1   force =     0.00427197   -0.00210904   -0.10138547
     atom    9 type  1   force =    -0.00085037   -0.00170939   -0.10466971
     atom   10 type  1   force =    -0.00043492    0.00134372   -0.01205068
     atom   11 type  1   force =     0.00029885    0.00080606   -0.00751869
     atom   12 type  1   force =     0.00056839    0.00063485   -0.00975324
     atom   13 type  1   force =     0.00203150   -0.00177483   -0.01145712
     atom   14 type  1   force =    -0.00165145   -0.00072935   -0.01039528
     atom   15 type  1   force =    -0.00055716   -0.00083523   -0.01352041
     atom   16 type  1   force =    -0.00103127   -0.00033851   -0.01704843
     atom   17 type  1   force =     0.00222970   -0.00054009   -0.01126779
     atom   18 type  1   force =    -0.00156279    0.00175248   -0.01547537
     atom   19 type  1   force =     0.00074972    0.00768364    0.00864838
     atom   20 type  1   force =    -0.00293188    0.00884583    0.00100614
     atom   21 type  1   force =     0.00208593    0.00203146    0.01444060
     atom   22 type  1   force =     0.00127605   -0.00033449    0.01941821
     atom   23 type  1   force =     0.00027374    0.00104241    0.01030850
     atom   24 type  1   force =    -0.00151005    0.00079321    0.01643065
     atom   25 type  1   force =    -0.00295149   -0.00468688   -0.00257563
     atom   26 type  1   force =     0.00152022   -0.00668761    0.00011034
     atom   27 type  1   force =     0.00210186   -0.00518586    0.00322966
     atom   28 type  1   force =     0.05874283    0.00526790    0.07170905
     atom   29 type  1   force =    -0.05258383    0.00642682    0.06961729
     atom   30 type  1   force =     0.00203678    0.00399075    0.07723275
     atom   31 type  1   force =     0.00574057   -0.04288172    0.14621273
     atom   32 type  1   force =    -0.00194912   -0.00913326    0.09563440
     atom   33 type  1   force =    -0.00342674   -0.00114531    0.11523123
     atom   34 type  1   force =    -0.00170045   -0.00502121    0.11219535
     atom   35 type  1   force =     0.00388736    0.03912165    0.14024144
     atom   36 type  1   force =    -0.00167091    0.00445693    0.11410891
     atom   37 type  2   force =     0.04239594    0.04729918    0.44608573
     atom   38 type  3   force =    -0.06326040   -0.19415478   -2.71423846
     atom   39 type  4   force =     0.00050011   -0.00149535   -0.02188643
     The ionic contribution  to forces
     atom    1 type  1   force =    -0.00620018    0.00708066 -111.12423804
     atom    2 type  1   force =     0.00438560    0.00776876 -111.12782948
     atom    3 type  1   force =     0.00181457    0.00312774 -111.11551358
     atom    4 type  1   force =    -0.00031015    0.00364313 -111.11218753
     atom    5 type  1   force =    -0.00089521   -0.00209160 -111.11455767
     atom    6 type  1   force =     0.00120536   -0.00396352 -111.11391681
     atom    7 type  1   force =    -0.00559422   -0.00373512 -111.11819845
     atom    8 type  1   force =    -0.00146483   -0.00684677 -111.13240331
     atom    9 type  1   force =     0.00705906   -0.00498331 -111.12116168
     atom   10 type  1   force =    -0.05597313   -0.00816008  -40.15273882
     atom   11 type  1   force =     0.04258601   -0.01327256  -40.17818071
     atom   12 type  1   force =     0.01338472   -0.00980966  -40.06840651
     atom   13 type  1   force =    -0.00997346    0.07167172  -40.10674345
     atom   14 type  1   force =     0.02918285    0.03507155  -40.06827837
     atom   15 type  1   force =    -0.01920857    0.02550355  -40.04745250
     atom   16 type  1   force =    -0.02145377   -0.01307565  -40.03889348
     atom   17 type  1   force =    -0.00215603   -0.06197078  -40.08689422
     atom   18 type  1   force =     0.02361054   -0.02595969  -40.04363450
     atom   19 type  1   force =    -0.32529984    0.36556225   31.18078064
     atom   20 type  1   force =     0.21821077    0.41370093   31.01225704
     atom   21 type  1   force =     0.10684837    0.14967852   31.58377391
     atom   22 type  1   force =    -0.01052797    0.16332818   31.74543288
     atom   23 type  1   force =    -0.04598366   -0.10121101   31.65675855
     atom   24 type  1   force =     0.05649272   -0.17980807   31.68271627
     atom   25 type  1   force =    -0.27751272   -0.17249361   31.49201041
     atom   26 type  1   force =    -0.06118290   -0.38222028   30.71536648
     atom   27 type  1   force =     0.33908867   -0.26009691   31.33829833
     atom   28 type  1   force =    -4.42313410   -0.46649888   99.08870777
     atom   29 type  1   force =     3.16126330   -1.01360634   98.60557889
     atom   30 type  1   force =     1.14650793   -0.67416168  103.56594462
     atom   31 type  1   force =    -0.22478849    3.32439206  102.38050767
     atom   32 type  1   force =     0.90711236    1.82104691  103.62077580
     atom   33 type  1   force =    -0.67641759    0.81348581  104.23710532
     atom   34 type  1   force =    -0.67426978   -0.46057170  104.38552107
     atom   35 type  1   force =    -0.01714328   -2.72690786  103.05798911
     atom   36 type  1   force =     0.69588258   -0.77774744  104.34175315
     atom   37 type  2   force =    -0.34334208   -0.63617377   50.96142518
     atom   38 type  3   force =     0.03575304    0.63537162   89.25981304
     atom   39 type  4   force =     0.41244351    0.16493291   14.95871298
     The local contribution  to forces
     atom    1 type  1   force =     0.00611231   -0.00806259  111.22915877
     atom    2 type  1   force =    -0.00186391   -0.01001040  111.23657256
     atom    3 type  1   force =    -0.00414162   -0.00375340  111.21855826
     atom    4 type  1   force =    -0.00174380   -0.00273833  111.21728092
     atom    5 type  1   force =    -0.00026151    0.00236074  111.21972773
     atom    6 type  1   force =     0.00134206    0.00149815  111.22105139
     atom    7 type  1   force =     0.00871845    0.00373712  111.22415619
     atom    8 type  1   force =    -0.00313949    0.00988176  111.23793405
     atom    9 type  1   force =    -0.00585471    0.00770633  111.22903387
     atom   10 type  1   force =     0.05550139    0.00500174   40.14393499
     atom   11 type  1   force =    -0.04157176    0.01238674   40.16387860
     atom   12 type  1   force =    -0.01381282    0.00881715   40.05841696
     atom   13 type  1   force =     0.00721165   -0.06888671   40.10032944
     atom   14 type  1   force =    -0.02791584   -0.03336634   40.05838522
     atom   15 type  1   force =     0.02074942   -0.02325098   40.03918048
     atom   16 type  1   force =     0.02230605    0.01445156   40.03547914
     atom   17 type  1   force =    -0.00078362    0.06120038   40.08047306
     atom   18 type  1   force =    -0.02141965    0.02399387   40.03842780
     atom   19 type  1   force =     0.32493414   -0.37096197  -31.17196047
     atom   20 type  1   force =    -0.21703112   -0.42014500  -30.99809834
     atom   21 type  1   force =    -0.10793770   -0.15196678  -31.57754109
     atom   22 type  1   force =     0.00805642   -0.16480329  -31.73975567
     atom   23 type  1   force =     0.04501930    0.09913465  -31.64510722
     atom   24 type  1   force =    -0.05353017    0.17854308  -31.67845527
     atom   25 type  1   force =     0.28025578    0.17711244  -31.47561010
     atom   26 type  1   force =     0.05989165    0.38936881  -30.69816859
     atom   27 type  1   force =    -0.34184501    0.26310509  -31.32844081
     atom   28 type  1   force =     4.34819602    0.45929192  -99.15725496
     atom   29 type  1   force =    -3.10878606    1.00154530  -98.66128036
     atom   30 type  1   force =    -1.13174243    0.66260992 -103.65214440
     atom   31 type  1   force =     0.21490731   -3.26992868 -102.53475019
     atom   32 type  1   force =    -0.90133891   -1.79822604 -103.72393367
     atom   33 type  1   force =     0.68041706   -0.80896624 -104.36233344
     atom   34 type  1   force =     0.67535953    0.46516569 -104.50473153
     atom   35 type  1   force =     0.01299556    2.67821158 -103.20386591
     atom   36 type  1   force =    -0.69233641    0.76764628 -104.46423838
     atom   37 type  2   force =     0.30183749    0.59045829  -51.40140546
     atom   38 type  3   force =     0.02667390   -0.44542971  -86.57062648
     atom   39 type  4   force =    -0.41383132   -0.16029970  -14.93511632
     The core correction contribution to forces
     atom    1 type  1   force =    -0.00012285   -0.00016895    0.00972063
     atom    2 type  1   force =     0.00003342   -0.00039192    0.00989114
     atom    3 type  1   force =     0.00011914    0.00003474    0.00987674
     atom    4 type  1   force =     0.00005163    0.00004963    0.00999223
     atom    5 type  1   force =     0.00008331    0.00009343    0.01003254
     atom    6 type  1   force =    -0.00005827   -0.00007133    0.00984147
     atom    7 type  1   force =     0.00006343    0.00013589    0.01013174
     atom    8 type  1   force =    -0.00016478    0.00043048    0.00987330
     atom    9 type  1   force =    -0.00007829    0.00013180    0.01017474
     atom   10 type  1   force =     0.00017619    0.00003656   -0.00188252
     atom   11 type  1   force =    -0.00000261    0.00019203   -0.00160160
     atom   12 type  1   force =    -0.00016724    0.00017280   -0.00175170
     atom   13 type  1   force =    -0.00039902    0.00006937   -0.00173716
     atom   14 type  1   force =     0.00016176   -0.00006518   -0.00198909
     atom   15 type  1   force =     0.00027227    0.00007556   -0.00167146
     atom   16 type  1   force =     0.00007439   -0.00006282   -0.00179540
     atom   17 type  1   force =    -0.00017347    0.00005222   -0.00208209
     atom   18 type  1   force =     0.00003643   -0.00034959   -0.00166518
     atom   19 type  1   force =    -0.00019125    0.00060239    0.00078724
     atom   20 type  1   force =    -0.00006176    0.00063230    0.00041744
     atom   21 type  1   force =     0.00039378    0.00012761    0.00187345
     atom   22 type  1   force =    -0.00017915    0.00008816    0.00220492
     atom   23 type  1   force =    -0.00029677    0.00060658    0.00139278
     atom   24 type  1   force =     0.00032163   -0.00039624    0.00138198
     atom   25 type  1   force =     0.00015162   -0.00046246    0.00124196
     atom   26 type  1   force =    -0.00100010   -0.00127776    0.00075285
     atom   27 type  1   force =     0.00047827   -0.00030623    0.00150763
     atom   28 type  1   force =     0.01197800    0.00033289   -0.00511884
     atom   29 type  1   force =    -0.00148986    0.00639705   -0.00045476
     atom   30 type  1   force =    -0.00957835    0.00477823   -0.00580349
     atom   31 type  1   force =     0.00038651   -0.00720160   -0.00621282
     atom   32 type  1   force =    -0.00023023   -0.01068381   -0.00546391
     atom   33 type  1   force =    -0.00004618   -0.00207189   -0.00947468
     atom   34 type  1   force =     0.00071592    0.00111941   -0.00950575
     atom   35 type  1   force =    -0.00046290    0.00583467   -0.00730626
     atom   36 type  1   force =    -0.00034775    0.00263442   -0.00864623
     atom   37 type  2   force =    -0.00042599   -0.00030286   -0.00133299
     atom   38 type  3   force =     0.00045119    0.00143262    0.01964420
     atom   39 type  4   force =     0.00000000    0.00000000    0.00000000
     The Hubbard contrib.    to forces
     atom    1 type  1   force =     0.00000000    0.00000000    0.00000000
     atom    2 type  1   force =     0.00000000    0.00000000    0.00000000
     atom    3 type  1   force =     0.00000000    0.00000000    0.00000000
     atom    4 type  1   force =     0.00000000    0.00000000    0.00000000
     atom    5 type  1   force =     0.00000000    0.00000000    0.00000000
     atom    6 type  1   force =     0.00000000    0.00000000    0.00000000
     atom    7 type  1   force =     0.00000000    0.00000000    0.00000000
     atom    8 type  1   force =     0.00000000    0.00000000    0.00000000
     atom    9 type  1   force =     0.00000000    0.00000000    0.00000000
     atom   10 type  1   force =     0.00000000    0.00000000    0.00000000
     atom   11 type  1   force =     0.00000000    0.00000000    0.00000000
     atom   12 type  1   force =     0.00000000    0.00000000    0.00000000
     atom   13 type  1   force =     0.00000000    0.00000000    0.00000000
     atom   14 type  1   force =     0.00000000    0.00000000    0.00000000
     atom   15 type  1   force =     0.00000000    0.00000000    0.00000000
     atom   16 type  1   force =     0.00000000    0.00000000    0.00000000
     atom   17 type  1   force =     0.00000000    0.00000000    0.00000000
     atom   18 type  1   force =     0.00000000    0.00000000    0.00000000
     atom   19 type  1   force =     0.00000000    0.00000000    0.00000000
     atom   20 type  1   force =     0.00000000    0.00000000    0.00000000
     atom   21 type  1   force =     0.00000000    0.00000000    0.00000000
     atom   22 type  1   force =     0.00000000    0.00000000    0.00000000
     atom   23 type  1   force =     0.00000000    0.00000000    0.00000000
     atom   24 type  1   force =     0.00000000    0.00000000    0.00000000
     atom   25 type  1   force =     0.00000000    0.00000000    0.00000000
     atom   26 type  1   force =     0.00000000    0.00000000    0.00000000
     atom   27 type  1   force =     0.00000000    0.00000000    0.00000000
     atom   28 type  1   force =     0.00000000    0.00000000    0.00000000
     atom   29 type  1   force =     0.00000000    0.00000000    0.00000000
     atom   30 type  1   force =     0.00000000    0.00000000    0.00000000
     atom   31 type  1   force =     0.00000000    0.00000000    0.00000000
     atom   32 type  1   force =     0.00000000    0.00000000    0.00000000
     atom   33 type  1   force =     0.00000000    0.00000000    0.00000000
     atom   34 type  1   force =     0.00000000    0.00000000    0.00000000
     atom   35 type  1   force =     0.00000000    0.00000000    0.00000000
     atom   36 type  1   force =     0.00000000    0.00000000    0.00000000
     atom   37 type  2   force =     0.00000000    0.00000000    0.00000000
     atom   38 type  3   force =     0.00000000    0.00000000    0.00000000
     atom   39 type  4   force =     0.00000000    0.00000000    0.00000000
     The SCF correction term to forces
     atom    1 type  1   force =     0.00000000   -0.00000000    0.00000000
     atom    2 type  1   force =    -0.00000000    0.00000000    0.00000000
     atom    3 type  1   force =     0.00000000    0.00000000    0.00000000
     atom    4 type  1   force =     0.00000000    0.00000000    0.00000000
     atom    5 type  1   force =     0.00000000    0.00000000    0.00000000
     atom    6 type  1   force =    -0.00000000    0.00000000    0.00000000
     atom    7 type  1   force =     0.00000000   -0.00000000    0.00000000
     atom    8 type  1   force =    -0.00000000   -0.00000000    0.00000000
     atom    9 type  1   force =    -0.00000000   -0.00000000    0.00000000
     atom   10 type  1   force =     0.00000000   -0.00000000    0.00000000
     atom   11 type  1   force =    -0.00000000   -0.00000000    0.00000000
     atom   12 type  1   force =     0.00000000   -0.00000000    0.00000000
     atom   13 type  1   force =    -0.00000000   -0.00000000    0.00000000
     atom   14 type  1   force =    -0.00000000    0.00000000    0.00000000
     atom   15 type  1   force =     0.00000000    0.00000000    0.00000000
     atom   16 type  1   force =     0.00000000    0.00000000    0.00000000
     atom   17 type  1   force =    -0.00000000    0.00000000    0.00000000
     atom   18 type  1   force =    -0.00000000   -0.00000000    0.00000000
     atom   19 type  1   force =     0.00000000   -0.00000000    0.00000000
     atom   20 type  1   force =    -0.00000000   -0.00000000    0.00000000
     atom   21 type  1   force =    -0.00000000    0.00000000    0.00000000
     atom   22 type  1   force =     0.00000000   -0.00000000    0.00000000
     atom   23 type  1   force =     0.00000000    0.00000000    0.00000000
     atom   24 type  1   force =    -0.00000000    0.00000000    0.00000000
     atom   25 type  1   force =     0.00000000   -0.00000000    0.00000000
     atom   26 type  1   force =    -0.00000000    0.00000000    0.00000000
     atom   27 type  1   force =    -0.00000000    0.00000000    0.00000000
     atom   28 type  1   force =     0.00000000   -0.00000000    0.00000000
     atom   29 type  1   force =    -0.00000000   -0.00000000    0.00000000
     atom   30 type  1   force =     0.00000000    0.00000000    0.00000000
     atom   31 type  1   force =     0.00000000   -0.00000000    0.00000000
     atom   32 type  1   force =    -0.00000000   -0.00000000    0.00000000
     atom   33 type  1   force =     0.00000000   -0.00000000    0.00000000
     atom   34 type  1   force =     0.00000000    0.00000000    0.00000000
     atom   35 type  1   force =    -0.00000000    0.00000000    0.00000000
     atom   36 type  1   force =    -0.00000000    0.00000000    0.00000000
     atom   37 type  2   force =    -0.00000090   -0.00000475   -0.00000630
     atom   38 type  3   force =    -0.00000330   -0.00000394    0.00000810
     atom   39 type  4   force =    -0.00000324   -0.00000140    0.00000045

     Total force =     0.008666     Total SCF correction =     0.000013

     Writing all to output data dir ./pwscf.save/

     init_run     :     11.58s CPU     12.06s WALL (       1 calls)
     electrons    :    901.77s CPU    918.30s WALL (       1 calls)
     forces       :      3.46s CPU      3.56s WALL (       1 calls)

     Called by init_run:
     wfcinit      :      8.51s CPU      8.86s WALL (       1 calls)
     potinit      :      1.96s CPU      2.06s WALL (       1 calls)
     hinit0       :      0.84s CPU      0.86s WALL (       1 calls)

     Called by electrons:
     c_bands      :    763.13s CPU    776.16s WALL (      50 calls)
     sum_band     :     95.78s CPU     97.87s WALL (      50 calls)
     v_of_rho     :      8.54s CPU      9.07s WALL (      51 calls)
     newd         :      3.72s CPU      3.81s WALL (      51 calls)
     PAW_pot      :     15.27s CPU     15.53s WALL (      51 calls)
     mix_rho      :     16.13s CPU     16.56s WALL (      50 calls)
     vdW_kernel   :      1.10s CPU      1.11s WALL (       1 calls)

     Called by c_bands:
     init_us_2    :      8.81s CPU      9.07s WALL (    2652 calls)
     init_us_2:cp :      8.79s CPU      9.06s WALL (    2652 calls)
     cegterg      :    737.49s CPU    749.69s WALL (    1300 calls)

     Called by *egterg:
     cdiaghg      :    202.07s CPU    204.20s WALL (    4590 calls)
     h_psi        :    351.87s CPU    358.98s WALL (    4616 calls)
     s_psi        :     38.03s CPU     38.77s WALL (    4616 calls)
     g_psi        :      0.91s CPU      0.93s WALL (    3290 calls)

     Called by h_psi:
     h_psi:calbec :     56.41s CPU     57.66s WALL (    4616 calls)
     vloc_psi     :    254.05s CPU    259.01s WALL (    4616 calls)
     add_vuspsi   :     39.02s CPU     39.84s WALL (    4616 calls)

     General routines
     calbec       :     82.60s CPU     84.44s WALL (    6020 calls)
     fft          :      5.59s CPU      6.11s WALL (    4616 calls)
     ffts         :      9.26s CPU      9.52s WALL (   21333 calls)
     fftw         :    292.92s CPU    298.57s WALL ( 1351292 calls)
     interpolate  :      0.38s CPU      0.39s WALL (     102 calls)

     Parallel routines

     PWSCF        :  15m22.39s CPU  15m44.43s WALL


   This run was terminated on:   9:45:48  14Dec2025            

=------------------------------------------------------------------------------=
   JOB DONE.
=------------------------------------------------------------------------------=
