
     Program PWSCF v.7.1 starts on 14Dec2025 at  9: 8: 4 
        Git branch: heads/qe-7.1
        Last git commit: 48ba0178f8fede6d020eb786884699a9f063f55d-dirty
        Last git commit date: Fri Jan 27 14:22:33 2023 +0000
        Last git commit subject: Merge branch 'fix_hubbard' into 'develop'

     This program is part of the open-source Quantum ESPRESSO suite
     for quantum simulation of materials; please cite
         "P. Giannozzi et al., J. Phys.:Condens. Matter 21 395502 (2009);
         "P. Giannozzi et al., J. Phys.:Condens. Matter 29 465901 (2017);
         "P. Giannozzi et al., J. Chem. Phys. 152 154105 (2020);
          URL http://www.quantum-espresso.org", 
     in publications or presentations arising from this work. More details at
     http://www.quantum-espresso.org/quote

     Parallel version (MPI), running on    96 processors

     MPI processes distributed on     2 nodes
     109122 MiB available memory on the printing compute node when the environment starts

     Reading input from espresso.pwi
Warning: card &CELL ignored
Warning: card / ignored
Warning: card &FCP ignored
Warning: card / ignored
Warning: card &RISM ignored
Warning: card / ignored

     Current dimensions of program PWSCF are:
     Max number of different atomic species (ntypx) = 10
     Max number of k-points (npk) =  40000
     Max angular momentum in pseudopotentials (lmaxx) =  4
     file Co.pbe-n-kjpaw_psl.1.0.0.UPF: wavefunction(s)  4S 3D renormalized
     file C.pbe-n-kjpaw_psl.1.0.0.UPF: wavefunction(s)  2S 2P renormalized
     file O.pbe-nl-kjpaw_psl.1.0.0.UPF: wavefunction(s)  2S 2P renormalized
     file H.pbe-kjpaw_psl.1.0.0.UPF: wavefunction(s)  1S renormalized

     **************************************************************************
     Initializing libbeef V0.1.2 with the BEEF-vdW functional.
     Citation: Wellendorff et al., PRB 85, 235149 (2012).
     **************************************************************************


     IMPORTANT: XC functional enforced from input :
     Exchange-correlation= BEEF-VDW
                           (   1   4  43  14   2   0   0)
     Any further DFT definition will be discarded
     Please, verify this is what you really want


     R & G space division:  proc/nbgrp/npool/nimage =      96
     Subspace diagonalization in iterative solution of the eigenvalue problem:
     one sub-group per band group will be used
     custom distributed-memory algorithm (size of sub-group:  2*  2 procs)


     Parallelization info
     --------------------
     sticks:   dense  smooth     PW     G-vecs:    dense   smooth      PW
     Min          43      28      7                 7829     4248     595
     Max          44      29      8                 7845     4281     630
     Sum        4153    2773    757               752179   409445   59217

     Using Slab Decomposition



     bravais-lattice index     =            0
     lattice parameter (alat)  =      14.1729  a.u.
     unit-cell volume          =    8574.3059 (a.u.)^3
     number of atoms/cell      =           39
     number of atomic types    =            4
     number of electrons       =       335.00
     number of Kohn-Sham states=          202
     kinetic-energy cutoff     =      50.0000  Ry
     charge density cutoff     =     300.0000  Ry
     scf convergence threshold =      1.0E-08
     mixing beta               =       0.7000
     number of iterations used =            8  local-TF  mixing
     Exchange-correlation= BEEF-VDW
                           (   1   4  43  14   2   0   0)

     celldm(1)=  14.172946  celldm(2)=   0.000000  celldm(3)=   0.000000
     celldm(4)=   0.000000  celldm(5)=   0.000000  celldm(6)=   0.000000

     crystal axes: (cart. coord. in units of alat)
               a(1) = (   1.000000   0.000000   0.000000 )  
               a(2) = (   0.500000   0.866025   0.000000 )  
               a(3) = (   0.000000   0.000000   3.477667 )  

     reciprocal axes: (cart. coord. in units 2 pi/alat)
               b(1) = (  1.000000 -0.577350  0.000000 )  
               b(2) = (  0.000000  1.154701  0.000000 )  
               b(3) = (  0.000000  0.000000  0.287549 )  


     PseudoPot. # 1 for Co read from file:
     /users/kbadger1/espresso/pseudo/pslibrary.1.0.0/pbe/PSEUDOPOTENTIALS/Co.pbe-n-kjpaw_psl.1.0.0.UPF
     MD5 check sum: 88af6ec42553d4236c267fdfcb472151
     Pseudo is Projector augmented-wave + core cor, Zval =  9.0
     Generated using 'atomic' code by A. Dal Corso  v.7.0
     Shape of augmentation charge: PSQ
     Using radial grid of 1193 points,  6 beta functions with: 
                l(1) =   0
                l(2) =   0
                l(3) =   1
                l(4) =   1
                l(5) =   2
                l(6) =   2
     Q(r) pseudized with 0 coefficients 


     PseudoPot. # 2 for C  read from file:
     /users/kbadger1/espresso/pseudo/pslibrary.1.0.0/pbe/PSEUDOPOTENTIALS/C.pbe-n-kjpaw_psl.1.0.0.UPF
     MD5 check sum: 6408e75cdba28732cea38a4db8498ce4
     Pseudo is Projector augmented-wave + core cor, Zval =  4.0
     Generated using 'atomic' code by A. Dal Corso  v.7.0
     Shape of augmentation charge: PSQ
     Using radial grid of 1073 points,  4 beta functions with: 
                l(1) =   0
                l(2) =   0
                l(3) =   1
                l(4) =   1
     Q(r) pseudized with 0 coefficients 


     PseudoPot. # 3 for O  read from file:
     /users/kbadger1/espresso/pseudo/pslibrary.1.0.0/pbe/PSEUDOPOTENTIALS/O.pbe-nl-kjpaw_psl.1.0.0.UPF
     MD5 check sum: f0439fab3598ca4e468f064226030408
     Pseudo is Projector augmented-wave + core cor, Zval =  6.0
     Generated using 'atomic' code by A. Dal Corso  v.7.0
     Shape of augmentation charge: PSQ
     Using radial grid of 1095 points,  4 beta functions with: 
                l(1) =   0
                l(2) =   0
                l(3) =   1
                l(4) =   1
     Q(r) pseudized with 0 coefficients 


     PseudoPot. # 4 for H  read from file:
     /users/kbadger1/espresso/pseudo/pslibrary.1.0.0/pbe/PSEUDOPOTENTIALS/H.pbe-kjpaw_psl.1.0.0.UPF
     MD5 check sum: fe4c6fa958fa6d3815bf5d2419cbf1df
     Pseudo is Projector augmented-wave, Zval =  1.0
     Generated using 'atomic' code by A. Dal Corso  v.7.0
     Shape of augmentation charge: PSQ
     Using radial grid of  929 points,  2 beta functions with: 
                l(1) =   0
                l(2) =   0
     Q(r) pseudized with 0 coefficients 


     atomic species   valence    mass     pseudopotential
        Co             9.00    58.93319     Co( 1.00)
        C              4.00    12.01100     C ( 1.00)
        O              6.00    15.99900     O ( 1.00)
        H              1.00     1.00800     H ( 1.00)

     Starting magnetic structure 
     atomic species   magnetization
        Co           1.000
        C            1.000
        O            0.000
        H            0.000

     No symmetry found



   Cartesian axes

     site n.     atom                  positions (alat units)
         1           Co  tau(   1) = (   0.0000000   0.1924501   1.3333333  )
         2           Co  tau(   2) = (   0.3333333   0.1924501   1.3333333  )
         3           Co  tau(   3) = (   0.6666667   0.1924501   1.3333333  )
         4           Co  tau(   4) = (   0.1666667   0.4811252   1.3333333  )
         5           Co  tau(   5) = (   0.5000000   0.4811252   1.3333333  )
         6           Co  tau(   6) = (   0.8333333   0.4811252   1.3333333  )
         7           Co  tau(   7) = (   0.3333333   0.7698004   1.3333333  )
         8           Co  tau(   8) = (   0.6666667   0.7698004   1.3333333  )
         9           Co  tau(   9) = (   1.0000000   0.7698004   1.3333333  )
        10           Co  tau(  10) = (   0.0000000   0.0000000   1.6036667  )
        11           Co  tau(  11) = (   0.3333333   0.0000000   1.6036667  )
        12           Co  tau(  12) = (   0.6666667   0.0000000   1.6036667  )
        13           Co  tau(  13) = (   0.1666667   0.2886751   1.6036667  )
        14           Co  tau(  14) = (   0.5000000   0.2886751   1.6036667  )
        15           Co  tau(  15) = (   0.8333333   0.2886751   1.6036667  )
        16           Co  tau(  16) = (   0.3333333   0.5773503   1.6036667  )
        17           Co  tau(  17) = (   0.6666667   0.5773503   1.6036667  )
        18           Co  tau(  18) = (   1.0000000   0.5773503   1.6036667  )
        19           Co  tau(  19) = (   0.0000000   0.1924501   1.8740000  )
        20           Co  tau(  20) = (   0.3333333   0.1924501   1.8740000  )
        21           Co  tau(  21) = (   0.6666667   0.1924501   1.8740000  )
        22           Co  tau(  22) = (   0.1666667   0.4811252   1.8740000  )
        23           Co  tau(  23) = (   0.5000000   0.4811252   1.8740000  )
        24           Co  tau(  24) = (   0.8333333   0.4811252   1.8740000  )
        25           Co  tau(  25) = (   0.3333333   0.7698004   1.8740000  )
        26           Co  tau(  26) = (   0.6666667   0.7698004   1.8740000  )
        27           Co  tau(  27) = (   1.0000000   0.7698004   1.8740000  )
        28           Co  tau(  28) = (   0.0000000   0.0000000   2.1443333  )
        29           Co  tau(  29) = (   0.3333333   0.0000000   2.1443333  )
        30           Co  tau(  30) = (   0.6666667   0.0000000   2.1443333  )
        31           Co  tau(  31) = (   0.1666667   0.2886751   2.1443333  )
        32           Co  tau(  32) = (   0.5000000   0.2886751   2.1443333  )
        33           Co  tau(  33) = (   0.8333333   0.2886751   2.1443333  )
        34           Co  tau(  34) = (   0.3333333   0.5773503   2.1443333  )
        35           Co  tau(  35) = (   0.6666667   0.5773503   2.1443333  )
        36           Co  tau(  36) = (   1.0000000   0.5773503   2.1443333  )
        37           C   tau(  37) = (   0.1692251  -0.0452651   2.3325412  )
        38           O   tau(  38) = (   0.1525471  -0.0568412   2.4898421  )
        39           H   tau(  39) = (   0.4872590   0.0506368   2.2877379  )

     number of k points=    13  Marzari-Vanderbilt smearing, width (Ry)=  0.0010
                       cart. coord. in units 2pi/alat
        k(    1) = (   0.0000000   0.0000000   0.0000000), wk =   0.0400000
        k(    2) = (   0.0000000   0.2309401   0.0000000), wk =   0.0800000
        k(    3) = (   0.0000000   0.4618802   0.0000000), wk =   0.0800000
        k(    4) = (   0.2000000  -0.1154701   0.0000000), wk =   0.0800000
        k(    5) = (   0.2000000   0.1154701   0.0000000), wk =   0.0800000
        k(    6) = (   0.2000000   0.3464102   0.0000000), wk =   0.0800000
        k(    7) = (   0.2000000  -0.5773503   0.0000000), wk =   0.0800000
        k(    8) = (   0.2000000  -0.3464102   0.0000000), wk =   0.0800000
        k(    9) = (   0.4000000  -0.2309401   0.0000000), wk =   0.0800000
        k(   10) = (   0.4000000   0.0000000   0.0000000), wk =   0.0800000
        k(   11) = (   0.4000000   0.2309401   0.0000000), wk =   0.0800000
        k(   12) = (   0.4000000  -0.6928203   0.0000000), wk =   0.0800000
        k(   13) = (   0.4000000  -0.4618802   0.0000000), wk =   0.0800000

     Dense  grid:   752179 G-vectors     FFT dimensions: (  80,  80, 288)

     Smooth grid:   409445 G-vectors     FFT dimensions: (  64,  64, 225)

     Estimated max dynamical RAM per process >      99.02 MB

     Estimated total dynamical RAM >       9.28 GB
     Generating pointlists ...
     new r_m :   0.0893 (alat units)  1.2651 (a.u.) for type    1
     new r_m :   0.0654 (alat units)  0.9273 (a.u.) for type    2
     new r_m :   0.0654 (alat units)  0.9273 (a.u.) for type    3
     new r_m :   0.0893 (alat units)  1.2651 (a.u.) for type    4

     Initial potential from superposition of free atoms

     starting charge     334.9897, renormalised to     335.0000

     negative rho (up, down):  3.048E-03 4.517E-04


     %%%%%%%%%%%%%%%%%%%%%%%%%%%%%%%%%%%%%%%%%%%%%%%%%%%%%%%%%%%%%%%%%%%%%%%%
     %                                                                      %
     % You are using vdW-DF, which was implemented by the Thonhauser group. %
     % Please cite the following two papers that made this development      %
     % possible and the two reviews that describe the various versions:     %
     %                                                                      %
     %   T. Thonhauser et al., PRL 115, 136402 (2015).                      %
     %   T. Thonhauser et al., PRB 76, 125112 (2007).                       %
     %   K. Berland et al., Rep. Prog. Phys. 78, 066501 (2015).             %
     %   D.C. Langreth et al., J. Phys.: Condens. Matter 21, 084203 (2009). %
     %                                                                      %
     % If you are calculating stress with vdW-DF, please also cite:         %
     %                                                                      %
     %   R. Sabatini et al., J. Phys.: Condens. Matter 24, 424209 (2012).   %
     %   C.M. Frostenson et al., Electr. Struct. 4, 014001 (2022).          %
     %                                                                      %
     %%%%%%%%%%%%%%%%%%%%%%%%%%%%%%%%%%%%%%%%%%%%%%%%%%%%%%%%%%%%%%%%%%%%%%%%

     %%%%%%%%%%%%%%%%%%%%%%%%%%%%%%%%%%%%%%%%%%%%%%%%%%%%%%%%%%%%%%%%%%%%%%%%
     %                                                                      %
     %  vdW-DF NEWS:                                                        %
     %                                                                      %
     %  * vdW-DF3 is now available. DOI: 10.1021/acs.jctc.0c00471           %
     %    use with input_dft = 'vdW-DF3-opt1' or 'vdW-DF3-opt2'             %
     %                                                                      %
     %  * Unscreened and range-separated hybrid vdW-DF-cx functionals       %
     %    DOI: 10.1063/1.4986522 and 10.1088/1361-648X/ac2ad2               %
     %    use with input_dft = 'vdW-DF-cx0'    and 'vdW-DF-ahcx'            %
     %  * Unscreened and range-separated hybrid vdW-DF2-b86r functionals    %
     %    DOI: 10.1063/1.4986522 and DOI: 10.1103/PhysRevX.12.041003        %
     %    use with input_dft = 'vdW-DF2-br0' and 'vdW-DF2-ahbr'             %
     %                                                                      %
     %%%%%%%%%%%%%%%%%%%%%%%%%%%%%%%%%%%%%%%%%%%%%%%%%%%%%%%%%%%%%%%%%%%%%%%%


     Starting wfcs are  333 randomized atomic wfcs
     Checking if some PAW data can be deallocated... 

     total cpu time spent up to now is       12.2 secs

     per-process dynamical memory:   231.0 Mb

     Self-consistent Calculation

     iteration #  1     ecut=    50.00 Ry     beta= 0.70
     Davidson diagonalization with overlap
     ethr =  1.00E-02,  avg # of iterations =  2.0

     negative rho (up, down):  3.387E-05 8.385E-08

     total cpu time spent up to now is       34.5 secs

     total energy              =   -6053.11976342 Ry
     estimated scf accuracy    <      39.09424801 Ry

     total magnetization       =    69.00 Bohr mag/cell
     absolute magnetization    =    81.21 Bohr mag/cell

     iteration #  2     ecut=    50.00 Ry     beta= 0.70
     Davidson diagonalization with overlap
     ethr =  1.00E-02,  avg # of iterations =  1.0

     negative rho (up, down):  5.245E-06 4.980E-08

     total cpu time spent up to now is       48.3 secs

     total energy              =   -6052.65118999 Ry
     estimated scf accuracy    <      24.42371336 Ry

     total magnetization       =    69.01 Bohr mag/cell
     absolute magnetization    =    76.81 Bohr mag/cell

     iteration #  3     ecut=    50.00 Ry     beta= 0.70
     Davidson diagonalization with overlap
     ethr =  7.29E-03,  avg # of iterations =  1.3

     negative rho (up, down):  4.621E-08 0.000E+00

     total cpu time spent up to now is       66.7 secs

     total energy              =   -6055.19741696 Ry
     estimated scf accuracy    <      85.32742673 Ry

     total magnetization       =    66.12 Bohr mag/cell
     absolute magnetization    =    73.56 Bohr mag/cell

     iteration #  4     ecut=    50.00 Ry     beta= 0.70
     Davidson diagonalization with overlap
     ethr =  7.29E-03,  avg # of iterations =  1.0

     negative rho (up, down):  1.357E-08 0.000E+00

     total cpu time spent up to now is       80.5 secs

     total energy              =   -6056.45784362 Ry
     estimated scf accuracy    <       5.57589854 Ry

     total magnetization       =    60.41 Bohr mag/cell
     absolute magnetization    =    70.19 Bohr mag/cell

     iteration #  5     ecut=    50.00 Ry     beta= 0.70
     Davidson diagonalization with overlap
     ethr =  1.66E-03,  avg # of iterations =  1.1

     total cpu time spent up to now is       98.5 secs

     total energy              =   -6056.44651732 Ry
     estimated scf accuracy    <       2.16019538 Ry

     total magnetization       =    60.37 Bohr mag/cell
     absolute magnetization    =    69.73 Bohr mag/cell

     iteration #  6     ecut=    50.00 Ry     beta= 0.70
     Davidson diagonalization with overlap
     ethr =  6.45E-04,  avg # of iterations =  1.7

     total cpu time spent up to now is      112.9 secs

     total energy              =   -6056.55170351 Ry
     estimated scf accuracy    <       0.83179775 Ry

     total magnetization       =    59.88 Bohr mag/cell
     absolute magnetization    =    68.97 Bohr mag/cell

     iteration #  7     ecut=    50.00 Ry     beta= 0.70
     Davidson diagonalization with overlap
     ethr =  2.48E-04,  avg # of iterations =  4.3

     total cpu time spent up to now is      134.8 secs

     total energy              =   -6056.57630090 Ry
     estimated scf accuracy    <       0.61525389 Ry

     total magnetization       =    59.89 Bohr mag/cell
     absolute magnetization    =    68.69 Bohr mag/cell

     iteration #  8     ecut=    50.00 Ry     beta= 0.70
     Davidson diagonalization with overlap
     ethr =  1.84E-04,  avg # of iterations =  2.0

     total cpu time spent up to now is      153.6 secs

     total energy              =   -6056.60264410 Ry
     estimated scf accuracy    <       0.16698878 Ry

     total magnetization       =    59.96 Bohr mag/cell
     absolute magnetization    =    68.57 Bohr mag/cell

     iteration #  9     ecut=    50.00 Ry     beta= 0.70
     Davidson diagonalization with overlap
     c_bands:  1 eigenvalues not converged
     c_bands:  2 eigenvalues not converged
     ethr =  4.98E-05,  avg # of iterations =  8.7

     total cpu time spent up to now is      180.3 secs

     total energy              =   -6056.60894063 Ry
     estimated scf accuracy    <       0.12159758 Ry

     total magnetization       =    60.28 Bohr mag/cell
     absolute magnetization    =    68.52 Bohr mag/cell

     iteration # 10     ecut=    50.00 Ry     beta= 0.70
     Davidson diagonalization with overlap
     ethr =  3.63E-05,  avg # of iterations =  3.6

     total cpu time spent up to now is      195.9 secs

     total energy              =   -6056.61499505 Ry
     estimated scf accuracy    <       0.14793482 Ry

     total magnetization       =    60.56 Bohr mag/cell
     absolute magnetization    =    68.54 Bohr mag/cell

     iteration # 11     ecut=    50.00 Ry     beta= 0.70
     Davidson diagonalization with overlap
     ethr =  3.63E-05,  avg # of iterations =  1.5

     total cpu time spent up to now is      214.4 secs

     total energy              =   -6056.61057246 Ry
     estimated scf accuracy    <       0.10262516 Ry

     total magnetization       =    60.50 Bohr mag/cell
     absolute magnetization    =    68.42 Bohr mag/cell

     iteration # 12     ecut=    50.00 Ry     beta= 0.70
     Davidson diagonalization with overlap
     ethr =  3.06E-05,  avg # of iterations =  2.1

     total cpu time spent up to now is      229.2 secs

     total energy              =   -6056.61188641 Ry
     estimated scf accuracy    <       0.09432020 Ry

     total magnetization       =    60.37 Bohr mag/cell
     absolute magnetization    =    68.22 Bohr mag/cell

     iteration # 13     ecut=    50.00 Ry     beta= 0.70
     Davidson diagonalization with overlap
     ethr =  2.82E-05,  avg # of iterations =  1.2

     total cpu time spent up to now is      247.3 secs

     total energy              =   -6056.61188843 Ry
     estimated scf accuracy    <       0.10415340 Ry

     total magnetization       =    60.49 Bohr mag/cell
     absolute magnetization    =    68.26 Bohr mag/cell

     iteration # 14     ecut=    50.00 Ry     beta= 0.70
     Davidson diagonalization with overlap
     ethr =  2.82E-05,  avg # of iterations =  1.2

     negative rho (up, down):  2.602E-03 1.654E-03

     total cpu time spent up to now is      260.3 secs

     total energy              =   -6056.60612831 Ry
     estimated scf accuracy    <       0.07999240 Ry

     total magnetization       =    60.46 Bohr mag/cell
     absolute magnetization    =    68.20 Bohr mag/cell

     iteration # 15     ecut=    50.00 Ry     beta= 0.70
     Davidson diagonalization with overlap
     ethr =  2.39E-05,  avg # of iterations =  1.3

     negative rho (up, down):  1.438E-02 1.279E-02

     total cpu time spent up to now is      278.7 secs

     total energy              =   -6056.60254592 Ry
     estimated scf accuracy    <       0.04212667 Ry

     total magnetization       =    60.43 Bohr mag/cell
     absolute magnetization    =    68.18 Bohr mag/cell

     iteration # 16     ecut=    50.00 Ry     beta= 0.70
     Davidson diagonalization with overlap
     c_bands:  1 eigenvalues not converged
     c_bands:  1 eigenvalues not converged
     c_bands:  3 eigenvalues not converged
     ethr =  1.26E-05,  avg # of iterations =  5.4

     negative rho (up, down):  1.679E-02 1.517E-02

     total cpu time spent up to now is      301.8 secs

     total energy              =   -6056.60289089 Ry
     estimated scf accuracy    <       0.02739283 Ry

     total magnetization       =    60.35 Bohr mag/cell
     absolute magnetization    =    68.08 Bohr mag/cell

     iteration # 17     ecut=    50.00 Ry     beta= 0.70
     Davidson diagonalization with overlap
     c_bands:  1 eigenvalues not converged
     c_bands:  4 eigenvalues not converged
     c_bands:  2 eigenvalues not converged
     ethr =  8.18E-06,  avg # of iterations =  4.1

     negative rho (up, down):  1.291E-02 1.148E-02

     total cpu time spent up to now is      318.0 secs

     total energy              =   -6056.60284977 Ry
     estimated scf accuracy    <       0.01635814 Ry

     total magnetization       =    60.40 Bohr mag/cell
     absolute magnetization    =    68.08 Bohr mag/cell

     iteration # 18     ecut=    50.00 Ry     beta= 0.70
     Davidson diagonalization with overlap
     c_bands:  1 eigenvalues not converged
     c_bands:  3 eigenvalues not converged
     c_bands:  2 eigenvalues not converged
     ethr =  4.88E-06,  avg # of iterations =  6.9

     negative rho (up, down):  1.148E-02 1.010E-02

     total cpu time spent up to now is      341.7 secs

     total energy              =   -6056.60261367 Ry
     estimated scf accuracy    <       0.01114606 Ry

     total magnetization       =    60.43 Bohr mag/cell
     absolute magnetization    =    68.08 Bohr mag/cell

     iteration # 19     ecut=    50.00 Ry     beta= 0.70
     Davidson diagonalization with overlap
     c_bands:  1 eigenvalues not converged
     c_bands:  1 eigenvalues not converged
     ethr =  3.33E-06,  avg # of iterations =  4.4

     negative rho (up, down):  1.230E-02 1.100E-02

     total cpu time spent up to now is      363.2 secs

     total energy              =   -6056.60154812 Ry
     estimated scf accuracy    <       0.01848367 Ry

     total magnetization       =    60.45 Bohr mag/cell
     absolute magnetization    =    68.09 Bohr mag/cell

     iteration # 20     ecut=    50.00 Ry     beta= 0.70
     Davidson diagonalization with overlap
     ethr =  3.33E-06,  avg # of iterations =  1.6

     negative rho (up, down):  1.478E-02 1.383E-02

     total cpu time spent up to now is      376.7 secs

     total energy              =   -6056.59973553 Ry
     estimated scf accuracy    <       0.01002714 Ry

     total magnetization       =    60.42 Bohr mag/cell
     absolute magnetization    =    68.05 Bohr mag/cell

     iteration # 21     ecut=    50.00 Ry     beta= 0.70
     Davidson diagonalization with overlap
     ethr =  2.99E-06,  avg # of iterations =  2.0

     negative rho (up, down):  1.276E-02 1.192E-02

     total cpu time spent up to now is      396.3 secs

     total energy              =   -6056.59993149 Ry
     estimated scf accuracy    <       0.00943177 Ry

     total magnetization       =    60.47 Bohr mag/cell
     absolute magnetization    =    68.06 Bohr mag/cell

     iteration # 22     ecut=    50.00 Ry     beta= 0.70
     Davidson diagonalization with overlap
     ethr =  2.82E-06,  avg # of iterations =  1.3

     negative rho (up, down):  1.582E-02 1.494E-02

     total cpu time spent up to now is      409.9 secs

     total energy              =   -6056.60022448 Ry
     estimated scf accuracy    <       0.00608619 Ry

     total magnetization       =    60.47 Bohr mag/cell
     absolute magnetization    =    68.06 Bohr mag/cell

     iteration # 23     ecut=    50.00 Ry     beta= 0.70
     Davidson diagonalization with overlap
     ethr =  1.82E-06,  avg # of iterations =  1.7

     negative rho (up, down):  1.187E-02 1.108E-02

     total cpu time spent up to now is      428.7 secs

     total energy              =   -6056.60010364 Ry
     estimated scf accuracy    <       0.00276283 Ry

     total magnetization       =    60.46 Bohr mag/cell
     absolute magnetization    =    68.06 Bohr mag/cell

     iteration # 24     ecut=    50.00 Ry     beta= 0.70
     Davidson diagonalization with overlap
     ethr =  8.25E-07,  avg # of iterations =  3.1

     negative rho (up, down):  7.689E-03 6.890E-03

     total cpu time spent up to now is      444.4 secs

     total energy              =   -6056.59982346 Ry
     estimated scf accuracy    <       0.00469124 Ry

     total magnetization       =    60.47 Bohr mag/cell
     absolute magnetization    =    68.06 Bohr mag/cell

     iteration # 25     ecut=    50.00 Ry     beta= 0.70
     Davidson diagonalization with overlap
     ethr =  8.25E-07,  avg # of iterations =  2.4

     negative rho (up, down):  8.260E-03 7.588E-03

     total cpu time spent up to now is      464.4 secs

     total energy              =   -6056.60030325 Ry
     estimated scf accuracy    <       0.00268917 Ry

     total magnetization       =    60.47 Bohr mag/cell
     absolute magnetization    =    68.07 Bohr mag/cell

     iteration # 26     ecut=    50.00 Ry     beta= 0.70
     Davidson diagonalization with overlap
     ethr =  8.03E-07,  avg # of iterations =  1.5

     negative rho (up, down):  7.198E-03 6.524E-03

     total cpu time spent up to now is      482.6 secs

     total energy              =   -6056.60034659 Ry
     estimated scf accuracy    <       0.00232221 Ry

     total magnetization       =    60.48 Bohr mag/cell
     absolute magnetization    =    68.08 Bohr mag/cell

     iteration # 27     ecut=    50.00 Ry     beta= 0.70
     Davidson diagonalization with overlap
     ethr =  6.93E-07,  avg # of iterations =  1.2

     negative rho (up, down):  5.600E-03 4.887E-03

     total cpu time spent up to now is      495.7 secs

     total energy              =   -6056.60033873 Ry
     estimated scf accuracy    <       0.00058914 Ry

     total magnetization       =    60.49 Bohr mag/cell
     absolute magnetization    =    68.08 Bohr mag/cell

     iteration # 28     ecut=    50.00 Ry     beta= 0.70
     Davidson diagonalization with overlap
     ethr =  1.76E-07,  avg # of iterations =  3.0

     negative rho (up, down):  4.693E-03 3.914E-03

     total cpu time spent up to now is      515.1 secs

     total energy              =   -6056.60046746 Ry
     estimated scf accuracy    <       0.00035177 Ry

     total magnetization       =    60.48 Bohr mag/cell
     absolute magnetization    =    68.07 Bohr mag/cell

     iteration # 29     ecut=    50.00 Ry     beta= 0.70
     Davidson diagonalization with overlap
     c_bands:  1 eigenvalues not converged
     ethr =  1.05E-07,  avg # of iterations =  4.2

     negative rho (up, down):  3.947E-03 3.128E-03

     total cpu time spent up to now is      532.2 secs

     total energy              =   -6056.60044787 Ry
     estimated scf accuracy    <       0.00041234 Ry

     total magnetization       =    60.48 Bohr mag/cell
     absolute magnetization    =    68.07 Bohr mag/cell

     iteration # 30     ecut=    50.00 Ry     beta= 0.70
     Davidson diagonalization with overlap
     ethr =  1.05E-07,  avg # of iterations =  1.4

     negative rho (up, down):  3.608E-03 2.675E-03

     total cpu time spent up to now is      550.6 secs

     total energy              =   -6056.60050454 Ry
     estimated scf accuracy    <       0.00025372 Ry

     total magnetization       =    60.48 Bohr mag/cell
     absolute magnetization    =    68.07 Bohr mag/cell

     iteration # 31     ecut=    50.00 Ry     beta= 0.70
     Davidson diagonalization with overlap
     ethr =  7.57E-08,  avg # of iterations =  1.5

     negative rho (up, down):  3.487E-03 2.454E-03

     total cpu time spent up to now is      564.4 secs

     total energy              =   -6056.60053249 Ry
     estimated scf accuracy    <       0.00010100 Ry

     total magnetization       =    60.48 Bohr mag/cell
     absolute magnetization    =    68.07 Bohr mag/cell

     iteration # 32     ecut=    50.00 Ry     beta= 0.70
     Davidson diagonalization with overlap
     ethr =  3.01E-08,  avg # of iterations =  2.7

     negative rho (up, down):  3.466E-03 2.395E-03

     total cpu time spent up to now is      584.4 secs

     total energy              =   -6056.60054529 Ry
     estimated scf accuracy    <       0.00004337 Ry

     total magnetization       =    60.48 Bohr mag/cell
     absolute magnetization    =    68.07 Bohr mag/cell

     iteration # 33     ecut=    50.00 Ry     beta= 0.70
     Davidson diagonalization with overlap
     c_bands:  1 eigenvalues not converged
     ethr =  1.29E-08,  avg # of iterations =  5.6

     negative rho (up, down):  3.268E-03 2.204E-03

     total cpu time spent up to now is      606.9 secs

     total energy              =   -6056.60054781 Ry
     estimated scf accuracy    <       0.00002583 Ry

     total magnetization       =    60.48 Bohr mag/cell
     absolute magnetization    =    68.07 Bohr mag/cell

     iteration # 34     ecut=    50.00 Ry     beta= 0.70
     Davidson diagonalization with overlap
     ethr =  7.71E-09,  avg # of iterations =  2.5

     negative rho (up, down):  3.171E-03 2.092E-03

     total cpu time spent up to now is      621.8 secs

     total energy              =   -6056.60054793 Ry
     estimated scf accuracy    <       0.00001873 Ry

     total magnetization       =    60.48 Bohr mag/cell
     absolute magnetization    =    68.07 Bohr mag/cell

     iteration # 35     ecut=    50.00 Ry     beta= 0.70
     Davidson diagonalization with overlap
     ethr =  5.59E-09,  avg # of iterations =  2.4

     negative rho (up, down):  2.970E-03 1.917E-03

     total cpu time spent up to now is      641.4 secs

     total energy              =   -6056.60054934 Ry
     estimated scf accuracy    <       0.00001850 Ry

     total magnetization       =    60.48 Bohr mag/cell
     absolute magnetization    =    68.06 Bohr mag/cell

     iteration # 36     ecut=    50.00 Ry     beta= 0.70
     Davidson diagonalization with overlap
     ethr =  5.52E-09,  avg # of iterations =  2.0

     negative rho (up, down):  2.961E-03 1.940E-03

     total cpu time spent up to now is      660.9 secs

     total energy              =   -6056.60055067 Ry
     estimated scf accuracy    <       0.00001296 Ry

     total magnetization       =    60.48 Bohr mag/cell
     absolute magnetization    =    68.06 Bohr mag/cell

     iteration # 37     ecut=    50.00 Ry     beta= 0.70
     Davidson diagonalization with overlap
     ethr =  3.87E-09,  avg # of iterations =  2.6

     negative rho (up, down):  2.861E-03 1.819E-03

     total cpu time spent up to now is      675.9 secs

     total energy              =   -6056.60054940 Ry
     estimated scf accuracy    <       0.00001352 Ry

     total magnetization       =    60.48 Bohr mag/cell
     absolute magnetization    =    68.06 Bohr mag/cell

     iteration # 38     ecut=    50.00 Ry     beta= 0.70
     Davidson diagonalization with overlap
     ethr =  3.87E-09,  avg # of iterations =  1.5

     negative rho (up, down):  2.846E-03 1.762E-03

     total cpu time spent up to now is      694.0 secs

     total energy              =   -6056.60054753 Ry
     estimated scf accuracy    <       0.00002008 Ry

     total magnetization       =    60.48 Bohr mag/cell
     absolute magnetization    =    68.06 Bohr mag/cell

     iteration # 39     ecut=    50.00 Ry     beta= 0.70
     Davidson diagonalization with overlap
     ethr =  3.87E-09,  avg # of iterations =  1.8

     negative rho (up, down):  2.467E-03 1.384E-03

     total cpu time spent up to now is      709.2 secs

     total energy              =   -6056.60054724 Ry
     estimated scf accuracy    <       0.00002493 Ry

     total magnetization       =    60.48 Bohr mag/cell
     absolute magnetization    =    68.06 Bohr mag/cell

     iteration # 40     ecut=    50.00 Ry     beta= 0.70
     Davidson diagonalization with overlap
     ethr =  3.87E-09,  avg # of iterations =  2.0

     negative rho (up, down):  2.351E-03 1.268E-03

     total cpu time spent up to now is      728.5 secs

     total energy              =   -6056.60054816 Ry
     estimated scf accuracy    <       0.00000660 Ry

     total magnetization       =    60.48 Bohr mag/cell
     absolute magnetization    =    68.06 Bohr mag/cell

     iteration # 41     ecut=    50.00 Ry     beta= 0.70
     Davidson diagonalization with overlap
     ethr =  1.97E-09,  avg # of iterations =  1.6

     negative rho (up, down):  2.307E-03 1.227E-03

     total cpu time spent up to now is      742.5 secs

     total energy              =   -6056.60054826 Ry
     estimated scf accuracy    <       0.00000553 Ry

     total magnetization       =    60.48 Bohr mag/cell
     absolute magnetization    =    68.06 Bohr mag/cell

     iteration # 42     ecut=    50.00 Ry     beta= 0.70
     Davidson diagonalization with overlap
     ethr =  1.65E-09,  avg # of iterations =  1.4

     negative rho (up, down):  2.272E-03 1.186E-03

     total cpu time spent up to now is      760.8 secs

     total energy              =   -6056.60054847 Ry
     estimated scf accuracy    <       0.00000176 Ry

     total magnetization       =    60.48 Bohr mag/cell
     absolute magnetization    =    68.06 Bohr mag/cell

     iteration # 43     ecut=    50.00 Ry     beta= 0.70
     Davidson diagonalization with overlap
     ethr =  5.27E-10,  avg # of iterations =  4.4

     negative rho (up, down):  2.270E-03 1.183E-03

     total cpu time spent up to now is      783.3 secs

     total energy              =   -6056.60054864 Ry
     estimated scf accuracy    <       0.00000109 Ry

     total magnetization       =    60.48 Bohr mag/cell
     absolute magnetization    =    68.06 Bohr mag/cell

     iteration # 44     ecut=    50.00 Ry     beta= 0.70
     Davidson diagonalization with overlap
     ethr =  3.27E-10,  avg # of iterations =  2.4

     negative rho (up, down):  2.271E-03 1.183E-03

     total cpu time spent up to now is      798.1 secs

     total energy              =   -6056.60054868 Ry
     estimated scf accuracy    <       0.00000015 Ry

     total magnetization       =    60.48 Bohr mag/cell
     absolute magnetization    =    68.06 Bohr mag/cell

     iteration # 45     ecut=    50.00 Ry     beta= 0.70
     Davidson diagonalization with overlap
     c_bands:  1 eigenvalues not converged
     ethr =  4.49E-11,  avg # of iterations =  8.3

     negative rho (up, down):  2.269E-03 1.181E-03

     total cpu time spent up to now is      826.9 secs

     total energy              =   -6056.60054870 Ry
     estimated scf accuracy    <       0.00000042 Ry

     total magnetization       =    60.48 Bohr mag/cell
     absolute magnetization    =    68.06 Bohr mag/cell

     iteration # 46     ecut=    50.00 Ry     beta= 0.70
     Davidson diagonalization with overlap
     ethr =  4.49E-11,  avg # of iterations =  1.5

     negative rho (up, down):  2.282E-03 1.193E-03

     total cpu time spent up to now is      845.8 secs

     total energy              =   -6056.60054872 Ry
     estimated scf accuracy    <       0.00000017 Ry

     total magnetization       =    60.48 Bohr mag/cell
     absolute magnetization    =    68.06 Bohr mag/cell

     iteration # 47     ecut=    50.00 Ry     beta= 0.70
     Davidson diagonalization with overlap
     ethr =  4.49E-11,  avg # of iterations =  1.5

     negative rho (up, down):  2.267E-03 1.179E-03

     total cpu time spent up to now is      859.9 secs

     total energy              =   -6056.60054871 Ry
     estimated scf accuracy    <       0.00000019 Ry

     total magnetization       =    60.48 Bohr mag/cell
     absolute magnetization    =    68.06 Bohr mag/cell

     iteration # 48     ecut=    50.00 Ry     beta= 0.70
     Davidson diagonalization with overlap
     ethr =  4.49E-11,  avg # of iterations =  1.0

     negative rho (up, down):  2.267E-03 1.178E-03

     total cpu time spent up to now is      877.6 secs

     total energy              =   -6056.60054871 Ry
     estimated scf accuracy    <       0.00000005 Ry

     total magnetization       =    60.48 Bohr mag/cell
     absolute magnetization    =    68.06 Bohr mag/cell

     iteration # 49     ecut=    50.00 Ry     beta= 0.70
     Davidson diagonalization with overlap
     c_bands:  1 eigenvalues not converged
     ethr =  1.50E-11,  avg # of iterations =  2.7

     negative rho (up, down):  2.263E-03 1.174E-03

     total cpu time spent up to now is      893.4 secs

     total energy              =   -6056.60054870 Ry
     estimated scf accuracy    <       0.00000007 Ry

     total magnetization       =    60.48 Bohr mag/cell
     absolute magnetization    =    68.06 Bohr mag/cell

     iteration # 50     ecut=    50.00 Ry     beta= 0.70
     Davidson diagonalization with overlap
     ethr =  1.50E-11,  avg # of iterations =  1.3

     negative rho (up, down):  2.263E-03 1.174E-03

     total cpu time spent up to now is      911.9 secs

     total energy              =   -6056.60054871 Ry
     estimated scf accuracy    <       0.00000002 Ry

     total magnetization       =    60.48 Bohr mag/cell
     absolute magnetization    =    68.06 Bohr mag/cell

     iteration # 51     ecut=    50.00 Ry     beta= 0.70
     Davidson diagonalization with overlap
     c_bands:  1 eigenvalues not converged
     ethr =  4.83E-12,  avg # of iterations =  4.0

     negative rho (up, down):  2.259E-03 1.171E-03

     total cpu time spent up to now is      932.8 secs

     total energy              =   -6056.60054870 Ry
     estimated scf accuracy    <       0.00000003 Ry

     total magnetization       =    60.48 Bohr mag/cell
     absolute magnetization    =    68.06 Bohr mag/cell

     iteration # 52     ecut=    50.00 Ry     beta= 0.70
     Davidson diagonalization with overlap
     ethr =  4.83E-12,  avg # of iterations =  1.8

     negative rho (up, down):  2.256E-03 1.168E-03

     total cpu time spent up to now is      948.4 secs

     total energy              =   -6056.60054870 Ry
     estimated scf accuracy    <       0.00000004 Ry

     total magnetization       =    60.48 Bohr mag/cell
     absolute magnetization    =    68.06 Bohr mag/cell

     iteration # 53     ecut=    50.00 Ry     beta= 0.70
     Davidson diagonalization with overlap
     ethr =  4.83E-12,  avg # of iterations =  1.1

     negative rho (up, down):  2.246E-03 1.159E-03

     Magnetic moment per site  (integrated on atomic sphere of radius R)
     atom   1 (R=0.089)  charge=  5.6158  magn=  1.6404
     atom   2 (R=0.089)  charge=  5.6150  magn=  1.6348
     atom   3 (R=0.089)  charge=  5.6143  magn=  1.6439
     atom   4 (R=0.089)  charge=  5.6142  magn=  1.6498
     atom   5 (R=0.089)  charge=  5.6146  magn=  1.6438
     atom   6 (R=0.089)  charge=  5.6145  magn=  1.6423
     atom   7 (R=0.089)  charge=  5.6156  magn=  1.6427
     atom   8 (R=0.089)  charge=  5.6168  magn=  1.6330
     atom   9 (R=0.089)  charge=  5.6145  magn=  1.6400
     atom  10 (R=0.089)  charge=  5.6126  magn=  1.5793
     atom  11 (R=0.089)  charge=  5.6117  magn=  1.5736
     atom  12 (R=0.089)  charge=  5.6115  magn=  1.5847
     atom  13 (R=0.089)  charge=  5.6107  magn=  1.5879
     atom  14 (R=0.089)  charge=  5.6104  magn=  1.5841
     atom  15 (R=0.089)  charge=  5.6114  magn=  1.5828
     atom  16 (R=0.089)  charge=  5.6110  magn=  1.5768
     atom  17 (R=0.089)  charge=  5.6113  magn=  1.5826
     atom  18 (R=0.089)  charge=  5.6104  magn=  1.5806
     atom  19 (R=0.089)  charge=  5.6121  magn=  1.5688
     atom  20 (R=0.089)  charge=  5.6108  magn=  1.5755
     atom  21 (R=0.089)  charge=  5.6095  magn=  1.6009
     atom  22 (R=0.089)  charge=  5.6102  magn=  1.5758
     atom  23 (R=0.089)  charge=  5.6104  magn=  1.5606
     atom  24 (R=0.089)  charge=  5.6102  magn=  1.5753
     atom  25 (R=0.089)  charge=  5.6113  magn=  1.5465
     atom  26 (R=0.089)  charge=  5.6104  magn=  1.5897
     atom  27 (R=0.089)  charge=  5.6105  magn=  1.5715
     atom  28 (R=0.089)  charge=  5.6261  magn=  1.2814
     atom  29 (R=0.089)  charge=  5.6251  magn=  0.9652
     atom  30 (R=0.089)  charge=  5.6125  magn=  1.5412
     atom  31 (R=0.089)  charge=  5.6161  magn=  1.6713
     atom  32 (R=0.089)  charge=  5.6146  magn=  1.6297
     atom  33 (R=0.089)  charge=  5.6130  magn=  1.6640
     atom  34 (R=0.089)  charge=  5.6128  magn=  1.6767
     atom  35 (R=0.089)  charge=  5.6199  magn=  1.5670
     atom  36 (R=0.089)  charge=  5.6141  magn=  1.6821
     atom  37 (R=0.065)  charge=  1.0444  magn= -0.0205
     atom  38 (R=0.065)  charge=  2.9185  magn= -0.0386
     atom  39 (R=0.089)  charge=  0.8199  magn= -0.0157

     total cpu time spent up to now is      965.9 secs

     End of self-consistent calculation

 ------ SPIN UP ------------


          k = 0.0000 0.0000 0.0000 ( 51087 PWs)   bands (ev):

   -21.9705  -9.1787  -7.6563  -6.5031  -5.8194  -5.6250  -5.3896  -5.0789
    -4.8285  -4.8205  -4.8156  -4.8033  -4.7900  -4.7741  -4.6095  -4.3763
    -4.2864  -4.2860  -4.2636  -4.2519  -4.2370  -4.0731  -3.7714  -3.7697
    -3.7588  -3.7473  -3.7253  -3.6874  -3.6366  -3.6348  -3.6302  -3.6267
    -3.6086  -3.5570  -3.5551  -3.4485  -3.2538  -3.2476  -3.2443  -3.2422
    -3.1879  -3.1829  -3.1776  -3.1749  -3.1707  -3.1633  -3.1566  -3.0985
    -3.0173  -3.0141  -2.9498  -2.9444  -2.9411  -2.9344  -2.9266  -2.9118
    -2.9082  -2.9059  -2.8826  -2.8667  -2.8117  -2.8030  -2.8006  -2.7930
    -2.7347  -2.5894  -2.3102  -2.2706  -2.2700  -2.2653  -2.2639  -2.1630
    -2.1417  -2.1287  -2.1209  -2.1099  -2.0995  -2.0944  -2.0867  -2.0805
    -2.0426  -2.0370  -2.0127  -2.0007  -1.9879  -1.9822  -1.9683  -1.9580
    -1.9559  -1.9468  -1.9416  -1.9354  -1.9246  -1.9145  -1.9101  -1.8992
    -1.8981  -1.8943  -1.8930  -1.8904  -1.8879  -1.8867  -1.8823  -1.8693
    -1.8603  -1.8539  -1.8338  -1.8209  -1.8146  -1.7407  -1.7354  -1.6398
    -1.5382  -1.4500  -1.4464  -1.4445  -1.4378  -1.4322  -1.4193  -1.4038
    -1.3988  -1.3947  -1.3822  -1.3528  -1.3501  -1.2247  -1.2179  -1.2031
    -1.1899  -1.1536  -1.0868  -1.0528  -1.0323  -1.0145  -0.9797  -0.9679
    -0.9633  -0.9598  -0.9517  -0.9344  -0.9107  -0.8916  -0.8374  -0.8146
    -0.7387  -0.7048  -0.7024  -0.7004  -0.6848  -0.6606  -0.6461  -0.6385
    -0.6351  -0.6322  -0.6296  -0.6266  -0.6228  -0.6155  -0.6103  -0.5997
    -0.5988  -0.5900  -0.5804  -0.5670  -0.5641  -0.5579  -0.5458  -0.5401
    -0.5339  -0.5258  -0.5175  -0.5080  -0.5036  -0.4940  -0.4905  -0.4851
    -0.4821  -0.4760  -0.4593  -0.4396  -0.4238  -0.4067  -0.4009  -0.3928
    -0.3915  -0.3822  -0.3790  -0.3671  -0.3614  -0.3212  -0.3137  -0.3071
    -0.3021  -0.2995  -0.2434  -0.2381  -0.2330  -0.2243  -0.2037  -0.1898
     0.4968   0.7552

          k = 0.0000 0.2309 0.0000 ( 51134 PWs)   bands (ev):

   -21.9705  -9.1689  -7.5148  -6.4067  -5.8350  -5.6598  -5.5229  -5.3592
    -5.0930  -5.0315  -4.9817  -4.6412  -4.4832  -4.4739  -4.4568  -4.4057
    -4.3156  -4.2918  -4.2345  -4.1593  -4.1465  -4.0818  -3.8695  -3.7763
    -3.7668  -3.6960  -3.6519  -3.6405  -3.6372  -3.6264  -3.6214  -3.6039
    -3.5893  -3.5278  -3.5134  -3.4906  -3.4880  -3.4127  -3.2671  -3.2620
    -3.2489  -3.2081  -3.2040  -3.1963  -3.1714  -3.1006  -3.0737  -3.0602
    -3.0399  -3.0376  -3.0188  -2.9975  -2.9650  -2.9003  -2.8935  -2.8625
    -2.8345  -2.8255  -2.7976  -2.7931  -2.7692  -2.7319  -2.7263  -2.7162
    -2.6931  -2.5846  -2.3903  -2.3814  -2.3608  -2.3469  -2.3279  -2.2411
    -2.2314  -2.2152  -2.2100  -2.2024  -2.1960  -2.1870  -2.1625  -2.1074
    -2.0972  -2.0848  -2.0646  -2.0311  -2.0242  -2.0181  -2.0079  -2.0012
    -1.9881  -1.9850  -1.9779  -1.9758  -1.9677  -1.9560  -1.9344  -1.8883
    -1.8724  -1.8666  -1.8051  -1.7969  -1.7876  -1.7864  -1.7777  -1.7746
    -1.7614  -1.7547  -1.7462  -1.7421  -1.7358  -1.7140  -1.7030  -1.6856
    -1.6745  -1.6670  -1.6266  -1.5782  -1.5645  -1.4783  -1.4699  -1.4680
    -1.4598  -1.4399  -1.4337  -1.4258  -1.4010  -1.3965  -1.3766  -1.2703
    -1.2497  -1.1952  -1.1845  -1.1682  -1.1536  -1.0965  -1.0823  -1.0737
    -1.0572  -0.9801  -0.9684  -0.9611  -0.9354  -0.9289  -0.8974  -0.8874
    -0.8699  -0.8568  -0.8471  -0.8226  -0.8086  -0.7888  -0.7837  -0.7797
    -0.7206  -0.7086  -0.7024  -0.6978  -0.6827  -0.6660  -0.6418  -0.6282
    -0.6243  -0.6181  -0.6150  -0.5998  -0.5855  -0.5752  -0.5618  -0.5483
    -0.5171  -0.5006  -0.4895  -0.4609  -0.4388  -0.4253  -0.4070  -0.3803
    -0.3763  -0.3630  -0.3587  -0.3451  -0.3287  -0.3206  -0.3153  -0.2822
    -0.2495  -0.2406  -0.2280  -0.2083  -0.2017  -0.1846  -0.1780  -0.1570
    -0.1005  -0.0258   0.1282   0.1469   0.2218   0.2861   0.4065   0.4222
     0.4576   0.7707

          k = 0.0000 0.4619 0.0000 ( 51204 PWs)   bands (ev):

   -21.9705  -9.1534  -7.0975  -6.4575  -6.1451  -5.7731  -5.5941  -5.3674
    -5.2198  -5.1401  -5.0934  -4.8174  -4.3194  -4.3056  -4.2855  -4.2441
    -4.1969  -4.1158  -4.1119  -4.0446  -3.9836  -3.9780  -3.9706  -3.8154
    -3.8007  -3.7970  -3.7867  -3.7842  -3.7241  -3.6818  -3.6760  -3.5429
    -3.5128  -3.5040  -3.4877  -3.4691  -3.4632  -3.4239  -3.3578  -3.3524
    -3.3384  -3.3327  -3.2555  -3.2004  -3.1346  -3.0979  -3.0423  -3.0313
    -3.0006  -2.9805  -2.9565  -2.9420  -2.9361  -2.9197  -2.8982  -2.8499
    -2.8402  -2.8175  -2.7877  -2.7759  -2.6488  -2.6395  -2.6163  -2.6084
    -2.5493  -2.5265  -2.5005  -2.4894  -2.4749  -2.4107  -2.3588  -2.3559
    -2.3512  -2.3421  -2.3361  -2.3144  -2.3014  -2.2835  -2.2682  -2.2569
    -2.2280  -2.1925  -2.1752  -2.1544  -2.1317  -2.1007  -2.0609  -2.0354
    -2.0243  -2.0109  -1.9842  -1.9742  -1.9725  -1.9275  -1.9132  -1.9066
    -1.9014  -1.8876  -1.8699  -1.8480  -1.8395  -1.8307  -1.8265  -1.8060
    -1.7890  -1.7576  -1.7316  -1.7250  -1.6572  -1.6388  -1.6222  -1.6192
    -1.5999  -1.5723  -1.5418  -1.5221  -1.5098  -1.4874  -1.4848  -1.4776
    -1.4755  -1.4655  -1.4546  -1.4452  -1.4410  -1.4332  -1.4203  -1.4108
    -1.4046  -1.3518  -1.2892  -1.2828  -1.2642  -1.2462  -1.2220  -1.2145
    -1.1842  -1.1240  -1.1114  -1.1015  -1.0596  -1.0476  -1.0157  -0.9761
    -0.9613  -0.9471  -0.9264  -0.9076  -0.8949  -0.8773  -0.8545  -0.7682
    -0.7448  -0.7384  -0.7193  -0.7071  -0.7003  -0.6928  -0.6868  -0.6764
    -0.6670  -0.6384  -0.5587  -0.5512  -0.5399  -0.5319  -0.5257  -0.5150
    -0.5026  -0.4900  -0.4667  -0.4591  -0.4481  -0.4230  -0.3720  -0.3542
    -0.3473  -0.3270  -0.3118  -0.2536  -0.2484  -0.2222  -0.2159  -0.1738
    -0.1432  -0.1411  -0.1309  -0.1189  -0.1043  -0.0996  -0.0946  -0.0458
    -0.0005   0.0256   0.4982   0.5831   0.9056   1.1086   1.1350   1.3321
     1.4833   1.4952

          k = 0.2000-0.1155 0.0000 ( 51134 PWs)   bands (ev):

   -21.9705  -9.1671  -7.5159  -6.4075  -5.8558  -5.6655  -5.5086  -5.3511
    -5.0772  -5.0448  -4.9844  -4.6050  -4.5052  -4.4732  -4.4616  -4.4057
    -4.3376  -4.2878  -4.2136  -4.1893  -4.1469  -4.0398  -3.8864  -3.7716
    -3.7597  -3.6947  -3.6583  -3.6419  -3.6369  -3.6331  -3.6223  -3.6053
    -3.5773  -3.5394  -3.5136  -3.4919  -3.4870  -3.4195  -3.2794  -3.2647
    -3.2569  -3.2095  -3.2043  -3.1893  -3.1684  -3.1094  -3.0754  -3.0548
    -3.0396  -3.0326  -3.0257  -2.9931  -2.9560  -2.9021  -2.8932  -2.8697
    -2.8277  -2.8211  -2.7968  -2.7921  -2.7682  -2.7302  -2.7259  -2.7176
    -2.6811  -2.5916  -2.3935  -2.3803  -2.3557  -2.3411  -2.3257  -2.2408
    -2.2335  -2.2192  -2.2137  -2.2022  -2.1950  -2.1804  -2.1534  -2.1044
    -2.1008  -2.0837  -2.0668  -2.0330  -2.0278  -2.0213  -2.0072  -1.9987
    -1.9903  -1.9885  -1.9803  -1.9776  -1.9637  -1.9555  -1.9188  -1.8801
    -1.8757  -1.8577  -1.8109  -1.8014  -1.7945  -1.7842  -1.7776  -1.7759
    -1.7658  -1.7570  -1.7502  -1.7410  -1.7388  -1.7189  -1.6990  -1.6884
    -1.6770  -1.6596  -1.6336  -1.5886  -1.5648  -1.5016  -1.4681  -1.4640
    -1.4492  -1.4458  -1.4346  -1.4297  -1.4087  -1.3823  -1.3187  -1.2777
    -1.2419  -1.2007  -1.1852  -1.1712  -1.1463  -1.1151  -1.0914  -1.0762
    -1.0237  -0.9961  -0.9872  -0.9696  -0.9405  -0.9320  -0.9020  -0.8929
    -0.8770  -0.8511  -0.8343  -0.8135  -0.8074  -0.7952  -0.7861  -0.7715
    -0.7146  -0.7069  -0.7009  -0.6960  -0.6732  -0.6530  -0.6380  -0.6316
    -0.6250  -0.6210  -0.6129  -0.6031  -0.5887  -0.5759  -0.5641  -0.5423
    -0.5067  -0.4925  -0.4815  -0.4605  -0.4446  -0.4334  -0.3987  -0.3830
    -0.3722  -0.3619  -0.3537  -0.3481  -0.3301  -0.3217  -0.3151  -0.2755
    -0.2503  -0.2366  -0.2291  -0.2091  -0.1992  -0.1881  -0.1736  -0.1521
    -0.1052  -0.0359   0.1115   0.1450   0.1842   0.2772   0.3906   0.4221
     0.4605   0.8059

          k = 0.2000 0.1155 0.0000 ( 51134 PWs)   bands (ev):

   -21.9705  -9.1665  -7.5166  -6.4088  -5.8775  -5.6573  -5.4601  -5.3889
    -5.0702  -5.0377  -5.0010  -4.5785  -4.5100  -4.4715  -4.4644  -4.4027
    -4.3385  -4.3037  -4.2158  -4.1884  -4.1492  -4.0288  -3.8885  -3.7769
    -3.7510  -3.6889  -3.6516  -3.6434  -3.6379  -3.6357  -3.6232  -3.6158
    -3.5553  -3.5472  -3.5239  -3.4916  -3.4870  -3.4206  -3.2843  -3.2631
    -3.2603  -3.2094  -3.2069  -3.1934  -3.1631  -3.1084  -3.0788  -3.0515
    -3.0371  -3.0342  -3.0251  -3.0007  -2.9526  -2.9028  -2.8934  -2.8693
    -2.8343  -2.8097  -2.7983  -2.7914  -2.7767  -2.7290  -2.7282  -2.7144
    -2.6669  -2.5944  -2.3912  -2.3794  -2.3545  -2.3413  -2.3285  -2.2405
    -2.2342  -2.2262  -2.2114  -2.2035  -2.1964  -2.1829  -2.1347  -2.1068
    -2.1005  -2.0858  -2.0604  -2.0311  -2.0258  -2.0208  -2.0176  -1.9982
    -1.9916  -1.9872  -1.9819  -1.9779  -1.9653  -1.9495  -1.9307  -1.8839
    -1.8706  -1.8563  -1.8122  -1.8048  -1.7960  -1.7855  -1.7790  -1.7746
    -1.7649  -1.7567  -1.7542  -1.7408  -1.7391  -1.7261  -1.6935  -1.6904
    -1.6755  -1.6673  -1.6305  -1.5898  -1.5705  -1.5131  -1.4702  -1.4623
    -1.4506  -1.4433  -1.4344  -1.4293  -1.4110  -1.3710  -1.2946  -1.2835
    -1.2398  -1.1982  -1.1863  -1.1717  -1.1470  -1.1273  -1.0909  -1.0830
    -1.0160  -0.9928  -0.9835  -0.9606  -0.9453  -0.9345  -0.9020  -0.8970
    -0.8745  -0.8522  -0.8360  -0.8143  -0.8093  -0.7959  -0.7909  -0.7716
    -0.7113  -0.7052  -0.6988  -0.6931  -0.6811  -0.6474  -0.6395  -0.6300
    -0.6253  -0.6188  -0.6130  -0.5980  -0.5870  -0.5763  -0.5676  -0.5541
    -0.5050  -0.4846  -0.4769  -0.4624  -0.4497  -0.4369  -0.3976  -0.3824
    -0.3749  -0.3634  -0.3540  -0.3447  -0.3293  -0.3202  -0.3155  -0.2732
    -0.2440  -0.2368  -0.2276  -0.2077  -0.2008  -0.1726  -0.1588  -0.1534
    -0.1030  -0.0599   0.1116   0.1463   0.1831   0.2701   0.3950   0.4184
     0.4552   0.7508

          k = 0.2000 0.3464 0.0000 ( 51202 PWs)   bands (ev):

   -21.9705  -9.1539  -7.2373  -6.2646  -6.0238  -5.9196  -5.6770  -5.4872
    -5.3577  -5.0169  -4.7338  -4.6249  -4.4827  -4.4677  -4.3182  -4.2604
    -4.2519  -4.1618  -4.1555  -4.0605  -4.0294  -3.9902  -3.8879  -3.8639
    -3.8152  -3.7686  -3.6775  -3.6622  -3.6379  -3.6263  -3.6184  -3.6126
    -3.5794  -3.5718  -3.5322  -3.5078  -3.4685  -3.4315  -3.4272  -3.3763
    -3.2878  -3.2286  -3.2046  -3.1833  -3.1600  -3.1454  -3.0912  -3.0443
    -3.0068  -2.9840  -2.9687  -2.9530  -2.9386  -2.9083  -2.9008  -2.8748
    -2.8609  -2.8360  -2.7492  -2.7148  -2.6801  -2.6591  -2.6477  -2.6276
    -2.6008  -2.5566  -2.4929  -2.4258  -2.4107  -2.3822  -2.3676  -2.3359
    -2.3227  -2.3136  -2.3069  -2.2841  -2.2699  -2.2558  -2.2443  -2.2385
    -2.2300  -2.1797  -2.1536  -2.1124  -2.0604  -2.0550  -2.0308  -2.0166
    -2.0096  -1.9862  -1.9599  -1.9519  -1.9407  -1.9174  -1.8996  -1.8981
    -1.8911  -1.8795  -1.8739  -1.8546  -1.8454  -1.8354  -1.8221  -1.8113
    -1.7950  -1.7832  -1.7560  -1.7161  -1.7082  -1.6694  -1.6638  -1.6606
    -1.6513  -1.6377  -1.6054  -1.5730  -1.5563  -1.5480  -1.5315  -1.4988
    -1.4955  -1.4851  -1.4708  -1.4535  -1.4326  -1.4247  -1.4126  -1.3648
    -1.3503  -1.3241  -1.3065  -1.2344  -1.2137  -1.1835  -1.1673  -1.0930
    -1.0691  -1.0484  -1.0392  -1.0319  -1.0267  -1.0196  -0.9905  -0.9828
    -0.9676  -0.9545  -0.9315  -0.8921  -0.8847  -0.8625  -0.8519  -0.8383
    -0.8141  -0.7963  -0.7821  -0.7683  -0.7568  -0.7425  -0.6252  -0.6013
    -0.5990  -0.5767  -0.5625  -0.5511  -0.5375  -0.5276  -0.5104  -0.5041
    -0.4846  -0.4607  -0.4329  -0.4237  -0.4012  -0.3892  -0.3514  -0.3351
    -0.3252  -0.3231  -0.3185  -0.2939  -0.2842  -0.2755  -0.2712  -0.2560
    -0.2433  -0.1696  -0.1552  -0.1520  -0.1076  -0.1023  -0.0867   0.0394
     0.1573   0.2398   0.2652   0.4304   0.5308   0.6477   1.0108   1.1299
     1.2428   1.4352

          k = 0.2000-0.5774 0.0000 ( 51262 PWs)   bands (ev):

   -21.9706  -9.1468  -6.7227  -6.6762  -6.1364  -6.0108  -5.6974  -5.5283
    -5.2426  -5.1961  -4.8770  -4.6478  -4.4633  -4.2253  -4.1761  -4.0728
    -4.0460  -4.0348  -4.0156  -4.0110  -3.9609  -3.9434  -3.9326  -3.9312
    -3.9052  -3.8503  -3.7847  -3.7777  -3.7563  -3.7528  -3.7040  -3.6093
    -3.5993  -3.5923  -3.5697  -3.5185  -3.4601  -3.4376  -3.3675  -3.3066
    -3.2995  -3.2481  -3.2196  -3.2011  -3.1740  -3.1214  -3.0879  -3.0817
    -3.0438  -3.0204  -2.9942  -2.9266  -2.8919  -2.8636  -2.8546  -2.8124
    -2.8019  -2.7269  -2.7195  -2.7080  -2.6969  -2.6860  -2.6628  -2.6407
    -2.5579  -2.5119  -2.4989  -2.4839  -2.4573  -2.4255  -2.4056  -2.3618
    -2.3580  -2.3173  -2.3083  -2.3051  -2.2954  -2.2751  -2.2494  -2.2474
    -2.2289  -2.2193  -2.2012  -2.1754  -2.1727  -2.1411  -2.0977  -2.0824
    -2.0651  -2.0305  -2.0048  -1.9798  -1.9603  -1.9362  -1.9244  -1.9140
    -1.8965  -1.8853  -1.8793  -1.8702  -1.8573  -1.8336  -1.8288  -1.7941
    -1.7644  -1.7415  -1.7326  -1.7230  -1.7051  -1.6994  -1.6928  -1.6816
    -1.6710  -1.6662  -1.6485  -1.6161  -1.5842  -1.5732  -1.5538  -1.5339
    -1.4790  -1.4755  -1.4508  -1.4330  -1.4184  -1.4071  -1.3935  -1.3724
    -1.3382  -1.3216  -1.2966  -1.2658  -1.2087  -1.1832  -1.1748  -1.1546
    -1.1403  -1.1286  -1.1198  -1.0887  -1.0713  -1.0548  -1.0397  -1.0268
    -0.9795  -0.9627  -0.9480  -0.9399  -0.9259  -0.8773  -0.8678  -0.8503
    -0.8451  -0.8263  -0.8208  -0.8035  -0.7765  -0.7598  -0.7283  -0.5895
    -0.5691  -0.5639  -0.5515  -0.5377  -0.5317  -0.5217  -0.5096  -0.4858
    -0.4682  -0.4550  -0.4458  -0.4390  -0.3959  -0.3478  -0.3260  -0.3191
    -0.3075  -0.2969  -0.2787  -0.2670  -0.2313  -0.2232  -0.2169  -0.2044
    -0.1986  -0.1317  -0.1265  -0.1180  -0.1066  -0.0955  -0.0748  -0.0421
     0.1350   0.2549   0.4858   0.8764   1.0938   1.1785   1.2892   1.5196
     1.6791   1.7284

          k = 0.2000-0.3464 0.0000 ( 51202 PWs)   bands (ev):

   -21.9705  -9.1548  -7.2353  -6.2671  -5.9914  -5.9287  -5.6786  -5.5263
    -5.3432  -5.0044  -4.7056  -4.6769  -4.4788  -4.4669  -4.3122  -4.2618
    -4.2532  -4.1613  -4.1564  -4.0475  -4.0238  -4.0111  -3.8905  -3.8660
    -3.8174  -3.7697  -3.6760  -3.6585  -3.6502  -3.6286  -3.6214  -3.5990
    -3.5795  -3.5731  -3.5344  -3.5083  -3.4700  -3.4279  -3.4157  -3.3817
    -3.2907  -3.2252  -3.2043  -3.1834  -3.1619  -3.1388  -3.0739  -3.0446
    -2.9975  -2.9949  -2.9654  -2.9508  -2.9456  -2.9125  -2.8923  -2.8765
    -2.8571  -2.8374  -2.7474  -2.7269  -2.6825  -2.6658  -2.6428  -2.6268
    -2.6049  -2.5574  -2.4907  -2.4277  -2.4015  -2.3829  -2.3675  -2.3359
    -2.3254  -2.3128  -2.3074  -2.2808  -2.2680  -2.2551  -2.2446  -2.2372
    -2.2280  -2.1843  -2.1527  -2.1311  -2.0618  -2.0564  -2.0305  -2.0162
    -2.0090  -1.9849  -1.9663  -1.9498  -1.9325  -1.9178  -1.9012  -1.8975
    -1.8892  -1.8802  -1.8720  -1.8542  -1.8434  -1.8376  -1.8187  -1.8039
    -1.7945  -1.7901  -1.7656  -1.7146  -1.7104  -1.6751  -1.6640  -1.6556
    -1.6528  -1.6324  -1.5864  -1.5789  -1.5602  -1.5343  -1.5182  -1.5029
    -1.4912  -1.4861  -1.4774  -1.4539  -1.4376  -1.4234  -1.4148  -1.3616
    -1.3512  -1.3146  -1.3017  -1.2478  -1.2108  -1.1781  -1.1598  -1.0956
    -1.0747  -1.0511  -1.0394  -1.0361  -1.0293  -1.0198  -0.9922  -0.9826
    -0.9671  -0.9598  -0.9362  -0.8934  -0.8812  -0.8701  -0.8489  -0.8363
    -0.8137  -0.7954  -0.7754  -0.7675  -0.7547  -0.7443  -0.6204  -0.6120
    -0.5928  -0.5782  -0.5619  -0.5507  -0.5442  -0.5246  -0.5195  -0.4995
    -0.4867  -0.4621  -0.4293  -0.4164  -0.4023  -0.3904  -0.3556  -0.3338
    -0.3267  -0.3219  -0.3174  -0.2948  -0.2859  -0.2766  -0.2691  -0.2566
    -0.2450  -0.1712  -0.1577  -0.1521  -0.1080  -0.1039  -0.0964   0.0543
     0.1413   0.2398   0.2580   0.4584   0.5186   0.6439   1.0313   1.1310
     1.2465   1.3884

          k = 0.4000-0.2309 0.0000 ( 51204 PWs)   bands (ev):

   -21.9705  -9.1488  -7.1024  -6.4603  -6.1511  -5.8385  -5.5333  -5.3736
    -5.1945  -5.1458  -5.0782  -4.8311  -4.3428  -4.3092  -4.2737  -4.2340
    -4.1916  -4.1172  -4.1125  -4.0178  -3.9841  -3.9786  -3.9486  -3.8208
    -3.8006  -3.7902  -3.7874  -3.7835  -3.7132  -3.6848  -3.6756  -3.6099
    -3.5158  -3.5070  -3.4919  -3.4710  -3.4605  -3.4225  -3.3608  -3.3521
    -3.3407  -3.3292  -3.2998  -3.2123  -3.1262  -3.0993  -3.0342  -3.0199
    -2.9975  -2.9767  -2.9566  -2.9430  -2.9328  -2.9226  -2.9024  -2.8553
    -2.8418  -2.8208  -2.7794  -2.7516  -2.6487  -2.6329  -2.6137  -2.5871
    -2.5554  -2.5256  -2.5031  -2.4877  -2.4786  -2.4149  -2.3583  -2.3565
    -2.3544  -2.3414  -2.3324  -2.3120  -2.2997  -2.2908  -2.2685  -2.2389
    -2.2266  -2.1962  -2.1774  -2.1525  -2.1254  -2.1164  -2.0605  -2.0428
    -2.0258  -2.0132  -1.9953  -1.9683  -1.9633  -1.9231  -1.9143  -1.9039
    -1.8983  -1.8781  -1.8692  -1.8489  -1.8423  -1.8390  -1.8300  -1.7972
    -1.7839  -1.7460  -1.7340  -1.7233  -1.6593  -1.6419  -1.6169  -1.6047
    -1.5881  -1.5698  -1.5558  -1.5138  -1.5080  -1.4934  -1.4896  -1.4804
    -1.4690  -1.4646  -1.4581  -1.4494  -1.4407  -1.4311  -1.4123  -1.4018
    -1.3847  -1.3663  -1.3093  -1.2726  -1.2608  -1.2504  -1.2274  -1.2033
    -1.1853  -1.1379  -1.1109  -1.0988  -1.0727  -1.0622  -1.0238  -1.0010
    -0.9805  -0.9452  -0.9285  -0.9166  -0.8902  -0.8618  -0.8347  -0.7898
    -0.7501  -0.7246  -0.7127  -0.7004  -0.6974  -0.6895  -0.6825  -0.6723
    -0.6553  -0.6369  -0.5558  -0.5465  -0.5411  -0.5286  -0.5190  -0.5044
    -0.4975  -0.4789  -0.4706  -0.4644  -0.4438  -0.4239  -0.3639  -0.3519
    -0.3387  -0.3287  -0.3028  -0.2556  -0.2493  -0.2196  -0.2132  -0.1746
    -0.1447  -0.1338  -0.1263  -0.1096  -0.1043  -0.1009  -0.0932  -0.0495
    -0.0004   0.0213   0.4161   0.6006   0.9291   1.0840   1.1277   1.2580
     1.4705   1.5132

          k = 0.4000 0.0000 0.0000 ( 51202 PWs)   bands (ev):

   -21.9705  -9.1510  -7.2402  -6.2585  -6.0601  -5.9139  -5.6768  -5.4602
    -5.3713  -4.9929  -4.7637  -4.5939  -4.4820  -4.4800  -4.3183  -4.2628
    -4.2460  -4.1616  -4.1557  -4.0881  -4.0303  -3.9318  -3.8897  -3.8678
    -3.8110  -3.7715  -3.6798  -3.6724  -3.6374  -3.6307  -3.6212  -3.6062
    -3.5793  -3.5697  -3.5463  -3.5146  -3.4675  -3.4462  -3.4325  -3.3797
    -3.2966  -3.2499  -3.2047  -3.1745  -3.1562  -3.1463  -3.0911  -3.0436
    -3.0133  -2.9730  -2.9692  -2.9572  -2.9322  -2.9077  -2.8901  -2.8803
    -2.8638  -2.8385  -2.7573  -2.6904  -2.6816  -2.6578  -2.6349  -2.6202
    -2.6058  -2.5493  -2.4962  -2.4244  -2.4045  -2.3813  -2.3689  -2.3393
    -2.3241  -2.3151  -2.3088  -2.2906  -2.2672  -2.2569  -2.2500  -2.2374
    -2.2118  -2.1833  -2.1588  -2.1034  -2.0614  -2.0515  -2.0425  -2.0227
    -2.0046  -1.9858  -1.9560  -1.9492  -1.9425  -1.9165  -1.8968  -1.8908
    -1.8844  -1.8829  -1.8745  -1.8548  -1.8514  -1.8336  -1.8177  -1.8124
    -1.7910  -1.7626  -1.7392  -1.7160  -1.7077  -1.6817  -1.6639  -1.6583
    -1.6461  -1.6324  -1.6143  -1.5789  -1.5588  -1.5502  -1.5252  -1.5070
    -1.4972  -1.4874  -1.4740  -1.4636  -1.4451  -1.4305  -1.4145  -1.3631
    -1.3469  -1.3288  -1.3209  -1.2189  -1.2053  -1.1864  -1.1711  -1.0987
    -1.0580  -1.0548  -1.0491  -1.0395  -1.0256  -1.0157  -0.9952  -0.9911
    -0.9719  -0.9461  -0.9314  -0.8891  -0.8705  -0.8585  -0.8507  -0.8364
    -0.8064  -0.7989  -0.7842  -0.7726  -0.7594  -0.7433  -0.6233  -0.6048
    -0.5812  -0.5720  -0.5623  -0.5497  -0.5397  -0.5232  -0.5158  -0.5094
    -0.4862  -0.4618  -0.4378  -0.4218  -0.4012  -0.3829  -0.3425  -0.3318
    -0.3255  -0.3221  -0.3155  -0.2944  -0.2845  -0.2775  -0.2721  -0.2512
    -0.2440  -0.1664  -0.1567  -0.1537  -0.1113  -0.1092  -0.0769   0.0443
     0.2179   0.2379   0.2822   0.3657   0.5420   0.6248   0.9299   1.1327
     1.2291   1.4404

          k = 0.4000 0.2309 0.0000 ( 51204 PWs)   bands (ev):

   -21.9705  -9.1473  -7.1056  -6.4640  -6.1587  -5.8641  -5.4662  -5.3987
    -5.1957  -5.1460  -5.0728  -4.8341  -4.3440  -4.3040  -4.2896  -4.2331
    -4.1851  -4.1178  -4.1137  -4.0061  -3.9842  -3.9784  -3.9154  -3.8290
    -3.7997  -3.7898  -3.7869  -3.7817  -3.6951  -3.6835  -3.6658  -3.6539
    -3.5176  -3.5138  -3.4998  -3.4706  -3.4671  -3.4170  -3.3596  -3.3541
    -3.3406  -3.3299  -3.2996  -3.2133  -3.1308  -3.0901  -3.0372  -3.0129
    -3.0019  -2.9724  -2.9570  -2.9529  -2.9407  -2.9171  -2.8896  -2.8569
    -2.8446  -2.8225  -2.7884  -2.7373  -2.6429  -2.6333  -2.6194  -2.5854
    -2.5597  -2.5225  -2.5001  -2.4970  -2.4830  -2.4140  -2.3607  -2.3564
    -2.3519  -2.3443  -2.3304  -2.3141  -2.2985  -2.2930  -2.2678  -2.2313
    -2.2167  -2.1979  -2.1812  -2.1637  -2.1227  -2.1073  -2.0595  -2.0414
    -2.0279  -2.0153  -1.9975  -1.9793  -1.9567  -1.9228  -1.9163  -1.9055
    -1.8933  -1.8818  -1.8680  -1.8567  -1.8442  -1.8359  -1.8289  -1.7995
    -1.7851  -1.7647  -1.7350  -1.7222  -1.6591  -1.6448  -1.6165  -1.6036
    -1.5826  -1.5698  -1.5495  -1.5100  -1.5070  -1.4973  -1.4894  -1.4822
    -1.4741  -1.4667  -1.4544  -1.4499  -1.4420  -1.4292  -1.4033  -1.3960
    -1.3813  -1.3687  -1.3236  -1.2733  -1.2579  -1.2461  -1.2272  -1.2028
    -1.1842  -1.1355  -1.1139  -1.0973  -1.0794  -1.0521  -1.0390  -1.0011
    -0.9773  -0.9468  -0.9267  -0.9192  -0.8883  -0.8607  -0.8380  -0.7985
    -0.7317  -0.7232  -0.7096  -0.7010  -0.6967  -0.6854  -0.6786  -0.6674
    -0.6600  -0.6544  -0.5542  -0.5479  -0.5426  -0.5284  -0.5189  -0.4984
    -0.4906  -0.4860  -0.4695  -0.4590  -0.4439  -0.4240  -0.3628  -0.3479
    -0.3416  -0.3304  -0.2960  -0.2518  -0.2512  -0.2148  -0.2128  -0.1736
    -0.1475  -0.1327  -0.1287  -0.1066  -0.1042  -0.0994  -0.0800  -0.0573
    -0.0005   0.0228   0.3962   0.6616   0.8844   1.0377   1.1339   1.2094
     1.4800   1.5470

          k = 0.4000-0.6928 0.0000 ( 51262 PWs)   bands (ev):

   -21.9706  -9.1430  -6.7491  -6.6631  -6.1515  -5.9346  -5.8588  -5.4136
    -5.2091  -5.1883  -4.9381  -4.6450  -4.4612  -4.2221  -4.1773  -4.0497
    -4.0446  -4.0215  -4.0137  -3.9898  -3.9611  -3.9373  -3.9325  -3.9278
    -3.9138  -3.8086  -3.7899  -3.7812  -3.7634  -3.7467  -3.7301  -3.6224
    -3.5990  -3.5940  -3.5787  -3.5560  -3.4949  -3.4364  -3.3379  -3.3062
    -3.3027  -3.2787  -3.2088  -3.1993  -3.1723  -3.1264  -3.0883  -3.0859
    -3.0632  -3.0038  -2.9943  -2.9233  -2.8918  -2.8657  -2.8561  -2.8040
    -2.7850  -2.7277  -2.7203  -2.7133  -2.7010  -2.6933  -2.6441  -2.6269
    -2.5523  -2.5074  -2.4997  -2.4830  -2.4714  -2.4344  -2.4154  -2.3598
    -2.3511  -2.3200  -2.3136  -2.2985  -2.2916  -2.2687  -2.2498  -2.2372
    -2.2225  -2.2127  -2.1860  -2.1813  -2.1705  -2.1520  -2.1059  -2.0891
    -2.0747  -2.0498  -2.0067  -1.9723  -1.9566  -1.9349  -1.9218  -1.9147
    -1.8946  -1.8874  -1.8824  -1.8603  -1.8439  -1.8381  -1.8254  -1.7659
    -1.7493  -1.7426  -1.7300  -1.7161  -1.7049  -1.7020  -1.6884  -1.6838
    -1.6783  -1.6699  -1.6473  -1.6405  -1.5900  -1.5687  -1.5626  -1.5310
    -1.5035  -1.4799  -1.4590  -1.4275  -1.4140  -1.4047  -1.3930  -1.3754
    -1.3292  -1.3264  -1.2983  -1.2500  -1.1974  -1.1906  -1.1792  -1.1569
    -1.1378  -1.1240  -1.1161  -1.0951  -1.0860  -1.0619  -1.0392  -1.0137
    -0.9794  -0.9733  -0.9495  -0.9318  -0.9218  -0.8839  -0.8688  -0.8640
    -0.8427  -0.8284  -0.8115  -0.7963  -0.7743  -0.7622  -0.7350  -0.5798
    -0.5656  -0.5585  -0.5503  -0.5396  -0.5362  -0.5192  -0.5117  -0.4766
    -0.4676  -0.4578  -0.4537  -0.4337  -0.3858  -0.3318  -0.3262  -0.3145
    -0.3062  -0.2926  -0.2764  -0.2427  -0.2335  -0.2244  -0.2158  -0.2066
    -0.1986  -0.1789  -0.1262  -0.1200  -0.1062  -0.0971  -0.0736  -0.0407
     0.1539   0.2750   0.5662   0.7942   0.9941   1.1822   1.2366   1.5783
     1.6845   1.7211

          k = 0.4000-0.4619 0.0000 ( 51262 PWs)   bands (ev):

   -21.9706  -9.1440  -6.7406  -6.6650  -6.1489  -5.9783  -5.7848  -5.4571
    -5.2276  -5.1923  -4.9047  -4.6455  -4.4612  -4.2215  -4.1788  -4.0540
    -4.0443  -4.0313  -4.0159  -4.0053  -3.9575  -3.9386  -3.9327  -3.9301
    -3.9114  -3.8351  -3.7857  -3.7804  -3.7584  -3.7531  -3.7083  -3.6159
    -3.5995  -3.5914  -3.5715  -3.5443  -3.4925  -3.4419  -3.3437  -3.3056
    -3.2989  -3.2827  -3.2145  -3.1987  -3.1722  -3.1211  -3.0881  -3.0828
    -3.0518  -3.0156  -2.9885  -2.9233  -2.8945  -2.8715  -2.8507  -2.8087
    -2.7857  -2.7269  -2.7223  -2.7123  -2.6992  -2.6886  -2.6591  -2.6126
    -2.5553  -2.5060  -2.4972  -2.4887  -2.4638  -2.4264  -2.4173  -2.3621
    -2.3540  -2.3192  -2.3080  -2.3013  -2.2918  -2.2712  -2.2529  -2.2416
    -2.2234  -2.2168  -2.1996  -2.1770  -2.1701  -2.1313  -2.1009  -2.0889
    -2.0770  -2.0544  -2.0029  -1.9749  -1.9537  -1.9334  -1.9231  -1.9152
    -1.8948  -1.8863  -1.8763  -1.8682  -1.8497  -1.8319  -1.8244  -1.7695
    -1.7604  -1.7398  -1.7298  -1.7252  -1.7064  -1.7010  -1.6940  -1.6819
    -1.6763  -1.6698  -1.6451  -1.6292  -1.5880  -1.5701  -1.5591  -1.5170
    -1.4950  -1.4836  -1.4668  -1.4263  -1.4146  -1.4022  -1.3962  -1.3709
    -1.3307  -1.3255  -1.3040  -1.2453  -1.1996  -1.1937  -1.1742  -1.1600
    -1.1320  -1.1243  -1.1184  -1.0998  -1.0792  -1.0594  -1.0454  -1.0209
    -0.9792  -0.9763  -0.9514  -0.9349  -0.9190  -0.8820  -0.8650  -0.8565
    -0.8448  -0.8256  -0.8185  -0.7983  -0.7741  -0.7578  -0.7361  -0.5824
    -0.5657  -0.5558  -0.5467  -0.5417  -0.5298  -0.5233  -0.5105  -0.4777
    -0.4710  -0.4628  -0.4504  -0.4346  -0.3870  -0.3404  -0.3251  -0.3179
    -0.3035  -0.2930  -0.2802  -0.2621  -0.2349  -0.2228  -0.2172  -0.2022
    -0.1914  -0.1611  -0.1246  -0.1199  -0.1072  -0.0948  -0.0736  -0.0429
     0.1449   0.2701   0.5213   0.8857   0.9745   1.1812   1.2472   1.5568
     1.6685   1.7308

 ------ SPIN DOWN ----------


          k = 0.0000 0.0000 0.0000 ( 51087 PWs)   bands (ev):

   -22.0552  -9.2608  -7.7900  -6.5769  -5.8107  -5.6487  -5.4238  -4.9603
    -4.6359  -4.6240  -4.6220  -4.5970  -4.5882  -4.5725  -4.1979  -3.7542
    -3.7521  -3.7346  -3.7230  -3.7105  -3.6641  -3.3192  -2.8173  -2.8071
    -2.7965  -2.7933  -2.7251  -2.5829  -2.3523  -2.3393  -2.3342  -2.3296
    -2.3092  -2.2193  -2.1408  -2.1363  -2.0696  -2.0516  -2.0407  -2.0398
    -1.9575  -1.9518  -1.9053  -1.9016  -1.8422  -1.8179  -1.8037  -1.7936
    -1.7551  -1.7323  -1.5572  -1.5501  -1.5362  -1.5302  -1.5187  -1.5162
    -1.5017  -1.5005  -1.4704  -1.4608  -1.4326  -1.4264  -1.4235  -1.4216
    -1.3558  -1.2493  -0.9090  -0.8726  -0.8471  -0.8437  -0.8013  -0.7461
    -0.6525  -0.6317  -0.5456  -0.5347  -0.5264  -0.5188  -0.5073  -0.4923
    -0.4720  -0.4644  -0.4405  -0.4360  -0.4266  -0.4263  -0.3800  -0.3660
    -0.3586  -0.3301  -0.3162  -0.3015  -0.2869  -0.2849  -0.2681  -0.2647
    -0.2587  -0.2523  -0.2421  -0.2376  -0.2364  -0.2346  -0.2047  -0.1537
    -0.1345  -0.1182  -0.1017  -0.0661  -0.0337  -0.0202  -0.0112  -0.0075
    -0.0054  -0.0029   0.0033   0.0565   0.0719   0.0731   0.1204   0.1473
     0.1583   0.1649   0.1735   0.2061   0.2558   0.3821   0.3931   0.4422
     0.4524   0.4660   0.4724   0.4798   0.6093   0.6834   0.7655   0.7990
     0.8155   0.8618   0.9796   1.0024   1.0220   1.0324   1.0419   1.0475
     1.0956   1.1641   1.1903   1.2087   1.2138   1.2229   1.2295   1.2531
     1.2606   1.2723   1.2831   1.3009   1.3155   1.3230   1.3265   1.3608
     1.3623   1.3719   1.3758   1.3865   1.4105   1.4287   1.4330   1.4424
     1.4550   1.4603   1.4760   1.4881   1.4915   1.5022   1.5054   1.5387
     1.5478   1.5639   1.5662   1.5721   1.5795   1.5855   1.5927   1.6294
     1.6357   1.6363   1.6399   1.6443   1.6477   1.6584   1.6669   1.6731
     1.6755   1.7209   1.7217   1.8637   1.8693   1.8718   1.8763   1.8782
     1.8799   2.0577

          k = 0.0000 0.2309 0.0000 ( 51134 PWs)   bands (ev):

   -22.0552  -9.2509  -7.6478  -6.4737  -5.8536  -5.6820  -5.5489  -5.3866
    -5.0368  -4.9751  -4.8374  -4.4602  -4.1017  -4.0724  -4.0521  -3.9460
    -3.8535  -3.7628  -3.4522  -3.3984  -3.3777  -3.2507  -2.9278  -2.8051
    -2.7731  -2.7188  -2.6816  -2.6098  -2.4320  -2.3721  -2.3686  -2.3493
    -2.3271  -2.2856  -2.2815  -2.2752  -2.2297  -2.2012  -2.1041  -2.0975
    -2.0131  -2.0103  -1.9476  -1.8732  -1.8352  -1.8196  -1.8121  -1.7054
    -1.6774  -1.6563  -1.6056  -1.5763  -1.5546  -1.5350  -1.5256  -1.5162
    -1.5075  -1.5001  -1.4097  -1.3976  -1.3837  -1.3673  -1.3287  -1.2867
    -1.2416  -1.1485  -0.9684  -0.9264  -0.8982  -0.8943  -0.8365  -0.7946
    -0.7371  -0.7103  -0.6863  -0.6422  -0.6232  -0.5748  -0.5553  -0.5443
    -0.5087  -0.4984  -0.4849  -0.4803  -0.4687  -0.4441  -0.4152  -0.3862
    -0.3585  -0.3168  -0.3133  -0.3074  -0.2949  -0.2727  -0.2543  -0.2423
    -0.2341  -0.2321  -0.2243  -0.2167  -0.2137  -0.2121  -0.1807  -0.1635
    -0.1460  -0.1313  -0.1196  -0.1066  -0.0846  -0.0712  -0.0555  -0.0325
    -0.0263   0.0019   0.0245   0.0504   0.0964   0.1071   0.1213   0.1390
     0.2312   0.2566   0.2923   0.3457   0.3630   0.3658   0.4217   0.4278
     0.4349   0.4429   0.4506   0.4550   0.5938   0.6984   0.7708   0.7829
     0.7913   0.7947   0.8132   0.8213   0.8794   0.8885   0.9374   0.9627
     1.0087   1.0293   1.0553   1.0695   1.0945   1.1131   1.1402   1.1979
     1.2104   1.2314   1.2468   1.2595   1.2777   1.2841   1.3263   1.3337
     1.3553   1.3746   1.4126   1.4212   1.4384   1.4478   1.4684   1.4794
     1.5134   1.5282   1.5304   1.5335   1.5622   1.6150   1.6185   1.6286
     1.6327   1.6578   1.6601   1.6898   1.6948   1.7030   1.7101   1.7152
     1.7376   1.7797   1.7846   1.7983   1.8017   1.8117   1.8232   1.8391
     1.8602   1.8645   1.8682   1.9054   1.9597   1.9725   1.9735   2.0282
     2.0552   2.1170

          k = 0.0000 0.4619 0.0000 ( 51204 PWs)   bands (ev):

   -22.0552  -9.2354  -7.2250  -6.5572  -6.1962  -5.7921  -5.6465  -5.3970
    -5.2374  -5.1502  -5.0777  -4.6616  -4.1034  -4.0256  -3.8442  -3.4596
    -3.4527  -3.3926  -3.3305  -3.1634  -3.0506  -3.0118  -2.9942  -2.8582
    -2.8529  -2.7919  -2.7432  -2.7082  -2.6334  -2.6155  -2.6088  -2.5505
    -2.5421  -2.3720  -2.3324  -2.3095  -2.2410  -2.2260  -2.1260  -2.1185
    -2.1013  -2.0888  -2.0412  -1.8475  -1.8214  -1.7983  -1.7750  -1.7501
    -1.6030  -1.5950  -1.5813  -1.5694  -1.5558  -1.5319  -1.5269  -1.5048
    -1.4909  -1.4188  -1.4082  -1.3905  -1.3732  -1.3565  -1.2053  -1.1786
    -1.0775  -1.0391  -0.9466  -0.9222  -0.9068  -0.8801  -0.8616  -0.8554
    -0.8355  -0.8172  -0.7938  -0.7716  -0.7232  -0.6897  -0.6670  -0.6407
    -0.6219  -0.6022  -0.5774  -0.5706  -0.5348  -0.5121  -0.4658  -0.4102
    -0.3851  -0.3719  -0.3476  -0.3317  -0.3058  -0.2884  -0.2604  -0.2383
    -0.2106  -0.2005  -0.1892  -0.1804  -0.1629  -0.1610  -0.1249  -0.1089
    -0.0989  -0.0813  -0.0697  -0.0601  -0.0523  -0.0381  -0.0261  -0.0063
     0.0029   0.0278   0.0584   0.1030   0.1464   0.1477   0.1686   0.2088
     0.2110   0.2239   0.2487   0.2741   0.3121   0.3236   0.3359   0.3510
     0.3867   0.4076   0.4178   0.4254   0.4647   0.5340   0.5889   0.5971
     0.6666   0.6886   0.7423   0.7797   0.8321   0.8535   0.8716   0.8880
     0.9140   0.9237   0.9399   0.9787   0.9914   1.0534   1.1682   1.1767
     1.1891   1.2159   1.2351   1.2478   1.2930   1.3090   1.3360   1.3487
     1.3727   1.3859   1.4001   1.4622   1.4760   1.4842   1.5366   1.5437
     1.5537   1.5572   1.5763   1.5928   1.6166   1.6290   1.6383   1.6642
     1.6721   1.7239   1.7440   1.7749   1.7862   1.8017   1.8121   1.8296
     1.8328   1.8618   1.8659   1.8808   1.8960   1.9033   1.9129   1.9153
     1.9606   2.0178   2.0498   2.1130   2.1235   2.2039   2.5525   2.6322
     2.6519   2.7045

          k = 0.2000-0.1155 0.0000 ( 51134 PWs)   bands (ev):

   -22.0552  -9.2494  -7.6488  -6.4751  -5.8792  -5.6769  -5.5295  -5.3894
    -5.0218  -4.9835  -4.8476  -4.4090  -4.1801  -4.0707  -4.0572  -3.9293
    -3.8209  -3.7751  -3.4699  -3.3958  -3.3221  -3.2569  -2.9729  -2.7887
    -2.7686  -2.7409  -2.6838  -2.5801  -2.4549  -2.3706  -2.3671  -2.3570
    -2.3234  -2.2914  -2.2830  -2.2809  -2.2318  -2.1855  -2.1009  -2.0985
    -2.0138  -2.0117  -1.9682  -1.8485  -1.8339  -1.8186  -1.7993  -1.7088
    -1.6758  -1.6517  -1.6086  -1.5714  -1.5598  -1.5348  -1.5236  -1.5194
    -1.5012  -1.4913  -1.4164  -1.3959  -1.3832  -1.3621  -1.3326  -1.2950
    -1.2356  -1.1566  -0.9647  -0.9190  -0.9005  -0.8930  -0.8421  -0.7771
    -0.7689  -0.7178  -0.6847  -0.6415  -0.6245  -0.5802  -0.5512  -0.5412
    -0.5083  -0.4997  -0.4799  -0.4707  -0.4648  -0.4518  -0.4298  -0.3841
    -0.3446  -0.3247  -0.3140  -0.3116  -0.3061  -0.2688  -0.2574  -0.2454
    -0.2363  -0.2252  -0.2220  -0.2160  -0.2130  -0.2106  -0.1865  -0.1635
    -0.1371  -0.1305  -0.1110  -0.1054  -0.0992  -0.0829  -0.0589  -0.0337
    -0.0167  -0.0044   0.0355   0.0639   0.0912   0.1080   0.1121   0.1393
     0.2375   0.2649   0.2973   0.3441   0.3626   0.3720   0.4099   0.4298
     0.4345   0.4406   0.4504   0.4589   0.5870   0.7080   0.7614   0.7792
     0.7916   0.8025   0.8149   0.8304   0.8692   0.8870   0.9385   0.9667
     1.0147   1.0322   1.0584   1.0880   1.1001   1.1220   1.1436   1.1460
     1.2130   1.2327   1.2519   1.2620   1.2739   1.2880   1.3261   1.3342
     1.3506   1.3684   1.4073   1.4267   1.4418   1.4479   1.4732   1.4987
     1.5172   1.5265   1.5323   1.5356   1.5562   1.6031   1.6155   1.6238
     1.6288   1.6544   1.6607   1.6908   1.6983   1.7045   1.7112   1.7191
     1.7363   1.7813   1.7855   1.8008   1.8023   1.8113   1.8216   1.8399
     1.8542   1.8625   1.8679   1.8903   1.9584   1.9717   1.9758   2.0337
     2.0517   2.1073

          k = 0.2000 0.1155 0.0000 ( 51134 PWs)   bands (ev):

   -22.0552  -9.2488  -7.6495  -6.4767  -5.9010  -5.6648  -5.4903  -5.4182
    -5.0151  -4.9830  -4.8641  -4.3603  -4.1991  -4.0742  -4.0575  -3.9620
    -3.8067  -3.7743  -3.4721  -3.4030  -3.3042  -3.2423  -2.9811  -2.8165
    -2.7645  -2.7251  -2.7014  -2.5559  -2.4612  -2.3736  -2.3652  -2.3496
    -2.3337  -2.2985  -2.2847  -2.2798  -2.2431  -2.1697  -2.0999  -2.0979
    -2.0148  -2.0120  -1.9651  -1.8640  -1.8210  -1.8153  -1.7973  -1.6981
    -1.6845  -1.6602  -1.5992  -1.5861  -1.5577  -1.5348  -1.5202  -1.5157
    -1.5124  -1.4660  -1.4351  -1.3913  -1.3825  -1.3618  -1.3327  -1.2925
    -1.2329  -1.1633  -0.9696  -0.9248  -0.9015  -0.8870  -0.8328  -0.8100
    -0.7743  -0.6908  -0.6722  -0.6491  -0.6322  -0.5791  -0.5613  -0.5328
    -0.5120  -0.4971  -0.4815  -0.4719  -0.4679  -0.4487  -0.4393  -0.3705
    -0.3434  -0.3236  -0.3155  -0.3106  -0.3025  -0.2642  -0.2518  -0.2443
    -0.2391  -0.2270  -0.2215  -0.2192  -0.2134  -0.2122  -0.1809  -0.1644
    -0.1447  -0.1295  -0.1120  -0.1076  -0.1002  -0.0771  -0.0587  -0.0422
    -0.0164   0.0023   0.0419   0.0747   0.0836   0.1074   0.1092   0.1394
     0.2136   0.2792   0.3048   0.3395   0.3548   0.3797   0.4108   0.4215
     0.4375   0.4407   0.4542   0.4592   0.6212   0.6835   0.7621   0.7778
     0.7947   0.8002   0.8175   0.8301   0.8647   0.8867   0.9383   0.9605
     0.9823   1.0493   1.0657   1.0833   1.1008   1.1287   1.1419   1.1488
     1.2096   1.2400   1.2514   1.2682   1.2816   1.2832   1.3245   1.3336
     1.3471   1.3746   1.4119   1.4305   1.4371   1.4487   1.4704   1.4961
     1.5131   1.5270   1.5336   1.5437   1.5504   1.5996   1.6094   1.6228
     1.6330   1.6545   1.6603   1.6914   1.6991   1.7060   1.7101   1.7193
     1.7377   1.7814   1.7859   1.7999   1.8014   1.8122   1.8234   1.8378
     1.8556   1.8613   1.8691   1.8802   1.9573   1.9695   1.9771   2.0270
     2.0563   2.1029

          k = 0.2000 0.3464 0.0000 ( 51202 PWs)   bands (ev):

   -22.0552  -9.2361  -7.3673  -6.3160  -6.0915  -6.0012  -5.6896  -5.5295
    -5.3907  -4.9492  -4.6576  -4.4692  -4.2585  -4.2479  -3.8870  -3.4364
    -3.4233  -3.4204  -3.4118  -3.2825  -3.1547  -3.1220  -3.1150  -2.9005
    -2.7558  -2.6833  -2.6739  -2.6435  -2.5821  -2.5620  -2.5578  -2.4735
    -2.4656  -2.4553  -2.4255  -2.3150  -2.2848  -2.2396  -2.0885  -2.0796
    -2.0604  -1.9969  -1.9648  -1.9438  -1.9207  -1.7924  -1.7385  -1.7331
    -1.6418  -1.6105  -1.5644  -1.5598  -1.5476  -1.5370  -1.5174  -1.5035
    -1.4871  -1.4734  -1.4232  -1.3796  -1.3433  -1.2980  -1.1931  -1.1630
    -1.1008  -1.0717  -0.9881  -0.9448  -0.8975  -0.8639  -0.8476  -0.8248
    -0.8098  -0.7725  -0.7508  -0.7179  -0.6987  -0.6807  -0.6632  -0.6463
    -0.6316  -0.6115  -0.5962  -0.5626  -0.5455  -0.4537  -0.4384  -0.4191
    -0.4037  -0.3805  -0.3495  -0.3367  -0.3123  -0.2941  -0.2835  -0.2718
    -0.2590  -0.2434  -0.2285  -0.2065  -0.1960  -0.1779  -0.1640  -0.1300
    -0.1155  -0.1091  -0.1012  -0.0827  -0.0721  -0.0657  -0.0497  -0.0383
     0.0301   0.0489   0.0526   0.0692   0.1658   0.1680   0.2059   0.2311
     0.2514   0.2824   0.3015   0.3207   0.3456   0.3683   0.3773   0.3855
     0.3938   0.4225   0.4402   0.4717   0.5275   0.6005   0.6603   0.6969
     0.7437   0.7783   0.8033   0.8302   0.8415   0.8486   0.8679   0.8872
     0.8961   0.9093   0.9279   0.9442   0.9834   1.0342   1.0805   1.1023
     1.1161   1.1487   1.1573   1.1900   1.2000   1.2505   1.2670   1.3136
     1.3403   1.3910   1.4533   1.4947   1.5087   1.5202   1.5378   1.5479
     1.5666   1.5742   1.5963   1.6026   1.6576   1.6734   1.6810   1.6844
     1.6980   1.7268   1.7388   1.7479   1.7600   1.7761   1.7844   1.8053
     1.8192   1.8224   1.8335   1.8437   1.8576   1.8699   1.9122   1.9406
     1.9498   1.9930   2.0479   2.0806   2.1815   2.2203   2.3468   2.4804
     2.5340   2.5502

          k = 0.2000-0.5774 0.0000 ( 51262 PWs)   bands (ev):

   -22.0552  -9.2290  -6.8340  -6.7975  -6.2085  -6.0541  -5.7254  -5.5821
[...]
     atom    8 type  1   force =    -0.00049473   -0.00081919   -0.10377777
     atom    9 type  1   force =     0.00252591   -0.00053664   -0.10644622
     atom   10 type  1   force =    -0.00109254    0.00091513   -0.01016261
     atom   11 type  1   force =     0.00077399    0.00040912   -0.00659275
     atom   12 type  1   force =     0.00053143    0.00032817   -0.00896880
     atom   13 type  1   force =     0.00102170   -0.00159413   -0.01168192
     atom   14 type  1   force =    -0.00078289   -0.00115432   -0.01039374
     atom   15 type  1   force =    -0.00069525   -0.00051001   -0.01338426
     atom   16 type  1   force =    -0.00055739    0.00122957   -0.01673154
     atom   17 type  1   force =     0.00192034   -0.00091050   -0.01022447
     atom   18 type  1   force =    -0.00144878    0.00183536   -0.01302249
     atom   19 type  1   force =     0.00201097    0.00447895    0.00921887
     atom   20 type  1   force =    -0.00151153    0.01245722   -0.00167880
     atom   21 type  1   force =    -0.00083725    0.00167367    0.01347817
     atom   22 type  1   force =     0.00041200    0.00030213    0.01990838
     atom   23 type  1   force =    -0.00138592   -0.00029150    0.01020113
     atom   24 type  1   force =     0.00022679    0.00015795    0.01252579
     atom   25 type  1   force =    -0.00187146   -0.00460389   -0.00023784
     atom   26 type  1   force =    -0.00437960   -0.00658858   -0.00113775
     atom   27 type  1   force =     0.00706439   -0.00669785   -0.00006390
     atom   28 type  1   force =     0.04951733   -0.01410869    0.09806339
     atom   29 type  1   force =    -0.06291968   -0.01774155    0.05081218
     atom   30 type  1   force =     0.00751303    0.00173933    0.07930673
     atom   31 type  1   force =     0.00402859   -0.02199838    0.13646391
     atom   32 type  1   force =     0.00034150   -0.02280435    0.12046096
     atom   33 type  1   force =    -0.00258257    0.00022692    0.10846657
     atom   34 type  1   force =     0.00122237   -0.00079105    0.11582799
     atom   35 type  1   force =     0.00161857    0.04740431    0.13791096
     atom   36 type  1   force =    -0.00179726    0.01175653    0.12720115
     atom   37 type  2   force =    -0.05887422   -0.07675801    0.42083300
     atom   38 type  3   force =     0.29095533    0.18829262   -2.68750167
     atom   39 type  4   force =    -0.00283858   -0.00298601   -0.02268161
     The ionic contribution  to forces
     atom    1 type  1   force =    -0.00534666    0.00800127 -111.13973801
     atom    2 type  1   force =     0.00369859    0.00887060 -111.14300753
     atom    3 type  1   force =     0.00164805    0.00253525 -111.13240279
     atom    4 type  1   force =    -0.00008020    0.00104669 -111.12954836
     atom    5 type  1   force =    -0.00278850   -0.00487998 -111.13522322
     atom    6 type  1   force =     0.00286870   -0.00670352 -111.13504628
     atom    7 type  1   force =    -0.00658271   -0.00211416 -111.13797908
     atom    8 type  1   force =    -0.00154813   -0.00362234 -111.15434526
     atom    9 type  1   force =     0.00813085   -0.00313386 -111.14110183
     atom   10 type  1   force =    -0.05918697    0.01598557  -40.17324596
     atom   11 type  1   force =     0.04591707    0.01279419  -40.19902829
     atom   12 type  1   force =     0.01326672    0.00214077  -40.08270256
     atom   13 type  1   force =    -0.00853636    0.06651004  -40.09583418
     atom   14 type  1   force =     0.01949854    0.02214893  -40.07371195
     atom   15 type  1   force =    -0.01096048    0.01206843  -40.05626787
     atom   16 type  1   force =    -0.03293464   -0.02439797  -40.06574049
     atom   17 type  1   force =    -0.00361123   -0.07061691  -40.13993526
     atom   18 type  1   force =     0.03654628   -0.03663229  -40.07314314
     atom   19 type  1   force =    -0.26817296    0.39890316   31.33138340
     atom   20 type  1   force =     0.17739448    0.45746187   31.17971374
     atom   21 type  1   force =     0.09028498    0.12287025   31.64741069
     atom   22 type  1   force =    -0.00225306    0.04466354   31.78119941
     atom   23 type  1   force =    -0.13482571   -0.24003566   31.54928086
     atom   24 type  1   force =     0.13709007   -0.31512630   31.55952302
     atom   25 type  1   force =    -0.32816761   -0.09647517   31.42587435
     atom   26 type  1   force =    -0.07068348   -0.20535391   30.50067508
     atom   27 type  1   force =     0.39920777   -0.17142595   31.25764010
     atom   28 type  1   force =    -4.42793797    1.27152455   99.28433551
     atom   29 type  1   force =     3.20491486    0.86312483   98.29956760
     atom   30 type  1   force =     1.09511124   -0.16537284  103.60522895
     atom   31 type  1   force =    -0.20515258    2.51756180  103.48884997
     atom   32 type  1   force =     0.55942312    1.08654075  104.03223269
     atom   33 type  1   force =    -0.34041865    0.38485102  104.42936827
     atom   34 type  1   force =    -1.12054138   -0.83036074  104.16730922
     atom   35 type  1   force =    -0.04626051   -3.82699069  101.61484892
     atom   36 type  1   force =     1.16836358   -1.19584167  104.11433320
     atom   37 type  2   force =     0.66491696    0.36398634   51.15096572
     atom   38 type  3   force =    -1.15946247   -0.76007510   89.68170149
     atom   39 type  4   force =     0.60717037    0.29556919   15.10655989
     The local contribution  to forces
     atom    1 type  1   force =     0.00349667   -0.00641470  111.24590103
     atom    2 type  1   force =    -0.00278888   -0.01133164  111.25098423
     atom    3 type  1   force =    -0.00042172   -0.00161119  111.23631529
     atom    4 type  1   force =    -0.00078303   -0.00191391  111.23495332
     atom    5 type  1   force =     0.00217180    0.00522061  111.24103541
     atom    6 type  1   force =    -0.00143126    0.00450489  111.24322402
     atom    7 type  1   force =     0.00870415    0.00222838  111.24561411
     atom    8 type  1   force =     0.00198054    0.00535415  111.26236754
     atom    9 type  1   force =    -0.01093504    0.00505183  111.25049849
     atom   10 type  1   force =     0.05868123   -0.01829153   40.16331192
     atom   11 type  1   force =    -0.04527523   -0.01357680   40.18458200
     atom   12 type  1   force =    -0.01314041   -0.00253475   40.07177373
     atom   13 type  1   force =     0.00706395   -0.06386305   40.09049698
     atom   14 type  1   force =    -0.01930806   -0.02038268   40.06404600
     atom   15 type  1   force =     0.01243502   -0.01104660   40.04822503
     atom   16 type  1   force =     0.03327408    0.02435061   40.06274243
     atom   17 type  1   force =     0.00120233    0.07068340   40.13275416
     atom   18 type  1   force =    -0.03432297    0.03518225   40.06688125
     atom   19 type  1   force =     0.26750885   -0.40000253  -31.32407451
     atom   20 type  1   force =    -0.17778026   -0.46669346  -31.16428614
     atom   21 type  1   force =    -0.08816780   -0.12430401  -31.63904614
     atom   22 type  1   force =     0.00084118   -0.04601724  -31.77598887
     atom   23 type  1   force =     0.13493643    0.23827709  -31.53705915
     atom   24 type  1   force =    -0.13558455    0.31402284  -31.55174382
     atom   25 type  1   force =     0.32874443    0.10012404  -31.41035513
     atom   26 type  1   force =     0.07579466    0.21254037  -30.48485293
     atom   27 type  1   force =    -0.40689190    0.17671640  -31.24437980
     atom   28 type  1   force =     4.35751065   -1.25421043  -99.38445269
     atom   29 type  1   force =    -3.14120274   -0.84974486  -98.33472261
     atom   30 type  1   force =    -1.09233046    0.16091565 -103.68936161
     atom   31 type  1   force =     0.19629036   -2.48368407 -103.63469937
     atom   32 type  1   force =    -0.55833388   -1.05981506 -104.15705768
     atom   33 type  1   force =     0.34507428   -0.38411893 -104.54811191
     atom   34 type  1   force =     1.11731580    0.82969840 -104.29128071
     atom   35 type  1   force =     0.04281836    3.76918499 -101.75675686
     atom   36 type  1   force =    -1.16214250    1.17496208 -104.25044233
     atom   37 type  2   force =    -0.60682327   -0.28981067  -51.56929660
     atom   38 type  3   force =     0.87534541    0.57156216  -87.01397098
     atom   39 type  4   force =    -0.59445350   -0.28319916  -15.09057290
     The core correction contribution to forces
     atom    1 type  1   force =    -0.00012379   -0.00004425    0.00983243
     atom    2 type  1   force =    -0.00002733   -0.00026575    0.01013590
     atom    3 type  1   force =     0.00029276    0.00002265    0.00985371
     atom    4 type  1   force =     0.00010933   -0.00008102    0.01013712
     atom    5 type  1   force =     0.00016748    0.00003972    0.00999664
     atom    6 type  1   force =    -0.00008853   -0.00008481    0.00988039
     atom    7 type  1   force =    -0.00000388   -0.00000655    0.01008902
     atom    8 type  1   force =     0.00017781    0.00039776    0.00967915
     atom    9 type  1   force =    -0.00027684   -0.00004016    0.01019252
     atom   10 type  1   force =    -0.00006153    0.00005872   -0.00195158
     atom   11 type  1   force =     0.00009601    0.00014479   -0.00173382
     atom   12 type  1   force =    -0.00005107    0.00023211   -0.00185230
     atom   13 type  1   force =    -0.00039994    0.00021689   -0.00178617
     atom   14 type  1   force =     0.00018046   -0.00000650   -0.00194270
     atom   15 type  1   force =     0.00022185   -0.00003210   -0.00167254
     atom   16 type  1   force =    -0.00009774   -0.00000579   -0.00188741
     atom   17 type  1   force =    -0.00016685    0.00003118   -0.00191522
     atom   18 type  1   force =     0.00010326   -0.00027804   -0.00169017
     atom   19 type  1   force =    -0.00004081    0.00071195    0.00101504
     atom   20 type  1   force =    -0.00031728    0.00089456    0.00026576
     atom   21 type  1   force =     0.00058045    0.00009153    0.00195241
     atom   22 type  1   force =     0.00008439    0.00010634    0.00196258
     atom   23 type  1   force =    -0.00029913    0.00035350    0.00168454
     atom   24 type  1   force =     0.00049331   -0.00056772    0.00137639
     atom   25 type  1   force =     0.00053678   -0.00042883    0.00155375
     atom   26 type  1   force =    -0.00102340   -0.00075029    0.00113726
     atom   27 type  1   force =     0.00077139   -0.00044849    0.00093320
     atom   28 type  1   force =     0.00983767   -0.00221281   -0.00508933
     atom   29 type  1   force =    -0.00340639    0.00024459    0.00129046
     atom   30 type  1   force =    -0.00989220    0.00267016   -0.00548962
     atom   31 type  1   force =     0.00084771   -0.00547493   -0.00765241
     atom   32 type  1   force =    -0.00067786   -0.00783863   -0.00641801
     atom   33 type  1   force =    -0.00030061   -0.00126830   -0.01013184
     atom   34 type  1   force =     0.00103732    0.00130477   -0.00933104
     atom   35 type  1   force =     0.00021420    0.00802408   -0.00571747
     atom   36 type  1   force =    -0.00137784    0.00443206   -0.00765495
     atom   37 type  2   force =     0.00028795    0.00089498   -0.00114287
     atom   38 type  3   force =    -0.00216812   -0.00135208    0.01953934
     atom   39 type  4   force =     0.00000000    0.00000000    0.00000000
     The Hubbard contrib.    to forces
     atom    1 type  1   force =     0.00000000    0.00000000    0.00000000
     atom    2 type  1   force =     0.00000000    0.00000000    0.00000000
     atom    3 type  1   force =     0.00000000    0.00000000    0.00000000
     atom    4 type  1   force =     0.00000000    0.00000000    0.00000000
     atom    5 type  1   force =     0.00000000    0.00000000    0.00000000
     atom    6 type  1   force =     0.00000000    0.00000000    0.00000000
     atom    7 type  1   force =     0.00000000    0.00000000    0.00000000
     atom    8 type  1   force =     0.00000000    0.00000000    0.00000000
     atom    9 type  1   force =     0.00000000    0.00000000    0.00000000
     atom   10 type  1   force =     0.00000000    0.00000000    0.00000000
     atom   11 type  1   force =     0.00000000    0.00000000    0.00000000
     atom   12 type  1   force =     0.00000000    0.00000000    0.00000000
     atom   13 type  1   force =     0.00000000    0.00000000    0.00000000
     atom   14 type  1   force =     0.00000000    0.00000000    0.00000000
     atom   15 type  1   force =     0.00000000    0.00000000    0.00000000
     atom   16 type  1   force =     0.00000000    0.00000000    0.00000000
     atom   17 type  1   force =     0.00000000    0.00000000    0.00000000
     atom   18 type  1   force =     0.00000000    0.00000000    0.00000000
     atom   19 type  1   force =     0.00000000    0.00000000    0.00000000
     atom   20 type  1   force =     0.00000000    0.00000000    0.00000000
     atom   21 type  1   force =     0.00000000    0.00000000    0.00000000
     atom   22 type  1   force =     0.00000000    0.00000000    0.00000000
     atom   23 type  1   force =     0.00000000    0.00000000    0.00000000
     atom   24 type  1   force =     0.00000000    0.00000000    0.00000000
     atom   25 type  1   force =     0.00000000    0.00000000    0.00000000
     atom   26 type  1   force =     0.00000000    0.00000000    0.00000000
     atom   27 type  1   force =     0.00000000    0.00000000    0.00000000
     atom   28 type  1   force =     0.00000000    0.00000000    0.00000000
     atom   29 type  1   force =     0.00000000    0.00000000    0.00000000
     atom   30 type  1   force =     0.00000000    0.00000000    0.00000000
     atom   31 type  1   force =     0.00000000    0.00000000    0.00000000
     atom   32 type  1   force =     0.00000000    0.00000000    0.00000000
     atom   33 type  1   force =     0.00000000    0.00000000    0.00000000
     atom   34 type  1   force =     0.00000000    0.00000000    0.00000000
     atom   35 type  1   force =     0.00000000    0.00000000    0.00000000
     atom   36 type  1   force =     0.00000000    0.00000000    0.00000000
     atom   37 type  2   force =     0.00000000    0.00000000    0.00000000
     atom   38 type  3   force =     0.00000000    0.00000000    0.00000000
     atom   39 type  4   force =     0.00000000    0.00000000    0.00000000
     The SCF correction term to forces
     atom    1 type  1   force =    -0.00000000    0.00000000    0.00000000
     atom    2 type  1   force =     0.00000000   -0.00000000    0.00000000
     atom    3 type  1   force =     0.00000000    0.00000000    0.00000000
     atom    4 type  1   force =    -0.00000000   -0.00000000    0.00000000
     atom    5 type  1   force =     0.00000000   -0.00000000    0.00000000
     atom    6 type  1   force =    -0.00000000   -0.00000000    0.00000000
     atom    7 type  1   force =     0.00000000    0.00000000    0.00000000
     atom    8 type  1   force =     0.00000000   -0.00000000    0.00000000
     atom    9 type  1   force =    -0.00000000   -0.00000000    0.00000000
     atom   10 type  1   force =     0.00000000    0.00000000    0.00000000
     atom   11 type  1   force =     0.00000000    0.00000000    0.00000000
     atom   12 type  1   force =    -0.00000000    0.00000000    0.00000000
     atom   13 type  1   force =     0.00000000   -0.00000000    0.00000000
     atom   14 type  1   force =    -0.00000000   -0.00000000    0.00000000
     atom   15 type  1   force =     0.00000000    0.00000000    0.00000000
     atom   16 type  1   force =     0.00000000   -0.00000000    0.00000000
     atom   17 type  1   force =     0.00000000   -0.00000000    0.00000000
     atom   18 type  1   force =    -0.00000000    0.00000000    0.00000000
     atom   19 type  1   force =    -0.00000000   -0.00000000    0.00000000
     atom   20 type  1   force =     0.00000000   -0.00000000    0.00000000
     atom   21 type  1   force =    -0.00000000   -0.00000000    0.00000000
     atom   22 type  1   force =     0.00000000    0.00000000    0.00000000
     atom   23 type  1   force =    -0.00000000    0.00000000    0.00000000
     atom   24 type  1   force =    -0.00000000   -0.00000000    0.00000000
     atom   25 type  1   force =    -0.00000000   -0.00000000    0.00000000
     atom   26 type  1   force =    -0.00000000    0.00000000    0.00000000
     atom   27 type  1   force =     0.00000000    0.00000000    0.00000000
     atom   28 type  1   force =    -0.00000000   -0.00000000   -0.00000000
     atom   29 type  1   force =     0.00000000   -0.00000000   -0.00000000
     atom   30 type  1   force =     0.00000000   -0.00000000   -0.00000000
     atom   31 type  1   force =     0.00000000    0.00000000   -0.00000000
     atom   32 type  1   force =     0.00000000    0.00000000   -0.00000000
     atom   33 type  1   force =    -0.00000000   -0.00000000   -0.00000000
     atom   34 type  1   force =     0.00000000    0.00000000   -0.00000000
     atom   35 type  1   force =    -0.00000000   -0.00000000   -0.00000000
     atom   36 type  1   force =     0.00000000    0.00000000   -0.00000000
     atom   37 type  2   force =    -0.00000612   -0.00000150   -0.00001270
     atom   38 type  3   force =    -0.00000335   -0.00000104   -0.00002165
     atom   39 type  4   force =     0.00000329   -0.00000054   -0.00000323

     Total force =     0.016136     Total SCF correction =     0.000027

     Writing all to output data dir ./pwscf.save/

     init_run     :     11.47s CPU     11.88s WALL (       1 calls)
     electrons    :    937.03s CPU    953.82s WALL (       1 calls)
     forces       :      3.55s CPU      3.63s WALL (       1 calls)

     Called by init_run:
     wfcinit      :      8.42s CPU      8.71s WALL (       1 calls)
     potinit      :      1.94s CPU      2.03s WALL (       1 calls)
     hinit0       :      0.85s CPU      0.87s WALL (       1 calls)

     Called by electrons:
     c_bands      :    798.69s CPU    813.01s WALL (      53 calls)
     sum_band     :     89.43s CPU     90.71s WALL (      53 calls)
     v_of_rho     :      9.21s CPU      9.66s WALL (      54 calls)
     newd         :      4.18s CPU      4.24s WALL (      54 calls)
     PAW_pot      :     16.29s CPU     16.46s WALL (      54 calls)
     mix_rho      :     20.44s CPU     20.75s WALL (      53 calls)
     vdW_kernel   :      1.07s CPU      1.08s WALL (       1 calls)

     Called by c_bands:
     init_us_2    :      9.30s CPU      9.49s WALL (    2808 calls)
     init_us_2:cp :      9.28s CPU      9.48s WALL (    2808 calls)
     cegterg      :    771.20s CPU    784.78s WALL (    1379 calls)

     Called by *egterg:
     cdiaghg      :    211.84s CPU    213.96s WALL (    4907 calls)
     h_psi        :    372.13s CPU    379.41s WALL (    4933 calls)
     s_psi        :     38.68s CPU     39.79s WALL (    4933 calls)
     g_psi        :      0.98s CPU      1.01s WALL (    3528 calls)

     Called by h_psi:
     h_psi:calbec :     58.85s CPU     59.68s WALL (    4933 calls)
     vloc_psi     :    271.00s CPU    276.53s WALL (    4933 calls)
     add_vuspsi   :     39.87s CPU     40.75s WALL (    4933 calls)

     General routines
     calbec       :     83.43s CPU     84.54s WALL (    6415 calls)
     fft          :      6.47s CPU      6.94s WALL (    4883 calls)
     ffts         :     12.50s CPU     12.69s WALL (   22246 calls)
     fftw         :    304.00s CPU    309.96s WALL ( 1430832 calls)
     interpolate  :      0.45s CPU      0.46s WALL (     108 calls)

     Parallel routines

     PWSCF        :  15m57.66s CPU  16m19.76s WALL


   This run was terminated on:   9:24:23  14Dec2025            

=------------------------------------------------------------------------------=
   JOB DONE.
=------------------------------------------------------------------------------=
