
     Program PWSCF v.7.1 starts on 21Nov2025 at 13:55:24 
        Git branch: heads/qe-7.1
        Last git commit: 48ba0178f8fede6d020eb786884699a9f063f55d-dirty
        Last git commit date: Fri Jan 27 14:22:33 2023 +0000
        Last git commit subject: Merge branch 'fix_hubbard' into 'develop'

     This program is part of the open-source Quantum ESPRESSO suite
     for quantum simulation of materials; please cite
         "P. Giannozzi et al., J. Phys.:Condens. Matter 21 395502 (2009);
         "P. Giannozzi et al., J. Phys.:Condens. Matter 29 465901 (2017);
         "P. Giannozzi et al., J. Chem. Phys. 152 154105 (2020);
          URL http://www.quantum-espresso.org", 
     in publications or presentations arising from this work. More details at
     http://www.quantum-espresso.org/quote

     Parallel version (MPI), running on    96 processors

     MPI processes distributed on     2 nodes
     55762 MiB available memory on the printing compute node when the environment starts

     Reading input from espresso.pwi
Warning: card &CELL ignored
Warning: card / ignored
Warning: card &FCP ignored
Warning: card / ignored
Warning: card &RISM ignored
Warning: card / ignored

     Current dimensions of program PWSCF are:
     Max number of different atomic species (ntypx) = 10
     Max number of k-points (npk) =  40000
     Max angular momentum in pseudopotentials (lmaxx) =  4
     file Co.pbe-n-kjpaw_psl.1.0.0.UPF: wavefunction(s)  4S 3D renormalized
     file C.pbe-n-kjpaw_psl.1.0.0.UPF: wavefunction(s)  2S 2P renormalized
     file O.pbe-nl-kjpaw_psl.1.0.0.UPF: wavefunction(s)  2S 2P renormalized
     file H.pbe-kjpaw_psl.1.0.0.UPF: wavefunction(s)  1S renormalized

     **************************************************************************
     Initializing libbeef V0.1.2 with the BEEF-vdW functional.
     Citation: Wellendorff et al., PRB 85, 235149 (2012).
     **************************************************************************


     IMPORTANT: XC functional enforced from input :
     Exchange-correlation= BEEF-VDW
                           (   1   4  43  14   2   0   0)
     Any further DFT definition will be discarded
     Please, verify this is what you really want


     R & G space division:  proc/nbgrp/npool/nimage =      96
     Subspace diagonalization in iterative solution of the eigenvalue problem:
     one sub-group per band group will be used
     custom distributed-memory algorithm (size of sub-group:  2*  2 procs)


     Parallelization info
     --------------------
     sticks:   dense  smooth     PW     G-vecs:    dense   smooth      PW
     Min          43      23      6                 7829     3049     440
     Max          44      24      7                 7845     3068     465
     Sum        4153    2221    613               752179   293251   42993

     Using Slab Decomposition



     bravais-lattice index     =            0
     lattice parameter (alat)  =      14.1729  a.u.
     unit-cell volume          =    8574.3059 (a.u.)^3
     number of atoms/cell      =           39
     number of atomic types    =            4
     number of electrons       =       335.00
     number of Kohn-Sham states=          202
     kinetic-energy cutoff     =      40.0000  Ry
     charge density cutoff     =     300.0000  Ry
     scf convergence threshold =      1.0E-06
     mixing beta               =       0.7000
     number of iterations used =            8  local-TF  mixing
     Exchange-correlation= BEEF-VDW
                           (   1   4  43  14   2   0   0)

     celldm(1)=  14.172946  celldm(2)=   0.000000  celldm(3)=   0.000000
     celldm(4)=   0.000000  celldm(5)=   0.000000  celldm(6)=   0.000000

     crystal axes: (cart. coord. in units of alat)
               a(1) = (   1.000000   0.000000   0.000000 )  
               a(2) = (   0.500000   0.866025   0.000000 )  
               a(3) = (   0.000000   0.000000   3.477667 )  

     reciprocal axes: (cart. coord. in units 2 pi/alat)
               b(1) = (  1.000000 -0.577350  0.000000 )  
               b(2) = (  0.000000  1.154701  0.000000 )  
               b(3) = (  0.000000  0.000000  0.287549 )  


     PseudoPot. # 1 for Co read from file:
     /users/kbadger1/espresso/pseudo/pslibrary.1.0.0/pbe/PSEUDOPOTENTIALS/Co.pbe-n-kjpaw_psl.1.0.0.UPF
     MD5 check sum: 88af6ec42553d4236c267fdfcb472151
     Pseudo is Projector augmented-wave + core cor, Zval =  9.0
     Generated using 'atomic' code by A. Dal Corso  v.7.0
     Shape of augmentation charge: PSQ
     Using radial grid of 1193 points,  6 beta functions with: 
                l(1) =   0
                l(2) =   0
                l(3) =   1
                l(4) =   1
                l(5) =   2
                l(6) =   2
     Q(r) pseudized with 0 coefficients 


     PseudoPot. # 2 for C  read from file:
     /users/kbadger1/espresso/pseudo/pslibrary.1.0.0/pbe/PSEUDOPOTENTIALS/C.pbe-n-kjpaw_psl.1.0.0.UPF
     MD5 check sum: 6408e75cdba28732cea38a4db8498ce4
     Pseudo is Projector augmented-wave + core cor, Zval =  4.0
     Generated using 'atomic' code by A. Dal Corso  v.7.0
     Shape of augmentation charge: PSQ
     Using radial grid of 1073 points,  4 beta functions with: 
                l(1) =   0
                l(2) =   0
                l(3) =   1
                l(4) =   1
     Q(r) pseudized with 0 coefficients 


     PseudoPot. # 3 for O  read from file:
     /users/kbadger1/espresso/pseudo/pslibrary.1.0.0/pbe/PSEUDOPOTENTIALS/O.pbe-nl-kjpaw_psl.1.0.0.UPF
     MD5 check sum: f0439fab3598ca4e468f064226030408
     Pseudo is Projector augmented-wave + core cor, Zval =  6.0
     Generated using 'atomic' code by A. Dal Corso  v.7.0
     Shape of augmentation charge: PSQ
     Using radial grid of 1095 points,  4 beta functions with: 
                l(1) =   0
                l(2) =   0
                l(3) =   1
                l(4) =   1
     Q(r) pseudized with 0 coefficients 


     PseudoPot. # 4 for H  read from file:
     /users/kbadger1/espresso/pseudo/pslibrary.1.0.0/pbe/PSEUDOPOTENTIALS/H.pbe-kjpaw_psl.1.0.0.UPF
     MD5 check sum: fe4c6fa958fa6d3815bf5d2419cbf1df
     Pseudo is Projector augmented-wave, Zval =  1.0
     Generated using 'atomic' code by A. Dal Corso  v.7.0
     Shape of augmentation charge: PSQ
     Using radial grid of  929 points,  2 beta functions with: 
                l(1) =   0
                l(2) =   0
     Q(r) pseudized with 0 coefficients 


     atomic species   valence    mass     pseudopotential
        Co             9.00    58.93319     Co( 1.00)
        C              4.00    12.00000     C ( 1.00)
        O              6.00    15.99491     O ( 1.00)
        H              1.00     1.00783     H ( 1.00)

     Starting magnetic structure 
     atomic species   magnetization
        Co           1.000
        C            1.000
        O            0.000
        H            0.000

     No symmetry found



   Cartesian axes

     site n.     atom                  positions (alat units)
         1           Co  tau(   1) = (   0.0000000   0.1924501   1.3333333  )
         2           Co  tau(   2) = (   0.3333333   0.1924501   1.3333333  )
         3           Co  tau(   3) = (   0.6666667   0.1924501   1.3333333  )
         4           Co  tau(   4) = (   0.1666667   0.4811252   1.3333333  )
         5           Co  tau(   5) = (   0.5000000   0.4811252   1.3333333  )
         6           Co  tau(   6) = (   0.8333333   0.4811252   1.3333333  )
         7           Co  tau(   7) = (   0.3333333   0.7698004   1.3333333  )
         8           Co  tau(   8) = (   0.6666667   0.7698004   1.3333333  )
         9           Co  tau(   9) = (   1.0000000   0.7698004   1.3333333  )
        10           Co  tau(  10) = (   0.0000000   0.0000000   1.6036667  )
        11           Co  tau(  11) = (   0.3333333   0.0000000   1.6036667  )
        12           Co  tau(  12) = (   0.6666667   0.0000000   1.6036667  )
        13           Co  tau(  13) = (   0.1666667   0.2886751   1.6036667  )
        14           Co  tau(  14) = (   0.5000000   0.2886751   1.6036667  )
        15           Co  tau(  15) = (   0.8333333   0.2886751   1.6036667  )
        16           Co  tau(  16) = (   0.3333333   0.5773503   1.6036667  )
        17           Co  tau(  17) = (   0.6666667   0.5773503   1.6036667  )
        18           Co  tau(  18) = (   1.0000000   0.5773503   1.6036667  )
        19           Co  tau(  19) = (   0.0000000   0.1924501   1.8740000  )
        20           Co  tau(  20) = (   0.3333333   0.1924501   1.8740000  )
        21           Co  tau(  21) = (   0.6666667   0.1924501   1.8740000  )
        22           Co  tau(  22) = (   0.1666667   0.4811252   1.8740000  )
        23           Co  tau(  23) = (   0.5000000   0.4811252   1.8740000  )
        24           Co  tau(  24) = (   0.8333333   0.4811252   1.8740000  )
        25           Co  tau(  25) = (   0.3333333   0.7698004   1.8740000  )
        26           Co  tau(  26) = (   0.6666667   0.7698004   1.8740000  )
        27           Co  tau(  27) = (   1.0000000   0.7698004   1.8740000  )
        28           Co  tau(  28) = (   0.0000000   0.0000000   2.1443333  )
        29           Co  tau(  29) = (   0.3333333   0.0000000   2.1443333  )
        30           Co  tau(  30) = (   0.6666667   0.0000000   2.1443333  )
        31           Co  tau(  31) = (   0.1666667   0.2886751   2.1443333  )
        32           Co  tau(  32) = (   0.5000000   0.2886751   2.1443333  )
        33           Co  tau(  33) = (   0.8333333   0.2886751   2.1443333  )
        34           Co  tau(  34) = (   0.3333333   0.5773503   2.1443333  )
        35           Co  tau(  35) = (   0.6666667   0.5773503   2.1443333  )
        36           Co  tau(  36) = (   1.0000000   0.5773503   2.1443333  )
        37           C   tau(  37) = (   0.3376339   0.1982650   2.3247267  )
        38           O   tau(  38) = (   0.3197389   0.1833555   2.4821402  )
        39           H   tau(  39) = (   0.6478261   0.3703775   2.2830777  )

     number of k points=    13  Marzari-Vanderbilt smearing, width (Ry)=  0.0010
                       cart. coord. in units 2pi/alat
        k(    1) = (   0.0000000   0.0000000   0.0000000), wk =   0.0400000
        k(    2) = (   0.0000000   0.2309401   0.0000000), wk =   0.0800000
        k(    3) = (   0.0000000   0.4618802   0.0000000), wk =   0.0800000
        k(    4) = (   0.2000000  -0.1154701   0.0000000), wk =   0.0800000
        k(    5) = (   0.2000000   0.1154701   0.0000000), wk =   0.0800000
        k(    6) = (   0.2000000   0.3464102   0.0000000), wk =   0.0800000
        k(    7) = (   0.2000000  -0.5773503   0.0000000), wk =   0.0800000
        k(    8) = (   0.2000000  -0.3464102   0.0000000), wk =   0.0800000
        k(    9) = (   0.4000000  -0.2309401   0.0000000), wk =   0.0800000
        k(   10) = (   0.4000000   0.0000000   0.0000000), wk =   0.0800000
        k(   11) = (   0.4000000   0.2309401   0.0000000), wk =   0.0800000
        k(   12) = (   0.4000000  -0.6928203   0.0000000), wk =   0.0800000
        k(   13) = (   0.4000000  -0.4618802   0.0000000), wk =   0.0800000

     Dense  grid:   752179 G-vectors     FFT dimensions: (  80,  80, 288)

     Smooth grid:   293251 G-vectors     FFT dimensions: (  60,  60, 200)

     Estimated max dynamical RAM per process >      84.82 MB

     Estimated total dynamical RAM >       7.95 GB
     Generating pointlists ...
     new r_m :   0.0902 (alat units)  1.2779 (a.u.) for type    1
     new r_m :   0.0656 (alat units)  0.9303 (a.u.) for type    2
     new r_m :   0.0656 (alat units)  0.9303 (a.u.) for type    3
     new r_m :   0.0902 (alat units)  1.2779 (a.u.) for type    4

     Initial potential from superposition of free atoms

     starting charge     334.9897, renormalised to     335.0000

     negative rho (up, down):  3.061E-03 4.519E-04


     %%%%%%%%%%%%%%%%%%%%%%%%%%%%%%%%%%%%%%%%%%%%%%%%%%%%%%%%%%%%%%%%%%%%%%%%
     %                                                                      %
     % You are using vdW-DF, which was implemented by the Thonhauser group. %
     % Please cite the following two papers that made this development      %
     % possible and the two reviews that describe the various versions:     %
     %                                                                      %
     %   T. Thonhauser et al., PRL 115, 136402 (2015).                      %
     %   T. Thonhauser et al., PRB 76, 125112 (2007).                       %
     %   K. Berland et al., Rep. Prog. Phys. 78, 066501 (2015).             %
     %   D.C. Langreth et al., J. Phys.: Condens. Matter 21, 084203 (2009). %
     %                                                                      %
     % If you are calculating stress with vdW-DF, please also cite:         %
     %                                                                      %
     %   R. Sabatini et al., J. Phys.: Condens. Matter 24, 424209 (2012).   %
     %   C.M. Frostenson et al., Electr. Struct. 4, 014001 (2022).          %
     %                                                                      %
     %%%%%%%%%%%%%%%%%%%%%%%%%%%%%%%%%%%%%%%%%%%%%%%%%%%%%%%%%%%%%%%%%%%%%%%%

     %%%%%%%%%%%%%%%%%%%%%%%%%%%%%%%%%%%%%%%%%%%%%%%%%%%%%%%%%%%%%%%%%%%%%%%%
     %                                                                      %
     %  vdW-DF NEWS:                                                        %
     %                                                                      %
     %  * vdW-DF3 is now available. DOI: 10.1021/acs.jctc.0c00471           %
     %    use with input_dft = 'vdW-DF3-opt1' or 'vdW-DF3-opt2'             %
     %                                                                      %
     %  * Unscreened and range-separated hybrid vdW-DF-cx functionals       %
     %    DOI: 10.1063/1.4986522 and 10.1088/1361-648X/ac2ad2               %
     %    use with input_dft = 'vdW-DF-cx0'    and 'vdW-DF-ahcx'            %
     %  * Unscreened and range-separated hybrid vdW-DF2-b86r functionals    %
     %    DOI: 10.1063/1.4986522 and DOI: 10.1103/PhysRevX.12.041003        %
     %    use with input_dft = 'vdW-DF2-br0' and 'vdW-DF2-ahbr'             %
     %                                                                      %
     %%%%%%%%%%%%%%%%%%%%%%%%%%%%%%%%%%%%%%%%%%%%%%%%%%%%%%%%%%%%%%%%%%%%%%%%


     Starting wfcs are  333 randomized atomic wfcs
     Checking if some PAW data can be deallocated... 

     total cpu time spent up to now is       11.5 secs

     per-process dynamical memory:   213.7 Mb

     Self-consistent Calculation

     iteration #  1     ecut=    40.00 Ry     beta= 0.70
     Davidson diagonalization with overlap
     ethr =  1.00E-02,  avg # of iterations =  2.0

     negative rho (up, down):  6.850E-05 1.506E-06

     total cpu time spent up to now is       26.6 secs

     total energy              =   -6053.02106630 Ry
     estimated scf accuracy    <      39.05997924 Ry

     total magnetization       =    69.00 Bohr mag/cell
     absolute magnetization    =    81.31 Bohr mag/cell

     iteration #  2     ecut=    40.00 Ry     beta= 0.70
     Davidson diagonalization with overlap
     ethr =  1.00E-02,  avg # of iterations =  1.0

     negative rho (up, down):  2.778E-05 8.663E-07

     total cpu time spent up to now is       38.4 secs

     total energy              =   -6052.54842917 Ry
     estimated scf accuracy    <      24.56057123 Ry

     total magnetization       =    69.00 Bohr mag/cell
     absolute magnetization    =    76.91 Bohr mag/cell

     iteration #  3     ecut=    40.00 Ry     beta= 0.70
     Davidson diagonalization with overlap
     ethr =  7.33E-03,  avg # of iterations =  1.2

     negative rho (up, down):  1.332E-06 3.129E-06

     total cpu time spent up to now is       50.3 secs

     total energy              =   -6055.08721212 Ry
     estimated scf accuracy    <      84.09612681 Ry

     total magnetization       =    66.12 Bohr mag/cell
     absolute magnetization    =    73.49 Bohr mag/cell

     iteration #  4     ecut=    40.00 Ry     beta= 0.70
     Davidson diagonalization with overlap
     ethr =  7.33E-03,  avg # of iterations =  1.0

     negative rho (up, down):  1.480E-06 7.071E-07

     total cpu time spent up to now is       62.6 secs

     total energy              =   -6056.33465227 Ry
     estimated scf accuracy    <       5.09883726 Ry

     total magnetization       =    60.26 Bohr mag/cell
     absolute magnetization    =    70.14 Bohr mag/cell

     iteration #  5     ecut=    40.00 Ry     beta= 0.70
     Davidson diagonalization with overlap
     ethr =  1.52E-03,  avg # of iterations =  1.2

     negative rho (up, down):  1.580E-06 5.838E-07

     total cpu time spent up to now is       74.2 secs

     total energy              =   -6056.34275914 Ry
     estimated scf accuracy    <       2.09996960 Ry

     total magnetization       =    60.29 Bohr mag/cell
     absolute magnetization    =    69.70 Bohr mag/cell

     iteration #  6     ecut=    40.00 Ry     beta= 0.70
     Davidson diagonalization with overlap
     ethr =  6.27E-04,  avg # of iterations =  2.0

     negative rho (up, down):  1.477E-06 7.445E-07

     total cpu time spent up to now is       87.3 secs

     total energy              =   -6056.44888658 Ry
     estimated scf accuracy    <       0.65552844 Ry

     total magnetization       =    59.91 Bohr mag/cell
     absolute magnetization    =    69.02 Bohr mag/cell

     iteration #  7     ecut=    40.00 Ry     beta= 0.70
     Davidson diagonalization with overlap
     ethr =  1.96E-04,  avg # of iterations =  4.8

     negative rho (up, down):  1.497E-06 7.623E-07

     total cpu time spent up to now is      102.3 secs

     total energy              =   -6056.47547300 Ry
     estimated scf accuracy    <       0.63313058 Ry

     total magnetization       =    60.05 Bohr mag/cell
     absolute magnetization    =    68.78 Bohr mag/cell

     iteration #  8     ecut=    40.00 Ry     beta= 0.70
     Davidson diagonalization with overlap
     ethr =  1.89E-04,  avg # of iterations =  1.3

     negative rho (up, down):  9.598E-07 4.783E-07

     total cpu time spent up to now is      114.3 secs

     total energy              =   -6056.49678977 Ry
     estimated scf accuracy    <       0.12599900 Ry

     total magnetization       =    60.13 Bohr mag/cell
     absolute magnetization    =    68.69 Bohr mag/cell

     iteration #  9     ecut=    40.00 Ry     beta= 0.70
     Davidson diagonalization with overlap
     c_bands:  1 eigenvalues not converged
     c_bands:  2 eigenvalues not converged
     c_bands:  3 eigenvalues not converged
     c_bands:  3 eigenvalues not converged
     ethr =  3.76E-05,  avg # of iterations = 10.6

     negative rho (up, down):  5.838E-07 3.568E-07

     total cpu time spent up to now is      137.5 secs

     total energy              =   -6056.50054831 Ry
     estimated scf accuracy    <       0.16668635 Ry

     total magnetization       =    60.28 Bohr mag/cell
     absolute magnetization    =    68.44 Bohr mag/cell

     iteration # 10     ecut=    40.00 Ry     beta= 0.70
     Davidson diagonalization with overlap
     ethr =  3.76E-05,  avg # of iterations =  2.1

     negative rho (up, down):  7.442E-07 4.665E-07

     total cpu time spent up to now is      150.4 secs

     total energy              =   -6056.50725873 Ry
     estimated scf accuracy    <       0.14265610 Ry

     total magnetization       =    60.43 Bohr mag/cell
     absolute magnetization    =    68.41 Bohr mag/cell

     iteration # 11     ecut=    40.00 Ry     beta= 0.70
     Davidson diagonalization with overlap
     ethr =  3.76E-05,  avg # of iterations =  1.1

     negative rho (up, down):  1.612E-07 8.314E-08

     total cpu time spent up to now is      161.8 secs

     total energy              =   -6056.50496059 Ry
     estimated scf accuracy    <       0.09625686 Ry

     total magnetization       =    60.36 Bohr mag/cell
     absolute magnetization    =    68.30 Bohr mag/cell

     iteration # 12     ecut=    40.00 Ry     beta= 0.70
     Davidson diagonalization with overlap
     ethr =  2.87E-05,  avg # of iterations =  1.8

     negative rho (up, down):  1.574E-06 2.596E-07

     total cpu time spent up to now is      174.0 secs

     total energy              =   -6056.50616269 Ry
     estimated scf accuracy    <       0.08169294 Ry

     total magnetization       =    60.30 Bohr mag/cell
     absolute magnetization    =    68.13 Bohr mag/cell

     iteration # 13     ecut=    40.00 Ry     beta= 0.70
     Davidson diagonalization with overlap
     ethr =  2.44E-05,  avg # of iterations =  1.2

     negative rho (up, down):  2.295E-07 1.306E-07

     total cpu time spent up to now is      186.3 secs

     total energy              =   -6056.50788184 Ry
     estimated scf accuracy    <       0.10374706 Ry

     total magnetization       =    60.35 Bohr mag/cell
     absolute magnetization    =    68.12 Bohr mag/cell

     iteration # 14     ecut=    40.00 Ry     beta= 0.70
     Davidson diagonalization with overlap
     ethr =  2.44E-05,  avg # of iterations =  1.0

     negative rho (up, down):  8.201E-04 2.427E-04

     total cpu time spent up to now is      197.4 secs

     total energy              =   -6056.50261543 Ry
     estimated scf accuracy    <       0.07215506 Ry

     total magnetization       =    60.33 Bohr mag/cell
     absolute magnetization    =    68.09 Bohr mag/cell

     iteration # 15     ecut=    40.00 Ry     beta= 0.70
     Davidson diagonalization with overlap
     ethr =  2.15E-05,  avg # of iterations =  1.2

     negative rho (up, down):  9.243E-03 7.198E-03

     total cpu time spent up to now is      209.1 secs

     total energy              =   -6056.50004691 Ry
     estimated scf accuracy    <       0.04658585 Ry

     total magnetization       =    60.30 Bohr mag/cell
     absolute magnetization    =    68.03 Bohr mag/cell

     iteration # 16     ecut=    40.00 Ry     beta= 0.70
     Davidson diagonalization with overlap
     ethr =  1.39E-05,  avg # of iterations =  1.5

     negative rho (up, down):  1.841E-02 1.605E-02

     total cpu time spent up to now is      221.1 secs

     total energy              =   -6056.49872769 Ry
     estimated scf accuracy    <       0.05726848 Ry

     total magnetization       =    60.30 Bohr mag/cell
     absolute magnetization    =    67.96 Bohr mag/cell

     iteration # 17     ecut=    40.00 Ry     beta= 0.70
     Davidson diagonalization with overlap
     ethr =  1.39E-05,  avg # of iterations =  1.1

     negative rho (up, down):  2.268E-02 2.061E-02

     total cpu time spent up to now is      232.8 secs

     total energy              =   -6056.49999122 Ry
     estimated scf accuracy    <       0.01017654 Ry

     total magnetization       =    60.29 Bohr mag/cell
     absolute magnetization    =    67.92 Bohr mag/cell

     iteration # 18     ecut=    40.00 Ry     beta= 0.70
     Davidson diagonalization with overlap
     c_bands:  1 eigenvalues not converged
     c_bands:  1 eigenvalues not converged
     c_bands:  1 eigenvalues not converged
     c_bands:  1 eigenvalues not converged
     c_bands:  2 eigenvalues not converged
     ethr =  3.04E-06,  avg # of iterations =  8.4

     negative rho (up, down):  1.212E-02 1.075E-02

     total cpu time spent up to now is      253.4 secs

     total energy              =   -6056.49989708 Ry
     estimated scf accuracy    <       0.02399447 Ry

     total magnetization       =    60.30 Bohr mag/cell
     absolute magnetization    =    67.89 Bohr mag/cell

     iteration # 19     ecut=    40.00 Ry     beta= 0.70
     Davidson diagonalization with overlap
     ethr =  3.04E-06,  avg # of iterations =  1.8

     negative rho (up, down):  1.815E-02 1.652E-02

     total cpu time spent up to now is      265.7 secs

     total energy              =   -6056.50007135 Ry
     estimated scf accuracy    <       0.01064341 Ry

     total magnetization       =    60.33 Bohr mag/cell
     absolute magnetization    =    67.94 Bohr mag/cell

     iteration # 20     ecut=    40.00 Ry     beta= 0.70
     Davidson diagonalization with overlap
     ethr =  3.04E-06,  avg # of iterations =  1.4

     negative rho (up, down):  1.308E-02 1.223E-02

     total cpu time spent up to now is      277.6 secs

     total energy              =   -6056.49973528 Ry
     estimated scf accuracy    <       0.00837469 Ry

     total magnetization       =    60.32 Bohr mag/cell
     absolute magnetization    =    67.91 Bohr mag/cell

     iteration # 21     ecut=    40.00 Ry     beta= 0.70
     Davidson diagonalization with overlap
     c_bands:  2 eigenvalues not converged
     ethr =  2.50E-06,  avg # of iterations =  2.3

     negative rho (up, down):  1.244E-02 1.181E-02

     total cpu time spent up to now is      289.9 secs

     total energy              =   -6056.49984588 Ry
     estimated scf accuracy    <       0.00634516 Ry

     total magnetization       =    60.36 Bohr mag/cell
     absolute magnetization    =    67.94 Bohr mag/cell

     iteration # 22     ecut=    40.00 Ry     beta= 0.70
     Davidson diagonalization with overlap
     ethr =  1.89E-06,  avg # of iterations =  1.7

     negative rho (up, down):  1.061E-02 1.007E-02

     total cpu time spent up to now is      302.7 secs

     total energy              =   -6056.50024672 Ry
     estimated scf accuracy    <       0.00240283 Ry

     total magnetization       =    60.37 Bohr mag/cell
     absolute magnetization    =    67.96 Bohr mag/cell

     iteration # 23     ecut=    40.00 Ry     beta= 0.70
     Davidson diagonalization with overlap
     ethr =  7.17E-07,  avg # of iterations =  2.3

     negative rho (up, down):  1.108E-02 1.050E-02

     total cpu time spent up to now is      315.1 secs

     total energy              =   -6056.50037012 Ry
     estimated scf accuracy    <       0.00232311 Ry

     total magnetization       =    60.37 Bohr mag/cell
     absolute magnetization    =    67.97 Bohr mag/cell

     iteration # 24     ecut=    40.00 Ry     beta= 0.70
     Davidson diagonalization with overlap
     ethr =  6.93E-07,  avg # of iterations =  1.2

     negative rho (up, down):  1.030E-02 9.693E-03

     total cpu time spent up to now is      326.9 secs

     total energy              =   -6056.50038912 Ry
     estimated scf accuracy    <       0.00112980 Ry

     total magnetization       =    60.37 Bohr mag/cell
     absolute magnetization    =    67.97 Bohr mag/cell

     iteration # 25     ecut=    40.00 Ry     beta= 0.70
     Davidson diagonalization with overlap
     ethr =  3.37E-07,  avg # of iterations =  1.8

     negative rho (up, down):  6.345E-03 5.613E-03

     total cpu time spent up to now is      339.0 secs

     total energy              =   -6056.50044511 Ry
     estimated scf accuracy    <       0.00076421 Ry

     total magnetization       =    60.37 Bohr mag/cell
     absolute magnetization    =    67.97 Bohr mag/cell

     iteration # 26     ecut=    40.00 Ry     beta= 0.70
     Davidson diagonalization with overlap
     c_bands:  1 eigenvalues not converged
     c_bands:  1 eigenvalues not converged
     ethr =  2.28E-07,  avg # of iterations =  3.4

     negative rho (up, down):  5.135E-03 4.313E-03

     total cpu time spent up to now is      352.7 secs

     total energy              =   -6056.50052511 Ry
     estimated scf accuracy    <       0.00019833 Ry

     total magnetization       =    60.36 Bohr mag/cell
     absolute magnetization    =    67.97 Bohr mag/cell

     iteration # 27     ecut=    40.00 Ry     beta= 0.70
     Davidson diagonalization with overlap
     c_bands:  2 eigenvalues not converged
     ethr =  5.92E-08,  avg # of iterations =  5.6

     negative rho (up, down):  4.025E-03 3.138E-03

     total cpu time spent up to now is      369.0 secs

     total energy              =   -6056.50053057 Ry
     estimated scf accuracy    <       0.00008530 Ry

     total magnetization       =    60.37 Bohr mag/cell
     absolute magnetization    =    67.97 Bohr mag/cell

     iteration # 28     ecut=    40.00 Ry     beta= 0.70
     Davidson diagonalization with overlap
     ethr =  2.55E-08,  avg # of iterations =  2.7

     negative rho (up, down):  3.399E-03 2.381E-03

     total cpu time spent up to now is      381.8 secs

     total energy              =   -6056.50056323 Ry
     estimated scf accuracy    <       0.00012012 Ry

     total magnetization       =    60.37 Bohr mag/cell
     absolute magnetization    =    67.97 Bohr mag/cell

     iteration # 29     ecut=    40.00 Ry     beta= 0.70
     Davidson diagonalization with overlap
     ethr =  2.55E-08,  avg # of iterations =  1.9

     negative rho (up, down):  3.200E-03 2.228E-03

     total cpu time spent up to now is      394.4 secs

     total energy              =   -6056.50053690 Ry
     estimated scf accuracy    <       0.00008288 Ry

     total magnetization       =    60.37 Bohr mag/cell
     absolute magnetization    =    67.97 Bohr mag/cell

     iteration # 30     ecut=    40.00 Ry     beta= 0.70
     Davidson diagonalization with overlap
     ethr =  2.47E-08,  avg # of iterations =  1.2

     negative rho (up, down):  2.777E-03 1.709E-03

     total cpu time spent up to now is      406.0 secs

     total energy              =   -6056.50055865 Ry
     estimated scf accuracy    <       0.00005171 Ry

     total magnetization       =    60.37 Bohr mag/cell
     absolute magnetization    =    67.97 Bohr mag/cell

     iteration # 31     ecut=    40.00 Ry     beta= 0.70
     Davidson diagonalization with overlap
     ethr =  1.54E-08,  avg # of iterations =  1.9

     negative rho (up, down):  2.432E-03 1.303E-03

     total cpu time spent up to now is      418.8 secs

     total energy              =   -6056.50057981 Ry
     estimated scf accuracy    <       0.00005022 Ry

     total magnetization       =    60.37 Bohr mag/cell
     absolute magnetization    =    67.97 Bohr mag/cell

     iteration # 32     ecut=    40.00 Ry     beta= 0.70
     Davidson diagonalization with overlap
     ethr =  1.50E-08,  avg # of iterations =  2.0

     negative rho (up, down):  2.338E-03 1.223E-03

     total cpu time spent up to now is      431.3 secs

     total energy              =   -6056.50058205 Ry
     estimated scf accuracy    <       0.00004879 Ry

     total magnetization       =    60.37 Bohr mag/cell
     absolute magnetization    =    67.97 Bohr mag/cell

     iteration # 33     ecut=    40.00 Ry     beta= 0.70
     Davidson diagonalization with overlap
     ethr =  1.46E-08,  avg # of iterations =  1.1

     negative rho (up, down):  2.447E-03 1.318E-03

     total cpu time spent up to now is      442.7 secs

     total energy              =   -6056.50057989 Ry
     estimated scf accuracy    <       0.00001222 Ry

     total magnetization       =    60.37 Bohr mag/cell
     absolute magnetization    =    67.97 Bohr mag/cell

     iteration # 34     ecut=    40.00 Ry     beta= 0.70
     Davidson diagonalization with overlap
     ethr =  3.65E-09,  avg # of iterations =  3.4

     negative rho (up, down):  2.346E-03 1.238E-03

     total cpu time spent up to now is      457.3 secs

     total energy              =   -6056.50058323 Ry
     estimated scf accuracy    <       0.00005831 Ry

     total magnetization       =    60.37 Bohr mag/cell
     absolute magnetization    =    67.97 Bohr mag/cell

     iteration # 35     ecut=    40.00 Ry     beta= 0.70
     Davidson diagonalization with overlap
     ethr =  3.65E-09,  avg # of iterations =  2.0

     negative rho (up, down):  2.324E-03 1.233E-03

     total cpu time spent up to now is      469.4 secs

     total energy              =   -6056.50058543 Ry
     estimated scf accuracy    <       0.00000253 Ry

     total magnetization       =    60.37 Bohr mag/cell
     absolute magnetization    =    67.97 Bohr mag/cell

     iteration # 36     ecut=    40.00 Ry     beta= 0.70
     Davidson diagonalization with overlap
     c_bands:  1 eigenvalues not converged
     ethr =  7.55E-10,  avg # of iterations =  7.7

     negative rho (up, down):  2.327E-03 1.244E-03

     total cpu time spent up to now is      489.5 secs

     total energy              =   -6056.50058567 Ry
     estimated scf accuracy    <       0.00000345 Ry

     total magnetization       =    60.37 Bohr mag/cell
     absolute magnetization    =    67.97 Bohr mag/cell

     iteration # 37     ecut=    40.00 Ry     beta= 0.70
     Davidson diagonalization with overlap
     ethr =  7.55E-10,  avg # of iterations =  1.7

     negative rho (up, down):  2.325E-03 1.243E-03

     total cpu time spent up to now is      501.3 secs

     total energy              =   -6056.50058578 Ry
     estimated scf accuracy    <       0.00000123 Ry

     total magnetization       =    60.37 Bohr mag/cell
     absolute magnetization    =    67.97 Bohr mag/cell

     iteration # 38     ecut=    40.00 Ry     beta= 0.70
     Davidson diagonalization with overlap
     ethr =  3.66E-10,  avg # of iterations =  1.7

     negative rho (up, down):  2.336E-03 1.246E-03

     total cpu time spent up to now is      513.6 secs

     total energy              =   -6056.50058591 Ry
     estimated scf accuracy    <       0.00000113 Ry

     total magnetization       =    60.37 Bohr mag/cell
     absolute magnetization    =    67.97 Bohr mag/cell

     iteration # 39     ecut=    40.00 Ry     beta= 0.70
     Davidson diagonalization with overlap
     ethr =  3.36E-10,  avg # of iterations =  1.2

     negative rho (up, down):  2.252E-03 1.160E-03

     Magnetic moment per site  (integrated on atomic sphere of radius R)
     atom   1 (R=0.090)  charge=  5.6564  magn=  1.6529
     atom   2 (R=0.090)  charge=  5.6580  magn=  1.6332
     atom   3 (R=0.090)  charge=  5.6559  magn=  1.6484
     atom   4 (R=0.090)  charge=  5.6556  magn=  1.6506
     atom   5 (R=0.090)  charge=  5.6559  magn=  1.6473
     atom   6 (R=0.090)  charge=  5.6554  magn=  1.6522
     atom   7 (R=0.090)  charge=  5.6566  magn=  1.6573
     atom   8 (R=0.090)  charge=  5.6565  magn=  1.6525
     atom   9 (R=0.090)  charge=  5.6556  magn=  1.6509
     atom  10 (R=0.090)  charge=  5.6533  magn=  1.5879
     atom  11 (R=0.090)  charge=  5.6526  magn=  1.5852
     atom  12 (R=0.090)  charge=  5.6521  magn=  1.5916
     atom  13 (R=0.090)  charge=  5.6526  magn=  1.5849
     atom  14 (R=0.090)  charge=  5.6524  magn=  1.5818
     atom  15 (R=0.090)  charge=  5.6524  magn=  1.5941
     atom  16 (R=0.090)  charge=  5.6521  magn=  1.5925
     atom  17 (R=0.090)  charge=  5.6524  magn=  1.5939
     atom  18 (R=0.090)  charge=  5.6522  magn=  1.5922
     atom  19 (R=0.090)  charge=  5.6527  magn=  1.5559
     atom  20 (R=0.090)  charge=  5.6506  magn=  1.5996
     atom  21 (R=0.090)  charge=  5.6528  magn=  1.5810
     atom  22 (R=0.090)  charge=  5.6518  magn=  1.5761
     atom  23 (R=0.090)  charge=  5.6527  magn=  1.5819
     atom  24 (R=0.090)  charge=  5.6504  magn=  1.6132
     atom  25 (R=0.090)  charge=  5.6522  magn=  1.5882
     atom  26 (R=0.090)  charge=  5.6526  magn=  1.5591
     atom  27 (R=0.090)  charge=  5.6517  magn=  1.5778
     atom  28 (R=0.090)  charge=  5.6540  magn=  1.6869
     atom  29 (R=0.090)  charge=  5.6660  magn=  1.3848
     atom  30 (R=0.090)  charge=  5.6556  magn=  1.6939
     atom  31 (R=0.090)  charge=  5.6659  magn=  1.3557
     atom  32 (R=0.090)  charge=  5.6671  magn=  1.0536
     atom  33 (R=0.090)  charge=  5.6549  magn=  1.5827
     atom  34 (R=0.090)  charge=  5.6559  magn=  1.6924
     atom  35 (R=0.090)  charge=  5.6552  magn=  1.5924
     atom  36 (R=0.090)  charge=  5.6535  magn=  1.6692
     atom  37 (R=0.066)  charge=  1.0536  magn= -0.0227
     atom  38 (R=0.066)  charge=  2.9287  magn= -0.0416
     atom  39 (R=0.090)  charge=  0.8385  magn= -0.0165

     total cpu time spent up to now is      525.0 secs

     End of self-consistent calculation

 ------ SPIN UP ------------


          k = 0.0000 0.0000 0.0000 ( 36693 PWs)   bands (ev):

   -21.8617  -9.2761  -7.6770  -6.5230  -5.8111  -5.6303  -5.4211  -5.1481
    -4.8455  -4.8376  -4.8326  -4.8159  -4.7908  -4.7871  -4.6352  -4.3780
    -4.2994  -4.2975  -4.2757  -4.2501  -4.2406  -4.0886  -3.7777  -3.7766
    -3.7681  -3.7537  -3.7271  -3.6950  -3.6437  -3.6424  -3.6374  -3.6334
    -3.6035  -3.5627  -3.5618  -3.4544  -3.2629  -3.2549  -3.2515  -3.2466
    -3.1901  -3.1888  -3.1817  -3.1803  -3.1760  -3.1651  -3.1604  -3.1015
    -3.0279  -3.0227  -2.9557  -2.9475  -2.9445  -2.9375  -2.9336  -2.9249
    -2.9152  -2.9056  -2.8933  -2.8683  -2.8177  -2.8052  -2.8040  -2.8028
    -2.7357  -2.5854  -2.3149  -2.2747  -2.2746  -2.2711  -2.2693  -2.1679
    -2.1423  -2.1360  -2.1250  -2.1126  -2.1011  -2.0947  -2.0892  -2.0887
    -2.0442  -2.0434  -1.9962  -1.9901  -1.9896  -1.9878  -1.9752  -1.9620
    -1.9586  -1.9501  -1.9475  -1.9414  -1.9337  -1.9186  -1.9148  -1.9036
    -1.9001  -1.8985  -1.8973  -1.8959  -1.8948  -1.8896  -1.8885  -1.8680
    -1.8604  -1.8442  -1.8325  -1.8241  -1.8217  -1.7447  -1.7417  -1.6528
    -1.5268  -1.4576  -1.4464  -1.4454  -1.4400  -1.4398  -1.4088  -1.4074
    -1.4028  -1.4015  -1.3945  -1.3571  -1.3543  -1.2227  -1.2155  -1.2049
    -1.1928  -1.1496  -1.0856  -1.0576  -1.0491  -1.0122  -0.9779  -0.9658
    -0.9566  -0.9527  -0.9515  -0.9394  -0.8965  -0.8895  -0.8276  -0.8151
    -0.7196  -0.7144  -0.7013  -0.6974  -0.6816  -0.6629  -0.6593  -0.6426
    -0.6417  -0.6352  -0.6328  -0.6308  -0.6301  -0.6141  -0.6128  -0.6071
    -0.6018  -0.5971  -0.5810  -0.5742  -0.5669  -0.5632  -0.5516  -0.5491
    -0.5329  -0.5294  -0.5239  -0.5059  -0.5048  -0.5010  -0.4951  -0.4896
    -0.4810  -0.4741  -0.4580  -0.4491  -0.4298  -0.4063  -0.4035  -0.3950
    -0.3899  -0.3856  -0.3818  -0.3808  -0.3630  -0.3319  -0.3232  -0.3123
    -0.3080  -0.2982  -0.2436  -0.2391  -0.2365  -0.2208  -0.2170  -0.1871
     0.5071   0.7359

          k = 0.0000 0.2309 0.0000 ( 36641 PWs)   bands (ev):

   -21.8617  -9.2654  -7.5363  -6.4268  -5.8470  -5.6734  -5.5318  -5.3690
    -5.1336  -5.0515  -5.0247  -4.6361  -4.5063  -4.4869  -4.4742  -4.4179
    -4.3338  -4.2965  -4.2306  -4.1820  -4.1531  -4.0739  -3.8842  -3.7789
    -3.7705  -3.7016  -3.6624  -3.6475  -3.6446  -3.6373  -3.6312  -3.6044
    -3.5920  -3.5396  -3.5162  -3.4976  -3.4928  -3.4226  -3.2795  -3.2700
    -3.2615  -3.2157  -3.2108  -3.1984  -3.1722  -3.1113  -3.0774  -3.0620
    -3.0444  -3.0386  -3.0280  -3.0016  -2.9592  -2.9072  -2.9011  -2.8714
    -2.8360  -2.8266  -2.8035  -2.7991  -2.7710  -2.7361  -2.7335  -2.7209
    -2.6930  -2.5877  -2.3938  -2.3850  -2.3613  -2.3428  -2.3285  -2.2458
    -2.2365  -2.2198  -2.2144  -2.2057  -2.1980  -2.1865  -2.1661  -2.1109
    -2.1067  -2.0872  -2.0709  -2.0316  -2.0297  -2.0231  -2.0112  -2.0009
    -1.9946  -1.9928  -1.9841  -1.9749  -1.9649  -1.9565  -1.9252  -1.8861
    -1.8756  -1.8681  -1.8143  -1.8013  -1.7946  -1.7884  -1.7825  -1.7745
    -1.7682  -1.7629  -1.7517  -1.7469  -1.7414  -1.7144  -1.7044  -1.6920
    -1.6804  -1.6685  -1.6280  -1.5858  -1.5735  -1.4794  -1.4724  -1.4691
    -1.4561  -1.4439  -1.4375  -1.4302  -1.4067  -1.3871  -1.3500  -1.2750
    -1.2465  -1.1935  -1.1775  -1.1643  -1.1525  -1.1022  -1.0872  -1.0738
    -1.0443  -0.9920  -0.9765  -0.9680  -0.9414  -0.9350  -0.8982  -0.8901
    -0.8618  -0.8548  -0.8414  -0.8222  -0.8136  -0.7938  -0.7850  -0.7778
    -0.7175  -0.7084  -0.7035  -0.6969  -0.6767  -0.6589  -0.6388  -0.6308
    -0.6262  -0.6190  -0.6145  -0.6041  -0.5814  -0.5767  -0.5660  -0.5499
    -0.5150  -0.4945  -0.4838  -0.4649  -0.4459  -0.4331  -0.4082  -0.3848
    -0.3769  -0.3666  -0.3616  -0.3522  -0.3352  -0.3258  -0.3161  -0.2790
    -0.2528  -0.2411  -0.2338  -0.2140  -0.2036  -0.1848  -0.1790  -0.1580
    -0.1045  -0.0275   0.0998   0.1393   0.1822   0.2719   0.3935   0.4158
     0.4533   0.7919

          k = 0.0000 0.4619 0.0000 ( 36606 PWs)   bands (ev):

   -21.8616  -9.2485  -7.1220  -6.4818  -6.1583  -5.8245  -5.5674  -5.3923
    -5.2215  -5.1480  -5.1095  -4.8896  -4.3417  -4.3170  -4.2886  -4.2465
    -4.2062  -4.1286  -4.1231  -4.0360  -3.9912  -3.9869  -3.9702  -3.8276
    -3.8091  -3.8053  -3.7935  -3.7924  -3.7235  -3.6905  -3.6815  -3.5748
    -3.5231  -3.5128  -3.4950  -3.4795  -3.4673  -3.4310  -3.3666  -3.3590
    -3.3459  -3.3345  -3.2840  -3.2175  -3.1340  -3.1020  -3.0422  -3.0289
    -3.0058  -2.9812  -2.9604  -2.9422  -2.9362  -2.9307  -2.9083  -2.8570
    -2.8468  -2.8257  -2.7864  -2.7632  -2.6557  -2.6395  -2.6185  -2.5971
    -2.5494  -2.5302  -2.5035  -2.4945  -2.4753  -2.4131  -2.3658  -2.3618
    -2.3568  -2.3441  -2.3378  -2.3169  -2.3022  -2.2923  -2.2679  -2.2505
    -2.2329  -2.1973  -2.1792  -2.1611  -2.1318  -2.1130  -2.0654  -2.0420
    -2.0260  -2.0112  -1.9946  -1.9725  -1.9663  -1.9294  -1.9159  -1.9087
    -1.8952  -1.8854  -1.8719  -1.8535  -1.8430  -1.8390  -1.8354  -1.8053
    -1.7893  -1.7587  -1.7290  -1.7264  -1.6602  -1.6391  -1.6234  -1.6099
    -1.5988  -1.5754  -1.5457  -1.5241  -1.5146  -1.4929  -1.4894  -1.4799
    -1.4776  -1.4665  -1.4561  -1.4471  -1.4404  -1.4361  -1.4183  -1.4106
    -1.4033  -1.3567  -1.2918  -1.2783  -1.2646  -1.2563  -1.2249  -1.2143
    -1.1896  -1.1321  -1.1118  -1.0999  -1.0584  -1.0461  -1.0172  -0.9774
    -0.9717  -0.9527  -0.9270  -0.9131  -0.8951  -0.8654  -0.8426  -0.7867
    -0.7492  -0.7304  -0.7149  -0.7044  -0.7030  -0.6927  -0.6846  -0.6771
    -0.6602  -0.6303  -0.5532  -0.5490  -0.5385  -0.5316  -0.5260  -0.5036
    -0.4966  -0.4835  -0.4702  -0.4638  -0.4547  -0.4283  -0.3719  -0.3568
    -0.3461  -0.3335  -0.3073  -0.2562  -0.2504  -0.2244  -0.2165  -0.1800
    -0.1437  -0.1403  -0.1329  -0.1181  -0.1089  -0.1061  -0.0975  -0.0497
    -0.0041   0.0215   0.4569   0.5888   0.9073   1.0858   1.1216   1.2815
     1.4697   1.5039

          k = 0.2000-0.1155 0.0000 ( 36641 PWs)   bands (ev):

   -21.8617  -9.2653  -7.5363  -6.4270  -5.8478  -5.6728  -5.5341  -5.3672
    -5.1317  -5.0531  -5.0247  -4.6333  -4.5083  -4.4868  -4.4747  -4.4178
    -4.3352  -4.2960  -4.2292  -4.1844  -4.1532  -4.0699  -3.8860  -3.7779
    -3.7700  -3.7019  -3.6628  -3.6477  -3.6443  -3.6377  -3.6314  -3.6047
    -3.5907  -3.5407  -3.5162  -3.4980  -3.4923  -3.4233  -3.2805  -3.2703
    -3.2620  -3.2158  -3.2110  -3.1974  -3.1721  -3.1125  -3.0778  -3.0614
    -3.0441  -3.0381  -3.0289  -3.0007  -2.9590  -2.9077  -2.9008  -2.8721
    -2.8349  -2.8266  -2.8032  -2.7989  -2.7711  -2.7360  -2.7333  -2.7211
    -2.6921  -2.5882  -2.3942  -2.3852  -2.3599  -2.3427  -2.3283  -2.2458
    -2.2364  -2.2204  -2.2152  -2.2054  -2.1979  -2.1862  -2.1660  -2.1104
    -2.1067  -2.0871  -2.0712  -2.0322  -2.0298  -2.0246  -2.0105  -2.0008
    -1.9947  -1.9927  -1.9841  -1.9747  -1.9641  -1.9564  -1.9231  -1.8858
    -1.8766  -1.8664  -1.8151  -1.8015  -1.7952  -1.7881  -1.7827  -1.7755
    -1.7675  -1.7626  -1.7520  -1.7469  -1.7420  -1.7146  -1.7043  -1.6922
    -1.6808  -1.6680  -1.6290  -1.5867  -1.5738  -1.4817  -1.4726  -1.4682
    -1.4549  -1.4451  -1.4371  -1.4313  -1.4076  -1.3853  -1.3440  -1.2764
    -1.2450  -1.1937  -1.1777  -1.1647  -1.1510  -1.1049  -1.0881  -1.0748
    -1.0409  -0.9941  -0.9780  -0.9690  -0.9417  -0.9354  -0.8988  -0.8903
    -0.8625  -0.8549  -0.8400  -0.8204  -0.8131  -0.7940  -0.7859  -0.7765
    -0.7175  -0.7091  -0.7029  -0.6967  -0.6754  -0.6575  -0.6387  -0.6313
    -0.6262  -0.6193  -0.6146  -0.6044  -0.5816  -0.5776  -0.5665  -0.5488
    -0.5139  -0.4933  -0.4833  -0.4656  -0.4471  -0.4339  -0.4068  -0.3853
    -0.3760  -0.3666  -0.3609  -0.3519  -0.3356  -0.3258  -0.3161  -0.2778
    -0.2532  -0.2407  -0.2341  -0.2140  -0.2032  -0.1861  -0.1788  -0.1573
    -0.1048  -0.0282   0.0983   0.1393   0.1800   0.2709   0.3920   0.4153
     0.4522   0.7996

          k = 0.2000 0.1155 0.0000 ( 36641 PWs)   bands (ev):

   -21.8617  -9.2642  -7.5376  -6.4302  -5.8832  -5.6593  -5.4501  -5.4343
    -5.1107  -5.0554  -5.0453  -4.5920  -4.5171  -4.4830  -4.4769  -4.4159
    -4.3406  -4.3169  -4.2261  -4.1941  -4.1566  -4.0427  -3.8917  -3.7826
    -3.7601  -3.6933  -3.6566  -3.6501  -3.6448  -3.6438  -3.6287  -3.6216
    -3.5616  -3.5453  -3.5325  -3.4991  -3.4928  -3.4262  -3.2887  -3.2684
    -3.2657  -3.2159  -3.2153  -3.1995  -3.1678  -3.1132  -3.0826  -3.0547
    -3.0422  -3.0379  -3.0306  -3.0104  -2.9532  -2.9079  -2.9003  -2.8740
    -2.8400  -2.8160  -2.8033  -2.7982  -2.7835  -2.7347  -2.7344  -2.7207
    -2.6689  -2.5899  -2.3959  -2.3788  -2.3594  -2.3430  -2.3319  -2.2452
    -2.2382  -2.2299  -2.2115  -2.2069  -2.2017  -2.1873  -2.1439  -2.1116
    -2.1065  -2.0898  -2.0656  -2.0323  -2.0284  -2.0267  -2.0178  -2.0007
    -1.9939  -1.9935  -1.9865  -1.9753  -1.9593  -1.9546  -1.9326  -1.8827
    -1.8742  -1.8592  -1.8137  -1.8106  -1.7989  -1.7902  -1.7824  -1.7809
    -1.7668  -1.7629  -1.7550  -1.7464  -1.7397  -1.7308  -1.6966  -1.6950
    -1.6780  -1.6763  -1.6270  -1.5944  -1.5800  -1.5002  -1.4765  -1.4620
    -1.4534  -1.4486  -1.4359  -1.4325  -1.4118  -1.3719  -1.2917  -1.2880
    -1.2390  -1.1909  -1.1777  -1.1669  -1.1487  -1.1287  -1.0915  -1.0849
    -1.0274  -0.9914  -0.9824  -0.9587  -0.9423  -0.9411  -0.8982  -0.8969
    -0.8703  -0.8536  -0.8365  -0.8195  -0.8155  -0.7971  -0.7921  -0.7750
    -0.7128  -0.7089  -0.7002  -0.6872  -0.6829  -0.6547  -0.6399  -0.6309
    -0.6282  -0.6190  -0.6133  -0.5908  -0.5876  -0.5802  -0.5688  -0.5533
    -0.5089  -0.4844  -0.4742  -0.4706  -0.4535  -0.4371  -0.4039  -0.3883
    -0.3777  -0.3655  -0.3597  -0.3475  -0.3352  -0.3240  -0.3174  -0.2735
    -0.2435  -0.2411  -0.2329  -0.2135  -0.2044  -0.1769  -0.1610  -0.1521
    -0.1034  -0.0640   0.1059   0.1379   0.1804   0.2595   0.3949   0.4147
     0.4416   0.7411

          k = 0.2000 0.3464 0.0000 ( 36608 PWs)   bands (ev):

   -21.8616  -9.2502  -7.2606  -6.2843  -6.0549  -5.9398  -5.6842  -5.4601
    -5.3814  -5.0868  -4.7600  -4.6194  -4.4990  -4.4846  -4.3332  -4.2707
    -4.2627  -4.1693  -4.1648  -4.0798  -4.0410  -3.9711  -3.8947  -3.8702
    -3.8222  -3.7771  -3.6866  -3.6722  -3.6443  -3.6366  -3.6265  -3.6129
    -3.5856  -3.5795  -3.5363  -3.5182  -3.4766  -3.4449  -3.4377  -3.3783
    -3.2951  -3.2465  -3.2131  -3.1823  -3.1644  -3.1540  -3.0928  -3.0507
    -3.0151  -2.9802  -2.9740  -2.9644  -2.9379  -2.9141  -2.9007  -2.8835
    -2.8709  -2.8380  -2.7590  -2.7075  -2.6856  -2.6659  -2.6478  -2.6298
    -2.6040  -2.5423  -2.5009  -2.4332  -2.4119  -2.3847  -2.3704  -2.3401
    -2.3268  -2.3174  -2.3136  -2.2929  -2.2672  -2.2588  -2.2515  -2.2400
    -2.2276  -2.1831  -2.1600  -2.1151  -2.0676  -2.0559  -2.0372  -2.0201
    -2.0059  -1.9911  -1.9609  -1.9529  -1.9389  -1.9188  -1.9052  -1.8980
    -1.8935  -1.8850  -1.8800  -1.8550  -1.8502  -1.8413  -1.8217  -1.8163
    -1.7981  -1.7739  -1.7501  -1.7196  -1.7123  -1.6763  -1.6704  -1.6627
    -1.6503  -1.6425  -1.6071  -1.5726  -1.5630  -1.5490  -1.5310  -1.5047
    -1.4987  -1.4877  -1.4716  -1.4532  -1.4364  -1.4318  -1.4151  -1.3636
    -1.3515  -1.3302  -1.3109  -1.2244  -1.2061  -1.1812  -1.1710  -1.0931
    -1.0654  -1.0532  -1.0407  -1.0348  -1.0292  -1.0230  -0.9948  -0.9913
    -0.9685  -0.9526  -0.9335  -0.8934  -0.8772  -0.8616  -0.8574  -0.8391
    -0.8122  -0.7926  -0.7827  -0.7708  -0.7594  -0.7398  -0.6182  -0.6054
    -0.5831  -0.5723  -0.5630  -0.5529  -0.5351  -0.5249  -0.5136  -0.5047
    -0.4880  -0.4629  -0.4388  -0.4265  -0.4036  -0.3943  -0.3503  -0.3371
    -0.3304  -0.3243  -0.3212  -0.2970  -0.2852  -0.2781  -0.2727  -0.2592
    -0.2447  -0.1732  -0.1599  -0.1578  -0.1112  -0.1079  -0.0855   0.0518
     0.1734   0.2304   0.2627   0.4048   0.5197   0.6355   0.9592   1.1232
     1.2255   1.4629

          k = 0.2000-0.5774 0.0000 ( 36660 PWs)   bands (ev):

   -21.8617  -9.2429  -6.7607  -6.6875  -6.1577  -6.0062  -5.7649  -5.5023
    -5.2511  -5.1931  -4.9376  -4.6820  -4.4779  -4.2323  -4.1880  -4.0704
    -4.0534  -4.0464  -4.0256  -4.0171  -3.9676  -3.9499  -3.9457  -3.9413
    -3.9203  -3.8529  -3.7953  -3.7854  -3.7638  -3.7602  -3.7023  -3.6162
    -3.6093  -3.5981  -3.5760  -3.5296  -3.4884  -3.4428  -3.3560  -3.3132
    -3.3068  -3.2709  -3.2235  -3.2079  -3.1810  -3.1277  -3.0935  -3.0900
    -3.0478  -3.0280  -2.9910  -2.9295  -2.9009  -2.8717  -2.8547  -2.8163
    -2.7950  -2.7317  -2.7262  -2.7173  -2.7019  -2.6883  -2.6690  -2.6228
    -2.5563  -2.5132  -2.5016  -2.4918  -2.4563  -2.4296  -2.4118  -2.3667
    -2.3613  -2.3238  -2.3116  -2.3042  -2.2936  -2.2736  -2.2562  -2.2500
    -2.2306  -2.2194  -2.2072  -2.1793  -2.1749  -2.1402  -2.1014  -2.0905
    -2.0754  -2.0464  -2.0068  -1.9780  -1.9578  -1.9385  -1.9271  -1.9193
    -1.9009  -1.8882  -1.8809  -1.8735  -1.8566  -1.8343  -1.8288  -1.7740
    -1.7673  -1.7446  -1.7365  -1.7279  -1.7108  -1.7051  -1.6960  -1.6832
    -1.6758  -1.6693  -1.6459  -1.6229  -1.5868  -1.5767  -1.5511  -1.5165
    -1.4883  -1.4800  -1.4556  -1.4293  -1.4172  -1.4046  -1.4018  -1.3731
    -1.3358  -1.3318  -1.3015  -1.2634  -1.2024  -1.1883  -1.1731  -1.1566
    -1.1339  -1.1276  -1.1226  -1.0940  -1.0719  -1.0595  -1.0463  -1.0217
    -0.9800  -0.9723  -0.9530  -0.9374  -0.9205  -0.8776  -0.8704  -0.8535
    -0.8515  -0.8258  -0.8216  -0.8035  -0.7744  -0.7559  -0.7310  -0.5801
    -0.5632  -0.5568  -0.5495  -0.5385  -0.5302  -0.5240  -0.5121  -0.4784
    -0.4723  -0.4607  -0.4485  -0.4326  -0.3956  -0.3462  -0.3290  -0.3193
    -0.3056  -0.2973  -0.2800  -0.2693  -0.2374  -0.2254  -0.2199  -0.2079
    -0.2009  -0.1436  -0.1307  -0.1239  -0.1100  -0.0991  -0.0783  -0.0460
     0.1362   0.2555   0.4982   0.9055   1.0204   1.1665   1.2503   1.5291
     1.6521   1.7225

          k = 0.2000-0.3464 0.0000 ( 36608 PWs)   bands (ev):

   -21.8616  -9.2520  -7.2570  -6.2850  -6.0102  -5.9515  -5.6859  -5.5256
    -5.3539  -5.0733  -4.7141  -4.6984  -4.4946  -4.4793  -4.3284  -4.2719
    -4.2641  -4.1695  -4.1661  -4.0569  -4.0315  -4.0161  -3.8982  -3.8720
    -3.8241  -3.7782  -3.6855  -3.6661  -3.6579  -3.6370  -3.6265  -3.6020
    -3.5874  -3.5809  -3.5335  -3.5180  -3.4793  -3.4354  -3.4249  -3.3856
    -3.2977  -3.2376  -3.2126  -3.1846  -3.1668  -3.1454  -3.0774  -3.0527
    -3.0015  -2.9949  -2.9707  -2.9553  -2.9478  -2.9185  -2.8910  -2.8860
    -2.8675  -2.8330  -2.7501  -2.7254  -2.6900  -2.6740  -2.6475  -2.6287
    -2.6085  -2.5424  -2.4990  -2.4355  -2.4022  -2.3847  -2.3714  -2.3387
    -2.3309  -2.3159  -2.3144  -2.2865  -2.2678  -2.2589  -2.2516  -2.2346
    -2.2287  -2.1876  -2.1553  -2.1419  -2.0697  -2.0569  -2.0352  -2.0157
    -2.0093  -1.9863  -1.9733  -1.9543  -1.9339  -1.9193  -1.9042  -1.9019
    -1.8920  -1.8864  -1.8761  -1.8572  -1.8445  -1.8430  -1.8216  -1.8058
    -1.7982  -1.7886  -1.7591  -1.7173  -1.7145  -1.6810  -1.6684  -1.6581
    -1.6531  -1.6371  -1.5864  -1.5744  -1.5657  -1.5382  -1.5137  -1.5044
    -1.4943  -1.4855  -1.4794  -1.4533  -1.4390  -1.4252  -1.4202  -1.3654
    -1.3507  -1.3170  -1.3016  -1.2376  -1.1989  -1.1813  -1.1548  -1.0919
    -1.0749  -1.0565  -1.0463  -1.0395  -1.0314  -1.0209  -0.9989  -0.9791
    -0.9767  -0.9565  -0.9392  -0.8921  -0.8809  -0.8685  -0.8497  -0.8412
    -0.8138  -0.7968  -0.7750  -0.7677  -0.7548  -0.7419  -0.6210  -0.6109
    -0.5844  -0.5743  -0.5639  -0.5491  -0.5311  -0.5257  -0.5234  -0.5005
    -0.4904  -0.4645  -0.4417  -0.4181  -0.4037  -0.3966  -0.3556  -0.3374
    -0.3283  -0.3261  -0.3213  -0.2985  -0.2852  -0.2805  -0.2696  -0.2607
    -0.2455  -0.1742  -0.1635  -0.1572  -0.1121  -0.1093  -0.0946   0.0718
     0.1296   0.2306   0.2478   0.4603   0.5072   0.6351   0.9906   1.1234
     1.2288   1.3979

          k = 0.4000-0.2309 0.0000 ( 36606 PWs)   bands (ev):

   -21.8616  -9.2481  -7.1224  -6.4819  -6.1586  -5.8279  -5.5662  -5.3919
    -5.2187  -5.1494  -5.1074  -4.8912  -4.3434  -4.3171  -4.2875  -4.2460
    -4.2056  -4.1287  -4.1231  -4.0332  -3.9915  -3.9868  -3.9679  -3.8283
    -3.8091  -3.8046  -3.7934  -3.7925  -3.7228  -3.6906  -3.6814  -3.5812
    -3.5231  -3.5130  -3.4953  -3.4794  -3.4668  -3.4311  -3.3671  -3.3588
    -3.3463  -3.3336  -3.2883  -3.2181  -3.1329  -3.1026  -3.0412  -3.0281
    -3.0054  -2.9806  -2.9609  -2.9436  -2.9363  -2.9291  -2.9095  -2.8575
    -2.8472  -2.8261  -2.7852  -2.7616  -2.6556  -2.6388  -2.6184  -2.5949
    -2.5497  -2.5303  -2.5038  -2.4947  -2.4758  -2.4140  -2.3663  -2.3618
    -2.3576  -2.3446  -2.3368  -2.3167  -2.3022  -2.2926  -2.2675  -2.2490
    -2.2325  -2.1975  -2.1796  -2.1609  -2.1313  -2.1144  -2.0652  -2.0425
    -2.0256  -2.0115  -1.9957  -1.9718  -1.9661  -1.9287  -1.9158  -1.9085
    -1.8946  -1.8842  -1.8722  -1.8535  -1.8432  -1.8395  -1.8353  -1.8042
    -1.7887  -1.7573  -1.7287  -1.7264  -1.6612  -1.6394  -1.6233  -1.6088
    -1.5957  -1.5753  -1.5478  -1.5235  -1.5144  -1.4941  -1.4901  -1.4801
    -1.4768  -1.4661  -1.4567  -1.4478  -1.4404  -1.4370  -1.4175  -1.4096
    -1.4004  -1.3589  -1.2938  -1.2769  -1.2641  -1.2561  -1.2254  -1.2138
    -1.1902  -1.1326  -1.1120  -1.0996  -1.0599  -1.0476  -1.0180  -0.9821
    -0.9739  -0.9512  -0.9276  -0.9137  -0.8948  -0.8631  -0.8403  -0.7888
    -0.7492  -0.7296  -0.7146  -0.7041  -0.7029  -0.6926  -0.6848  -0.6766
    -0.6581  -0.6307  -0.5539  -0.5478  -0.5389  -0.5312  -0.5253  -0.5015
    -0.4960  -0.4817  -0.4714  -0.4643  -0.4548  -0.4290  -0.3704  -0.3568
    -0.3450  -0.3333  -0.3058  -0.2565  -0.2502  -0.2241  -0.2160  -0.1802
    -0.1443  -0.1402  -0.1325  -0.1170  -0.1093  -0.1061  -0.0978  -0.0498
    -0.0038   0.0213   0.4468   0.5913   0.9119   1.0841   1.1209   1.2764
     1.4681   1.5056

          k = 0.4000 0.0000 0.0000 ( 36608 PWs)   bands (ev):

   -21.8616  -9.2500  -7.2608  -6.2841  -6.0566  -5.9396  -5.6841  -5.4603
    -5.3812  -5.0853  -4.7627  -4.6164  -4.4989  -4.4857  -4.3332  -4.2708
    -4.2622  -4.1697  -4.1647  -4.0819  -4.0410  -3.9653  -3.8949  -3.8705
    -3.8215  -3.7773  -3.6871  -3.6735  -3.6440  -3.6367  -3.6271  -3.6120
    -3.5859  -3.5794  -3.5380  -3.5191  -3.4763  -3.4453  -3.4387  -3.3788
    -3.2955  -3.2486  -3.2129  -3.1818  -3.1642  -3.1536  -3.0932  -3.0508
    -3.0154  -2.9799  -2.9728  -2.9659  -2.9371  -2.9139  -2.8996  -2.8838
    -2.8710  -2.8387  -2.7595  -2.7053  -2.6859  -2.6658  -2.6469  -2.6286
    -2.6046  -2.5412  -2.5014  -2.4333  -2.4116  -2.3845  -2.3704  -2.3407
    -2.3269  -2.3175  -2.3139  -2.2935  -2.2670  -2.2585  -2.2519  -2.2405
    -2.2265  -2.1841  -2.1604  -2.1141  -2.0675  -2.0550  -2.0385  -2.0203
    -2.0054  -1.9908  -1.9601  -1.9530  -1.9391  -1.9181  -1.9049  -1.8975
    -1.8923  -1.8850  -1.8792  -1.8551  -1.8515  -1.8411  -1.8210  -1.8164
    -1.7978  -1.7737  -1.7486  -1.7193  -1.7119  -1.6771  -1.6703  -1.6622
    -1.6500  -1.6422  -1.6079  -1.5731  -1.5636  -1.5490  -1.5300  -1.5050
    -1.4995  -1.4880  -1.4718  -1.4555  -1.4380  -1.4322  -1.4152  -1.3638
    -1.3514  -1.3306  -1.3122  -1.2229  -1.2050  -1.1814  -1.1711  -1.0939
    -1.0645  -1.0539  -1.0417  -1.0361  -1.0293  -1.0223  -0.9951  -0.9917
    -0.9684  -0.9519  -0.9334  -0.8936  -0.8759  -0.8611  -0.8575  -0.8387
    -0.8118  -0.7922  -0.7832  -0.7714  -0.7601  -0.7397  -0.6179  -0.6062
    -0.5810  -0.5710  -0.5626  -0.5536  -0.5359  -0.5234  -0.5147  -0.5060
    -0.4893  -0.4627  -0.4385  -0.4259  -0.4035  -0.3935  -0.3489  -0.3365
    -0.3308  -0.3236  -0.3210  -0.2968  -0.2855  -0.2782  -0.2726  -0.2590
    -0.2449  -0.1725  -0.1601  -0.1581  -0.1111  -0.1086  -0.0850   0.0511
     0.1798   0.2303   0.2645   0.3978   0.5201   0.6331   0.9531   1.1233
     1.2245   1.4630

          k = 0.4000 0.2309 0.0000 ( 36606 PWs)   bands (ev):

   -21.8616  -9.2453  -7.1286  -6.4889  -6.1689  -5.8766  -5.4610  -5.4249
    -5.2129  -5.1520  -5.1046  -4.8925  -4.3488  -4.3123  -4.3048  -4.2429
    -4.1998  -4.1297  -4.1238  -4.0116  -3.9905  -3.9881  -3.9103  -3.8403
    -3.8082  -3.7987  -3.7933  -3.7927  -3.6997  -3.6859  -3.6700  -3.6442
    -3.5285  -3.5217  -3.5077  -3.4793  -3.4743  -3.4275  -3.3681  -3.3599
    -3.3465  -3.3385  -3.2945  -3.2200  -3.1359  -3.0933  -3.0430  -3.0146
    -3.0132  -2.9732  -2.9643  -2.9573  -2.9494  -2.9155  -2.8995  -2.8616
    -2.8511  -2.8285  -2.7939  -2.7434  -2.6504  -2.6329  -2.6292  -2.5856
    -2.5553  -2.5260  -2.5044  -2.5033  -2.4865  -2.4163  -2.3681  -2.3619
    -2.3569  -2.3494  -2.3314  -2.3151  -2.3004  -2.2968  -2.2702  -2.2365
    -2.2170  -2.2029  -2.1882  -2.1712  -2.1235  -2.1138  -2.0577  -2.0458
    -2.0215  -2.0138  -2.0001  -1.9883  -1.9600  -1.9226  -1.9169  -1.9124
    -1.8981  -1.8843  -1.8647  -1.8570  -1.8511  -1.8373  -1.8362  -1.8057
    -1.7877  -1.7707  -1.7302  -1.7268  -1.6656  -1.6425  -1.6222  -1.6098
    -1.5760  -1.5739  -1.5389  -1.5184  -1.5161  -1.4978  -1.4877  -1.4858
    -1.4765  -1.4731  -1.4578  -1.4482  -1.4395  -1.4366  -1.4044  -1.4034
    -1.3795  -1.3704  -1.3232  -1.2789  -1.2613  -1.2498  -1.2245  -1.2178
    -1.1836  -1.1331  -1.1132  -1.0958  -1.0845  -1.0404  -1.0384  -0.9987
    -0.9726  -0.9460  -0.9273  -0.9184  -0.8893  -0.8582  -0.8353  -0.8039
    -0.7256  -0.7239  -0.7145  -0.7073  -0.7009  -0.6876  -0.6783  -0.6674
    -0.6589  -0.6489  -0.5534  -0.5496  -0.5366  -0.5314  -0.5227  -0.4946
    -0.4925  -0.4812  -0.4738  -0.4599  -0.4450  -0.4307  -0.3686  -0.3542
    -0.3456  -0.3331  -0.2950  -0.2552  -0.2508  -0.2168  -0.2161  -0.1798
    -0.1556  -0.1344  -0.1333  -0.1103  -0.1094  -0.1046  -0.0794  -0.0630
    -0.0033   0.0228   0.4156   0.6765   0.8455   1.0302   1.1250   1.1989
     1.4659   1.5761

          k = 0.4000-0.6928 0.0000 ( 36660 PWs)   bands (ev):

   -21.8617  -9.2409  -6.7821  -6.6764  -6.1650  -5.9300  -5.8975  -5.4281
    -5.2153  -5.1783  -4.9991  -4.6828  -4.4779  -4.2314  -4.1860  -4.0571
    -4.0535  -4.0303  -4.0239  -3.9989  -3.9678  -3.9501  -3.9421  -3.9380
    -3.9262  -3.8109  -3.7990  -3.7836  -3.7724  -3.7558  -3.7196  -3.6313
    -3.6102  -3.5986  -3.5839  -3.5644  -3.4955  -3.4392  -3.3475  -3.3142
    -3.3109  -3.2712  -3.2150  -3.2082  -3.1799  -3.1306  -3.0967  -3.0932
    -3.0643  -3.0123  -2.9987  -2.9284  -2.8989  -2.8722  -2.8570  -2.8107
    -2.7889  -2.7321  -2.7275  -2.7189  -2.7008  -2.6985  -2.6508  -2.6343
    -2.5486  -2.5111  -2.5044  -2.4854  -2.4731  -2.4389  -2.4186  -2.3646
    -2.3570  -2.3251  -2.3185  -2.2979  -2.2929  -2.2689  -2.2571  -2.2394
    -2.2281  -2.2149  -2.1885  -2.1839  -2.1728  -2.1643  -2.1025  -2.0923
    -2.0804  -2.0432  -2.0098  -1.9738  -1.9601  -1.9413  -1.9256  -1.9140
    -1.8988  -1.8941  -1.8884  -1.8626  -1.8495  -1.8432  -1.8274  -1.7675
    -1.7523  -1.7457  -1.7325  -1.7153  -1.7096  -1.7074  -1.6901  -1.6856
    -1.6828  -1.6699  -1.6510  -1.6389  -1.5790  -1.5763  -1.5637  -1.5153
    -1.4975  -1.4793  -1.4561  -1.4262  -1.4200  -1.4086  -1.3945  -1.3859
    -1.3349  -1.3318  -1.2963  -1.2607  -1.2012  -1.1949  -1.1801  -1.1565
    -1.1327  -1.1286  -1.1131  -1.0960  -1.0853  -1.0653  -1.0381  -1.0113
    -0.9842  -0.9732  -0.9516  -0.9339  -0.9214  -0.8852  -0.8700  -0.8686
    -0.8452  -0.8261  -0.8159  -0.7976  -0.7683  -0.7578  -0.7348  -0.5703
    -0.5633  -0.5609  -0.5506  -0.5381  -0.5350  -0.5174  -0.5138  -0.4764
    -0.4708  -0.4618  -0.4520  -0.4288  -0.3904  -0.3374  -0.3274  -0.3079
    -0.3051  -0.2969  -0.2828  -0.2411  -0.2380  -0.2287  -0.2195  -0.2089
    -0.2033  -0.1862  -0.1304  -0.1238  -0.1088  -0.1018  -0.0780  -0.0427
     0.1576   0.2655   0.5637   0.7713   1.0324   1.1683   1.2268   1.5722
     1.6731   1.7116

          k = 0.4000-0.4619 0.0000 ( 36660 PWs)   bands (ev):

   -21.8617  -9.2426  -6.7625  -6.6860  -6.1589  -6.0040  -5.7694  -5.5003
    -5.2505  -5.1899  -4.9413  -4.6816  -4.4776  -4.2319  -4.1885  -4.0683
    -4.0534  -4.0463  -4.0258  -4.0162  -3.9674  -3.9497  -3.9454  -3.9409
    -3.9209  -3.8512  -3.7956  -3.7854  -3.7639  -3.7602  -3.7028  -3.6164
    -3.6098  -3.5981  -3.5758  -3.5328  -3.4907  -3.4432  -3.3542  -3.3130
    -3.3063  -3.2738  -3.2235  -3.2075  -3.1808  -3.1274  -3.0934  -3.0904
    -3.0482  -3.0276  -2.9909  -2.9289  -2.9010  -2.8728  -2.8540  -2.8161
    -2.7936  -2.7318  -2.7265  -2.7176  -2.7022  -2.6884  -2.6689  -2.6200
    -2.5561  -2.5126  -2.5010  -2.4926  -2.4566  -2.4297  -2.4144  -2.3667
    -2.3610  -2.3240  -2.3115  -2.3043  -2.2934  -2.2723  -2.2567  -2.2493
    -2.2301  -2.2193  -2.2068  -2.1795  -2.1744  -2.1392  -2.1012  -2.0914
    -2.0766  -2.0478  -2.0066  -1.9775  -1.9573  -1.9378  -1.9268  -1.9194
    -1.9004  -1.8881  -1.8806  -1.8738  -1.8559  -1.8344  -1.8283  -1.7727
    -1.7663  -1.7439  -1.7363  -1.7279  -1.7107  -1.7054  -1.6961  -1.6833
    -1.6764  -1.6702  -1.6458  -1.6245  -1.5866  -1.5765  -1.5529  -1.5132
    -1.4890  -1.4819  -1.4579  -1.4283  -1.4169  -1.4047  -1.4019  -1.3730
    -1.3353  -1.3316  -1.3018  -1.2613  -1.2019  -1.1893  -1.1723  -1.1569
    -1.1324  -1.1273  -1.1227  -1.0949  -1.0727  -1.0604  -1.0473  -1.0214
    -0.9806  -0.9739  -0.9536  -0.9367  -0.9199  -0.8782  -0.8700  -0.8539
    -0.8520  -0.8261  -0.8211  -0.8026  -0.7741  -0.7558  -0.7322  -0.5798
    -0.5623  -0.5569  -0.5486  -0.5381  -0.5298  -0.5243  -0.5126  -0.4777
    -0.4729  -0.4617  -0.4490  -0.4320  -0.3940  -0.3448  -0.3292  -0.3180
    -0.3052  -0.2971  -0.2802  -0.2691  -0.2379  -0.2253  -0.2200  -0.2070
    -0.1997  -0.1483  -0.1304  -0.1241  -0.1100  -0.0993  -0.0781  -0.0459
     0.1378   0.2564   0.5009   0.9080   1.0082   1.1676   1.2464   1.5316
     1.6518   1.7239

 ------ SPIN DOWN ----------


          k = 0.0000 0.0000 0.0000 ( 36693 PWs)   bands (ev):

   -21.9532  -9.3638  -7.8043  -6.5902  -5.8003  -5.6228  -5.4614  -5.0554
    -4.6484  -4.6371  -4.6367  -4.6021  -4.5952  -4.5764  -4.2252  -3.7653
    -3.7648  -3.7453  -3.7198  -3.7186  -3.6554  -3.3318  -2.8232  -2.8191
    -2.8045  -2.7989  -2.7180  -2.5985  -2.3545  -2.3458  -2.3377  -2.3375
    -2.3074  -2.2159  -2.1488  -2.1463  -2.0791  -2.0512  -2.0503  -2.0495
    -1.9666  -1.9621  -1.9138  -1.9131  -1.8279  -1.8235  -1.8043  -1.7995
    -1.7547  -1.7250  -1.5501  -1.5434  -1.5432  -1.5373  -1.5242  -1.5237
    -1.5088  -1.5081  -1.4791  -1.4653  -1.4379  -1.4333  -1.4292  -1.4259
    -1.3609  -1.2570  -0.8933  -0.8736  -0.8591  -0.8537  -0.8247  -0.7576
    -0.6595  -0.6385  -0.5502  -0.5451  -0.5319  -0.5271  -0.5149  -0.4933
    -0.4738  -0.4688  -0.4504  -0.4472  -0.4339  -0.4328  -0.3897  -0.3678
    -0.3515  -0.3312  -0.3249  -0.3071  -0.2966  -0.2891  -0.2856  -0.2730
    -0.2671  -0.2638  -0.2545  -0.2447  -0.2437  -0.2329  -0.2132  -0.1636
    -0.1608  -0.1294  -0.1031  -0.0482  -0.0427  -0.0289  -0.0251  -0.0149
    -0.0116  -0.0103  -0.0059   0.0622   0.0665   0.0674   0.1108   0.1433
     0.1463   0.1532   0.1675   0.2038   0.3106   0.3530   0.3910   0.4008
     0.4544   0.4610   0.4667   0.4741   0.6294   0.6943   0.7068   0.7977
     0.8017   0.8910   0.9210   1.0223   1.0233   1.0258   1.0370   1.0409
     1.1155   1.1311   1.1827   1.2009   1.2104   1.2145   1.2197   1.2471
     1.2607   1.2641   1.2752   1.2898   1.3070   1.3169   1.3290   1.3464
     1.3544   1.3647   1.3679   1.3749   1.3846   1.4261   1.4293   1.4340
     1.4475   1.4536   1.4647   1.4775   1.4909   1.4974   1.5024   1.5370
     1.5432   1.5570   1.5610   1.5626   1.5729   1.5799   1.5836   1.6230
     1.6275   1.6316   1.6333   1.6383   1.6431   1.6509   1.6643   1.6651
     1.6708   1.7140   1.7146   1.8577   1.8618   1.8641   1.8693   1.8708
     1.8738   2.0742

          k = 0.0000 0.2309 0.0000 ( 36641 PWs)   bands (ev):

   -21.9532  -9.3533  -7.6628  -6.4873  -5.8662  -5.6733  -5.5488  -5.4004
    -5.0764  -4.9880  -4.9007  -4.4457  -4.1488  -4.0833  -4.0634  -3.9413
    -3.8501  -3.7811  -3.4650  -3.4007  -3.3601  -3.2643  -2.9548  -2.8070
    -2.7747  -2.7365  -2.6794  -2.6109  -2.4470  -2.3814  -2.3745  -2.3613
    -2.3296  -2.2935  -2.2916  -2.2813  -2.2307  -2.1945  -2.1113  -2.1091
    -2.0198  -2.0169  -1.9578  -1.8592  -1.8362  -1.8252  -1.8044  -1.7094
    -1.6785  -1.6513  -1.6081  -1.5808  -1.5573  -1.5413  -1.5294  -1.5250
    -1.5103  -1.4956  -1.4191  -1.4000  -1.3924  -1.3715  -1.3368  -1.2915
    -1.2448  -1.1552  -0.9726  -0.9260  -0.9072  -0.9041  -0.8396  -0.7968
    -0.7558  -0.7218  -0.6870  -0.6562  -0.6353  -0.5847  -0.5592  -0.5478
    -0.5165  -0.5056  -0.4893  -0.4828  -0.4748  -0.4539  -0.4286  -0.3899
    -0.3496  -0.3240  -0.3204  -0.3120  -0.3055  -0.2822  -0.2579  -0.2533
    -0.2444  -0.2359  -0.2313  -0.2252  -0.2206  -0.2186  -0.1927  -0.1683
    -0.1469  -0.1383  -0.1206  -0.1113  -0.0999  -0.0888  -0.0613  -0.0396
    -0.0313  -0.0079   0.0201   0.0562   0.0886   0.1037   0.1205   0.1341
     0.2445   0.2707   0.2771   0.3242   0.3555   0.3641   0.3956   0.4203
     0.4285   0.4395   0.4443   0.4515   0.6205   0.6766   0.7356   0.7753
     0.7871   0.7926   0.8068   0.8201   0.8629   0.8888   0.9185   0.9571
     1.0182   1.0219   1.0425   1.0757   1.0921   1.1137   1.1355   1.1744
     1.1996   1.2253   1.2469   1.2529   1.2692   1.2783   1.3198   1.3274
     1.3398   1.3643   1.4012   1.4157   1.4324   1.4406   1.4680   1.4776
     1.5101   1.5217   1.5248   1.5305   1.5547   1.6028   1.6093   1.6174
     1.6259   1.6485   1.6545   1.6849   1.6930   1.7013   1.7062   1.7087
     1.7301   1.7739   1.7797   1.7924   1.7951   1.8056   1.8147   1.8319
     1.8523   1.8555   1.8615   1.8969   1.9492   1.9649   1.9678   2.0279
     2.0476   2.1110

          k = 0.0000 0.4619 0.0000 ( 36606 PWs)   bands (ev):

   -21.9532  -9.3367  -7.2427  -6.5756  -6.2032  -5.8397  -5.6078  -5.4220
    -5.2384  -5.1546  -5.0874  -4.7413  -4.1188  -4.0361  -3.8249  -3.4726
    -3.4626  -3.4011  -3.3408  -3.1630  -3.0828  -3.0186  -2.9904  -2.8686
    -2.8613  -2.7977  -2.7530  -2.7038  -2.6486  -2.6223  -2.6089  -2.5622
    -2.5437  -2.4171  -2.3402  -2.3204  -2.2453  -2.2201  -2.1281  -2.1236
    -2.1104  -2.0844  -2.0492  -1.8347  -1.8167  -1.8019  -1.7744  -1.7278
    -1.6064  -1.5992  -1.5881  -1.5688  -1.5600  -1.5348  -1.5313  -1.5023
    -1.4920  -1.4245  -1.4181  -1.3985  -1.3737  -1.3535  -1.2119  -1.1839
    -1.0786  -1.0441  -0.9576  -0.9345  -0.9273  -0.8910  -0.8740  -0.8623
    -0.8481  -0.8202  -0.7914  -0.7743  -0.7284  -0.7005  -0.6792  -0.6403
    -0.6252  -0.6052  -0.5860  -0.5743  -0.5398  -0.5052  -0.4751  -0.4082
    -0.4018  -0.3827  -0.3647  -0.3329  -0.3028  -0.2915  -0.2656  -0.2447
    -0.2132  -0.2113  -0.1965  -0.1822  -0.1718  -0.1648  -0.1333  -0.1251
    -0.1052  -0.0925  -0.0824  -0.0654  -0.0572  -0.0499  -0.0393  -0.0139
    -0.0037   0.0200   0.0740   0.1133   0.1367   0.1438   0.1581   0.2001
     0.2088   0.2166   0.2439   0.2801   0.2968   0.3141   0.3350   0.3393
     0.3877   0.4021   0.4075   0.4201   0.4592   0.5484   0.5828   0.5980
     0.6590   0.6715   0.7025   0.7642   0.8142   0.8465   0.8689   0.8866
     0.9107   0.9260   0.9391   0.9677   0.9884   1.0723   1.1609   1.1691
     1.1801   1.2005   1.2363   1.2464   1.2782   1.2994   1.3197   1.3406
     1.3667   1.3807   1.3907   1.4523   1.4735   1.4844   1.5250   1.5371
     1.5466   1.5508   1.5683   1.5816   1.6060   1.6203   1.6292   1.6573
     1.6660   1.7045   1.7538   1.7677   1.7841   1.7935   1.8040   1.8245
     1.8299   1.8567   1.8613   1.8726   1.8911   1.8967   1.9045   1.9108
     1.9526   2.0089   2.0562   2.1187   2.1330   2.2041   2.5452   2.6112
     2.6450   2.6925

          k = 0.2000-0.1155 0.0000 ( 36641 PWs)   bands (ev):

   -21.9532  -9.3532  -7.6628  -6.4876  -5.8677  -5.6728  -5.5479  -5.4009
    -5.0751  -4.9884  -4.9017  -4.4415  -4.1557  -4.0830  -4.0641  -3.9391
    -3.8474  -3.7824  -3.4665  -3.4004  -3.3549  -3.2650  -2.9589  -2.8053
    -2.7744  -2.7387  -2.6796  -2.6080  -2.4487  -2.3811  -2.3741  -2.3622
    -2.3292  -2.2943  -2.2915  -2.2823  -2.2310  -2.1933  -2.1107  -2.1095
    -2.0200  -2.0172  -1.9595  -1.8567  -1.8365  -1.8244  -1.8032  -1.7095
    -1.6786  -1.6510  -1.6084  -1.5802  -1.5575  -1.5418  -1.5290  -1.5256
    -1.5090  -1.4957  -1.4197  -1.4000  -1.3917  -1.3709  -1.3373  -1.2924
    -1.2438  -1.1559  -0.9722  -0.9255  -0.9076  -0.9039  -0.8398  -0.7948
    -0.7598  -0.7222  -0.6865  -0.6559  -0.6354  -0.5858  -0.5589  -0.5477
    -0.5159  -0.5057  -0.4886  -0.4822  -0.4744  -0.4546  -0.4304  -0.3897
    -0.3482  -0.3244  -0.3205  -0.3137  -0.3075  -0.2810  -0.2586  -0.2532
    -0.2447  -0.2354  -0.2313  -0.2245  -0.2204  -0.2184  -0.1930  -0.1684
    -0.1461  -0.1387  -0.1201  -0.1112  -0.1014  -0.0899  -0.0613  -0.0399
    -0.0308  -0.0081   0.0217   0.0576   0.0878   0.1036   0.1198   0.1340
     0.2443   0.2667   0.2806   0.3268   0.3560   0.3664   0.3929   0.4200
     0.4285   0.4394   0.4443   0.4520   0.6181   0.6821   0.7310   0.7755
     0.7872   0.7935   0.8069   0.8223   0.8620   0.8928   0.9176   0.9575
     1.0177   1.0220   1.0417   1.0782   1.0920   1.1150   1.1357   1.1647
     1.2005   1.2265   1.2474   1.2536   1.2688   1.2792   1.3198   1.3274
     1.3403   1.3640   1.4009   1.4162   1.4331   1.4410   1.4685   1.4798
     1.5097   1.5218   1.5251   1.5305   1.5539   1.6013   1.6090   1.6173
     1.6253   1.6478   1.6546   1.6852   1.6935   1.7007   1.7070   1.7087
     1.7296   1.7739   1.7797   1.7930   1.7951   1.8057   1.8140   1.8316
     1.8516   1.8552   1.8617   1.8947   1.9492   1.9646   1.9677   2.0292
     2.0472   2.1084

          k = 0.2000 0.1155 0.0000 ( 36641 PWs)   bands (ev):

   -21.9532  -9.3522  -7.6640  -6.4911  -5.9038  -5.6519  -5.4766  -5.4571
    -5.0538  -4.9877  -4.9334  -4.3610  -4.2063  -4.0847  -4.0660  -3.9757
    -3.8262  -3.7835  -3.4765  -3.4098  -3.3120  -3.2478  -2.9788  -2.8299
    -2.7789  -2.7184  -2.7104  -2.5706  -2.4579  -2.3816  -2.3730  -2.3506
    -2.3413  -2.3026  -2.2913  -2.2901  -2.2504  -2.1683  -2.1100  -2.1079
    -2.0191  -2.0188  -1.9589  -1.8659  -1.8290  -1.8206  -1.8003  -1.7016
    -1.6844  -1.6529  -1.6008  -1.5914  -1.5616  -1.5433  -1.5245  -1.5233
    -1.5222  -1.4677  -1.4409  -1.3969  -1.3862  -1.3704  -1.3344  -1.2952
    -1.2276  -1.1698  -0.9774  -0.9302  -0.9098  -0.8999  -0.8304  -0.8091
    -0.7914  -0.6879  -0.6747  -0.6734  -0.6394  -0.5837  -0.5696  -0.5428
    -0.5228  -0.5000  -0.4927  -0.4771  -0.4731  -0.4497  -0.4482  -0.3771
    -0.3394  -0.3308  -0.3220  -0.3161  -0.3011  -0.2649  -0.2627  -0.2533
    -0.2476  -0.2343  -0.2339  -0.2271  -0.2225  -0.2184  -0.1852  -0.1747
    -0.1489  -0.1384  -0.1186  -0.1164  -0.1046  -0.0824  -0.0610  -0.0514
    -0.0257  -0.0097   0.0361   0.0765   0.0777   0.1022   0.1044   0.1332
     0.2146   0.2834   0.3110   0.3207   0.3582   0.3752   0.3833   0.4160
     0.4303   0.4340   0.4493   0.4528   0.6576   0.6742   0.7056   0.7712
     0.7915   0.7935   0.8159   0.8212   0.8618   0.8993   0.9060   0.9651
     0.9720   1.0326   1.0577   1.0788   1.0874   1.1237   1.1419   1.1456
     1.1898   1.2363   1.2445   1.2605   1.2770   1.2810   1.3206   1.3249
     1.3391   1.3713   1.4045   1.4248   1.4312   1.4407   1.4639   1.4800
     1.5027   1.5230   1.5284   1.5396   1.5458   1.5977   1.6000   1.6142
     1.6287   1.6483   1.6534   1.6860   1.6958   1.7043   1.7059   1.7084
     1.7305   1.7742   1.7807   1.7927   1.7938   1.8059   1.8152   1.8301
     1.8527   1.8553   1.8613   1.8775   1.9475   1.9629   1.9688   2.0237
     2.0525   2.0965

          k = 0.2000 0.3464 0.0000 ( 36608 PWs)   bands (ev):

   -21.9532  -9.3384  -7.3838  -6.3287  -6.1180  -6.0150  -5.6920  -5.4854
    -5.4199  -5.0154  -4.6891  -4.4600  -4.2737  -4.2627  -3.9099  -3.4472
    -3.4349  -3.4300  -3.4139  -3.2760  -3.1572  -3.1311  -3.1131  -2.9215
    -2.7669  -2.6881  -2.6804  -2.6646  -2.5938  -2.5663  -2.5531  -2.4821
    -2.4708  -2.4620  -2.4288  -2.3225  -2.3139  -2.2438  -2.0898  -2.0773
    -2.0544  -1.9942  -1.9689  -1.9527  -1.9267  -1.7983  -1.7423  -1.7318
    -1.6234  -1.6127  -1.5689  -1.5651  -1.5561  -1.5396  -1.5282  -1.5050
    -1.4863  -1.4791  -1.4255  -1.3822  -1.3431  -1.3011  -1.1994  -1.1644
    -1.1101  -1.0692  -0.9951  -0.9537  -0.8983  -0.8726  -0.8634  -0.8391
    -0.8128  -0.7777  -0.7659  -0.7262  -0.7022  -0.6893  -0.6750  -0.6521
    -0.6364  -0.6175  -0.6016  -0.5716  -0.5396  -0.4717  -0.4348  -0.4203
    -0.4134  -0.3795  -0.3549  -0.3395  -0.3258  -0.3007  -0.2894  -0.2813
    -0.2586  -0.2493  -0.2354  -0.2126  -0.2043  -0.1881  -0.1645  -0.1366
    -0.1221  -0.1137  -0.1055  -0.0914  -0.0828  -0.0767  -0.0601  -0.0461
     0.0255   0.0415   0.0451   0.0649   0.1566   0.1732   0.1963   0.2259
     0.2434   0.2781   0.2944   0.3010   0.3336   0.3610   0.3757   0.3821
     0.3865   0.4208   0.4497   0.4769   0.5245   0.6036   0.6415   0.6821
     0.7359   0.7662   0.8012   0.8245   0.8312   0.8441   0.8608   0.8792
     0.8921   0.9066   0.9160   0.9361   0.9766   1.0359   1.0656   1.0963
     1.1215   1.1413   1.1556   1.1749   1.1917   1.2437   1.2560   1.3000
     1.3353   1.4086   1.4359   1.4868   1.5039   1.5130   1.5282   1.5436
     1.5621   1.5634   1.5870   1.5943   1.6531   1.6692   1.6716   1.6770
     1.6929   1.7215   1.7342   1.7489   1.7533   1.7699   1.7776   1.8026
     1.8104   1.8166   1.8260   1.8380   1.8503   1.8654   1.9049   1.9347
     1.9459   1.9784   2.0354   2.0736   2.1784   2.2139   2.3137   2.4980
     2.5322   2.5456

          k = 0.2000-0.5774 0.0000 ( 36660 PWs)   bands (ev):

   -21.9532  -9.3312  -6.8659  -6.8015  -6.2233  -6.0431  -5.7930  -5.5470
    -5.2693  -5.2355  -4.8603  -4.5308  -4.3151  -3.7652  -3.5021  -3.4670
    -3.4640  -3.3718  -3.2190  -3.1332  -3.0547  -3.0447  -3.0409  -2.9118
    -2.9045  -2.8922  -2.8707  -2.8618  -2.7466  -2.6308  -2.5293  -2.5117
    -2.4985  -2.4629  -2.4404  -2.4252  -2.3812  -2.3185  -2.1950  -2.0626
    -1.9791  -1.9699  -1.9545  -1.9167  -1.8814  -1.7991  -1.7363  -1.7204
    -1.6843  -1.6708  -1.6644  -1.5692  -1.5193  -1.5019  -1.4960  -1.4737
    -1.4403  -1.3824  -1.3474  -1.3321  -1.2876  -1.2644  -1.2484  -1.1466
    -1.0994  -1.0105  -0.9677  -0.9515  -0.9410  -0.8841  -0.8720  -0.8306
    -0.8154  -0.7977  -0.7648  -0.7553  -0.7442  -0.6918  -0.6848  -0.6596
    -0.6421  -0.6236  -0.6124  -0.6015  -0.5877  -0.5784  -0.5428  -0.5201
    -0.5099  -0.4753  -0.4410  -0.4284  -0.3948  -0.3677  -0.3421  -0.2906
    -0.2684  -0.2395  -0.2217  -0.2046  -0.1806  -0.1723  -0.1584  -0.1355
    -0.0903  -0.0780  -0.0623  -0.0454  -0.0291  -0.0192   0.0250   0.0713
     0.0985   0.1161   0.1259   0.1319   0.1455   0.1714   0.2027   0.2292
     0.2377   0.2519   0.3021   0.3078   0.3350   0.3537   0.3757   0.4013
     0.4080   0.4271   0.4473   0.4669   0.4777   0.4949   0.5126   0.5637
     0.6001   0.6537   0.7203   0.7432   0.7711   0.7936   0.8214   0.8317
     0.8568   0.8699   0.8848   0.9477   0.9925   1.0274   1.0392   1.0619
     1.0902   1.1000   1.1465   1.1742   1.1924   1.2157   1.2358   1.2904
     1.3758   1.4105   1.4474   1.4534   1.5030   1.5427   1.5769   1.5810
     1.5934   1.6050   1.6136   1.6293   1.6531   1.6743   1.6826   1.6941
     1.7365   1.7606   1.7625   1.7782   1.7824   1.7847   1.7941   1.7977
     1.8154   1.8497   1.8571   1.8856   1.8930   1.9104   1.9162   1.9355
     1.9974   2.0700   2.2152   2.3401   2.4374   2.6468   2.7129   2.7949
     2.8388   2.9185

          k = 0.2000-0.3464 0.0000 ( 36608 PWs)   bands (ev):

   -21.9532  -9.3401  -7.3804  -6.3282  -6.0766  -6.0304  -5.6855  -5.5492
    -5.3975  -5.0133  -4.6229  -4.5658  -4.2666  -4.2431  -3.9015  -3.4438
    -3.4372  -3.4305  -3.4123  -3.3029  -3.1465  -3.1414  -3.1076  -2.9069
    -2.7651  -2.6978  -2.6840  -2.6264  -2.6019  -2.5676  -2.5643  -2.4819
    -2.4765  -2.4619  -2.4258  -2.3240  -2.2917  -2.2366  -2.0897  -2.0858
    -2.0581  -2.0135  -1.9571  -1.9449  -1.9168  -1.7985  -1.7467  -1.7222
    -1.6520  -1.5971  -1.5733  -1.5650  -1.5559  -1.5405  -1.5343  -1.5116
    -1.4875  -1.4712  -1.4259  -1.3991  -1.3538  -1.2935  -1.2005  -1.1588
    -1.1025  -1.0755  -0.9972  -0.9210  -0.8924  -0.8740  -0.8645  -0.8325
    -0.8079  -0.7868  -0.7421  -0.7150  -0.7131  -0.6922  -0.6767  -0.6489
    -0.6376  -0.6300  -0.6036  -0.5929  -0.5020  -0.4838  -0.4382  -0.4255
    -0.4098  -0.3950  -0.3555  -0.3407  -0.3170  -0.3102  -0.2941  -0.2741
    -0.2639  -0.2548  -0.2370  -0.2148  -0.1996  -0.1813  -0.1504  -0.1365
    -0.1301  -0.1230  -0.1136  -0.0850  -0.0797  -0.0667  -0.0636  -0.0449
     0.0300   0.0392   0.0482   0.0888   0.1314   0.1602   0.2001   0.2288
     0.2427   0.2616   0.2932   0.3216   0.3536   0.3635   0.3745   0.3776
     0.3848   0.4131   0.4491   0.4657   0.5133   0.5794   0.6550   0.6901
     0.7464   0.7493   0.8120   0.8204   0.8299   0.8500   0.8666   0.8786
     0.8923   0.9099   0.9224   0.9296   0.9735   1.0333   1.0647   1.0862
     1.1193   1.1416   1.1558   1.1830   1.1981   1.2368   1.2582   1.3083
     1.3215   1.3969   1.4525   1.4862   1.5006   1.5212   1.5266   1.5447
     1.5559   1.5622   1.5869   1.5949   1.6590   1.6626   1.6719   1.6801
     1.7036   1.7257   1.7283   1.7468   1.7593   1.7640   1.7760   1.8005
     1.8117   1.8180   1.8253   1.8338   1.8501   1.8576   1.9073   1.9365
     1.9416   1.9960   2.0422   2.0681   2.1662   2.2106   2.3597   2.4484
     2.5248   2.5478

          k = 0.4000-0.2309 0.0000 ( 36606 PWs)   bands (ev):

   -21.9532  -9.3364  -7.2431  -6.5760  -6.2035  -5.8433  -5.6045  -5.4217
    -5.2370  -5.1551  -5.0872  -4.7418  -4.1205  -4.0371  -3.8198  -3.4725
    -3.4623  -3.4008  -3.3409  -3.1620  -3.0872  -3.0185  -2.9889  -2.8683
    -2.8611  -2.7969  -2.7533  -2.7035  -2.6498  -2.6224  -2.6073  -2.5631
    -2.5429  -2.4235  -2.3396  -2.3210  -2.2454  -2.2198  -2.1279  -2.1237
    -2.1116  -2.0838  -2.0499  -1.8338  -1.8140  -1.8030  -1.7716  -1.7251
    -1.6074  -1.5994  -1.5879  -1.5686  -1.5613  -1.5346  -1.5311  -1.5004
    -1.4924  -1.4241  -1.4186  -1.3979  -1.3727  -1.3521  -1.2125  -1.1842
    -1.0782  -1.0454  -0.9588  -0.9371  -0.9288  -0.8922  -0.8741  -0.8628
    -0.8473  -0.8187  -0.7905  -0.7736  -0.7286  -0.7016  -0.6799  -0.6393
    -0.6251  -0.6060  -0.5860  -0.5732  -0.5390  -0.5023  -0.4760  -0.4101
    -0.4023  -0.3872  -0.3674  -0.3321  -0.3013  -0.2891  -0.2655  -0.2448
    -0.2138  -0.2110  -0.1962  -0.1811  -0.1723  -0.1645  -0.1357  -0.1266
    -0.1056  -0.0939  -0.0820  -0.0650  -0.0564  -0.0509  -0.0400  -0.0146
    -0.0037   0.0205   0.0748   0.1189   0.1371   0.1446   0.1578   0.1998
     0.2094   0.2162   0.2431   0.2815   0.2970   0.3137   0.3339   0.3412
     0.3888   0.3991   0.4069   0.4204   0.4592   0.5510   0.5808   0.5987
     0.6583   0.6736   0.7017   0.7669   0.8130   0.8469   0.8682   0.8863
     0.9094   0.9275   0.9414   0.9673   0.9889   1.0766   1.1510   1.1681
     1.1796   1.2034   1.2377   1.2460   1.2791   1.2991   1.3194   1.3401
     1.3675   1.3819   1.3901   1.4518   1.4757   1.4860   1.5249   1.5366
     1.5459   1.5499   1.5686   1.5814   1.6063   1.6198   1.6293   1.6578
     1.6655   1.7023   1.7556   1.7667   1.7851   1.7917   1.8034   1.8242
     1.8299   1.8568   1.8621   1.8731   1.8911   1.8963   1.9048   1.9108
     1.9529   2.0083   2.0548   2.1182   2.1365   2.2077   2.5446   2.6087
     2.6453   2.6915

          k = 0.4000 0.0000 0.0000 ( 36608 PWs)   bands (ev):

   -21.9532  -9.3382  -7.3840  -6.3290  -6.1195  -6.0146  -5.6920  -5.4828
    -5.4219  -5.0134  -4.6941  -4.4546  -4.2742  -4.2638  -3.9109  -3.4477
    -3.4351  -3.4301  -3.4121  -3.2729  -3.1569  -3.1310  -3.1140  -2.9228
    -2.7671  -2.6880  -2.6799  -2.6673  -2.5946  -2.5661  -2.5497  -2.4820
    -2.4707  -2.4621  -2.4300  -2.3229  -2.3181  -2.2446  -2.0900  -2.0775
    -2.0521  -1.9929  -1.9689  -1.9530  -1.9267  -1.7983  -1.7424  -1.7307
    -1.6224  -1.6114  -1.5691  -1.5640  -1.5566  -1.5396  -1.5280  -1.5045
    -1.4869  -1.4801  -1.4236  -1.3821  -1.3414  -1.3005  -1.2003  -1.1639
    -1.1103  -1.0683  -0.9968  -0.9579  -0.8991  -0.8736  -0.8636  -0.8379
[...]
     atom    8 type  1   force =     0.00002690   -0.00220047   -0.10288497
     atom    9 type  1   force =    -0.00090721    0.00108819   -0.10448457
     atom   10 type  1   force =    -0.00061142   -0.00014238   -0.01530602
     atom   11 type  1   force =     0.00144170   -0.00215789   -0.00996219
     atom   12 type  1   force =    -0.00097570    0.00130239   -0.01150072
     atom   13 type  1   force =    -0.00127877    0.00220891   -0.00979992
     atom   14 type  1   force =     0.00157995    0.00091221   -0.00535890
     atom   15 type  1   force =    -0.00026671    0.00032917   -0.01024514
     atom   16 type  1   force =     0.00064206   -0.00138394   -0.01140571
     atom   17 type  1   force =    -0.00002808   -0.00053173   -0.01032922
     atom   18 type  1   force =    -0.00085928   -0.00048474   -0.01300768
     atom   19 type  1   force =    -0.00206401   -0.00512580    0.00042962
     atom   20 type  1   force =    -0.00457080   -0.00314993    0.00014295
     atom   21 type  1   force =     0.00755730   -0.00737294   -0.00208279
     atom   22 type  1   force =     0.00173054    0.00440033    0.00774015
     atom   23 type  1   force =    -0.00243755    0.01051867   -0.00216643
     atom   24 type  1   force =     0.00022066    0.00029291    0.01252692
     atom   25 type  1   force =     0.00017419    0.00011955    0.01897727
     atom   26 type  1   force =    -0.00507815    0.00056474    0.00165448
     atom   27 type  1   force =     0.00426975   -0.00066966    0.00813182
     atom   28 type  1   force =     0.00335972    0.00165928    0.12165345
     atom   29 type  1   force =     0.00197092    0.05043647    0.11743793
     atom   30 type  1   force =    -0.00495698    0.00860140    0.12924739
     atom   31 type  1   force =     0.04543421   -0.02311362    0.10963951
     atom   32 type  1   force =    -0.05445067   -0.02988451    0.04795524
     atom   33 type  1   force =    -0.00676875    0.00609821    0.09524474
     atom   34 type  1   force =     0.00473935   -0.00941333    0.12972238
     atom   35 type  1   force =     0.00129236   -0.01230528    0.10003665
     atom   36 type  1   force =    -0.00244185   -0.00121275    0.10981575
     atom   37 type  2   force =    -0.06649701   -0.06015233    0.39553326
     atom   38 type  3   force =     0.30480946    0.25246975   -2.65951109
     atom   39 type  4   force =    -0.00323923   -0.00215127   -0.02193244
     The ionic contribution  to forces
     atom    1 type  1   force =    -0.00724778   -0.00081076 -111.16857743
     atom    2 type  1   force =    -0.00157970   -0.00101619 -111.18635034
     atom    3 type  1   force =     0.00882749   -0.00211417 -111.17175598
     atom    4 type  1   force =    -0.00458428    0.00798555 -111.16797377
     atom    5 type  1   force =     0.00267222    0.00874245 -111.17177513
     atom    6 type  1   force =     0.00191204    0.00119424 -111.16269749
     atom    7 type  1   force =    -0.00030711   -0.00016623 -111.15941385
     atom    8 type  1   force =    -0.00423742   -0.00591054 -111.16842078
     atom    9 type  1   force =     0.00454453   -0.00790435 -111.16779497
     atom   10 type  1   force =    -0.04363542   -0.02563633  -40.10247173
     atom   11 type  1   force =    -0.00255424   -0.06884870  -40.19664392
     atom   12 type  1   force =     0.04618922   -0.03935837  -40.10770984
     atom   13 type  1   force =    -0.06056670    0.03162894  -40.19807699
     atom   14 type  1   force =     0.04645085    0.02645823  -40.22561712
     atom   15 type  1   force =     0.01411170    0.00496509  -40.10677481
     atom   16 type  1   force =    -0.01058174    0.06027612  -40.10829015
     atom   17 type  1   force =     0.01162058    0.01033362  -40.10600455
     atom   18 type  1   force =    -0.00103545    0.00018092  -40.08438309
     atom   19 type  1   force =    -0.36272853   -0.03456733   31.40191503
     atom   20 type  1   force =    -0.07211316   -0.04859784   30.38471677
     atom   21 type  1   force =     0.43506091   -0.12335810   31.24157185
     atom   22 type  1   force =    -0.22306936    0.38663135   31.42659330
     atom   23 type  1   force =     0.11588886    0.44104742   31.24229828
     atom   24 type  1   force =     0.10621852    0.06544166   31.62917622
     atom   25 type  1   force =    -0.01202546   -0.00670037   31.78395832
     atom   26 type  1   force =    -0.20698955   -0.29830955   31.40855546
     atom   27 type  1   force =     0.21911217   -0.38236655   31.43515556
     atom   28 type  1   force =    -1.52652995   -0.89306610  104.02416265
     atom   29 type  1   force =    -0.03475533   -4.67169346  100.05955449
     atom   30 type  1   force =     1.54975933   -1.23923188  104.02263415
     atom   31 type  1   force =    -4.13793439    2.30061835   99.94358968
     atom   32 type  1   force =     3.00314989    1.70876256   98.93495804
     atom   33 type  1   force =     0.99501755   -0.17120521  103.85128099
     atom   34 type  1   force =    -0.28017227    1.99043887  104.01337540
     atom   35 type  1   force =     0.33784915    0.92578552  103.89322316
     atom   36 type  1   force =    -0.02091003    0.00711448  104.50145998
     atom   37 type  2   force =     0.77816078    0.68274090   51.29714527
     atom   38 type  3   force =    -1.18416089   -0.94745839   90.17423608
     atom   39 type  4   force =     0.52117294    0.30797415   15.09117123
     The local contribution  to forces
     atom    1 type  1   force =     0.00916064    0.00072373  111.27423750
     atom    2 type  1   force =     0.00183157    0.00138932  111.29617103
     atom    3 type  1   force =    -0.01098530    0.00297211  111.28051532
     atom    4 type  1   force =     0.00354489   -0.00745316  111.27380868
     atom    5 type  1   force =    -0.00296081   -0.01091823  111.28037044
     atom    6 type  1   force =    -0.00018419   -0.00020815  111.26603599
     atom    7 type  1   force =    -0.00047083   -0.00036483  111.26157604
     atom    8 type  1   force =     0.00498401    0.00736220  111.27390909
     atom    9 type  1   force =    -0.00458937    0.00667936  111.27387485
     atom   10 type  1   force =     0.04427463    0.02608467   40.10062644
     atom   11 type  1   force =     0.00041952    0.06906524   40.18709251
     atom   12 type  1   force =    -0.04459413    0.03777892   40.10209983
     atom   13 type  1   force =     0.05979719   -0.03360042   40.18852828
     atom   14 type  1   force =    -0.04656803   -0.02663458   40.21225086
     atom   15 type  1   force =    -0.01318550   -0.00591179   40.09580767
     atom   16 type  1   force =     0.00980427   -0.05807474   40.10258987
     atom   17 type  1   force =    -0.01187027   -0.00882818   40.09527542
     atom   18 type  1   force =     0.00253392    0.00083293   40.07577562
     atom   19 type  1   force =     0.36218418    0.03710728  -31.38614965
     atom   20 type  1   force =     0.07802301    0.05264521  -30.36979037
     atom   21 type  1   force =    -0.44159325    0.12736858  -31.22717328
     atom   22 type  1   force =     0.22303768   -0.38725888  -31.41767105
     atom   23 type  1   force =    -0.11593164   -0.44866590  -31.22750002
     atom   24 type  1   force =    -0.10552016   -0.06537101  -31.61835626
     atom   25 type  1   force =     0.01123231    0.00620719  -31.77651718
     atom   26 type  1   force =     0.20847178    0.29644423  -31.39283441
     atom   27 type  1   force =    -0.21940313    0.38245699  -31.42601721
     atom   28 type  1   force =     1.51884370    0.88873097 -104.15463345
     atom   29 type  1   force =     0.03185517    4.60404732 -100.17891624
     atom   30 type  1   force =    -1.53894431    1.22089835 -104.16101896
     atom   31 type  1   force =     4.07608870   -2.26941200 -100.05374258
     atom   32 type  1   force =    -2.95195701   -1.68092730  -98.97056069
     atom   33 type  1   force =    -0.98226325    0.16279704 -103.94914288
     atom   34 type  1   force =     0.27018505   -1.97081808 -104.15202559
     atom   35 type  1   force =    -0.33866614   -0.90834143 -103.99562971
     atom   36 type  1   force =     0.02633031   -0.00455821 -104.62119247
     atom   37 type  2   force =    -0.71191251   -0.62428584  -51.69409551
     atom   38 type  3   force =     0.88575178    0.69992710  -87.52830557
     atom   39 type  4   force =    -0.50542753   -0.29770988  -15.07512597
     The core correction contribution to forces
     atom    1 type  1   force =    -0.00014847   -0.00005661    0.01022208
     atom    2 type  1   force =     0.00027951    0.00020697    0.00897161
     atom    3 type  1   force =    -0.00011990   -0.00010388    0.01040782
     atom    4 type  1   force =    -0.00008866   -0.00003353    0.01016640
     atom    5 type  1   force =    -0.00012460   -0.00007811    0.01041259
     atom    6 type  1   force =     0.00018963    0.00008357    0.01014673
     atom    7 type  1   force =     0.00015589    0.00005813    0.01052437
     atom    8 type  1   force =    -0.00004771   -0.00009940    0.01022259
     atom    9 type  1   force =    -0.00009756   -0.00007029    0.01015011
     atom   10 type  1   force =    -0.00017697   -0.00009414   -0.00188067
     atom   11 type  1   force =    -0.00010390   -0.00016893   -0.00193220
     atom   12 type  1   force =     0.00023708   -0.00036411   -0.00171196
     atom   13 type  1   force =    -0.00020186    0.00001259   -0.00195253
     atom   14 type  1   force =     0.00025682    0.00015248   -0.00180720
     atom   15 type  1   force =    -0.00001240    0.00016102   -0.00188830
     atom   16 type  1   force =    -0.00021601    0.00041431   -0.00171955
     atom   17 type  1   force =     0.00013273   -0.00006364   -0.00186591
     atom   18 type  1   force =     0.00012303    0.00006053   -0.00160008
     atom   19 type  1   force =     0.00026402   -0.00074036    0.00132542
     atom   20 type  1   force =    -0.00099956   -0.00061474    0.00137012
     atom   21 type  1   force =     0.00092347   -0.00071319    0.00073103
     atom   22 type  1   force =    -0.00000387    0.00089649    0.00130101
     atom   23 type  1   force =    -0.00018255    0.00120571    0.00069884
     atom   24 type  1   force =     0.00041461    0.00021078    0.00219860
     atom   25 type  1   force =     0.00003690    0.00002559    0.00192750
     atom   26 type  1   force =    -0.00050218    0.00058475    0.00140449
     atom   27 type  1   force =     0.00071679   -0.00043536    0.00137488
     atom   28 type  1   force =     0.00190512    0.00118299   -0.00944604
     atom   29 type  1   force =     0.00027910    0.00894864   -0.00487344
     atom   30 type  1   force =    -0.00238845    0.00360463   -0.00815462
     atom   31 type  1   force =     0.00830037   -0.00416655   -0.00515303
     atom   32 type  1   force =    -0.00133902   -0.00061086    0.00015065
     atom   33 type  1   force =    -0.00896614    0.00397018   -0.00590973
     atom   34 type  1   force =     0.00166906   -0.00404714   -0.00818833
     atom   35 type  1   force =    -0.00083141   -0.00953277   -0.00600494
     atom   36 type  1   force =    -0.00105134   -0.00074391   -0.01038967
     atom   37 type  2   force =     0.00066554    0.00101916   -0.00256567
     atom   38 type  3   force =    -0.00228196   -0.00188451    0.01949318
     atom   39 type  4   force =     0.00000000    0.00000000    0.00000000
     The Hubbard contrib.    to forces
     atom    1 type  1   force =     0.00000000    0.00000000    0.00000000
     atom    2 type  1   force =     0.00000000    0.00000000    0.00000000
     atom    3 type  1   force =     0.00000000    0.00000000    0.00000000
     atom    4 type  1   force =     0.00000000    0.00000000    0.00000000
     atom    5 type  1   force =     0.00000000    0.00000000    0.00000000
     atom    6 type  1   force =     0.00000000    0.00000000    0.00000000
     atom    7 type  1   force =     0.00000000    0.00000000    0.00000000
     atom    8 type  1   force =     0.00000000    0.00000000    0.00000000
     atom    9 type  1   force =     0.00000000    0.00000000    0.00000000
     atom   10 type  1   force =     0.00000000    0.00000000    0.00000000
     atom   11 type  1   force =     0.00000000    0.00000000    0.00000000
     atom   12 type  1   force =     0.00000000    0.00000000    0.00000000
     atom   13 type  1   force =     0.00000000    0.00000000    0.00000000
     atom   14 type  1   force =     0.00000000    0.00000000    0.00000000
     atom   15 type  1   force =     0.00000000    0.00000000    0.00000000
     atom   16 type  1   force =     0.00000000    0.00000000    0.00000000
     atom   17 type  1   force =     0.00000000    0.00000000    0.00000000
     atom   18 type  1   force =     0.00000000    0.00000000    0.00000000
     atom   19 type  1   force =     0.00000000    0.00000000    0.00000000
     atom   20 type  1   force =     0.00000000    0.00000000    0.00000000
     atom   21 type  1   force =     0.00000000    0.00000000    0.00000000
     atom   22 type  1   force =     0.00000000    0.00000000    0.00000000
     atom   23 type  1   force =     0.00000000    0.00000000    0.00000000
     atom   24 type  1   force =     0.00000000    0.00000000    0.00000000
     atom   25 type  1   force =     0.00000000    0.00000000    0.00000000
     atom   26 type  1   force =     0.00000000    0.00000000    0.00000000
     atom   27 type  1   force =     0.00000000    0.00000000    0.00000000
     atom   28 type  1   force =     0.00000000    0.00000000    0.00000000
     atom   29 type  1   force =     0.00000000    0.00000000    0.00000000
     atom   30 type  1   force =     0.00000000    0.00000000    0.00000000
     atom   31 type  1   force =     0.00000000    0.00000000    0.00000000
     atom   32 type  1   force =     0.00000000    0.00000000    0.00000000
     atom   33 type  1   force =     0.00000000    0.00000000    0.00000000
     atom   34 type  1   force =     0.00000000    0.00000000    0.00000000
     atom   35 type  1   force =     0.00000000    0.00000000    0.00000000
     atom   36 type  1   force =     0.00000000    0.00000000    0.00000000
     atom   37 type  2   force =     0.00000000    0.00000000    0.00000000
     atom   38 type  3   force =     0.00000000    0.00000000    0.00000000
     atom   39 type  4   force =     0.00000000    0.00000000    0.00000000
     The SCF correction term to forces
     atom    1 type  1   force =    -0.00000000    0.00000000    0.00000000
     atom    2 type  1   force =     0.00000000    0.00000000    0.00000000
     atom    3 type  1   force =    -0.00000000    0.00000000    0.00000000
     atom    4 type  1   force =    -0.00000000    0.00000000    0.00000000
     atom    5 type  1   force =     0.00000000   -0.00000000    0.00000000
     atom    6 type  1   force =    -0.00000000    0.00000000    0.00000000
     atom    7 type  1   force =    -0.00000000   -0.00000000    0.00000000
     atom    8 type  1   force =     0.00000000   -0.00000000    0.00000000
     atom    9 type  1   force =     0.00000000   -0.00000000    0.00000000
     atom   10 type  1   force =     0.00000000    0.00000000    0.00000000
     atom   11 type  1   force =     0.00000000   -0.00000000    0.00000000
     atom   12 type  1   force =    -0.00000000   -0.00000000    0.00000000
     atom   13 type  1   force =    -0.00000000    0.00000000    0.00000000
     atom   14 type  1   force =    -0.00000000   -0.00000000    0.00000000
     atom   15 type  1   force =     0.00000000    0.00000000    0.00000000
     atom   16 type  1   force =    -0.00000000   -0.00000000    0.00000000
     atom   17 type  1   force =     0.00000000   -0.00000000   -0.00000000
     atom   18 type  1   force =    -0.00000000   -0.00000000   -0.00000000
     atom   19 type  1   force =     0.00000000   -0.00000000   -0.00000000
     atom   20 type  1   force =    -0.00000000   -0.00000000   -0.00000000
     atom   21 type  1   force =     0.00000000   -0.00000000   -0.00000000
     atom   22 type  1   force =    -0.00000000   -0.00000000   -0.00000000
     atom   23 type  1   force =    -0.00000000    0.00000000   -0.00000000
     atom   24 type  1   force =     0.00000000    0.00000000   -0.00000000
     atom   25 type  1   force =    -0.00000000    0.00000000   -0.00000000
     atom   26 type  1   force =     0.00000000    0.00000000   -0.00000000
     atom   27 type  1   force =    -0.00000000   -0.00000000   -0.00000000
     atom   28 type  1   force =     0.00000000    0.00000000   -0.00000000
     atom   29 type  1   force =    -0.00000000    0.00000000   -0.00000000
     atom   30 type  1   force =    -0.00000000   -0.00000000   -0.00000000
     atom   31 type  1   force =    -0.00000000   -0.00000000   -0.00000000
     atom   32 type  1   force =    -0.00000000   -0.00000000   -0.00000000
     atom   33 type  1   force =     0.00000000   -0.00000000   -0.00000000
     atom   34 type  1   force =    -0.00000000    0.00000000   -0.00000000
     atom   35 type  1   force =     0.00000000    0.00000000   -0.00000000
     atom   36 type  1   force =     0.00000000    0.00000000   -0.00000000
     atom   37 type  2   force =    -0.00021674   -0.00014582   -0.00012086
     atom   38 type  3   force =    -0.00008418   -0.00005877   -0.00026732
     atom   39 type  4   force =     0.00001473   -0.00000574    0.00002586

     Total force =     0.018199     Total SCF correction =     0.000407

     Writing all to output data dir ./pwscf.save/

     init_run     :     10.82s CPU     11.22s WALL (       1 calls)
     electrons    :    507.18s CPU    513.64s WALL (       1 calls)
     forces       :      2.88s CPU      2.92s WALL (       1 calls)

     Called by init_run:
     wfcinit      :      7.58s CPU      7.86s WALL (       1 calls)
     potinit      :      2.15s CPU      2.23s WALL (       1 calls)
     hinit0       :      0.85s CPU      0.86s WALL (       1 calls)

     Called by electrons:
     c_bands      :    428.81s CPU    433.93s WALL (      39 calls)
     sum_band     :     52.54s CPU     53.34s WALL (      39 calls)
     v_of_rho     :      6.48s CPU      6.60s WALL (      40 calls)
     newd         :      2.12s CPU      2.16s WALL (      40 calls)
     PAW_pot      :      9.96s CPU     10.06s WALL (      40 calls)
     mix_rho      :      8.62s CPU      8.78s WALL (      39 calls)
     vdW_kernel   :      1.06s CPU      1.07s WALL (       1 calls)

     Called by c_bands:
     init_us_2    :      5.06s CPU      5.15s WALL (    2080 calls)
     init_us_2:cp :      5.04s CPU      5.14s WALL (    2080 calls)
     cegterg      :    415.76s CPU    420.61s WALL (    1014 calls)

     Called by *egterg:
     cdiaghg      :    156.88s CPU    157.87s WALL (    3473 calls)
     h_psi        :    181.18s CPU    184.30s WALL (    3499 calls)
     s_psi        :     21.66s CPU     21.88s WALL (    3499 calls)
     g_psi        :      0.43s CPU      0.44s WALL (    2459 calls)

     Called by h_psi:
     h_psi:calbec :     28.92s CPU     29.59s WALL (    3499 calls)
     vloc_psi     :    128.53s CPU    130.70s WALL (    3499 calls)
     add_vuspsi   :     22.65s CPU     22.90s WALL (    3499 calls)

     General routines
     calbec       :     42.84s CPU     43.66s WALL (    4617 calls)
     fft          :      3.67s CPU      3.77s WALL (    3637 calls)
     ffts         :      5.69s CPU      5.79s WALL (   14154 calls)
     fftw         :    146.36s CPU    148.83s WALL ( 1060648 calls)
     interpolate  :      0.48s CPU      0.48s WALL (      80 calls)

     Parallel routines

     PWSCF        :   8m46.14s CPU   8m57.69s WALL


   This run was terminated on:  14: 4:22  21Nov2025            

=------------------------------------------------------------------------------=
   JOB DONE.
=------------------------------------------------------------------------------=
