
     Program PWSCF v.7.1 starts on  6Dec2025 at 15:26:10 
        Git branch: heads/qe-7.1
        Last git commit: 48ba0178f8fede6d020eb786884699a9f063f55d-dirty
        Last git commit date: Fri Jan 27 14:22:33 2023 +0000
        Last git commit subject: Merge branch 'fix_hubbard' into 'develop'

     This program is part of the open-source Quantum ESPRESSO suite
     for quantum simulation of materials; please cite
         "P. Giannozzi et al., J. Phys.:Condens. Matter 21 395502 (2009);
         "P. Giannozzi et al., J. Phys.:Condens. Matter 29 465901 (2017);
         "P. Giannozzi et al., J. Chem. Phys. 152 154105 (2020);
          URL http://www.quantum-espresso.org", 
     in publications or presentations arising from this work. More details at
     http://www.quantum-espresso.org/quote

     Parallel version (MPI), running on    48 processors

     MPI processes distributed on     1 nodes
     37598 MiB available memory on the printing compute node when the environment starts

     Reading input from espresso.pwi
Warning: card &CELL ignored
Warning: card / ignored
Warning: card &FCP ignored
Warning: card / ignored
Warning: card &RISM ignored
Warning: card / ignored

     Current dimensions of program PWSCF are:
     Max number of different atomic species (ntypx) = 10
     Max number of k-points (npk) =  40000
     Max angular momentum in pseudopotentials (lmaxx) =  4
     file Pt.pbe-n-kjpaw_psl.1.0.0.UPF: wavefunction(s)  6S 5D renormalized
     file C.pbe-n-kjpaw_psl.1.0.0.UPF: wavefunction(s)  2S 2P renormalized
     file H.pbe-kjpaw_psl.1.0.0.UPF: wavefunction(s)  1S renormalized

     **************************************************************************
     Initializing libbeef V0.1.2 with the BEEF-vdW functional.
     Citation: Wellendorff et al., PRB 85, 235149 (2012).
     **************************************************************************


     IMPORTANT: XC functional enforced from input :
     Exchange-correlation= BEEF-VDW
                           (   1   4  43  14   2   0   0)
     Any further DFT definition will be discarded
     Please, verify this is what you really want


     R & G space division:  proc/nbgrp/npool/nimage =      48
     Subspace diagonalization in iterative solution of the eigenvalue problem:
     one sub-group per band group will be used
     custom distributed-memory algorithm (size of sub-group:  2*  2 procs)


     Parallelization info
     --------------------
     sticks:   dense  smooth     PW     G-vecs:    dense   smooth      PW
     Min         151      59     16                29407     7165    1028
     Max         152      60     17                29420     7176    1042
     Sum        7267    2839    769              1411785   344073   49691

     Using Slab Decomposition



     bravais-lattice index     =            0
     lattice parameter (alat)  =      16.0349  a.u.
     unit-cell volume          =   10068.6169 (a.u.)^3
     number of atoms/cell      =           39
     number of atomic types    =            3
     number of electrons       =       369.00
     number of Kohn-Sham states=          222
     kinetic-energy cutoff     =      40.0000  Ry
     charge density cutoff     =     410.0000  Ry
     scf convergence threshold =      1.0E-06
     mixing beta               =       0.7000
     number of iterations used =            8  local-TF  mixing
     Exchange-correlation= BEEF-VDW
                           (   1   4  43  14   2   0   0)

     celldm(1)=  16.034858  celldm(2)=   0.000000  celldm(3)=   0.000000
     celldm(4)=   0.000000  celldm(5)=   0.000000  celldm(6)=   0.000000

     crystal axes: (cart. coord. in units of alat)
               a(1) = (   1.000000   0.000000   0.000000 )  
               a(2) = (   0.500000   0.866025   0.000000 )  
               a(3) = (   0.000000   0.000000   2.819966 )  

     reciprocal axes: (cart. coord. in units 2 pi/alat)
               b(1) = (  1.000000 -0.577350  0.000000 )  
               b(2) = (  0.000000  1.154701  0.000000 )  
               b(3) = (  0.000000  0.000000  0.354614 )  


     PseudoPot. # 1 for Pt read from file:
     /users/kbadger1/espresso/pseudo/pslibrary.1.0.0/pbe/PSEUDOPOTENTIALS/Pt.pbe-n-kjpaw_psl.1.0.0.UPF
     MD5 check sum: 2e24a0b5bf98a4ed1a57fa81bca8c143
     Pseudo is Projector augmented-wave + core cor, Zval = 10.0
     Generated using 'atomic' code by A. Dal Corso  v.7.0
     Shape of augmentation charge: PSQ
     Using radial grid of 1277 points,  6 beta functions with: 
                l(1) =   0
                l(2) =   0
                l(3) =   1
                l(4) =   1
                l(5) =   2
                l(6) =   2
     Q(r) pseudized with 0 coefficients 


     PseudoPot. # 2 for C  read from file:
     /users/kbadger1/espresso/pseudo/pslibrary.1.0.0/pbe/PSEUDOPOTENTIALS/C.pbe-n-kjpaw_psl.1.0.0.UPF
     MD5 check sum: 6408e75cdba28732cea38a4db8498ce4
     Pseudo is Projector augmented-wave + core cor, Zval =  4.0
     Generated using 'atomic' code by A. Dal Corso  v.7.0
     Shape of augmentation charge: PSQ
     Using radial grid of 1073 points,  4 beta functions with: 
                l(1) =   0
                l(2) =   0
                l(3) =   1
                l(4) =   1
     Q(r) pseudized with 0 coefficients 


     PseudoPot. # 3 for H  read from file:
     /users/kbadger1/espresso/pseudo/pslibrary.1.0.0/pbe/PSEUDOPOTENTIALS/H.pbe-kjpaw_psl.1.0.0.UPF
     MD5 check sum: fe4c6fa958fa6d3815bf5d2419cbf1df
     Pseudo is Projector augmented-wave, Zval =  1.0
     Generated using 'atomic' code by A. Dal Corso  v.7.0
     Shape of augmentation charge: PSQ
     Using radial grid of  929 points,  2 beta functions with: 
                l(1) =   0
                l(2) =   0
     Q(r) pseudized with 0 coefficients 


     atomic species   valence    mass     pseudopotential
        Pt            10.00   195.08400     Pt( 1.00)
        C              4.00    12.01100     C ( 1.00)
        H              1.00     1.00800     H ( 1.00)

     No symmetry found



   Cartesian axes

     site n.     atom                  positions (alat units)
         1           Pt  tau(   1) = (   0.0000000   0.0000000   1.0017346  )
         2           Pt  tau(   2) = (   0.3333333   0.0000000   1.0017346  )
         3           Pt  tau(   3) = (   0.6666667   0.0000000   1.0017346  )
         4           Pt  tau(   4) = (   0.1666667   0.2886751   1.0017346  )
         5           Pt  tau(   5) = (   0.5000000   0.2886751   1.0017346  )
         6           Pt  tau(   6) = (   0.8333333   0.2886751   1.0017346  )
         7           Pt  tau(   7) = (   0.3333333   0.5773503   1.0017346  )
         8           Pt  tau(   8) = (   0.6666667   0.5773503   1.0017346  )
         9           Pt  tau(   9) = (   1.0000000   0.5773503   1.0017346  )
        10           Pt  tau(  10) = (   0.1666667   0.0962250   1.2739001  )
        11           Pt  tau(  11) = (   0.5000000   0.0962250   1.2739001  )
        12           Pt  tau(  12) = (   0.8333333   0.0962250   1.2739001  )
        13           Pt  tau(  13) = (   0.3333333   0.3849002   1.2739001  )
        14           Pt  tau(  14) = (   0.6666667   0.3849002   1.2739001  )
        15           Pt  tau(  15) = (   1.0000000   0.3849002   1.2739001  )
        16           Pt  tau(  16) = (   0.5000000   0.6735753   1.2739001  )
        17           Pt  tau(  17) = (   0.8333333   0.6735753   1.2739001  )
        18           Pt  tau(  18) = (   1.1666667   0.6735753   1.2739001  )
        19           Pt  tau(  19) = (   0.0035041   0.1913578   1.5513253  )
        20           Pt  tau(  20) = (   0.3297359   0.1913496   1.5513145  )
        21           Pt  tau(  21) = (   0.6666354   0.1929045   1.5384877  )
        22           Pt  tau(  22) = (   0.1666170   0.4775197   1.5514355  )
        23           Pt  tau(  23) = (   0.4970714   0.4809322   1.5446281  )
        24           Pt  tau(  24) = (   0.8361847   0.4809323   1.5446219  )
        25           Pt  tau(  25) = (   0.3354197   0.7695845   1.5474848  )
        26           Pt  tau(  26) = (   0.6666302   0.7701467   1.5466320  )
        27           Pt  tau(  27) = (   0.9978390   0.7695751   1.5474758  )
        28           Pt  tau(  28) = (  -0.0056300  -0.0020351   1.8338178  )
        29           Pt  tau(  29) = (   0.3388135  -0.0020056   1.8338164  )
        30           Pt  tau(  30) = (   0.6665969   0.0057932   1.8143473  )
        31           Pt  tau(  31) = (   0.1665396   0.3063054   1.8705481  )
        32           Pt  tau(  32) = (   0.5043955   0.2862750   1.8141983  )
        33           Pt  tau(  33) = (   0.8287752   0.2862713   1.8141954  )
        34           Pt  tau(  34) = (   0.3432000   0.5823317   1.8307338  )
        35           Pt  tau(  35) = (   0.6665861   0.5701019   1.8130779  )
        36           Pt  tau(  36) = (   0.9899421   0.5823485   1.8307232  )
        37           C   tau(  37) = (   0.1665870   0.0815106   1.9564877  )
        38           H   tau(  38) = (   0.1664925   0.2304016   2.0547613  )
        39           C   tau(  39) = (   0.1665624   0.5332719   1.9601566  )

     number of k points=    13  Marzari-Vanderbilt smearing, width (Ry)=  0.0010
                       cart. coord. in units 2pi/alat
        k(    1) = (   0.0000000   0.0000000   0.0000000), wk =   0.0800000
        k(    2) = (   0.0000000   0.2309401   0.0000000), wk =   0.1600000
        k(    3) = (   0.0000000   0.4618802   0.0000000), wk =   0.1600000
        k(    4) = (   0.2000000  -0.1154701   0.0000000), wk =   0.1600000
        k(    5) = (   0.2000000   0.1154701   0.0000000), wk =   0.1600000
        k(    6) = (   0.2000000   0.3464102   0.0000000), wk =   0.1600000
        k(    7) = (   0.2000000  -0.5773503   0.0000000), wk =   0.1600000
        k(    8) = (   0.2000000  -0.3464102   0.0000000), wk =   0.1600000
        k(    9) = (   0.4000000  -0.2309401   0.0000000), wk =   0.1600000
        k(   10) = (   0.4000000  -0.0000000   0.0000000), wk =   0.1600000
        k(   11) = (   0.4000000   0.2309401   0.0000000), wk =   0.1600000
        k(   12) = (   0.4000000  -0.6928203   0.0000000), wk =   0.1600000
        k(   13) = (   0.4000000  -0.4618802   0.0000000), wk =   0.1600000

     Dense  grid:  1411785 G-vectors     FFT dimensions: ( 108, 108, 300)

     Smooth grid:   344073 G-vectors     FFT dimensions: (  72,  72, 192)

     Estimated max dynamical RAM per process >     207.37 MB

     Estimated total dynamical RAM >       9.72 GB

     Initial potential from superposition of free atoms

     starting charge     368.9938, renormalised to     369.0000

     negative rho (up, down):  3.212E-03 0.000E+00


     %%%%%%%%%%%%%%%%%%%%%%%%%%%%%%%%%%%%%%%%%%%%%%%%%%%%%%%%%%%%%%%%%%%%%%%%
     %                                                                      %
     % You are using vdW-DF, which was implemented by the Thonhauser group. %
     % Please cite the following two papers that made this development      %
     % possible and the two reviews that describe the various versions:     %
     %                                                                      %
     %   T. Thonhauser et al., PRL 115, 136402 (2015).                      %
     %   T. Thonhauser et al., PRB 76, 125112 (2007).                       %
     %   K. Berland et al., Rep. Prog. Phys. 78, 066501 (2015).             %
     %   D.C. Langreth et al., J. Phys.: Condens. Matter 21, 084203 (2009). %
     %                                                                      %
     % If you are calculating stress with vdW-DF, please also cite:         %
     %                                                                      %
     %   R. Sabatini et al., J. Phys.: Condens. Matter 24, 424209 (2012).   %
     %                                                                      %
     %%%%%%%%%%%%%%%%%%%%%%%%%%%%%%%%%%%%%%%%%%%%%%%%%%%%%%%%%%%%%%%%%%%%%%%%

     %%%%%%%%%%%%%%%%%%%%%%%%%%%%%%%%%%%%%%%%%%%%%%%%%%%%%%%%%%%%%%%%%%%%%%%%
     %                                                                      %
     %  vdW-DF NEWS:                                                        %
     %                                                                      %
     %  * vdW-DF3 is now available. DOI: 10.1021/acs.jctc.0c00471           %
     %    use with input_dft = 'vdW-DF3-opt1' or 'vdW-DF3-opt2'             %
     %                                                                      %
     %  * Unscreened and range-separated hybrid vdW-DF-cx functionals       %
     %    DOI: 10.1063/1.4986522 and 10.1088/1361-648X/ac2ad2               %
     %    use with input_dft = 'vdW-DF-cx0'    and 'vdW-DF-ahcx'            %
     %  * Unscreened and range-separated hybrid vdW-DF2-b86r functionals    %
     %    DOI: 10.1063/1.4986522 and DOI: 10.1103/PhysRevX.12.041003        %
     %    use with input_dft = 'vdW-DF2-br0' and 'vdW-DF2-ahbr'             %
     %                                                                      %
     %%%%%%%%%%%%%%%%%%%%%%%%%%%%%%%%%%%%%%%%%%%%%%%%%%%%%%%%%%%%%%%%%%%%%%%%


     Starting wfcs are  333 randomized atomic wfcs
     Checking if some PAW data can be deallocated... 

     total cpu time spent up to now is       11.7 secs

     per-process dynamical memory:   212.6 Mb

     Self-consistent Calculation

     iteration #  1     ecut=    40.00 Ry     beta= 0.70
     Davidson diagonalization with overlap
     ethr =  1.00E-02,  avg # of iterations =  2.0

     Threshold (ethr) on eigenvalues was too large:
     Diagonalizing with lowered threshold

     Davidson diagonalization with overlap
     ethr =  6.95E-04,  avg # of iterations =  2.7

     negative rho (up, down):  1.649E-02 0.000E+00

     total cpu time spent up to now is       45.5 secs

     total energy              =  -27792.76154799 Ry
     estimated scf accuracy    <       2.81732960 Ry

     iteration #  2     ecut=    40.00 Ry     beta= 0.70
     Davidson diagonalization with overlap
     ethr =  7.64E-04,  avg # of iterations =  2.0

     negative rho (up, down):  1.249E-02 0.000E+00

     total cpu time spent up to now is       62.9 secs

     total energy              =  -27793.12328079 Ry
     estimated scf accuracy    <       0.87471681 Ry

     iteration #  3     ecut=    40.00 Ry     beta= 0.70
     Davidson diagonalization with overlap
     ethr =  2.37E-04,  avg # of iterations =  2.0

     negative rho (up, down):  9.140E-03 0.000E+00

     total cpu time spent up to now is       76.2 secs

     total energy              =  -27793.20138595 Ry
     estimated scf accuracy    <       0.29737955 Ry

     iteration #  4     ecut=    40.00 Ry     beta= 0.70
     Davidson diagonalization with overlap
     ethr =  8.06E-05,  avg # of iterations =  9.5

     negative rho (up, down):  4.245E-03 0.000E+00

     total cpu time spent up to now is      101.2 secs

     total energy              =  -27793.23450589 Ry
     estimated scf accuracy    <       0.06110291 Ry

     iteration #  5     ecut=    40.00 Ry     beta= 0.70
     Davidson diagonalization with overlap
     ethr =  1.66E-05,  avg # of iterations =  9.2

     negative rho (up, down):  2.797E-03 0.000E+00

     total cpu time spent up to now is      135.0 secs

     total energy              =  -27793.25575351 Ry
     estimated scf accuracy    <       0.05489695 Ry

     iteration #  6     ecut=    40.00 Ry     beta= 0.70
     Davidson diagonalization with overlap
     ethr =  1.49E-05,  avg # of iterations =  2.0

     negative rho (up, down):  8.636E-04 0.000E+00

     total cpu time spent up to now is      153.4 secs

     total energy              =  -27793.25688843 Ry
     estimated scf accuracy    <       0.00815045 Ry

     iteration #  7     ecut=    40.00 Ry     beta= 0.70
     Davidson diagonalization with overlap
     c_bands:  1 eigenvalues not converged
     c_bands:  1 eigenvalues not converged
     c_bands:  1 eigenvalues not converged
     ethr =  2.21E-06,  avg # of iterations = 15.1

     negative rho (up, down):  3.847E-04 0.000E+00

     total cpu time spent up to now is      196.5 secs

     total energy              =  -27793.25851884 Ry
     estimated scf accuracy    <       0.00319468 Ry

     iteration #  8     ecut=    40.00 Ry     beta= 0.70
     Davidson diagonalization with overlap
     c_bands:  1 eigenvalues not converged
     c_bands:  1 eigenvalues not converged
     ethr =  8.66E-07,  avg # of iterations =  4.9

     negative rho (up, down):  2.709E-04 0.000E+00

     total cpu time spent up to now is      217.7 secs

     total energy              =  -27793.25884793 Ry
     estimated scf accuracy    <       0.00058726 Ry

     iteration #  9     ecut=    40.00 Ry     beta= 0.70
     Davidson diagonalization with overlap
     ethr =  1.59E-07,  avg # of iterations =  4.0

     negative rho (up, down):  2.573E-04 0.000E+00

     total cpu time spent up to now is      245.7 secs

     total energy              =  -27793.25902857 Ry
     estimated scf accuracy    <       0.00043690 Ry

     iteration # 10     ecut=    40.00 Ry     beta= 0.70
     Davidson diagonalization with overlap
     ethr =  1.18E-07,  avg # of iterations =  1.3

     negative rho (up, down):  2.863E-04 0.000E+00

     total cpu time spent up to now is      263.4 secs

     total energy              =  -27793.25905459 Ry
     estimated scf accuracy    <       0.00030188 Ry

     iteration # 11     ecut=    40.00 Ry     beta= 0.70
     Davidson diagonalization with overlap
     ethr =  8.18E-08,  avg # of iterations =  1.6

     negative rho (up, down):  3.556E-04 0.000E+00

     total cpu time spent up to now is      276.5 secs

     total energy              =  -27793.25908171 Ry
     estimated scf accuracy    <       0.00023430 Ry

     iteration # 12     ecut=    40.00 Ry     beta= 0.70
     Davidson diagonalization with overlap
     ethr =  6.35E-08,  avg # of iterations =  1.1

     negative rho (up, down):  4.935E-04 0.000E+00

     total cpu time spent up to now is      293.1 secs

     total energy              =  -27793.25910221 Ry
     estimated scf accuracy    <       0.00011713 Ry

     iteration # 13     ecut=    40.00 Ry     beta= 0.70
     Davidson diagonalization with overlap
     ethr =  3.17E-08,  avg # of iterations =  1.2

     negative rho (up, down):  7.944E-04 0.000E+00

     total cpu time spent up to now is      307.3 secs

     total energy              =  -27793.25913500 Ry
     estimated scf accuracy    <       0.00004894 Ry

     iteration # 14     ecut=    40.00 Ry     beta= 0.70
     Davidson diagonalization with overlap
     ethr =  1.33E-08,  avg # of iterations =  1.7

     negative rho (up, down):  1.412E-03 0.000E+00

     total cpu time spent up to now is      324.6 secs

     total energy              =  -27793.25915889 Ry
     estimated scf accuracy    <       0.00002322 Ry

     iteration # 15     ecut=    40.00 Ry     beta= 0.70
     Davidson diagonalization with overlap
     ethr =  6.29E-09,  avg # of iterations =  1.8

     negative rho (up, down):  2.381E-03 0.000E+00

     total cpu time spent up to now is      337.7 secs

     total energy              =  -27793.25916251 Ry
     estimated scf accuracy    <       0.00001829 Ry

     iteration # 16     ecut=    40.00 Ry     beta= 0.70
     Davidson diagonalization with overlap
     ethr =  4.96E-09,  avg # of iterations =  1.1

     negative rho (up, down):  2.820E-03 0.000E+00

     total cpu time spent up to now is      354.2 secs

     total energy              =  -27793.25916172 Ry
     estimated scf accuracy    <       0.00000230 Ry

     iteration # 17     ecut=    40.00 Ry     beta= 0.70
     Davidson diagonalization with overlap
     ethr =  6.22E-10,  avg # of iterations =  4.1

     negative rho (up, down):  2.942E-03 0.000E+00

     total cpu time spent up to now is      383.2 secs

     total energy              =  -27793.25916216 Ry
     estimated scf accuracy    <       0.00000123 Ry

     iteration # 18     ecut=    40.00 Ry     beta= 0.70
     Davidson diagonalization with overlap
     ethr =  3.34E-10,  avg # of iterations =  1.8

     negative rho (up, down):  3.081E-03 0.000E+00

     total cpu time spent up to now is      396.0 secs

     End of self-consistent calculation

          k = 0.0000 0.0000 0.0000 ( 42913 PWs)   bands (ev):

   -10.0271  -9.2204  -5.9525  -4.8885  -4.6194  -4.1499  -3.7795  -3.6345
    -3.6293  -3.5886  -3.5844  -3.5022  -3.4904  -3.4313  -3.4209  -3.1100
    -3.0920  -3.0493  -3.0130  -2.9753  -2.9582  -2.8559  -2.8335  -2.6932
    -2.6746  -2.5136  -2.4468  -2.4425  -2.4102  -2.3972  -2.3872  -2.3354
    -2.3048  -2.2790  -2.2409  -2.2325  -2.2178  -2.1136  -2.1005  -2.0920
    -2.0334  -2.0292  -1.9698  -1.9693  -1.8621  -1.8330  -1.6839  -1.6352
    -1.5870  -1.5780  -1.5185  -1.5105  -1.4866  -1.4536  -1.4001  -1.3803
    -1.2806  -1.2669  -1.2450  -1.1968  -1.1812  -1.0351  -0.9509  -0.8851
    -0.8385  -0.7928  -0.7206  -0.6951  -0.6814  -0.6427  -0.6204  -0.5811
    -0.5617  -0.5474  -0.5150  -0.5105  -0.4939  -0.4877  -0.4733  -0.4412
    -0.4207  -0.4012  -0.3963  -0.3929  -0.3829  -0.3687  -0.3524  -0.3343
    -0.2940  -0.2634  -0.2257  -0.2073  -0.1685  -0.1143  -0.0922  -0.0265
    -0.0202  -0.0094   0.0107   0.0459   0.0644   0.0997   0.1113   0.1444
     0.1475   0.1568   0.1577   0.2016   0.2261   0.2563   0.2918   0.3259
     0.4403   0.5042   0.5210   0.5282   0.6901   0.7132   0.7494   0.7518
     0.8759   0.9051   0.9104   0.9325   0.9396   0.9911   1.0039   1.0140
     1.0302   1.0453   1.0707   1.0877   1.1410   1.1682   1.2438   1.2774
     1.3146   1.3227   1.3534   1.3892   1.4506   1.4600   1.5031   1.5395
     1.5614   1.5652   1.5941   1.5985   1.6626   1.7391   1.7540   1.8325
     1.8375   1.8540   1.8718   1.8857   1.9016   1.9463   1.9661   1.9786
     1.9914   1.9934   2.0090   2.0170   2.0300   2.0494   2.0659   2.0708
     2.1103   2.1257   2.1465   2.1852   2.1878   2.2165   2.2518   2.2645
     2.3021   2.3274   2.3450   2.3451   2.3500   2.3652   2.3684   2.4124
     2.4213   2.4463   2.4789   2.5093   2.5145   2.6282   2.6375   2.6720
     2.7124   2.7381   2.7801   2.7816   2.8051   2.8202   2.9999   3.2022
     3.4000   3.5459   3.6519   3.7628   4.1499   4.4787   4.7450   4.8177
     5.2738   5.6176   5.8508   5.9576   6.1714   6.2683   6.8337   6.9180
     7.4380   7.6023   7.6310   7.6531   7.6930   7.7956

          k = 0.0000 0.2309 0.0000 ( 42996 PWs)   bands (ev):

   -10.0033  -9.2461  -5.8096  -4.8913  -4.4909  -4.0949  -4.0552  -3.7447
    -3.6079  -3.5925  -3.4899  -3.4120  -3.3554  -3.2906  -3.2859  -3.1568
    -3.0988  -3.0922  -2.9772  -2.9629  -2.9027  -2.8180  -2.8127  -2.6340
    -2.5912  -2.5621  -2.4953  -2.4796  -2.4623  -2.4174  -2.3340  -2.3070
    -2.2912  -2.2769  -2.2660  -2.2186  -2.2017  -2.1805  -2.1375  -2.0740
    -2.0483  -2.0073  -1.9442  -1.9282  -1.8223  -1.8173  -1.7402  -1.6468
    -1.6362  -1.6124  -1.6070  -1.5476  -1.4755  -1.4507  -1.4046  -1.3772
    -1.3292  -1.3000  -1.2534  -1.2127  -1.1656  -1.0372  -0.9529  -0.9521
    -0.9063  -0.8853  -0.8634  -0.8457  -0.8132  -0.7625  -0.7351  -0.6883
    -0.6700  -0.6530  -0.5884  -0.5693  -0.5659  -0.5380  -0.5132  -0.4481
    -0.4327  -0.4049  -0.3856  -0.3586  -0.3522  -0.3112  -0.2912  -0.2829
    -0.2827  -0.2175  -0.2001  -0.1669  -0.1549  -0.1159  -0.0883  -0.0767
    -0.0766  -0.0627  -0.0586  -0.0383   0.0158   0.0540   0.0634   0.0704
     0.0940   0.1571   0.1627   0.2349   0.2843   0.3027   0.3256   0.3294
     0.3888   0.3897   0.4010   0.4156   0.4616   0.5096   0.5396   0.6764
     0.6765   0.7459   0.7604   0.8196   0.8344   0.8956   0.9102   0.9847
     1.0291   1.0484   1.0918   1.1110   1.1583   1.1635   1.1876   1.1913
     1.2424   1.2546   1.3004   1.3461   1.3680   1.3741   1.4282   1.4552
     1.4973   1.5192   1.5224   1.5335   1.6076   1.6334   1.6709   1.7372
     1.7547   1.7936   1.8394   1.8945   1.8995   1.9273   1.9464   1.9741
     1.9752   2.0076   2.0115   2.0740   2.1052   2.1129   2.1873   2.2091
     2.2387   2.3046   2.3186   2.3325   2.3366   2.3526   2.4021   2.4090
     2.4238   2.4543   2.4939   2.4977   2.4994   2.5724   2.6198   2.6346
     2.6651   2.6733   2.6829   2.7024   2.7508   2.7776   2.7928   2.8122
     2.8515   2.9156   2.9415   3.0485   3.0545   3.1423   3.2154   3.3275
     3.5363   3.6180   3.8457   4.2302   4.2829   4.6516   4.6786   5.0661
     5.1662   5.6321   5.7505   6.0738   6.2957   6.4102   6.4873   6.8111
     6.9600   7.0119   7.4336   7.4601   7.7695   7.8478

          k = 0.0000 0.4619 0.0000 ( 43046 PWs)   bands (ev):

    -9.9610  -9.2914  -5.4070  -4.9460  -4.6716  -4.1127  -3.9966  -3.7395
    -3.6509  -3.4994  -3.4863  -3.2819  -3.2799  -3.1937  -3.1217  -3.0894
    -3.0019  -2.9689  -2.8710  -2.8147  -2.8008  -2.7822  -2.6955  -2.6794
    -2.6326  -2.6006  -2.5891  -2.5388  -2.5290  -2.4886  -2.4636  -2.4021
    -2.3920  -2.3199  -2.2589  -2.1978  -2.1704  -2.1315  -2.0795  -2.0379
    -2.0141  -1.9338  -1.9239  -1.8758  -1.8405  -1.8314  -1.7675  -1.7668
    -1.6337  -1.6243  -1.6092  -1.5592  -1.5330  -1.4635  -1.4586  -1.3992
    -1.3916  -1.3465  -1.2950  -1.2703  -1.2215  -1.1960  -1.1190  -1.0772
    -1.0400  -0.9794  -0.9784  -0.9395  -0.8710  -0.8608  -0.8387  -0.8034
    -0.7950  -0.7335  -0.7176  -0.6959  -0.6601  -0.5966  -0.5776  -0.5184
    -0.5119  -0.4532  -0.4246  -0.4112  -0.4059  -0.3875  -0.3420  -0.3065
    -0.3051  -0.2721  -0.2690  -0.2374  -0.2144  -0.1697  -0.1487  -0.1374
    -0.0785  -0.0669  -0.0562  -0.0263  -0.0206  -0.0132   0.0205   0.0717
     0.0768   0.1235   0.1425   0.1781   0.2116   0.2657   0.2943   0.3389
     0.3528   0.3732   0.3969   0.4632   0.4857   0.5702   0.5890   0.6127
     0.6192   0.6667   0.7113   0.7677   0.7858   0.7882   0.7959   0.8367
     0.8732   0.9040   0.9269   0.9711   0.9951   1.0515   1.0638   1.1171
     1.1263   1.1473   1.2534   1.2898   1.3168   1.3400   1.3482   1.4044
     1.4719   1.4881   1.5248   1.5916   1.5926   1.6347   1.6449   1.6871
     1.6895   1.7674   1.7816   1.8087   1.8463   1.8742   1.8844   1.9625
     1.9919   2.0137   2.0549   2.0834   2.1287   2.1806   2.1914   2.2527
     2.3437   2.3547   2.3663   2.3899   2.4159   2.4450   2.5024   2.5167
     2.5362   2.5976   2.6032   2.6307   2.6590   2.6843   2.7029   2.7565
     2.8025   2.8279   2.9072   2.9252   2.9343   2.9356   3.0101   3.1049
     3.1806   3.2136   3.2517   3.6212   3.8918   3.9267   4.0616   4.1337
     4.1792   4.3596   4.5436   4.6589   4.7608   4.8392   5.1026   5.2061
     5.3195   5.4387   5.5670   5.6030   5.9004   5.9110   6.1515   6.4531
     6.5009   6.7910   6.9851   7.0216   7.1853   7.7019

          k = 0.2000-0.1155 0.0000 ( 42996 PWs)   bands (ev):

   -10.0122  -9.2299  -5.8123  -4.8572  -4.5142  -4.2438  -3.9263  -3.7221
    -3.6465  -3.5820  -3.5060  -3.4605  -3.3761  -3.3123  -3.2749  -3.1545
    -3.0836  -3.0402  -2.9938  -2.9418  -2.8998  -2.8525  -2.7483  -2.6573
    -2.6184  -2.5768  -2.4945  -2.4782  -2.4476  -2.3697  -2.3461  -2.3207
    -2.2926  -2.2897  -2.2690  -2.2437  -2.1923  -2.1616  -2.1103  -2.0927
    -2.0353  -2.0034  -1.9389  -1.8801  -1.8446  -1.7904  -1.7117  -1.6831
    -1.6296  -1.6112  -1.5988  -1.5563  -1.5126  -1.4558  -1.4076  -1.3655
    -1.3502  -1.2832  -1.2533  -1.2012  -1.1790  -1.0614  -0.9720  -0.9441
    -0.9233  -0.8897  -0.8692  -0.8284  -0.8095  -0.7711  -0.7288  -0.6965
    -0.6621  -0.6099  -0.5937  -0.5734  -0.5533  -0.5253  -0.5218  -0.4476
    -0.4318  -0.4100  -0.3929  -0.3729  -0.3556  -0.3340  -0.3108  -0.2959
    -0.2701  -0.2515  -0.2143  -0.1888  -0.1702  -0.1317  -0.1036  -0.0872
    -0.0644  -0.0513  -0.0302   0.0190   0.0404   0.0495   0.0666   0.0832
     0.1013   0.1087   0.1928   0.2155   0.2508   0.2947   0.3267   0.3487
     0.3811   0.3922   0.4090   0.4415   0.4744   0.5254   0.5470   0.6115
     0.6723   0.7267   0.7375   0.7775   0.8388   0.8815   0.9290   0.9836
     1.0199   1.0579   1.0861   1.1066   1.1429   1.1797   1.2089   1.2274
     1.2388   1.2865   1.3403   1.3427   1.3947   1.4185   1.4463   1.4565
     1.5121   1.5291   1.5460   1.5876   1.6428   1.6729   1.7081   1.7362
     1.7679   1.7882   1.8451   1.8887   1.9074   1.9334   1.9595   1.9792
     2.0102   2.0238   2.0435   2.0563   2.1040   2.1325   2.1927   2.2178
     2.2575   2.2763   2.3018   2.3194   2.3312   2.3501   2.3843   2.4023
     2.4235   2.4457   2.4633   2.5039   2.5162   2.5638   2.5965   2.6334
     2.6517   2.6698   2.6947   2.7039   2.7492   2.7597   2.7795   2.8040
     2.8316   2.9023   2.9264   3.0043   3.0316   3.0921   3.1433   3.3986
     3.5451   3.7340   3.8456   4.0688   4.3513   4.5188   4.7114   5.0165
     5.2119   5.5977   5.7362   6.0336   6.2945   6.4174   6.6136   6.6695
     6.8912   7.0450   7.4585   7.5375   7.7054   7.8482

          k = 0.2000 0.1155 0.0000 ( 42996 PWs)   bands (ev):

   -10.0122  -9.2299  -5.8123  -4.8572  -4.5142  -4.2437  -3.9262  -3.7222
    -3.6466  -3.5821  -3.5060  -3.4605  -3.3760  -3.3124  -3.2749  -3.1545
    -3.0836  -3.0402  -2.9938  -2.9417  -2.8998  -2.8525  -2.7482  -2.6572
    -2.6183  -2.5770  -2.4946  -2.4782  -2.4476  -2.3697  -2.3460  -2.3207
    -2.2926  -2.2897  -2.2690  -2.2437  -2.1923  -2.1617  -2.1104  -2.0927
    -2.0353  -2.0034  -1.9390  -1.8801  -1.8447  -1.7904  -1.7117  -1.6831
    -1.6296  -1.6113  -1.5988  -1.5562  -1.5127  -1.4558  -1.4077  -1.3655
    -1.3502  -1.2831  -1.2534  -1.2012  -1.1791  -1.0614  -0.9721  -0.9443
    -0.9234  -0.8897  -0.8692  -0.8284  -0.8095  -0.7711  -0.7288  -0.6966
    -0.6619  -0.6098  -0.5937  -0.5733  -0.5534  -0.5252  -0.5217  -0.4476
    -0.4318  -0.4101  -0.3930  -0.3729  -0.3555  -0.3339  -0.3108  -0.2958
    -0.2701  -0.2515  -0.2142  -0.1888  -0.1702  -0.1316  -0.1036  -0.0873
    -0.0646  -0.0514  -0.0303   0.0189   0.0404   0.0496   0.0665   0.0832
     0.1015   0.1086   0.1929   0.2154   0.2509   0.2947   0.3267   0.3487
     0.3812   0.3922   0.4090   0.4414   0.4744   0.5253   0.5468   0.6116
     0.6724   0.7267   0.7376   0.7776   0.8389   0.8816   0.9290   0.9835
     1.0200   1.0580   1.0862   1.1066   1.1430   1.1796   1.2090   1.2275
     1.2388   1.2867   1.3401   1.3427   1.3948   1.4184   1.4463   1.4566
     1.5121   1.5291   1.5461   1.5876   1.6428   1.6729   1.7081   1.7361
     1.7678   1.7881   1.8451   1.8887   1.9074   1.9334   1.9595   1.9792
     2.0101   2.0238   2.0435   2.0562   2.1040   2.1324   2.1927   2.2178
     2.2575   2.2764   2.3018   2.3194   2.3312   2.3501   2.3844   2.4024
     2.4234   2.4458   2.4633   2.5040   2.5162   2.5638   2.5966   2.6334
     2.6517   2.6698   2.6946   2.7039   2.7491   2.7596   2.7794   2.8040
     2.8315   2.9022   2.9264   3.0042   3.0316   3.0920   3.1433   3.3986
     3.5451   3.7340   3.8456   4.0688   4.3514   4.5189   4.7113   5.0165
     5.2119   5.5977   5.7362   6.0335   6.2946   6.4175   6.6136   6.6696
     6.8913   7.0448   7.4586   7.5375   7.7053   7.8476

          k = 0.2000 0.3464 0.0000 ( 43046 PWs)   bands (ev):

    -9.9795  -9.2650  -5.5379  -4.8684  -4.4390  -4.2648  -4.2273  -3.8420
    -3.6210  -3.4305  -3.3012  -3.2615  -3.2239  -3.2029  -3.1599  -3.1317
    -3.0918  -3.0422  -3.0143  -2.9835  -2.7956  -2.7176  -2.6800  -2.6549
    -2.6251  -2.5914  -2.5488  -2.5108  -2.4612  -2.4108  -2.3889  -2.3630
    -2.3585  -2.3463  -2.2739  -2.2513  -2.2088  -2.1712  -2.1365  -2.1211
    -2.0310  -1.9854  -1.9456  -1.8564  -1.8031  -1.7661  -1.7214  -1.6871
    -1.6675  -1.6242  -1.5650  -1.5544  -1.5177  -1.4690  -1.4184  -1.4147
    -1.3183  -1.2936  -1.2536  -1.2339  -1.2021  -1.1781  -1.1446  -1.0460
    -1.0266  -1.0017  -0.9632  -0.9241  -0.8805  -0.8446  -0.8287  -0.7986
    -0.7668  -0.7113  -0.6863  -0.6498  -0.6346  -0.5999  -0.5771  -0.5234
    -0.5021  -0.4643  -0.4568  -0.4097  -0.3848  -0.3687  -0.3495  -0.3248
    -0.2647  -0.2388  -0.2324  -0.1990  -0.1925  -0.1522  -0.1461  -0.1079
    -0.0955  -0.0741  -0.0504  -0.0275  -0.0025   0.0373   0.0529   0.0777
     0.1014   0.1149   0.1412   0.1508   0.1799   0.1888   0.2727   0.2910
     0.3074   0.3366   0.3740   0.4261   0.4645   0.5473   0.5743   0.5882
     0.6416   0.6747   0.7144   0.7439   0.7844   0.7987   0.8352   0.8813
     0.9104   0.9428   0.9657   1.0052   1.0249   1.0937   1.1128   1.1510
     1.1908   1.2322   1.2858   1.2999   1.3460   1.3693   1.3833   1.3979
     1.4299   1.4771   1.5127   1.5408   1.5610   1.6064   1.6725   1.6923
     1.7264   1.7450   1.7769   1.8328   1.8414   1.8846   1.9150   1.9653
     2.0284   2.0715   2.0797   2.1274   2.1481   2.1938   2.2731   2.3226
     2.3293   2.3757   2.4250   2.4424   2.4667   2.4807   2.5041   2.5266
     2.5588   2.5702   2.5806   2.6058   2.6383   2.6651   2.7113   2.7277
     2.7431   2.7734   2.8082   2.8666   2.9047   2.9740   2.9940   3.0590
     3.1059   3.1807   3.2071   3.2993   3.5529   3.6916   3.8316   3.8644
     4.0340   4.1306   4.2141   4.5707   4.6855   4.7131   5.1058   5.1514
     5.2563   5.3357   5.5810   5.9378   6.1730   6.2168   6.4027   6.5338
     6.7490   6.8557   7.0984   7.1702   7.2308   7.4526

          k = 0.2000-0.5774 0.0000 ( 43014 PWs)   bands (ev):

    -9.9576  -9.2883  -5.1043  -5.0093  -4.7396  -4.4602  -3.8379  -3.8173
    -3.6562  -3.5646  -3.3791  -3.2048  -3.1825  -3.1037  -3.0365  -2.9693
    -2.9421  -2.9183  -2.8708  -2.8216  -2.7647  -2.7570  -2.7470  -2.7270
    -2.6737  -2.6458  -2.5914  -2.5344  -2.5322  -2.5126  -2.4425  -2.4233
    -2.3875  -2.3692  -2.2881  -2.2800  -2.1675  -2.1580  -2.1316  -2.1024
    -2.0493  -1.9705  -1.9206  -1.8826  -1.8251  -1.7675  -1.7262  -1.7032
    -1.6807  -1.6217  -1.5869  -1.5391  -1.4701  -1.4382  -1.3839  -1.3554
    -1.3463  -1.3080  -1.2395  -1.2171  -1.1918  -1.1769  -1.1565  -1.0925
    -1.0766  -1.0605  -1.0138  -0.9881  -0.9709  -0.9434  -0.8997  -0.8663
    -0.8219  -0.8031  -0.7368  -0.7219  -0.7133  -0.6739  -0.6647  -0.6469
    -0.5807  -0.5494  -0.5314  -0.4721  -0.4516  -0.4307  -0.3906  -0.3494
    -0.3018  -0.2885  -0.2434  -0.2414  -0.2134  -0.1678  -0.1198  -0.1159
    -0.0757  -0.0425   0.0013   0.0148   0.0234   0.0347   0.0373   0.0687
     0.1129   0.1216   0.1449   0.1703   0.1974   0.2067   0.2229   0.2323
     0.2515   0.3164   0.3664   0.4383   0.4743   0.5243   0.5459   0.6074
     0.6153   0.6251   0.6815   0.7052   0.7149   0.7598   0.7930   0.8227
     0.8717   0.9039   0.9452   0.9679   1.0091   1.0438   1.0954   1.1140
     1.1761   1.1998   1.2375   1.2639   1.3257   1.3562   1.3712   1.4075
     1.4483   1.4675   1.5122   1.5336   1.5674   1.5757   1.5819   1.6110
     1.6549   1.6766   1.7481   1.7931   1.8112   1.8886   1.9629   2.0198
     2.0246   2.0887   2.1295   2.1502   2.1987   2.2068   2.2540   2.2684
     2.3553   2.3871   2.4522   2.4725   2.4849   2.5080   2.5312   2.5579
     2.5747   2.6328   2.6490   2.6671   2.7184   2.7407   2.7748   2.8361
     2.8368   2.8585   2.9135   2.9390   2.9576   2.9858   3.0183   3.0914
     3.1951   3.4440   3.5576   3.7716   4.0123   4.0929   4.2031   4.3359
     4.3854   4.5367   4.5693   4.7794   4.8584   4.9845   5.0988   5.3684
     5.4922   5.6375   5.6970   5.7651   5.8228   6.0133   6.1240   6.2543
     6.3198   6.4178   6.7183   6.9744   7.1160   7.1993

          k = 0.2000-0.3464 0.0000 ( 43046 PWs)   bands (ev):

    -9.9795  -9.2650  -5.5380  -4.8684  -4.4390  -4.2648  -4.2273  -3.8420
    -3.6210  -3.4305  -3.3012  -3.2615  -3.2239  -3.2029  -3.1598  -3.1317
    -3.0918  -3.0423  -3.0144  -2.9835  -2.7956  -2.7177  -2.6799  -2.6549
    -2.6251  -2.5915  -2.5489  -2.5108  -2.4612  -2.4107  -2.3889  -2.3630
    -2.3584  -2.3463  -2.2740  -2.2512  -2.2088  -2.1712  -2.1366  -2.1211
    -2.0311  -1.9854  -1.9456  -1.8564  -1.8031  -1.7660  -1.7213  -1.6871
    -1.6674  -1.6241  -1.5649  -1.5545  -1.5178  -1.4689  -1.4185  -1.4146
    -1.3182  -1.2935  -1.2535  -1.2339  -1.2021  -1.1781  -1.1445  -1.0459
    -1.0266  -1.0016  -0.9630  -0.9242  -0.8804  -0.8445  -0.8287  -0.7986
    -0.7668  -0.7113  -0.6863  -0.6500  -0.6347  -0.6000  -0.5770  -0.5236
    -0.5022  -0.4643  -0.4570  -0.4098  -0.3849  -0.3688  -0.3495  -0.3248
    -0.2649  -0.2387  -0.2324  -0.1991  -0.1926  -0.1521  -0.1462  -0.1080
    -0.0957  -0.0742  -0.0504  -0.0275  -0.0025   0.0372   0.0529   0.0779
     0.1015   0.1148   0.1413   0.1507   0.1800   0.1889   0.2727   0.2910
     0.3073   0.3365   0.3740   0.4261   0.4645   0.5472   0.5742   0.5882
     0.6415   0.6748   0.7144   0.7439   0.7844   0.7988   0.8352   0.8812
     0.9104   0.9427   0.9657   1.0051   1.0250   1.0937   1.1128   1.1511
     1.1907   1.2321   1.2858   1.2999   1.3459   1.3693   1.3833   1.3978
     1.4300   1.4772   1.5127   1.5407   1.5610   1.6064   1.6725   1.6924
     1.7265   1.7450   1.7770   1.8328   1.8415   1.8846   1.9150   1.9653
     2.0285   2.0715   2.0796   2.1274   2.1482   2.1938   2.2731   2.3226
     2.3293   2.3757   2.4250   2.4424   2.4666   2.4807   2.5041   2.5265
     2.5587   2.5702   2.5805   2.6058   2.6383   2.6651   2.7112   2.7277
     2.7430   2.7733   2.8082   2.8666   2.9048   2.9742   2.9942   3.0590
     3.1059   3.1806   3.2070   3.2994   3.5529   3.6916   3.8315   3.8645
     4.0341   4.1306   4.2143   4.5707   4.6855   4.7131   5.1060   5.1515
     5.2563   5.3357   5.5809   5.9377   6.1729   6.2170   6.4028   6.5338
     6.7488   6.8556   7.0986   7.1701   7.2311   7.4540

          k = 0.4000-0.2309 0.0000 ( 43046 PWs)   bands (ev):

    -9.9871  -9.2461  -5.4153  -4.8607  -4.7451  -4.2080  -4.0073  -3.7034
    -3.6800  -3.6385  -3.4500  -3.3161  -3.2484  -3.1853  -3.0972  -3.0556
    -2.9933  -2.9426  -2.8762  -2.8297  -2.7735  -2.7389  -2.7203  -2.7072
    -2.6438  -2.5917  -2.5702  -2.5513  -2.5254  -2.5095  -2.4641  -2.4185
    -2.3799  -2.3435  -2.2391  -2.1729  -2.1431  -2.1092  -2.0662  -2.0458
    -2.0228  -1.9457  -1.9134  -1.8881  -1.8503  -1.8390  -1.7523  -1.7344
    -1.6557  -1.6054  -1.5779  -1.5362  -1.5054  -1.4755  -1.4602  -1.4326
    -1.3741  -1.3383  -1.3019  -1.2474  -1.2277  -1.1917  -1.1446  -1.1051
    -1.0640  -1.0399  -1.0034  -0.9380  -0.9139  -0.8734  -0.8545  -0.7955
    -0.7490  -0.7007  -0.6902  -0.6611  -0.6095  -0.5771  -0.5479  -0.5210
    -0.5092  -0.4879  -0.4493  -0.4297  -0.4014  -0.3737  -0.3537  -0.3297
    -0.2974  -0.2906  -0.2790  -0.2491  -0.2376  -0.2025  -0.1617  -0.1218
    -0.1047  -0.0903  -0.0730  -0.0370  -0.0259   0.0282   0.0384   0.0511
     0.0779   0.1274   0.1450   0.1946   0.2091   0.2438   0.3127   0.3374
     0.3568   0.3665   0.3861   0.4359   0.4660   0.4908   0.5763   0.6163
     0.6292   0.6787   0.7013   0.7279   0.7569   0.7717   0.8085   0.8508
     0.8695   0.9217   0.9640   0.9961   1.0294   1.0512   1.0854   1.1055
     1.1265   1.1680   1.2508   1.2911   1.3314   1.3590   1.4261   1.4556
     1.4900   1.5472   1.5677   1.5950   1.6166   1.6489   1.6715   1.7050
     1.7420   1.7741   1.7997   1.8432   1.8685   1.8990   1.9309   1.9766
     1.9874   2.0067   2.1279   2.1338   2.1573   2.1976   2.2667   2.2832
     2.3353   2.3445   2.3524   2.3731   2.4095   2.4364   2.4779   2.5137
     2.5433   2.5868   2.6286   2.6310   2.6567   2.6746   2.6942   2.7592
     2.7896   2.8205   2.8823   2.9261   2.9327   2.9570   2.9873   3.1292
     3.1871   3.2209   3.3651   3.5054   3.6676   3.8267   4.0285   4.1124
     4.1952   4.3447   4.4480   4.5241   4.7495   4.8749   5.0314   5.1842
     5.2744   5.4529   5.4808   5.6153   5.8878   5.9841   6.1966   6.2585
     6.3991   6.8218   6.8885   7.1024   7.3163   7.5560

          k = 0.4000-0.0000 0.0000 ( 43046 PWs)   bands (ev):

    -9.9949  -9.2377  -5.5437  -4.8255  -4.4124  -4.3869  -4.2356  -3.8433
    -3.6143  -3.4876  -3.2884  -3.2600  -3.2227  -3.2190  -3.1587  -3.1512
    -3.1159  -3.0388  -2.9984  -2.9379  -2.8135  -2.6968  -2.6772  -2.6573
    -2.5780  -2.5697  -2.5371  -2.5288  -2.4705  -2.4357  -2.3962  -2.3817
    -2.3468  -2.3064  -2.2568  -2.2364  -2.2169  -2.1540  -2.1510  -2.0997
    -2.0512  -2.0134  -1.9090  -1.8436  -1.8143  -1.7818  -1.7391  -1.6968
    -1.6008  -1.5966  -1.5704  -1.5590  -1.5108  -1.4915  -1.4365  -1.4082
    -1.3328  -1.3005  -1.2878  -1.2409  -1.2163  -1.1656  -1.1545  -1.0672
    -1.0362  -0.9974  -0.9731  -0.9046  -0.8653  -0.8454  -0.8254  -0.8006
    -0.7782  -0.7030  -0.6561  -0.6417  -0.6261  -0.6104  -0.5792  -0.5144
    -0.5073  -0.4525  -0.4162  -0.4042  -0.3926  -0.3703  -0.3479  -0.3422
    -0.3018  -0.2607  -0.2266  -0.2062  -0.1947  -0.1569  -0.1478  -0.1218
    -0.0947  -0.0761  -0.0638  -0.0212   0.0085   0.0246   0.0436   0.0717
     0.1124   0.1189   0.1497   0.1732   0.1845   0.2120   0.2280   0.2804
     0.3036   0.3292   0.3637   0.3917   0.4571   0.5110   0.5529   0.5847
     0.6126   0.6574   0.7136   0.7492   0.7905   0.8235   0.8502   0.8974
     0.9229   0.9423   0.9658   1.0061   1.0470   1.0842   1.1031   1.1520
     1.1828   1.2378   1.3019   1.3107   1.3442   1.3854   1.4051   1.4085
     1.4451   1.4884   1.5296   1.5749   1.6469   1.6665   1.6917   1.7373
     1.7447   1.7707   1.7885   1.8079   1.8552   1.8602   1.9189   1.9660
     2.0136   2.0647   2.0773   2.1453   2.2328   2.2585   2.2941   2.3263
     2.3594   2.4126   2.4196   2.4305   2.4510   2.4728   2.5169   2.5266
     2.5548   2.5766   2.5882   2.6181   2.6466   2.6628   2.6868   2.7149
     2.7296   2.8055   2.8450   2.8528   2.9227   2.9338   2.9680   3.0029
     3.0770   3.1473   3.2312   3.3209   3.4428   3.5681   3.7769   3.9134
     4.1286   4.1949   4.3341   4.3782   4.5701   4.8499   4.9188   4.9708
     5.1597   5.4487   5.4588   5.8514   6.1967   6.2641   6.4232   6.6606
     6.7798   6.8233   6.9789   7.1873   7.3011   7.4879

          k = 0.4000 0.2309 0.0000 ( 43046 PWs)   bands (ev):

    -9.9871  -9.2461  -5.4153  -4.8606  -4.7452  -4.2081  -4.0073  -3.7034
    -3.6801  -3.6385  -3.4499  -3.3160  -3.2483  -3.1853  -3.0972  -3.0555
    -2.9935  -2.9426  -2.8762  -2.8297  -2.7735  -2.7388  -2.7202  -2.7072
    -2.6438  -2.5916  -2.5702  -2.5513  -2.5254  -2.5094  -2.4640  -2.4185
    -2.3800  -2.3435  -2.2392  -2.1729  -2.1431  -2.1092  -2.0663  -2.0459
    -2.0230  -1.9457  -1.9134  -1.8881  -1.8504  -1.8391  -1.7523  -1.7344
    -1.6557  -1.6054  -1.5778  -1.5361  -1.5054  -1.4755  -1.4603  -1.4326
    -1.3741  -1.3384  -1.3020  -1.2475  -1.2278  -1.1917  -1.1448  -1.1053
    -1.0640  -1.0401  -1.0035  -0.9380  -0.9138  -0.8733  -0.8545  -0.7955
    -0.7490  -0.7008  -0.6901  -0.6612  -0.6092  -0.5771  -0.5478  -0.5208
    -0.5091  -0.4878  -0.4492  -0.4298  -0.4013  -0.3738  -0.3537  -0.3296
    -0.2974  -0.2907  -0.2790  -0.2493  -0.2374  -0.2025  -0.1616  -0.1218
    -0.1046  -0.0904  -0.0730  -0.0370  -0.0259   0.0284   0.0383   0.0511
     0.0781   0.1275   0.1451   0.1946   0.2090   0.2439   0.3128   0.3375
     0.3568   0.3664   0.3862   0.4359   0.4661   0.4908   0.5763   0.6164
     0.6292   0.6787   0.7013   0.7278   0.7569   0.7717   0.8085   0.8509
     0.8694   0.9217   0.9640   0.9961   1.0294   1.0513   1.0856   1.1055
     1.1264   1.1680   1.2507   1.2911   1.3314   1.3591   1.4261   1.4556
     1.4900   1.5472   1.5678   1.5950   1.6166   1.6489   1.6715   1.7050
     1.7419   1.7741   1.7997   1.8432   1.8685   1.8990   1.9309   1.9766
     1.9874   2.0067   2.1278   2.1338   2.1572   2.1976   2.2667   2.2834
     2.3353   2.3446   2.3524   2.3730   2.4095   2.4364   2.4779   2.5138
     2.5434   2.5868   2.6286   2.6310   2.6567   2.6745   2.6942   2.7590
     2.7896   2.8206   2.8822   2.9260   2.9326   2.9570   2.9872   3.1291
     3.1871   3.2209   3.3649   3.5056   3.6674   3.8267   4.0284   4.1124
     4.1952   4.3447   4.4478   4.5241   4.7494   4.8747   5.0314   5.1844
     5.2744   5.4529   5.4807   5.6154   5.8879   5.9839   6.1967   6.2584
     6.3989   6.8219   6.8886   7.1026   7.3161   7.5562

          k = 0.4000-0.6928 0.0000 ( 43014 PWs)   bands (ev):

    -9.9742  -9.2599  -5.1057  -4.9854  -4.7900  -4.3870  -4.0061  -3.8765
    -3.6372  -3.5289  -3.2918  -3.2245  -3.1880  -3.1186  -3.0365  -2.9754
    -2.9351  -2.9142  -2.8432  -2.8321  -2.7771  -2.7610  -2.7379  -2.7136
    -2.6912  -2.6443  -2.6017  -2.5632  -2.5273  -2.4878  -2.4728  -2.4333
    -2.3858  -2.3539  -2.2881  -2.2427  -2.1763  -2.1412  -2.1038  -2.0692
    -2.0483  -1.9703  -1.9502  -1.8662  -1.8386  -1.7851  -1.7310  -1.6928
    -1.6670  -1.6259  -1.5702  -1.5260  -1.4788  -1.4233  -1.3880  -1.3713
    -1.3210  -1.2869  -1.2466  -1.2294  -1.1933  -1.1869  -1.1609  -1.1356
    -1.0855  -1.0684  -1.0358  -1.0117  -0.9673  -0.9320  -0.9050  -0.8598
    -0.8458  -0.7940  -0.7585  -0.7080  -0.6931  -0.6724  -0.6353  -0.6142
    -0.5812  -0.5447  -0.5161  -0.4947  -0.4421  -0.4138  -0.3953  -0.3605
    -0.3023  -0.2757  -0.2612  -0.2397  -0.2025  -0.1601  -0.1296  -0.1282
    -0.0976  -0.0643  -0.0130   0.0090   0.0251   0.0377   0.0506   0.0698
     0.1070   0.1158   0.1593   0.1840   0.1967   0.2119   0.2250   0.2565
     0.2665   0.3020   0.3619   0.3849   0.4193   0.4836   0.5431   0.5706
     0.6013   0.6488   0.6690   0.7004   0.7447   0.7788   0.8137   0.8442
     0.8537   0.8873   0.9392   0.9770   1.0272   1.0566   1.0853   1.1227
     1.1565   1.2064   1.2226   1.2741   1.3136   1.3772   1.3964   1.4174
     1.4337   1.4635   1.5177   1.5403   1.5578   1.5979   1.6329   1.6713
     1.7028   1.7291   1.7708   1.7991   1.8326   1.8849   1.9377   2.0013
     2.0966   2.1130   2.1408   2.1707   2.2176   2.2347   2.2491   2.3413
     2.3855   2.4100   2.4344   2.4602   2.4801   2.5179   2.5310   2.5669
     2.5800   2.6164   2.6342   2.6542   2.6963   2.7211   2.7393   2.8233
     2.8344   2.9056   2.9374   2.9578   2.9720   3.0123   3.0234   3.1309
     3.1893   3.3292   3.5022   3.8032   3.9713   4.1018   4.1324   4.2630
     4.3772   4.4355   4.5973   4.6960   4.9103   5.0204   5.1568   5.2394
     5.3690   5.4643   5.7156   5.7381   5.9463   6.0048   6.0318   6.1805
     6.3979   6.5862   6.7285   6.9036   7.0313   7.1555

          k = 0.4000-0.4619 0.0000 ( 43014 PWs)   bands (ev):

    -9.9742  -9.2599  -5.1058  -4.9853  -4.7899  -4.3870  -4.0061  -3.8765
    -3.6372  -3.5289  -3.2919  -3.2246  -3.1880  -3.1187  -3.0365  -2.9754
    -2.9351  -2.9143  -2.8432  -2.8320  -2.7772  -2.7610  -2.7379  -2.7136
    -2.6913  -2.6442  -2.6017  -2.5632  -2.5273  -2.4880  -2.4728  -2.4333
    -2.3858  -2.3539  -2.2881  -2.2427  -2.1762  -2.1412  -2.1038  -2.0692
    -2.0483  -1.9702  -1.9501  -1.8661  -1.8386  -1.7851  -1.7311  -1.6929
    -1.6669  -1.6259  -1.5703  -1.5259  -1.4788  -1.4234  -1.3880  -1.3715
    -1.3209  -1.2868  -1.2464  -1.2293  -1.1932  -1.1869  -1.1609  -1.1355
    -1.0854  -1.0683  -1.0357  -1.0117  -0.9673  -0.9320  -0.9050  -0.8598
    -0.8459  -0.7939  -0.7586  -0.7081  -0.6930  -0.6724  -0.6355  -0.6143
    -0.5813  -0.5448  -0.5162  -0.4947  -0.4420  -0.4137  -0.3954  -0.3604
    -0.3023  -0.2758  -0.2613  -0.2399  -0.2026  -0.1600  -0.1295  -0.1282
    -0.0975  -0.0643  -0.0132   0.0090   0.0251   0.0377   0.0506   0.0697
     0.1068   0.1158   0.1597   0.1840   0.1967   0.2117   0.2250   0.2565
     0.2665   0.3020   0.3618   0.3849   0.4193   0.4836   0.5430   0.5706
     0.6013   0.6487   0.6690   0.7004   0.7447   0.7787   0.8137   0.8442
     0.8538   0.8874   0.9391   0.9770   1.0272   1.0565   1.0853   1.1228
     1.1564   1.2063   1.2227   1.2742   1.3137   1.3772   1.3964   1.4175
     1.4336   1.4634   1.5176   1.5403   1.5578   1.5979   1.6329   1.6714
     1.7026   1.7291   1.7707   1.7991   1.8327   1.8848   1.9377   2.0013
     2.0967   2.1130   2.1407   2.1708   2.2177   2.2348   2.2492   2.3413
     2.3856   2.4099   2.4343   2.4602   2.4800   2.5179   2.5309   2.5669
     2.5800   2.6164   2.6343   2.6543   2.6963   2.7209   2.7393   2.8233
     2.8344   2.9056   2.9375   2.9578   2.9722   3.0123   3.0234   3.1310
     3.1893   3.3291   3.5023   3.8034   3.9713   4.1017   4.1324   4.2630
     4.3771   4.4355   4.5973   4.6961   4.9103   5.0206   5.1568   5.2395
     5.3692   5.4642   5.7160   5.7381   5.9464   6.0048   6.0317   6.1803
     6.3981   6.5860   6.7285   6.9036   7.0312   7.1564

     the Fermi energy is     2.7292 ev

!    total energy              =  -27793.25916134 Ry
     total all-electron energy =  -1326795.552773 Ry
     estimated scf accuracy    <       0.00000046 Ry
     smearing contrib. (-TS)   =       0.00004559 Ry
     internal energy E=F+TS    =  -27793.25920693 Ry

     The total energy is F=E-TS. E is the sum of the following terms:
     one-electron contribution =  -20723.84215675 Ry
     hartree contribution      =   10674.36749693 Ry
     xc contribution           =    -900.22714757 Ry
     ewald contribution        =    8643.65375330 Ry
     one-center paw contrib.   =  -25487.21115284 Ry

     convergence has been achieved in  18 iterations

     negative rho (up, down):  3.081E-03 0.000E+00

     Forces acting on atoms (cartesian axes, Ry/au):

     atom    1 type  1   force =    -0.00043119    0.00044912   -0.00405987
     atom    2 type  1   force =     0.00045243    0.00039842   -0.00406815
     atom    3 type  1   force =    -0.00000469   -0.00258628   -0.00754559
     atom    4 type  1   force =    -0.00003148    0.00108245   -0.00522314
     atom    5 type  1   force =     0.00096504    0.00023836   -0.00895098
     atom    6 type  1   force =    -0.00092474    0.00026809   -0.00892325
     atom    7 type  1   force =    -0.00134313    0.00039337   -0.00779242
     atom    8 type  1   force =     0.00005020   -0.00056123   -0.00443306
     atom    9 type  1   force =     0.00130580    0.00037465   -0.00777971
     atom   10 type  1   force =    -0.00004064    0.00279474    0.01959481
     atom   11 type  1   force =    -0.00355550   -0.00069924    0.00274633
     atom   12 type  1   force =     0.00356126   -0.00065815    0.00276354
     atom   13 type  1   force =    -0.00183725   -0.00135842    0.01068118
     atom   14 type  1   force =     0.00003804    0.00075090   -0.00061348
     atom   15 type  1   force =     0.00176155   -0.00135456    0.01067155
     atom   16 type  1   force =    -0.00261227   -0.00057282    0.00786879
     atom   17 type  1   force =     0.00261505   -0.00061445    0.00783016
     atom   18 type  1   force =    -0.00004008   -0.00335835    0.00547192
     atom   19 type  1   force =    -0.00061826    0.00057306   -0.00055673
     atom   20 type  1   force =     0.00061956    0.00058241   -0.00054487
     atom   21 type  1   force =     0.00000204   -0.00008515   -0.00038869
     atom   22 type  1   force =     0.00000524    0.00106029    0.00085328
     atom   23 type  1   force =     0.00036985    0.00040539   -0.00016080
     atom   24 type  1   force =    -0.00037307    0.00039443   -0.00016790
     atom   25 type  1   force =     0.00082485    0.00090027    0.00150637
     atom   26 type  1   force =    -0.00000761    0.00033752   -0.00000225
     atom   27 type  1   force =    -0.00082392    0.00090428    0.00150466
     atom   28 type  1   force =     0.00555561    0.00607549    0.00334384
     atom   29 type  1   force =    -0.00555810    0.00607390    0.00334537
     atom   30 type  1   force =    -0.00000484    0.00044461    0.00088457
     atom   31 type  1   force =     0.00002065    0.00640675   -0.01713257
     atom   32 type  1   force =     0.00096794    0.00152930   -0.00021171
     atom   33 type  1   force =    -0.00096236    0.00153032   -0.00021435
     atom   34 type  1   force =     0.00150843    0.00475256    0.00014977
     atom   35 type  1   force =    -0.00000623    0.00189257    0.00059197
     atom   36 type  1   force =    -0.00148804    0.00475971    0.00015624
     atom   37 type  2   force =    -0.00000991    0.00900931    0.01771131
     atom   38 type  3   force =     0.00003424   -0.03800532   -0.01612525
     atom   39 type  2   force =     0.00001552   -0.00452830   -0.00278090
     The non-local contrib.  to forces
     atom    1 type  1   force =     0.00167849   -0.00060111   -0.02144206
     atom    2 type  1   force =    -0.00167452   -0.00064545   -0.02144526
     atom    3 type  1   force =    -0.00000560   -0.00032443   -0.02051479
     atom    4 type  1   force =    -0.00003308   -0.00025303   -0.02092919
     atom    5 type  1   force =     0.00120382    0.00101481   -0.02028640
     atom    6 type  1   force =    -0.00117806    0.00104240   -0.02026765
     atom    7 type  1   force =    -0.00161270   -0.00109385   -0.02000651
     atom    8 type  1   force =     0.00004108    0.00032412   -0.02340701
     atom    9 type  1   force =     0.00156931   -0.00111019   -0.01999314
     atom   10 type  1   force =    -0.00003895    0.00068565    0.00462016
     atom   11 type  1   force =    -0.00490417    0.00118420    0.00093846
     atom   12 type  1   force =     0.00490248    0.00122996    0.00096562
     atom   13 type  1   force =    -0.00192845   -0.00247460    0.00314717
     atom   14 type  1   force =     0.00003866    0.00233705   -0.00259110
     atom   15 type  1   force =     0.00184510   -0.00246457    0.00315145
     atom   16 type  1   force =     0.00295056   -0.00017469    0.00023114
     atom   17 type  1   force =    -0.00294554   -0.00021798    0.00020259
     atom   18 type  1   force =    -0.00004425   -0.00243258    0.00673680
     atom   19 type  1   force =    -0.01041385   -0.00405559    0.00557608
     atom   20 type  1   force =     0.01040559   -0.00406163    0.00558590
     atom   21 type  1   force =     0.00001673    0.00338105    0.01601396
     atom   22 type  1   force =    -0.00000821    0.01464105    0.02015294
     atom   23 type  1   force =     0.01044946   -0.00482608    0.00216597
     atom   24 type  1   force =    -0.01042913   -0.00484270    0.00216729
     atom   25 type  1   force =    -0.00314111    0.00018453    0.00049394
     atom   26 type  1   force =     0.00000090   -0.00317775    0.01411830
     atom   27 type  1   force =     0.00314700    0.00016933    0.00048972
     atom   28 type  1   force =     0.06842537    0.02359932   -0.01293764
     atom   29 type  1   force =    -0.06844890    0.02351764   -0.01295463
     atom   30 type  1   force =     0.00000128   -0.04561924    0.03479449
     atom   31 type  1   force =     0.00008373   -0.04872850    0.00276000
     atom   32 type  1   force =    -0.02019671    0.00715636    0.02103368
     atom   33 type  1   force =     0.02023494    0.00716426    0.02100814
     atom   34 type  1   force =    -0.09091254   -0.03247287    0.00794802
     atom   35 type  1   force =     0.00003153    0.02987218    0.02717377
     atom   36 type  1   force =     0.09096422   -0.03251020    0.00794677
     atom   37 type  2   force =    -0.00012962    0.35956014   -0.19995268
     atom   38 type  3   force =     0.00001519   -0.00396413   -0.03150279
     atom   39 type  2   force =     0.00002469   -0.16400077   -0.46278159
     The ionic contribution  to forces
     atom    1 type  1   force =     0.00876630    0.01183786  -94.33591343
     atom    2 type  1   force =    -0.00879032    0.01190361  -94.33596612
     atom    3 type  1   force =     0.00002306   -0.03100972  -94.35791637
     atom    4 type  1   force =     0.00004362    0.00563950  -94.29774240
     atom    5 type  1   force =    -0.04041155   -0.00257234  -94.37114805
     atom    6 type  1   force =     0.04036659   -0.00263055  -94.37124646
     atom    7 type  1   force =    -0.02845070   -0.00609163  -94.32610213
     atom    8 type  1   force =    -0.00007441    0.01894433  -94.37521474
     atom    9 type  1   force =     0.02852334   -0.00607799  -94.32625086
     atom   10 type  1   force =    -0.00034157    0.15569118  -33.26487005
     atom   11 type  1   force =    -0.29886214   -0.09618591  -33.42117855
     atom   12 type  1   force =     0.29864685   -0.09667553  -33.42145137
     atom   13 type  1   force =    -0.26238644   -0.07531533  -33.24768413
     atom   14 type  1   force =    -0.00069978    0.16935595  -33.64569604
     atom   15 type  1   force =     0.26253558   -0.07570399  -33.24860124
     atom   16 type  1   force =    -0.06476617    0.07972462  -33.46022586
     atom   17 type  1   force =     0.06396915    0.08003603  -33.46101784
     atom   18 type  1   force =     0.00036932   -0.16412314  -33.10085988
     atom   19 type  1   force =     0.48130887    0.18736969   29.13161730
     atom   20 type  1   force =    -0.47902143    0.18923130   29.13039915
     atom   21 type  1   force =    -0.00207379   -0.13667829   25.92270182
     atom   22 type  1   force =     0.00239933   -0.14432015   28.95412303
     atom   23 type  1   force =    -0.23462068   -0.02293954   27.12477916
     atom   24 type  1   force =     0.23245260   -0.02230179   27.12325125
     atom   25 type  1   force =    -0.20091857   -0.12234057   27.72262553
     atom   26 type  1   force =    -0.00039694    0.25727192   27.92645229
     atom   27 type  1   force =     0.20138886   -0.11970540   27.72147436
     atom   28 type  1   force =    -2.61576587   -1.21804000   88.23244366
     atom   29 type  1   force =     2.61666261   -1.21600389   88.23204432
     atom   30 type  1   force =    -0.00100641    0.43203232   88.16086376
     atom   31 type  1   force =     0.00301588   -0.35759018   90.53282371
     atom   32 type  1   force =     0.46105510    0.10599142   88.14650748
     atom   33 type  1   force =    -0.46443406    0.10560048   88.14620008
     atom   34 type  1   force =     3.30819272    1.04880355   87.46748615
     atom   35 type  1   force =    -0.00106916   -0.21249827   88.27676042
     atom   36 type  1   force =    -3.30654179    1.05151286   87.46610870
     atom   37 type  2   force =     0.00109250   -1.21587108   45.27118756
     atom   38 type  3   force =    -0.00071445    0.07731703   12.28865306
     atom   39 type  2   force =     0.00053396    1.35641161   46.39058273
     The local contribution  to forces
     atom    1 type  1   force =    -0.01093754   -0.01086498   94.33652802
     atom    2 type  1   force =     0.01095270   -0.01076566   94.33657901
     atom    3 type  1   force =     0.00000628    0.02853784   94.35390859
     atom    4 type  1   force =     0.00009201   -0.00424322   94.29675666
     atom    5 type  1   force =     0.03991753    0.00176927   94.36553384
     atom    6 type  1   force =    -0.03998883    0.00172015   94.36554893
     atom    7 type  1   force =     0.02889341    0.00774639   94.32126361
     atom    8 type  1   force =    -0.00007864   -0.01970989   94.37758003
     atom    9 type  1   force =    -0.02879302    0.00779013   94.32133920
     atom   10 type  1   force =     0.00042002   -0.15355734   33.28083755
     atom   11 type  1   force =     0.29943430    0.09400801   33.42364866
     atom   12 type  1   force =    -0.29929279    0.09430810   33.42385553
     atom   13 type  1   force =     0.26230158    0.07615231   33.25624389
     atom   14 type  1   force =     0.00049271   -0.17022839   33.64755394
     atom   15 type  1   force =    -0.26223462    0.07651322   33.25716370
     atom   16 type  1   force =     0.05889115   -0.07981316   33.46832350
     atom   17 type  1   force =    -0.05821401   -0.07995643   33.46917693
     atom   18 type  1   force =    -0.00024868    0.16322223   33.10142270
     atom   19 type  1   force =    -0.47087917   -0.18251627  -29.13446723
     atom   20 type  1   force =     0.46876396   -0.18429058  -29.13329817
     atom   21 type  1   force =     0.00190805    0.13267440  -25.93744885
     atom   22 type  1   force =    -0.00225686    0.13178204  -28.96951883
     atom   23 type  1   force =     0.22442198    0.02820385  -27.12599494
     atom   24 type  1   force =    -0.22240079    0.02766372  -27.12438438
     atom   25 type  1   force =     0.20393576    0.12291016  -27.71969667
     atom   26 type  1   force =     0.00039694   -0.25376545  -27.93780063
     atom   27 type  1   force =    -0.20441557    0.12045857  -27.71850373
     atom   28 type  1   force =     2.53439706    1.19241251  -88.21609434
     atom   29 type  1   force =    -2.53521976    1.19051580  -88.21572500
     atom   30 type  1   force =     0.00094631   -0.38807832  -88.17936995
     atom   31 type  1   force =    -0.00300650    0.41779241  -90.57323680
     atom   32 type  1   force =    -0.44319454   -0.11121195  -88.15170941
     atom   33 type  1   force =     0.44644722   -0.11081761  -88.15129227
     atom   34 type  1   force =    -3.19334308   -1.00537417  -87.47867383
     atom   35 type  1   force =     0.00099376    0.18706941  -88.28695561
     atom   36 type  1   force =     3.19169234   -1.00795609  -87.47725686
     atom   37 type  2   force =    -0.00098229    0.87194864  -45.05775930
     atom   38 type  3   force =     0.00073679   -0.11136441  -12.27332036
     atom   39 type  2   force =    -0.00052596   -1.20033730  -45.93942824
     The core correction contribution to forces
     atom    1 type  1   force =     0.00001803   -0.00007233    0.01689312
     atom    2 type  1   force =    -0.00001862   -0.00007202    0.01689276
     atom    3 type  1   force =    -0.00000038    0.00015830    0.01716991
     atom    4 type  1   force =    -0.00000041   -0.00007207    0.01673927
     atom    5 type  1   force =     0.00018840    0.00003206    0.01707021
     atom    6 type  1   force =    -0.00018896    0.00003211    0.01707009
     atom    7 type  1   force =    -0.00009327   -0.00009003    0.01715171
     atom    8 type  1   force =    -0.00000001   -0.00001445    0.01663186
     atom    9 type  1   force =     0.00009289   -0.00009040    0.01715198
     atom   10 type  1   force =     0.00000131   -0.00013075   -0.00040822
     atom   11 type  1   force =     0.00080520    0.00024218   -0.00003116
     atom   12 type  1   force =    -0.00080349    0.00024198   -0.00003145
     atom   13 type  1   force =     0.00030261    0.00028543   -0.00049405
     atom   14 type  1   force =     0.00000171   -0.00078803    0.00067574
     atom   15 type  1   force =    -0.00030119    0.00028695   -0.00049250
     atom   16 type  1   force =     0.00018195   -0.00024152    0.00006827
     atom   17 type  1   force =    -0.00017957   -0.00024227    0.00006899
     atom   18 type  1   force =     0.00000013    0.00018703   -0.00124122
     atom   19 type  1   force =    -0.00058503   -0.00039856   -0.00299081
     atom   20 type  1   force =     0.00057754   -0.00040471   -0.00299039
     atom   21 type  1   force =     0.00000614    0.00030429   -0.00144712
     atom   22 type  1   force =    -0.00000640   -0.00094470   -0.00357491
     atom   23 type  1   force =    -0.00000284    0.00005075   -0.00080555
     atom   24 type  1   force =     0.00000802    0.00005023   -0.00080895
     atom   25 type  1   force =     0.00093361    0.00014268   -0.00161107
     atom   26 type  1   force =     0.00000105    0.00005519   -0.00250177
     atom   27 type  1   force =    -0.00093441    0.00013506   -0.00161346
     atom   28 type  1   force =     0.01821352    0.00789000   -0.00018130
     atom   29 type  1   force =    -0.01821803    0.00788984   -0.00017872
     atom   30 type  1   force =     0.00000321    0.00209337   -0.01538749
     atom   31 type  1   force =    -0.00001090   -0.00504417    0.02037389
     atom   32 type  1   force =     0.00330415   -0.00044609   -0.01595129
     atom   33 type  1   force =    -0.00329574   -0.00044602   -0.01595086
     atom   34 type  1   force =    -0.02216381   -0.00605032    0.00325827
     atom   35 type  1   force =     0.00000331   -0.00249317   -0.01623875
     atom   36 type  1   force =     0.02215706   -0.00605671    0.00326142
     atom   37 type  2   force =     0.00002791   -0.00666058    0.00432064
     atom   38 type  3   force =     0.00000000    0.00000000    0.00000000
     atom   39 type  2   force =    -0.00001173    0.00344867    0.00892248
     The Hubbard contrib.    to forces
     atom    1 type  1   force =     0.00000000    0.00000000    0.00000000
     atom    2 type  1   force =     0.00000000    0.00000000    0.00000000
     atom    3 type  1   force =     0.00000000    0.00000000    0.00000000
     atom    4 type  1   force =     0.00000000    0.00000000    0.00000000
     atom    5 type  1   force =     0.00000000    0.00000000    0.00000000
     atom    6 type  1   force =     0.00000000    0.00000000    0.00000000
     atom    7 type  1   force =     0.00000000    0.00000000    0.00000000
     atom    8 type  1   force =     0.00000000    0.00000000    0.00000000
     atom    9 type  1   force =     0.00000000    0.00000000    0.00000000
     atom   10 type  1   force =     0.00000000    0.00000000    0.00000000
     atom   11 type  1   force =     0.00000000    0.00000000    0.00000000
     atom   12 type  1   force =     0.00000000    0.00000000    0.00000000
     atom   13 type  1   force =     0.00000000    0.00000000    0.00000000
     atom   14 type  1   force =     0.00000000    0.00000000    0.00000000
     atom   15 type  1   force =     0.00000000    0.00000000    0.00000000
     atom   16 type  1   force =     0.00000000    0.00000000    0.00000000
     atom   17 type  1   force =     0.00000000    0.00000000    0.00000000
     atom   18 type  1   force =     0.00000000    0.00000000    0.00000000
     atom   19 type  1   force =     0.00000000    0.00000000    0.00000000
     atom   20 type  1   force =     0.00000000    0.00000000    0.00000000
     atom   21 type  1   force =     0.00000000    0.00000000    0.00000000
     atom   22 type  1   force =     0.00000000    0.00000000    0.00000000
     atom   23 type  1   force =     0.00000000    0.00000000    0.00000000
     atom   24 type  1   force =     0.00000000    0.00000000    0.00000000
     atom   25 type  1   force =     0.00000000    0.00000000    0.00000000
     atom   26 type  1   force =     0.00000000    0.00000000    0.00000000
     atom   27 type  1   force =     0.00000000    0.00000000    0.00000000
     atom   28 type  1   force =     0.00000000    0.00000000    0.00000000
     atom   29 type  1   force =     0.00000000    0.00000000    0.00000000
     atom   30 type  1   force =     0.00000000    0.00000000    0.00000000
     atom   31 type  1   force =     0.00000000    0.00000000    0.00000000
     atom   32 type  1   force =     0.00000000    0.00000000    0.00000000
     atom   33 type  1   force =     0.00000000    0.00000000    0.00000000
     atom   34 type  1   force =     0.00000000    0.00000000    0.00000000
     atom   35 type  1   force =     0.00000000    0.00000000    0.00000000
     atom   36 type  1   force =     0.00000000    0.00000000    0.00000000
     atom   37 type  2   force =     0.00000000    0.00000000    0.00000000
     atom   38 type  3   force =     0.00000000    0.00000000    0.00000000
     atom   39 type  2   force =     0.00000000    0.00000000    0.00000000
     The SCF correction term to forces
     atom    1 type  1   force =     0.00000000    0.00000000   -0.00000000
     atom    2 type  1   force =    -0.00000000   -0.00000000   -0.00000000
     atom    3 type  1   force =    -0.00000000    0.00000000   -0.00000000
     atom    4 type  1   force =    -0.00000000    0.00000000   -0.00000000
     atom    5 type  1   force =     0.00000000   -0.00000000   -0.00000000
     atom    6 type  1   force =     0.00000000    0.00000000   -0.00000000
     atom    7 type  1   force =    -0.00000000   -0.00000000   -0.00000000
     atom    8 type  1   force =     0.00000000   -0.00000000   -0.00000000
     atom    9 type  1   force =    -0.00000000   -0.00000000   -0.00000000
     atom   10 type  1   force =    -0.00000000    0.00000000   -0.00000000
     atom   11 type  1   force =    -0.00000000    0.00000000   -0.00000000
     atom   12 type  1   force =     0.00000000    0.00000000   -0.00000000
     atom   13 type  1   force =    -0.00000000   -0.00000000   -0.00000000
     atom   14 type  1   force =     0.00000000    0.00000000   -0.00000000
     atom   15 type  1   force =    -0.00000000    0.00000000   -0.00000000
     atom   16 type  1   force =     0.00000000   -0.00000000   -0.00000000
     atom   17 type  1   force =    -0.00000000   -0.00000000   -0.00000000
     atom   18 type  1   force =    -0.00000000   -0.00000000   -0.00000000
     atom   19 type  1   force =    -0.00004823    0.00017714   -0.00036394
     atom   20 type  1   force =    -0.00010524    0.00011138   -0.00031324
     atom   21 type  1   force =     0.00014577    0.00023675   -0.00028039
     atom   22 type  1   force =    -0.00012177   -0.00009459   -0.00040083
     atom   23 type  1   force =     0.00012279   -0.00008023   -0.00037732
     atom   24 type  1   force =    -0.00000291   -0.00017168   -0.00046500
     atom   25 type  1   force =     0.00001602    0.00000683   -0.00037724
     atom   26 type  1   force =    -0.00000870   -0.00004303   -0.00034233
     atom   27 type  1   force =    -0.00000895   -0.00014992   -0.00041410
     atom   28 type  1   force =     0.00028639    0.00021701    0.00004157
     atom   29 type  1   force =    -0.00033316    0.00015786    0.00008751
     atom   30 type  1   force =     0.00005162    0.00001983   -0.00008812
     atom   31 type  1   force =    -0.00006070   -0.00001947    0.00007475
     atom   32 type  1   force =     0.00000079    0.00004291   -0.00016406
     atom   33 type  1   force =     0.00008614    0.00003256   -0.00025132
     atom   34 type  1   force =    -0.00026401   -0.00015028    0.00005928
     atom   35 type  1   force =     0.00003519   -0.00005423   -0.00021974
     atom   36 type  1   force =     0.00024098   -0.00022681    0.00002433
     atom   37 type  2   force =    -0.00001755    0.00003554   -0.00015679
     atom   38 type  3   force =    -0.00000243    0.00000955   -0.00002704
     atom   39 type  2   force =    -0.00000458   -0.00004716   -0.00014816

     Total force =     0.051901     Total SCF correction =     0.001483

     Writing all to output data dir ./pwscf.save/

     init_run     :     11.01s CPU     11.45s WALL (       1 calls)
     electrons    :    368.69s CPU    384.54s WALL (       1 calls)
     forces       :      3.93s CPU      4.70s WALL (       1 calls)

     Called by init_run:
     wfcinit      :      5.91s CPU      6.19s WALL (       1 calls)
     potinit      :      3.30s CPU      3.41s WALL (       1 calls)
     hinit0       :      1.01s CPU      1.03s WALL (       1 calls)

     Called by electrons:
     c_bands      :    298.97s CPU    308.50s WALL (      19 calls)
     sum_band     :     46.02s CPU     48.50s WALL (      19 calls)
     v_of_rho     :      9.01s CPU     11.25s WALL (      19 calls)
     newd         :      2.99s CPU      3.77s WALL (      19 calls)
     PAW_pot      :      4.09s CPU      4.37s WALL (      19 calls)
     mix_rho      :      9.55s CPU      9.92s WALL (      19 calls)
     vdW_kernel   :      1.74s CPU      1.76s WALL (       1 calls)

     Called by c_bands:
     init_us_2    :      2.84s CPU      3.06s WALL (     520 calls)
     init_us_2:cp :      2.83s CPU      3.06s WALL (     520 calls)
     cegterg      :    291.29s CPU    300.28s WALL (     247 calls)

     Called by *egterg:
     cdiaghg      :     79.07s CPU     80.83s WALL (    1134 calls)
     h_psi        :    135.99s CPU    140.59s WALL (    1160 calls)
     s_psi        :     15.17s CPU     15.54s WALL (    1160 calls)
     g_psi        :      0.45s CPU      0.47s WALL (     900 calls)

     Called by h_psi:
     h_psi:calbec :     22.41s CPU     23.56s WALL (    1160 calls)
     vloc_psi     :     97.11s CPU    100.06s WALL (    1160 calls)
     add_vuspsi   :     15.38s CPU     15.83s WALL (    1160 calls)

     General routines
     calbec       :     32.22s CPU     33.72s WALL (    1459 calls)
     fft          :     10.45s CPU     12.97s WALL (    1257 calls)
     ffts         :      5.86s CPU      5.95s WALL (    4709 calls)
     fftw         :    103.11s CPU    106.42s WALL (  319806 calls)
     interpolate  :      0.61s CPU      0.67s WALL (      19 calls)

     Parallel routines

     PWSCF        :   6m25.41s CPU   6m45.43s WALL


   This run was terminated on:  15:32:56   6Dec2025            

=------------------------------------------------------------------------------=
   JOB DONE.
=------------------------------------------------------------------------------=
