
     Program PWSCF v.7.1 starts on 14Dec2025 at  9:40:24 
        Git branch: heads/qe-7.1
        Last git commit: 48ba0178f8fede6d020eb786884699a9f063f55d-dirty
        Last git commit date: Fri Jan 27 14:22:33 2023 +0000
        Last git commit subject: Merge branch 'fix_hubbard' into 'develop'

     This program is part of the open-source Quantum ESPRESSO suite
     for quantum simulation of materials; please cite
         "P. Giannozzi et al., J. Phys.:Condens. Matter 21 395502 (2009);
         "P. Giannozzi et al., J. Phys.:Condens. Matter 29 465901 (2017);
         "P. Giannozzi et al., J. Chem. Phys. 152 154105 (2020);
          URL http://www.quantum-espresso.org", 
     in publications or presentations arising from this work. More details at
     http://www.quantum-espresso.org/quote

     Parallel version (MPI), running on    96 processors

     MPI processes distributed on     2 nodes
     200603 MiB available memory on the printing compute node when the environment starts

     Reading input from espresso.pwi
Warning: card &CELL ignored
Warning: card / ignored
Warning: card &FCP ignored
Warning: card / ignored
Warning: card &RISM ignored
Warning: card / ignored

     Current dimensions of program PWSCF are:
     Max number of different atomic species (ntypx) = 10
     Max number of k-points (npk) =  40000
     Max angular momentum in pseudopotentials (lmaxx) =  4
     file Co.pbe-n-kjpaw_psl.1.0.0.UPF: wavefunction(s)  4S 3D renormalized
     file C.pbe-n-kjpaw_psl.1.0.0.UPF: wavefunction(s)  2S 2P renormalized
     file O.pbe-nl-kjpaw_psl.1.0.0.UPF: wavefunction(s)  2S 2P renormalized
     file H.pbe-kjpaw_psl.1.0.0.UPF: wavefunction(s)  1S renormalized

     **************************************************************************
     Initializing libbeef V0.1.2 with the BEEF-vdW functional.
     Citation: Wellendorff et al., PRB 85, 235149 (2012).
     **************************************************************************


     IMPORTANT: XC functional enforced from input :
     Exchange-correlation= BEEF-VDW
                           (   1   4  43  14   2   0   0)
     Any further DFT definition will be discarded
     Please, verify this is what you really want


     R & G space division:  proc/nbgrp/npool/nimage =      96
     Subspace diagonalization in iterative solution of the eigenvalue problem:
     one sub-group per band group will be used
     custom distributed-memory algorithm (size of sub-group:  2*  2 procs)


     Parallelization info
     --------------------
     sticks:   dense  smooth     PW     G-vecs:    dense   smooth      PW
     Min          43      28      7                 7829     4248     595
     Max          44      29      8                 7845     4281     630
     Sum        4153    2773    757               752179   409445   59217

     Using Slab Decomposition



     bravais-lattice index     =            0
     lattice parameter (alat)  =      14.1729  a.u.
     unit-cell volume          =    8574.3059 (a.u.)^3
     number of atoms/cell      =           39
     number of atomic types    =            4
     number of electrons       =       335.00
     number of Kohn-Sham states=          202
     kinetic-energy cutoff     =      50.0000  Ry
     charge density cutoff     =     300.0000  Ry
     scf convergence threshold =      1.0E-08
     mixing beta               =       0.7000
     number of iterations used =            8  local-TF  mixing
     Exchange-correlation= BEEF-VDW
                           (   1   4  43  14   2   0   0)

     celldm(1)=  14.172946  celldm(2)=   0.000000  celldm(3)=   0.000000
     celldm(4)=   0.000000  celldm(5)=   0.000000  celldm(6)=   0.000000

     crystal axes: (cart. coord. in units of alat)
               a(1) = (   1.000000   0.000000   0.000000 )  
               a(2) = (   0.500000   0.866025   0.000000 )  
               a(3) = (   0.000000   0.000000   3.477667 )  

     reciprocal axes: (cart. coord. in units 2 pi/alat)
               b(1) = (  1.000000 -0.577350  0.000000 )  
               b(2) = (  0.000000  1.154701  0.000000 )  
               b(3) = (  0.000000  0.000000  0.287549 )  


     PseudoPot. # 1 for Co read from file:
     /users/kbadger1/espresso/pseudo/pslibrary.1.0.0/pbe/PSEUDOPOTENTIALS/Co.pbe-n-kjpaw_psl.1.0.0.UPF
     MD5 check sum: 88af6ec42553d4236c267fdfcb472151
     Pseudo is Projector augmented-wave + core cor, Zval =  9.0
     Generated using 'atomic' code by A. Dal Corso  v.7.0
     Shape of augmentation charge: PSQ
     Using radial grid of 1193 points,  6 beta functions with: 
                l(1) =   0
                l(2) =   0
                l(3) =   1
                l(4) =   1
                l(5) =   2
                l(6) =   2
     Q(r) pseudized with 0 coefficients 


     PseudoPot. # 2 for C  read from file:
     /users/kbadger1/espresso/pseudo/pslibrary.1.0.0/pbe/PSEUDOPOTENTIALS/C.pbe-n-kjpaw_psl.1.0.0.UPF
     MD5 check sum: 6408e75cdba28732cea38a4db8498ce4
     Pseudo is Projector augmented-wave + core cor, Zval =  4.0
     Generated using 'atomic' code by A. Dal Corso  v.7.0
     Shape of augmentation charge: PSQ
     Using radial grid of 1073 points,  4 beta functions with: 
                l(1) =   0
                l(2) =   0
                l(3) =   1
                l(4) =   1
     Q(r) pseudized with 0 coefficients 


     PseudoPot. # 3 for O  read from file:
     /users/kbadger1/espresso/pseudo/pslibrary.1.0.0/pbe/PSEUDOPOTENTIALS/O.pbe-nl-kjpaw_psl.1.0.0.UPF
     MD5 check sum: f0439fab3598ca4e468f064226030408
     Pseudo is Projector augmented-wave + core cor, Zval =  6.0
     Generated using 'atomic' code by A. Dal Corso  v.7.0
     Shape of augmentation charge: PSQ
     Using radial grid of 1095 points,  4 beta functions with: 
                l(1) =   0
                l(2) =   0
                l(3) =   1
                l(4) =   1
     Q(r) pseudized with 0 coefficients 


     PseudoPot. # 4 for H  read from file:
     /users/kbadger1/espresso/pseudo/pslibrary.1.0.0/pbe/PSEUDOPOTENTIALS/H.pbe-kjpaw_psl.1.0.0.UPF
     MD5 check sum: fe4c6fa958fa6d3815bf5d2419cbf1df
     Pseudo is Projector augmented-wave, Zval =  1.0
     Generated using 'atomic' code by A. Dal Corso  v.7.0
     Shape of augmentation charge: PSQ
     Using radial grid of  929 points,  2 beta functions with: 
                l(1) =   0
                l(2) =   0
     Q(r) pseudized with 0 coefficients 


     atomic species   valence    mass     pseudopotential
        Co             9.00    58.93319     Co( 1.00)
        C              4.00    12.00000     C ( 1.00)
        O              6.00    15.99491     O ( 1.00)
        H              1.00     1.00783     H ( 1.00)

     Starting magnetic structure 
     atomic species   magnetization
        Co           1.000
        C            1.000
        O            0.000
        H            0.000

     No symmetry found



   Cartesian axes

     site n.     atom                  positions (alat units)
         1           Co  tau(   1) = (   0.0000000   0.1924501   1.3333333  )
         2           Co  tau(   2) = (   0.3333333   0.1924501   1.3333333  )
         3           Co  tau(   3) = (   0.6666667   0.1924501   1.3333333  )
         4           Co  tau(   4) = (   0.1666667   0.4811252   1.3333333  )
         5           Co  tau(   5) = (   0.5000000   0.4811252   1.3333333  )
         6           Co  tau(   6) = (   0.8333333   0.4811252   1.3333333  )
         7           Co  tau(   7) = (   0.3333333   0.7698004   1.3333333  )
         8           Co  tau(   8) = (   0.6666667   0.7698004   1.3333333  )
         9           Co  tau(   9) = (   1.0000000   0.7698004   1.3333333  )
        10           Co  tau(  10) = (   0.0000000   0.0000000   1.6036667  )
        11           Co  tau(  11) = (   0.3333333   0.0000000   1.6036667  )
        12           Co  tau(  12) = (   0.6666667   0.0000000   1.6036667  )
        13           Co  tau(  13) = (   0.1666667   0.2886751   1.6036667  )
        14           Co  tau(  14) = (   0.5000000   0.2886751   1.6036667  )
        15           Co  tau(  15) = (   0.8333333   0.2886751   1.6036667  )
        16           Co  tau(  16) = (   0.3333333   0.5773503   1.6036667  )
        17           Co  tau(  17) = (   0.6666667   0.5773503   1.6036667  )
        18           Co  tau(  18) = (   1.0000000   0.5773503   1.6036667  )
        19           Co  tau(  19) = (   0.0000000   0.1924501   1.8740000  )
        20           Co  tau(  20) = (   0.3333333   0.1924501   1.8740000  )
        21           Co  tau(  21) = (   0.6666667   0.1924501   1.8740000  )
        22           Co  tau(  22) = (   0.1666667   0.4811252   1.8740000  )
        23           Co  tau(  23) = (   0.5000000   0.4811252   1.8740000  )
        24           Co  tau(  24) = (   0.8333333   0.4811252   1.8740000  )
        25           Co  tau(  25) = (   0.3333333   0.7698004   1.8740000  )
        26           Co  tau(  26) = (   0.6666667   0.7698004   1.8740000  )
        27           Co  tau(  27) = (   1.0000000   0.7698004   1.8740000  )
        28           Co  tau(  28) = (   0.0000000   0.0000000   2.1443333  )
        29           Co  tau(  29) = (   0.3333333   0.0000000   2.1443333  )
        30           Co  tau(  30) = (   0.6666667   0.0000000   2.1443333  )
        31           Co  tau(  31) = (   0.1666667   0.2886751   2.1443333  )
        32           Co  tau(  32) = (   0.5000000   0.2886751   2.1443333  )
        33           Co  tau(  33) = (   0.8333333   0.2886751   2.1443333  )
        34           Co  tau(  34) = (   0.3333333   0.5773503   2.1443333  )
        35           Co  tau(  35) = (   0.6666667   0.5773503   2.1443333  )
        36           Co  tau(  36) = (   1.0000000   0.5773503   2.1443333  )
        37           C   tau(  37) = (   0.4168197   0.1976185   2.3607540  )
        38           O   tau(  38) = (   0.3190934   0.0793745   2.4270957  )
        39           H   tau(  39) = (   0.4943522   0.2860644   2.4505210  )

     number of k points=    13  Marzari-Vanderbilt smearing, width (Ry)=  0.0010
                       cart. coord. in units 2pi/alat
        k(    1) = (   0.0000000   0.0000000   0.0000000), wk =   0.0400000
        k(    2) = (   0.0000000   0.2309401   0.0000000), wk =   0.0800000
        k(    3) = (   0.0000000   0.4618802   0.0000000), wk =   0.0800000
        k(    4) = (   0.2000000  -0.1154701   0.0000000), wk =   0.0800000
        k(    5) = (   0.2000000   0.1154701   0.0000000), wk =   0.0800000
        k(    6) = (   0.2000000   0.3464102   0.0000000), wk =   0.0800000
        k(    7) = (   0.2000000  -0.5773503   0.0000000), wk =   0.0800000
        k(    8) = (   0.2000000  -0.3464102   0.0000000), wk =   0.0800000
        k(    9) = (   0.4000000  -0.2309401   0.0000000), wk =   0.0800000
        k(   10) = (   0.4000000   0.0000000   0.0000000), wk =   0.0800000
        k(   11) = (   0.4000000   0.2309401   0.0000000), wk =   0.0800000
        k(   12) = (   0.4000000  -0.6928203   0.0000000), wk =   0.0800000
        k(   13) = (   0.4000000  -0.4618802   0.0000000), wk =   0.0800000

     Dense  grid:   752179 G-vectors     FFT dimensions: (  80,  80, 288)

     Smooth grid:   409445 G-vectors     FFT dimensions: (  64,  64, 225)

     Estimated max dynamical RAM per process >      99.02 MB

     Estimated total dynamical RAM >       9.28 GB
     Generating pointlists ...
     new r_m :   0.1028 (alat units)  1.4563 (a.u.) for type    1
     new r_m :   0.0610 (alat units)  0.8650 (a.u.) for type    2
     new r_m :   0.0689 (alat units)  0.9771 (a.u.) for type    3
     new r_m :   0.0610 (alat units)  0.8650 (a.u.) for type    4

     Initial potential from superposition of free atoms

     starting charge     334.9897, renormalised to     335.0000

     negative rho (up, down):  3.012E-03 4.711E-04


     %%%%%%%%%%%%%%%%%%%%%%%%%%%%%%%%%%%%%%%%%%%%%%%%%%%%%%%%%%%%%%%%%%%%%%%%
     %                                                                      %
     % You are using vdW-DF, which was implemented by the Thonhauser group. %
     % Please cite the following two papers that made this development      %
     % possible and the two reviews that describe the various versions:     %
     %                                                                      %
     %   T. Thonhauser et al., PRL 115, 136402 (2015).                      %
     %   T. Thonhauser et al., PRB 76, 125112 (2007).                       %
     %   K. Berland et al., Rep. Prog. Phys. 78, 066501 (2015).             %
     %   D.C. Langreth et al., J. Phys.: Condens. Matter 21, 084203 (2009). %
     %                                                                      %
     % If you are calculating stress with vdW-DF, please also cite:         %
     %                                                                      %
     %   R. Sabatini et al., J. Phys.: Condens. Matter 24, 424209 (2012).   %
     %   C.M. Frostenson et al., Electr. Struct. 4, 014001 (2022).          %
     %                                                                      %
     %%%%%%%%%%%%%%%%%%%%%%%%%%%%%%%%%%%%%%%%%%%%%%%%%%%%%%%%%%%%%%%%%%%%%%%%

     %%%%%%%%%%%%%%%%%%%%%%%%%%%%%%%%%%%%%%%%%%%%%%%%%%%%%%%%%%%%%%%%%%%%%%%%
     %                                                                      %
     %  vdW-DF NEWS:                                                        %
     %                                                                      %
     %  * vdW-DF3 is now available. DOI: 10.1021/acs.jctc.0c00471           %
     %    use with input_dft = 'vdW-DF3-opt1' or 'vdW-DF3-opt2'             %
     %                                                                      %
     %  * Unscreened and range-separated hybrid vdW-DF-cx functionals       %
     %    DOI: 10.1063/1.4986522 and 10.1088/1361-648X/ac2ad2               %
     %    use with input_dft = 'vdW-DF-cx0'    and 'vdW-DF-ahcx'            %
     %  * Unscreened and range-separated hybrid vdW-DF2-b86r functionals    %
     %    DOI: 10.1063/1.4986522 and DOI: 10.1103/PhysRevX.12.041003        %
     %    use with input_dft = 'vdW-DF2-br0' and 'vdW-DF2-ahbr'             %
     %                                                                      %
     %%%%%%%%%%%%%%%%%%%%%%%%%%%%%%%%%%%%%%%%%%%%%%%%%%%%%%%%%%%%%%%%%%%%%%%%


     Starting wfcs are  333 randomized atomic wfcs
     Checking if some PAW data can be deallocated... 

     total cpu time spent up to now is       16.8 secs

     per-process dynamical memory:   230.2 Mb

     Self-consistent Calculation

     iteration #  1     ecut=    50.00 Ry     beta= 0.70
     Davidson diagonalization with overlap
     ethr =  1.00E-02,  avg # of iterations =  2.0

     negative rho (up, down):  2.300E-05 4.395E-08

     total cpu time spent up to now is       35.1 secs

     total energy              =   -6053.07634360 Ry
     estimated scf accuracy    <      39.74601242 Ry

     total magnetization       =    69.00 Bohr mag/cell
     absolute magnetization    =    81.23 Bohr mag/cell

     iteration #  2     ecut=    50.00 Ry     beta= 0.70
     Davidson diagonalization with overlap
     ethr =  1.00E-02,  avg # of iterations =  1.0

     negative rho (up, down):  2.361E-06 1.279E-09

     total cpu time spent up to now is       54.0 secs

     total energy              =   -6052.52172308 Ry
     estimated scf accuracy    <      24.69638760 Ry

     total magnetization       =    68.68 Bohr mag/cell
     absolute magnetization    =    76.71 Bohr mag/cell

     iteration #  3     ecut=    50.00 Ry     beta= 0.70
     Davidson diagonalization with overlap
     ethr =  7.37E-03,  avg # of iterations =  1.0

     total cpu time spent up to now is       72.4 secs

     total energy              =   -6055.12401372 Ry
     estimated scf accuracy    <      86.96769457 Ry

     total magnetization       =    65.80 Bohr mag/cell
     absolute magnetization    =    73.05 Bohr mag/cell

     iteration #  4     ecut=    50.00 Ry     beta= 0.70
     Davidson diagonalization with overlap
     ethr =  7.37E-03,  avg # of iterations =  1.0

     total cpu time spent up to now is       86.8 secs

     total energy              =   -6056.30752890 Ry
     estimated scf accuracy    <       5.78664818 Ry

     total magnetization       =    60.37 Bohr mag/cell
     absolute magnetization    =    70.37 Bohr mag/cell

     iteration #  5     ecut=    50.00 Ry     beta= 0.70
     Davidson diagonalization with overlap
     ethr =  1.73E-03,  avg # of iterations =  1.4

     total cpu time spent up to now is      105.3 secs

     total energy              =   -6056.36529566 Ry
     estimated scf accuracy    <       2.60832306 Ry

     total magnetization       =    60.26 Bohr mag/cell
     absolute magnetization    =    69.76 Bohr mag/cell

     iteration #  6     ecut=    50.00 Ry     beta= 0.70
     Davidson diagonalization with overlap
     ethr =  7.79E-04,  avg # of iterations =  1.6

     total cpu time spent up to now is      120.0 secs

     total energy              =   -6056.47056016 Ry
     estimated scf accuracy    <       0.58734903 Ry

     total magnetization       =    60.31 Bohr mag/cell
     absolute magnetization    =    69.62 Bohr mag/cell

     iteration #  7     ecut=    50.00 Ry     beta= 0.70
     Davidson diagonalization with overlap
     ethr =  1.75E-04,  avg # of iterations =  4.6

     total cpu time spent up to now is      143.5 secs

     total energy              =   -6056.50142966 Ry
     estimated scf accuracy    <       0.85208044 Ry

     total magnetization       =    60.25 Bohr mag/cell
     absolute magnetization    =    69.28 Bohr mag/cell

     iteration #  8     ecut=    50.00 Ry     beta= 0.70
     Davidson diagonalization with overlap
     ethr =  1.75E-04,  avg # of iterations =  1.7

     total cpu time spent up to now is      162.0 secs

     total energy              =   -6056.50834066 Ry
     estimated scf accuracy    <       0.15384563 Ry

     total magnetization       =    60.39 Bohr mag/cell
     absolute magnetization    =    69.24 Bohr mag/cell

     iteration #  9     ecut=    50.00 Ry     beta= 0.70
     Davidson diagonalization with overlap
     c_bands:  1 eigenvalues not converged
     ethr =  4.59E-05,  avg # of iterations = 12.7

     total cpu time spent up to now is      197.0 secs

     total energy              =   -6056.53802828 Ry
     estimated scf accuracy    <       0.26831223 Ry

     total magnetization       =    61.25 Bohr mag/cell
     absolute magnetization    =    69.29 Bohr mag/cell

     iteration # 10     ecut=    50.00 Ry     beta= 0.70
     Davidson diagonalization with overlap
     ethr =  4.59E-05,  avg # of iterations =  1.4

     total cpu time spent up to now is      210.5 secs

     total energy              =   -6056.53570123 Ry
     estimated scf accuracy    <       0.20178761 Ry

     total magnetization       =    61.25 Bohr mag/cell
     absolute magnetization    =    69.21 Bohr mag/cell

     iteration # 11     ecut=    50.00 Ry     beta= 0.70
     Davidson diagonalization with overlap
     ethr =  4.59E-05,  avg # of iterations =  1.5

     total cpu time spent up to now is      229.1 secs

     total energy              =   -6056.52978582 Ry
     estimated scf accuracy    <       0.12212508 Ry

     total magnetization       =    61.09 Bohr mag/cell
     absolute magnetization    =    68.94 Bohr mag/cell

     iteration # 12     ecut=    50.00 Ry     beta= 0.70
     Davidson diagonalization with overlap
     ethr =  3.65E-05,  avg # of iterations =  1.7

     negative rho (up, down):  4.423E-07 0.000E+00

     total cpu time spent up to now is      244.5 secs

     total energy              =   -6056.53138393 Ry
     estimated scf accuracy    <       0.11596012 Ry

     total magnetization       =    61.01 Bohr mag/cell
     absolute magnetization    =    68.69 Bohr mag/cell

     iteration # 13     ecut=    50.00 Ry     beta= 0.70
     Davidson diagonalization with overlap
     ethr =  3.46E-05,  avg # of iterations =  1.3

     total cpu time spent up to now is      262.7 secs

     total energy              =   -6056.52922336 Ry
     estimated scf accuracy    <       0.09200451 Ry

     total magnetization       =    61.06 Bohr mag/cell
     absolute magnetization    =    68.64 Bohr mag/cell

     iteration # 14     ecut=    50.00 Ry     beta= 0.70
     Davidson diagonalization with overlap
     ethr =  2.75E-05,  avg # of iterations =  1.4

     negative rho (up, down):  1.402E-06 0.000E+00

     total cpu time spent up to now is      280.7 secs

     total energy              =   -6056.52665996 Ry
     estimated scf accuracy    <       0.08118987 Ry

     total magnetization       =    61.25 Bohr mag/cell
     absolute magnetization    =    68.84 Bohr mag/cell

     iteration # 15     ecut=    50.00 Ry     beta= 0.70
     Davidson diagonalization with overlap
     ethr =  2.42E-05,  avg # of iterations =  1.3

     negative rho (up, down):  3.889E-04 1.292E-04

     total cpu time spent up to now is      295.0 secs

     total energy              =   -6056.52441257 Ry
     estimated scf accuracy    <       0.07765812 Ry

     total magnetization       =    61.16 Bohr mag/cell
     absolute magnetization    =    68.72 Bohr mag/cell

     iteration # 16     ecut=    50.00 Ry     beta= 0.70
     Davidson diagonalization with overlap
     ethr =  2.32E-05,  avg # of iterations =  1.2

     negative rho (up, down):  1.493E-02 1.371E-02

     total cpu time spent up to now is      313.7 secs

     total energy              =   -6056.51929997 Ry
     estimated scf accuracy    <       0.05406568 Ry

     total magnetization       =    61.19 Bohr mag/cell
     absolute magnetization    =    68.73 Bohr mag/cell

     iteration # 17     ecut=    50.00 Ry     beta= 0.70
     Davidson diagonalization with overlap
     ethr =  1.61E-05,  avg # of iterations =  3.0

     negative rho (up, down):  1.640E-02 1.504E-02

     total cpu time spent up to now is      329.5 secs

     total energy              =   -6056.51955759 Ry
     estimated scf accuracy    <       0.02270418 Ry

     total magnetization       =    61.25 Bohr mag/cell
     absolute magnetization    =    68.79 Bohr mag/cell

     iteration # 18     ecut=    50.00 Ry     beta= 0.70
     Davidson diagonalization with overlap
     c_bands:  1 eigenvalues not converged
     c_bands:  1 eigenvalues not converged
     c_bands:  4 eigenvalues not converged
     ethr =  6.78E-06,  avg # of iterations =  4.9

     negative rho (up, down):  7.292E-03 6.220E-03

     total cpu time spent up to now is      351.7 secs

     total energy              =   -6056.51961290 Ry
     estimated scf accuracy    <       0.03787003 Ry

     total magnetization       =    61.25 Bohr mag/cell
     absolute magnetization    =    68.74 Bohr mag/cell

     iteration # 19     ecut=    50.00 Ry     beta= 0.70
     Davidson diagonalization with overlap
     ethr =  6.78E-06,  avg # of iterations =  1.2

     negative rho (up, down):  1.585E-02 1.455E-02

     total cpu time spent up to now is      371.2 secs

     total energy              =   -6056.51821079 Ry
     estimated scf accuracy    <       0.02481412 Ry

     total magnetization       =    61.25 Bohr mag/cell
     absolute magnetization    =    68.76 Bohr mag/cell

     iteration # 20     ecut=    50.00 Ry     beta= 0.70
     Davidson diagonalization with overlap
     ethr =  6.78E-06,  avg # of iterations =  1.2

     negative rho (up, down):  1.864E-02 1.731E-02

     total cpu time spent up to now is      384.9 secs

     total energy              =   -6056.51719510 Ry
     estimated scf accuracy    <       0.02042979 Ry

     total magnetization       =    61.25 Bohr mag/cell
     absolute magnetization    =    68.75 Bohr mag/cell

     iteration # 21     ecut=    50.00 Ry     beta= 0.70
     Davidson diagonalization with overlap
     ethr =  6.10E-06,  avg # of iterations =  1.0

     negative rho (up, down):  1.394E-02 1.278E-02

     total cpu time spent up to now is      402.6 secs

     total energy              =   -6056.51713575 Ry
     estimated scf accuracy    <       0.01488583 Ry

     total magnetization       =    61.25 Bohr mag/cell
     absolute magnetization    =    68.74 Bohr mag/cell

     iteration # 22     ecut=    50.00 Ry     beta= 0.70
     Davidson diagonalization with overlap
     ethr =  4.44E-06,  avg # of iterations =  1.2

     negative rho (up, down):  1.357E-02 1.260E-02

     total cpu time spent up to now is      416.3 secs

     total energy              =   -6056.51610147 Ry
     estimated scf accuracy    <       0.01180181 Ry

     total magnetization       =    61.25 Bohr mag/cell
     absolute magnetization    =    68.75 Bohr mag/cell

     iteration # 23     ecut=    50.00 Ry     beta= 0.70
     Davidson diagonalization with overlap
     ethr =  3.52E-06,  avg # of iterations =  1.3

     negative rho (up, down):  2.025E-02 1.941E-02

     total cpu time spent up to now is      435.7 secs

     total energy              =   -6056.51592261 Ry
     estimated scf accuracy    <       0.00897646 Ry

     total magnetization       =    61.25 Bohr mag/cell
     absolute magnetization    =    68.75 Bohr mag/cell

     iteration # 24     ecut=    50.00 Ry     beta= 0.70
     Davidson diagonalization with overlap
     ethr =  2.68E-06,  avg # of iterations =  1.5

     negative rho (up, down):  1.319E-02 1.239E-02

     total cpu time spent up to now is      450.2 secs

     total energy              =   -6056.51572546 Ry
     estimated scf accuracy    <       0.00369759 Ry

     total magnetization       =    61.25 Bohr mag/cell
     absolute magnetization    =    68.76 Bohr mag/cell

     iteration # 25     ecut=    50.00 Ry     beta= 0.70
     Davidson diagonalization with overlap
     ethr =  1.10E-06,  avg # of iterations =  1.3

     negative rho (up, down):  8.271E-03 7.532E-03

     total cpu time spent up to now is      469.0 secs

     total energy              =   -6056.51537743 Ry
     estimated scf accuracy    <       0.00638205 Ry

     total magnetization       =    61.25 Bohr mag/cell
     absolute magnetization    =    68.76 Bohr mag/cell

     iteration # 26     ecut=    50.00 Ry     beta= 0.70
     Davidson diagonalization with overlap
     ethr =  1.10E-06,  avg # of iterations =  2.7

     negative rho (up, down):  8.988E-03 8.334E-03

     total cpu time spent up to now is      485.2 secs

     total energy              =   -6056.51553901 Ry
     estimated scf accuracy    <       0.00811148 Ry

     total magnetization       =    61.25 Bohr mag/cell
     absolute magnetization    =    68.77 Bohr mag/cell

     iteration # 27     ecut=    50.00 Ry     beta= 0.70
     Davidson diagonalization with overlap
     ethr =  1.10E-06,  avg # of iterations =  1.2

     negative rho (up, down):  8.195E-03 7.590E-03

     total cpu time spent up to now is      503.5 secs

     total energy              =   -6056.51603141 Ry
     estimated scf accuracy    <       0.00211843 Ry

     total magnetization       =    61.25 Bohr mag/cell
     absolute magnetization    =    68.78 Bohr mag/cell

     iteration # 28     ecut=    50.00 Ry     beta= 0.70
     Davidson diagonalization with overlap
     ethr =  6.32E-07,  avg # of iterations =  1.4

     negative rho (up, down):  6.158E-03 5.466E-03

     total cpu time spent up to now is      521.6 secs

     total energy              =   -6056.51611010 Ry
     estimated scf accuracy    <       0.00066471 Ry

     total magnetization       =    61.25 Bohr mag/cell
     absolute magnetization    =    68.78 Bohr mag/cell

     iteration # 29     ecut=    50.00 Ry     beta= 0.70
     Davidson diagonalization with overlap
     ethr =  1.98E-07,  avg # of iterations =  3.3

     negative rho (up, down):  5.696E-03 4.937E-03

     total cpu time spent up to now is      537.5 secs

     total energy              =   -6056.51614331 Ry
     estimated scf accuracy    <       0.00031255 Ry

     total magnetization       =    61.25 Bohr mag/cell
     absolute magnetization    =    68.78 Bohr mag/cell

     iteration # 30     ecut=    50.00 Ry     beta= 0.70
     Davidson diagonalization with overlap
     ethr =  9.33E-08,  avg # of iterations =  2.3

     negative rho (up, down):  4.678E-03 3.839E-03

     total cpu time spent up to now is      558.9 secs

     total energy              =   -6056.51611805 Ry
     estimated scf accuracy    <       0.00045049 Ry

     total magnetization       =    61.25 Bohr mag/cell
     absolute magnetization    =    68.78 Bohr mag/cell

     iteration # 31     ecut=    50.00 Ry     beta= 0.70
     Davidson diagonalization with overlap
     ethr =  9.33E-08,  avg # of iterations =  1.1

     negative rho (up, down):  4.098E-03 3.189E-03

     total cpu time spent up to now is      572.0 secs

     total energy              =   -6056.51612362 Ry
     estimated scf accuracy    <       0.00010833 Ry

     total magnetization       =    61.25 Bohr mag/cell
     absolute magnetization    =    68.78 Bohr mag/cell

     iteration # 32     ecut=    50.00 Ry     beta= 0.70
     Davidson diagonalization with overlap
     ethr =  3.23E-08,  avg # of iterations =  2.0

     negative rho (up, down):  3.555E-03 2.578E-03

     total cpu time spent up to now is      591.4 secs

     total energy              =   -6056.51611941 Ry
     estimated scf accuracy    <       0.00004105 Ry

     total magnetization       =    61.25 Bohr mag/cell
     absolute magnetization    =    68.78 Bohr mag/cell

     iteration # 33     ecut=    50.00 Ry     beta= 0.70
     Davidson diagonalization with overlap
     ethr =  1.23E-08,  avg # of iterations =  4.6

     negative rho (up, down):  2.935E-03 1.831E-03

     total cpu time spent up to now is      614.1 secs

     total energy              =   -6056.51612440 Ry
     estimated scf accuracy    <       0.00002746 Ry

     total magnetization       =    61.25 Bohr mag/cell
     absolute magnetization    =    68.78 Bohr mag/cell

     iteration # 34     ecut=    50.00 Ry     beta= 0.70
     Davidson diagonalization with overlap
     ethr =  8.20E-09,  avg # of iterations =  2.8

     negative rho (up, down):  2.366E-03 1.245E-03

     total cpu time spent up to now is      629.8 secs

     total energy              =   -6056.51611914 Ry
     estimated scf accuracy    <       0.00004625 Ry

     total magnetization       =    61.25 Bohr mag/cell
     absolute magnetization    =    68.78 Bohr mag/cell

     iteration # 35     ecut=    50.00 Ry     beta= 0.70
     Davidson diagonalization with overlap
     ethr =  8.20E-09,  avg # of iterations =  1.8

     negative rho (up, down):  2.199E-03 1.083E-03

     total cpu time spent up to now is      649.4 secs

     total energy              =   -6056.51611932 Ry
     estimated scf accuracy    <       0.00005711 Ry

     total magnetization       =    61.25 Bohr mag/cell
     absolute magnetization    =    68.78 Bohr mag/cell

     iteration # 36     ecut=    50.00 Ry     beta= 0.70
     Davidson diagonalization with overlap
     ethr =  8.20E-09,  avg # of iterations =  1.2

     negative rho (up, down):  2.157E-03 1.051E-03

     total cpu time spent up to now is      663.1 secs

     total energy              =   -6056.51612451 Ry
     estimated scf accuracy    <       0.00003512 Ry

     total magnetization       =    61.25 Bohr mag/cell
     absolute magnetization    =    68.78 Bohr mag/cell

     iteration # 37     ecut=    50.00 Ry     beta= 0.70
     Davidson diagonalization with overlap
     ethr =  8.20E-09,  avg # of iterations =  1.8

     negative rho (up, down):  2.256E-03 1.147E-03

     total cpu time spent up to now is      683.2 secs

     total energy              =   -6056.51612562 Ry
     estimated scf accuracy    <       0.00003772 Ry

     total magnetization       =    61.25 Bohr mag/cell
     absolute magnetization    =    68.78 Bohr mag/cell

     iteration # 38     ecut=    50.00 Ry     beta= 0.70
     Davidson diagonalization with overlap
     ethr =  8.20E-09,  avg # of iterations =  1.1

     negative rho (up, down):  2.130E-03 1.047E-03

     total cpu time spent up to now is      701.1 secs

     total energy              =   -6056.51612510 Ry
     estimated scf accuracy    <       0.00002662 Ry

     total magnetization       =    61.25 Bohr mag/cell
     absolute magnetization    =    68.78 Bohr mag/cell

     iteration # 39     ecut=    50.00 Ry     beta= 0.70
     Davidson diagonalization with overlap
     ethr =  7.95E-09,  avg # of iterations =  1.3

     negative rho (up, down):  2.136E-03 1.053E-03

     total cpu time spent up to now is      715.1 secs

     total energy              =   -6056.51612618 Ry
     estimated scf accuracy    <       0.00002328 Ry

     total magnetization       =    61.25 Bohr mag/cell
     absolute magnetization    =    68.78 Bohr mag/cell

     iteration # 40     ecut=    50.00 Ry     beta= 0.70
     Davidson diagonalization with overlap
     ethr =  6.95E-09,  avg # of iterations =  1.0

     negative rho (up, down):  2.193E-03 1.103E-03

     total cpu time spent up to now is      733.9 secs

     total energy              =   -6056.51612744 Ry
     estimated scf accuracy    <       0.00000225 Ry

     total magnetization       =    61.25 Bohr mag/cell
     absolute magnetization    =    68.78 Bohr mag/cell

     iteration # 41     ecut=    50.00 Ry     beta= 0.70
     Davidson diagonalization with overlap
     ethr =  6.71E-10,  avg # of iterations =  5.4

     negative rho (up, down):  2.193E-03 1.105E-03

     total cpu time spent up to now is      751.9 secs

     total energy              =   -6056.51612754 Ry
     estimated scf accuracy    <       0.00000207 Ry

     total magnetization       =    61.25 Bohr mag/cell
     absolute magnetization    =    68.78 Bohr mag/cell

     iteration # 42     ecut=    50.00 Ry     beta= 0.70
     Davidson diagonalization with overlap
     ethr =  6.18E-10,  avg # of iterations =  1.6

     negative rho (up, down):  2.197E-03 1.109E-03

     total cpu time spent up to now is      771.0 secs

     total energy              =   -6056.51612761 Ry
     estimated scf accuracy    <       0.00000089 Ry

     total magnetization       =    61.25 Bohr mag/cell
     absolute magnetization    =    68.78 Bohr mag/cell

     iteration # 43     ecut=    50.00 Ry     beta= 0.70
     Davidson diagonalization with overlap
     ethr =  2.66E-10,  avg # of iterations =  2.6

     negative rho (up, down):  2.205E-03 1.116E-03

     total cpu time spent up to now is      790.8 secs

     total energy              =   -6056.51612767 Ry
     estimated scf accuracy    <       0.00000035 Ry

     total magnetization       =    61.25 Bohr mag/cell
     absolute magnetization    =    68.78 Bohr mag/cell

     iteration # 44     ecut=    50.00 Ry     beta= 0.70
     Davidson diagonalization with overlap
     ethr =  1.03E-10,  avg # of iterations =  5.4

     negative rho (up, down):  2.217E-03 1.123E-03

     total cpu time spent up to now is      809.3 secs

     total energy              =   -6056.51612776 Ry
     estimated scf accuracy    <       0.00000012 Ry

     total magnetization       =    61.25 Bohr mag/cell
     absolute magnetization    =    68.78 Bohr mag/cell

     iteration # 45     ecut=    50.00 Ry     beta= 0.70
     Davidson diagonalization with overlap
     ethr =  3.64E-11,  avg # of iterations =  5.1

     negative rho (up, down):  2.213E-03 1.119E-03

     total cpu time spent up to now is      831.8 secs

     total energy              =   -6056.51612776 Ry
     estimated scf accuracy    <       0.00000029 Ry

     total magnetization       =    61.25 Bohr mag/cell
     absolute magnetization    =    68.78 Bohr mag/cell

     iteration # 46     ecut=    50.00 Ry     beta= 0.70
     Davidson diagonalization with overlap
     ethr =  3.64E-11,  avg # of iterations =  1.1

     negative rho (up, down):  2.213E-03 1.119E-03

     total cpu time spent up to now is      845.3 secs

     total energy              =   -6056.51612777 Ry
     estimated scf accuracy    <       0.00000002 Ry

     total magnetization       =    61.25 Bohr mag/cell
     absolute magnetization    =    68.78 Bohr mag/cell

     iteration # 47     ecut=    50.00 Ry     beta= 0.70
     Davidson diagonalization with overlap
     ethr =  6.96E-12,  avg # of iterations =  5.6

     negative rho (up, down):  2.215E-03 1.119E-03

     total cpu time spent up to now is      869.7 secs

     total energy              =   -6056.51612777 Ry
     estimated scf accuracy    <       0.00000003 Ry

     total magnetization       =    61.25 Bohr mag/cell
     absolute magnetization    =    68.78 Bohr mag/cell

     iteration # 48     ecut=    50.00 Ry     beta= 0.70
     Davidson diagonalization with overlap
     ethr =  6.96E-12,  avg # of iterations =  2.0

     negative rho (up, down):  2.217E-03 1.121E-03

     total cpu time spent up to now is      890.3 secs

     total energy              =   -6056.51612777 Ry
     estimated scf accuracy    <       0.00000002 Ry

     total magnetization       =    61.25 Bohr mag/cell
     absolute magnetization    =    68.78 Bohr mag/cell

     iteration # 49     ecut=    50.00 Ry     beta= 0.70
     Davidson diagonalization with overlap
     ethr =  5.21E-12,  avg # of iterations =  1.8

     negative rho (up, down):  2.219E-03 1.121E-03

     total cpu time spent up to now is      904.7 secs

     total energy              =   -6056.51612777 Ry
     estimated scf accuracy    <       0.00000002 Ry

     total magnetization       =    61.25 Bohr mag/cell
     absolute magnetization    =    68.78 Bohr mag/cell

     iteration # 50     ecut=    50.00 Ry     beta= 0.70
     Davidson diagonalization with overlap
     ethr =  5.21E-12,  avg # of iterations =  1.8

     negative rho (up, down):  2.222E-03 1.124E-03

     Magnetic moment per site  (integrated on atomic sphere of radius R)
     atom   1 (R=0.103)  charge=  6.2340  magn=  1.7700
     atom   2 (R=0.103)  charge=  6.2346  magn=  1.7604
     atom   3 (R=0.103)  charge=  6.2342  magn=  1.7655
     atom   4 (R=0.103)  charge=  6.2342  magn=  1.7672
     atom   5 (R=0.103)  charge=  6.2345  magn=  1.7638
     atom   6 (R=0.103)  charge=  6.2336  magn=  1.7704
     atom   7 (R=0.103)  charge=  6.2345  magn=  1.7710
     atom   8 (R=0.103)  charge=  6.2339  magn=  1.7689
     atom   9 (R=0.103)  charge=  6.2339  magn=  1.7637
     atom  10 (R=0.103)  charge=  6.2398  magn=  1.6906
     atom  11 (R=0.103)  charge=  6.2402  magn=  1.7010
     atom  12 (R=0.103)  charge=  6.2397  magn=  1.6984
     atom  13 (R=0.103)  charge=  6.2403  magn=  1.6969
     atom  14 (R=0.103)  charge=  6.2408  magn=  1.6857
     atom  15 (R=0.103)  charge=  6.2404  magn=  1.6950
     atom  16 (R=0.103)  charge=  6.2401  magn=  1.6949
     atom  17 (R=0.103)  charge=  6.2405  magn=  1.6989
     atom  18 (R=0.103)  charge=  6.2405  magn=  1.6934
     atom  19 (R=0.103)  charge=  6.2391  magn=  1.6934
     atom  20 (R=0.103)  charge=  6.2371  magn=  1.7201
     atom  21 (R=0.103)  charge=  6.2404  magn=  1.6790
     atom  22 (R=0.103)  charge=  6.2405  magn=  1.7015
     atom  23 (R=0.103)  charge=  6.2412  magn=  1.6694
     atom  24 (R=0.103)  charge=  6.2393  magn=  1.7025
     atom  25 (R=0.103)  charge=  6.2395  magn=  1.6989
     atom  26 (R=0.103)  charge=  6.2382  magn=  1.6942
     atom  27 (R=0.103)  charge=  6.2402  magn=  1.6891
     atom  28 (R=0.103)  charge=  6.2373  magn=  1.7855
     atom  29 (R=0.103)  charge=  6.2434  magn=  1.6639
     atom  30 (R=0.103)  charge=  6.2376  magn=  1.7605
     atom  31 (R=0.103)  charge=  6.2436  magn=  1.7344
     atom  32 (R=0.103)  charge=  6.2671  magn=  1.1536
     atom  33 (R=0.103)  charge=  6.2346  magn=  1.7650
     atom  34 (R=0.103)  charge=  6.2353  magn=  1.7600
     atom  35 (R=0.103)  charge=  6.2364  magn=  1.7594
     atom  36 (R=0.103)  charge=  6.2334  magn=  1.7875
     atom  37 (R=0.061)  charge=  0.8580  magn= -0.0181
     atom  38 (R=0.069)  charge=  3.1679  magn= -0.0051
     atom  39 (R=0.061)  charge=  0.5035  magn=  0.0014

     total cpu time spent up to now is      924.2 secs

     End of self-consistent calculation

 ------ SPIN UP ------------


          k = 0.0000 0.0000 0.0000 ( 51087 PWs)   bands (ev):

   -21.5171 -10.2451  -7.5017  -6.7583  -6.2045  -5.6424  -5.1805  -4.6252
    -4.5969  -4.5938  -4.5932  -4.5885  -4.5753  -4.5393  -4.2376  -4.0681
    -4.0634  -4.0600  -4.0548  -4.0349  -4.0003  -3.5531  -3.5459  -3.5444
    -3.5393  -3.5248  -3.4965  -3.4197  -3.4144  -3.4104  -3.4071  -3.4043
    -3.3808  -3.3419  -3.3398  -3.0294  -3.0254  -3.0229  -3.0222  -2.9930
    -2.9635  -2.9610  -2.9564  -2.9526  -2.9501  -2.9475  -2.9431  -2.7962
    -2.7937  -2.7596  -2.7361  -2.7255  -2.7169  -2.7136  -2.7077  -2.6886
    -2.6859  -2.6843  -2.6797  -2.5890  -2.5873  -2.5828  -2.5760  -2.5669
    -2.5261  -2.2041  -2.0598  -2.0476  -2.0436  -2.0428  -2.0379  -1.9381
    -1.9177  -1.9125  -1.8943  -1.8818  -1.8724  -1.8702  -1.8638  -1.8622
    -1.8360  -1.8134  -1.8098  -1.7642  -1.7588  -1.7528  -1.7376  -1.7309
    -1.7305  -1.7191  -1.7165  -1.7107  -1.6940  -1.6896  -1.6847  -1.6799
    -1.6774  -1.6766  -1.6736  -1.6724  -1.6692  -1.6632  -1.6623  -1.6601
    -1.6587  -1.6128  -1.6058  -1.5887  -1.5831  -1.5118  -1.5067  -1.4612
    -1.3083  -1.2289  -1.2222  -1.2170  -1.2157  -1.2117  -1.1999  -1.1803
    -1.1784  -1.1774  -1.1416  -1.1297  -1.1242  -1.0650  -1.0072  -1.0015
    -0.9814  -0.9747  -0.8667  -0.8165  -0.8031  -0.7985  -0.7922  -0.7665
    -0.7402  -0.7296  -0.7244  -0.7236  -0.7207  -0.7011  -0.6208  -0.6068
    -0.5175  -0.4827  -0.4811  -0.4784  -0.4560  -0.4372  -0.4184  -0.4141
    -0.4117  -0.4066  -0.4019  -0.3977  -0.3949  -0.3934  -0.3897  -0.3813
    -0.3773  -0.3768  -0.3600  -0.3470  -0.3375  -0.3313  -0.3303  -0.3286
    -0.3074  -0.3060  -0.2854  -0.2823  -0.2791  -0.2619  -0.2580  -0.2543
    -0.2508  -0.2457  -0.2347  -0.2173  -0.1983  -0.1819  -0.1776  -0.1754
    -0.1715  -0.1678  -0.1656  -0.1541  -0.1499  -0.1385  -0.0884  -0.0872
    -0.0831  -0.0820  -0.0200  -0.0152  -0.0107  -0.0102  -0.0009   0.0253
     0.3756   1.0385

          k = 0.0000 0.2309 0.0000 ( 51134 PWs)   bands (ev):

   -21.5171 -10.2452  -7.3569  -6.7357  -6.1225  -5.6230  -5.3416  -5.1604
    -4.8420  -4.8290  -4.4797  -4.3495  -4.2554  -4.2514  -4.1888  -4.1417
    -4.1013  -4.0610  -3.9928  -3.9380  -3.9190  -3.6715  -3.5591  -3.5478
    -3.4741  -3.4526  -3.4285  -3.4221  -3.4204  -3.4124  -3.3964  -3.3776
    -3.3475  -3.3031  -3.2991  -3.2707  -3.2685  -3.0814  -3.0490  -3.0402
    -3.0011  -2.9866  -2.9819  -2.9718  -2.9081  -2.8728  -2.8524  -2.8243
    -2.8147  -2.8107  -2.7853  -2.7740  -2.6929  -2.6798  -2.6546  -2.6169
    -2.6095  -2.5876  -2.5735  -2.5582  -2.5426  -2.5254  -2.5061  -2.4988
    -2.4479  -2.2565  -2.1703  -2.1551  -2.1340  -2.1136  -2.0727  -2.0173
    -2.0123  -2.0009  -1.9966  -1.9794  -1.9714  -1.9493  -1.9290  -1.8912
    -1.8692  -1.8626  -1.8504  -1.8073  -1.8030  -1.8004  -1.7960  -1.7756
    -1.7695  -1.7606  -1.7591  -1.7567  -1.7533  -1.7226  -1.6846  -1.6664
    -1.6527  -1.6288  -1.5957  -1.5773  -1.5750  -1.5673  -1.5572  -1.5496
    -1.5409  -1.5285  -1.5162  -1.5141  -1.5041  -1.4890  -1.4710  -1.4598
    -1.4473  -1.4358  -1.4143  -1.3835  -1.3460  -1.3066  -1.2478  -1.2417
    -1.2352  -1.2303  -1.2134  -1.2108  -1.2056  -1.1934  -1.0969  -1.0578
    -1.0369  -1.0258  -0.9654  -0.9569  -0.9331  -0.8908  -0.8664  -0.8518
    -0.8036  -0.7835  -0.7579  -0.7420  -0.7207  -0.7093  -0.6731  -0.6705
    -0.6603  -0.6425  -0.6231  -0.5879  -0.5814  -0.5639  -0.5593  -0.5580
    -0.5219  -0.4878  -0.4785  -0.4763  -0.4571  -0.4416  -0.4111  -0.4064
    -0.4041  -0.3948  -0.3928  -0.3854  -0.3624  -0.3539  -0.3526  -0.3289
    -0.2860  -0.2745  -0.2645  -0.2395  -0.2287  -0.2102  -0.1868  -0.1635
    -0.1572  -0.1523  -0.1467  -0.1316  -0.1254  -0.1080  -0.0977  -0.0860
    -0.0590  -0.0208  -0.0106  -0.0059   0.0176   0.0203   0.0638   0.0701
     0.0812   0.1246   0.3600   0.3671   0.4396   0.5405   0.6168   0.6584
     0.6816   0.8107

          k = 0.0000 0.4619 0.0000 ( 51204 PWs)   bands (ev):

   -21.5171 -10.2452  -6.9702  -6.6760  -6.1903  -5.9282  -5.4465  -5.1780
    -4.9846  -4.9568  -4.8543  -4.1556  -4.1000  -4.0858  -4.0442  -4.0156
    -3.8965  -3.8951  -3.8578  -3.7667  -3.7614  -3.7545  -3.6691  -3.5829
    -3.5770  -3.5699  -3.5669  -3.5181  -3.4717  -3.4614  -3.4529  -3.2984
    -3.2942  -3.2870  -3.2674  -3.2497  -3.2452  -3.1481  -3.1431  -3.1298
    -3.1221  -3.1162  -3.0125  -2.9281  -2.9070  -2.8280  -2.8120  -2.7906
    -2.7722  -2.7440  -2.7337  -2.7275  -2.7139  -2.6959  -2.6397  -2.6304
    -2.6049  -2.5696  -2.5624  -2.4445  -2.4226  -2.4156  -2.3952  -2.3604
    -2.3140  -2.2975  -2.2855  -2.2675  -2.2295  -2.1801  -2.1386  -2.1353
    -2.1309  -2.1208  -2.1027  -2.0932  -2.0878  -2.0751  -2.0397  -2.0173
    -2.0041  -1.9768  -1.9587  -1.9307  -1.9192  -1.8965  -1.8362  -1.8133
    -1.8065  -1.7956  -1.7779  -1.7665  -1.7273  -1.7034  -1.6984  -1.6908
    -1.6786  -1.6575  -1.6539  -1.6279  -1.6243  -1.6101  -1.5953  -1.5773
    -1.5667  -1.5596  -1.5051  -1.4596  -1.4412  -1.4255  -1.3992  -1.3907
    -1.3752  -1.3625  -1.3234  -1.2895  -1.2782  -1.2651  -1.2622  -1.2572
    -1.2465  -1.2407  -1.2331  -1.2283  -1.2204  -1.2140  -1.1972  -1.1862
    -1.1655  -1.1439  -1.0943  -1.0577  -1.0253  -1.0162  -0.9977  -0.9851
    -0.9596  -0.9194  -0.9043  -0.8841  -0.8724  -0.8307  -0.8235  -0.7676
    -0.7505  -0.7205  -0.6957  -0.6853  -0.6716  -0.6559  -0.6359  -0.5848
    -0.5515  -0.4997  -0.4881  -0.4802  -0.4729  -0.4700  -0.4574  -0.4513
    -0.4347  -0.4287  -0.3629  -0.3366  -0.3247  -0.3068  -0.3022  -0.2953
    -0.2852  -0.2681  -0.2604  -0.2531  -0.2322  -0.2233  -0.1510  -0.1298
    -0.1230  -0.1150  -0.0917  -0.0725  -0.0305  -0.0160   0.0060   0.0306
     0.0470   0.0916   0.0946   0.1137   0.1164   0.1197   0.1440   0.1514
     0.2246   0.2480   0.3038   0.9652   1.1097   1.2684   1.3535   1.3783
     1.5733   1.7406

          k = 0.2000-0.1155 0.0000 ( 51134 PWs)   bands (ev):

   -21.5171 -10.2445  -7.3579  -6.7358  -6.1282  -5.6366  -5.3214  -5.1588
    -4.8450  -4.8369  -4.4763  -4.3270  -4.2557  -4.2534  -4.1856  -4.1358
    -4.1062  -4.0814  -3.9810  -3.9401  -3.9271  -3.6693  -3.5595  -3.5482
    -3.4726  -3.4464  -3.4319  -3.4224  -3.4212  -3.4067  -3.3990  -3.3817
    -3.3487  -3.3026  -3.2996  -3.2725  -3.2689  -3.0832  -3.0448  -3.0398
    -2.9937  -2.9886  -2.9795  -2.9749  -2.9045  -2.8619  -2.8536  -2.8277
    -2.8165  -2.8117  -2.7889  -2.7710  -2.6869  -2.6808  -2.6499  -2.6203
    -2.6038  -2.5893  -2.5766  -2.5642  -2.5508  -2.5299  -2.5075  -2.5005
    -2.4407  -2.2478  -2.1708  -2.1519  -2.1393  -2.1161  -2.0745  -2.0152
    -2.0097  -2.0050  -1.9888  -1.9853  -1.9709  -1.9506  -1.9294  -1.8920
    -1.8730  -1.8643  -1.8507  -1.8112  -1.8024  -1.8014  -1.7942  -1.7779
    -1.7685  -1.7607  -1.7586  -1.7555  -1.7493  -1.7111  -1.6856  -1.6770
    -1.6591  -1.6210  -1.5963  -1.5796  -1.5705  -1.5655  -1.5563  -1.5528
    -1.5320  -1.5270  -1.5233  -1.5150  -1.5120  -1.4839  -1.4740  -1.4671
    -1.4475  -1.4401  -1.4073  -1.3601  -1.3481  -1.3156  -1.2571  -1.2417
    -1.2338  -1.2247  -1.2159  -1.2107  -1.2086  -1.1972  -1.1156  -1.0641
    -1.0498  -1.0292  -0.9633  -0.9572  -0.9336  -0.8840  -0.8639  -0.8565
    -0.8221  -0.7619  -0.7435  -0.7313  -0.7125  -0.7074  -0.6817  -0.6705
    -0.6582  -0.6450  -0.6320  -0.5870  -0.5791  -0.5654  -0.5605  -0.5544
    -0.5114  -0.5007  -0.4820  -0.4751  -0.4572  -0.4347  -0.4167  -0.4109
    -0.4038  -0.3962  -0.3886  -0.3805  -0.3653  -0.3534  -0.3419  -0.3356
    -0.2901  -0.2786  -0.2663  -0.2361  -0.2212  -0.2157  -0.1887  -0.1671
    -0.1587  -0.1508  -0.1418  -0.1311  -0.1221  -0.1091  -0.0979  -0.0838
    -0.0629  -0.0204  -0.0138  -0.0060   0.0175   0.0209   0.0579   0.0636
     0.0799   0.1215   0.3602   0.3655   0.4722   0.5664   0.6219   0.6314
     0.7167   0.8260

          k = 0.2000 0.1155 0.0000 ( 51134 PWs)   bands (ev):

   -21.5171 -10.2453  -7.3567  -6.7361  -6.1197  -5.6198  -5.3301  -5.1854
    -4.8349  -4.8256  -4.4826  -4.3590  -4.2566  -4.2500  -4.1890  -4.1423
    -4.0919  -4.0614  -3.9947  -3.9353  -3.9200  -3.6725  -3.5572  -3.5520
    -3.4724  -3.4545  -3.4256  -3.4235  -3.4206  -3.4092  -3.3956  -3.3777
    -3.3483  -3.3047  -3.2980  -3.2707  -3.2685  -3.0761  -3.0418  -3.0392
    -2.9970  -2.9850  -2.9827  -2.9797  -2.8997  -2.8745  -2.8564  -2.8311
    -2.8157  -2.8118  -2.7895  -2.7791  -2.6900  -2.6793  -2.6617  -2.6211
    -2.6108  -2.5831  -2.5755  -2.5524  -2.5425  -2.5253  -2.5088  -2.5025
    -2.4485  -2.2415  -2.1741  -2.1595  -2.1359  -2.1113  -2.0720  -2.0138
    -2.0075  -2.0024  -1.9956  -1.9832  -1.9765  -1.9527  -1.9093  -1.8908
    -1.8778  -1.8638  -1.8418  -1.8126  -1.8032  -1.7996  -1.7974  -1.7722
    -1.7671  -1.7649  -1.7617  -1.7568  -1.7480  -1.7228  -1.6846  -1.6743
    -1.6512  -1.6206  -1.5962  -1.5801  -1.5689  -1.5675  -1.5530  -1.5484
    -1.5383  -1.5297  -1.5228  -1.5150  -1.5087  -1.4854  -1.4623  -1.4591
    -1.4483  -1.4427  -1.4216  -1.3842  -1.3455  -1.3030  -1.2503  -1.2412
    -1.2338  -1.2279  -1.2209  -1.2116  -1.2084  -1.2010  -1.0948  -1.0614
    -1.0310  -1.0208  -0.9712  -0.9560  -0.9285  -0.8901  -0.8716  -0.8575
    -0.7992  -0.7777  -0.7592  -0.7343  -0.7243  -0.7108  -0.6806  -0.6740
    -0.6558  -0.6451  -0.6248  -0.5801  -0.5740  -0.5663  -0.5600  -0.5503
    -0.5214  -0.4962  -0.4816  -0.4739  -0.4579  -0.4276  -0.4192  -0.4102
    -0.4033  -0.3956  -0.3891  -0.3781  -0.3635  -0.3573  -0.3458  -0.3290
    -0.2883  -0.2754  -0.2616  -0.2472  -0.2205  -0.2166  -0.1825  -0.1691
    -0.1542  -0.1527  -0.1446  -0.1303  -0.1186  -0.1087  -0.0985  -0.0831
    -0.0596  -0.0190  -0.0116  -0.0087   0.0201   0.0211   0.0615   0.0665
     0.0851   0.1154   0.3467   0.3670   0.4460   0.5338   0.6148   0.6400
     0.6900   0.8152

          k = 0.2000 0.3464 0.0000 ( 51202 PWs)   bands (ev):

   -21.5171 -10.2456  -7.0842  -6.6993  -6.0030  -5.6892  -5.6778  -5.4382
    -5.1718  -4.5520  -4.5172  -4.2648  -4.2587  -4.2134  -4.0445  -4.0386
    -3.9478  -3.9450  -3.9376  -3.8081  -3.7864  -3.6717  -3.6621  -3.5964
    -3.5520  -3.4616  -3.4544  -3.4363  -3.4174  -3.4086  -3.3976  -3.3742
    -3.3563  -3.3366  -3.3254  -3.2888  -3.2467  -3.2072  -3.2026  -3.0836
    -3.0734  -2.9870  -2.9741  -2.9484  -2.9325  -2.9240  -2.8396  -2.8047
    -2.7796  -2.7471  -2.7434  -2.7359  -2.6904  -2.6776  -2.6645  -2.6541
    -2.6377  -2.5432  -2.5219  -2.4649  -2.4554  -2.4469  -2.4086  -2.4000
    -2.3930  -2.2794  -2.2375  -2.1969  -2.1851  -2.1548  -2.1317  -2.1186
    -2.0954  -2.0903  -2.0833  -2.0659  -2.0500  -2.0353  -2.0301  -2.0127
    -1.9950  -1.9677  -1.9201  -1.8953  -1.8414  -1.8305  -1.8175  -1.7978
    -1.7794  -1.7669  -1.7452  -1.7299  -1.7157  -1.6871  -1.6784  -1.6761
    -1.6624  -1.6593  -1.6454  -1.6291  -1.6257  -1.6145  -1.5997  -1.5792
    -1.5704  -1.5402  -1.5153  -1.5001  -1.4857  -1.4762  -1.4522  -1.4378
    -1.4187  -1.4054  -1.3884  -1.3758  -1.3497  -1.3302  -1.3122  -1.2722
    -1.2681  -1.2611  -1.2567  -1.2359  -1.2221  -1.2123  -1.1969  -1.1633
    -1.1100  -1.0947  -1.0851  -1.0458  -0.9884  -0.9686  -0.9487  -0.8843
    -0.8468  -0.8289  -0.8234  -0.8068  -0.7979  -0.7863  -0.7758  -0.7715
    -0.7394  -0.7285  -0.6985  -0.6750  -0.6635  -0.6493  -0.6312  -0.6229
    -0.6041  -0.5893  -0.5557  -0.5424  -0.5311  -0.5218  -0.4486  -0.3972
    -0.3759  -0.3545  -0.3455  -0.3313  -0.3276  -0.3015  -0.2974  -0.2868
    -0.2787  -0.2667  -0.2051  -0.1867  -0.1797  -0.1736  -0.1356  -0.1298
    -0.1051  -0.1000  -0.0993  -0.0880  -0.0679  -0.0620  -0.0557  -0.0359
    -0.0281   0.0066   0.0566   0.0660   0.0733   0.1166   0.1193   0.1362
     0.4465   0.4603   0.5274   0.5624   0.7868   0.7998   1.0830   1.3121
     1.3529   1.5255

          k = 0.2000-0.5774 0.0000 ( 51262 PWs)   bands (ev):

   -21.5171 -10.2450  -6.8267  -6.4516  -6.3956  -5.9300  -5.7302  -5.3074
    -5.0972  -4.9792  -4.5738  -4.2440  -4.0069  -3.9631  -3.8642  -3.8277
    -3.8245  -3.8061  -3.7984  -3.7744  -3.7225  -3.7134  -3.7112  -3.7064
    -3.6288  -3.6077  -3.5648  -3.5601  -3.5339  -3.5294  -3.4190  -3.3964
    -3.3782  -3.3742  -3.3488  -3.3101  -3.2245  -3.2087  -3.1102  -3.0874
    -3.0809  -3.0136  -2.9950  -2.9818  -2.9518  -2.8708  -2.8674  -2.8615
    -2.7941  -2.7866  -2.7167  -2.6802  -2.6576  -2.6406  -2.5923  -2.5870
    -2.5195  -2.5000  -2.4914  -2.4804  -2.4743  -2.4412  -2.4252  -2.3668
    -2.3085  -2.2857  -2.2770  -2.2660  -2.2419  -2.2060  -2.1762  -2.1444
    -2.1232  -2.1014  -2.0918  -2.0828  -2.0685  -2.0489  -2.0234  -2.0131
    -2.0022  -1.9921  -1.9762  -1.9515  -1.9498  -1.9163  -1.8791  -1.8657
    -1.8509  -1.8168  -1.7835  -1.7729  -1.7298  -1.7164  -1.7005  -1.6882
    -1.6732  -1.6635  -1.6561  -1.6489  -1.6364  -1.6292  -1.5969  -1.5830
    -1.5326  -1.5144  -1.5090  -1.5004  -1.4924  -1.4793  -1.4750  -1.4683
    -1.4573  -1.4515  -1.4336  -1.4062  -1.3908  -1.3542  -1.3457  -1.3213
    -1.2688  -1.2560  -1.2237  -1.2024  -1.1963  -1.1806  -1.1721  -1.1286
    -1.0998  -1.0955  -1.0842  -1.0269  -1.0089  -0.9651  -0.9409  -0.9304
    -0.9229  -0.9117  -0.8986  -0.8762  -0.8551  -0.8396  -0.8087  -0.7814
    -0.7655  -0.7457  -0.7321  -0.7249  -0.6968  -0.6766  -0.6540  -0.6374
    -0.6204  -0.6048  -0.5957  -0.5887  -0.5486  -0.5368  -0.5049  -0.4344
    -0.3552  -0.3353  -0.3286  -0.3225  -0.3157  -0.3055  -0.2962  -0.2883
    -0.2508  -0.2461  -0.2332  -0.2273  -0.1886  -0.1747  -0.1092  -0.1021
    -0.0921  -0.0739  -0.0584  -0.0519  -0.0105   0.0019   0.0041   0.0103
     0.0239   0.0746   0.0951   0.1017   0.1170   0.1240   0.1499   0.1807
     0.2397   0.4923   0.5753   0.8286   1.2946   1.4033   1.4823   1.7546
     1.8725   1.9288

          k = 0.2000-0.3464 0.0000 ( 51202 PWs)   bands (ev):

   -21.5171 -10.2444  -7.0876  -6.6993  -6.0172  -5.7097  -5.6727  -5.4292
    -5.1469  -4.5844  -4.4821  -4.2621  -4.2565  -4.2117  -4.0421  -4.0390
    -3.9494  -3.9417  -3.9235  -3.8092  -3.8036  -3.6668  -3.6640  -3.5998
    -3.5530  -3.4655  -3.4598  -3.4318  -3.4168  -3.4049  -3.4002  -3.3739
    -3.3611  -3.3397  -3.3255  -3.2892  -3.2495  -3.2098  -3.1968  -3.0838
    -3.0778  -2.9838  -2.9739  -2.9509  -2.9402  -2.9143  -2.8243  -2.7856
    -2.7689  -2.7564  -2.7449  -2.7288  -2.6921  -2.6827  -2.6608  -2.6506
    -2.6384  -2.5247  -2.5179  -2.4684  -2.4634  -2.4335  -2.4176  -2.4017
    -2.3844  -2.2983  -2.2595  -2.2045  -2.1877  -2.1504  -2.1368  -2.1159
    -2.1083  -2.0882  -2.0755  -2.0588  -2.0437  -2.0401  -2.0310  -2.0150
    -2.0072  -1.9787  -1.9158  -1.8767  -1.8407  -1.8312  -1.8058  -1.7951
    -1.7881  -1.7638  -1.7540  -1.7254  -1.7110  -1.6913  -1.6806  -1.6763
    -1.6703  -1.6569  -1.6447  -1.6309  -1.6215  -1.6165  -1.5916  -1.5837
    -1.5649  -1.5611  -1.5376  -1.5052  -1.4881  -1.4745  -1.4430  -1.4328
    -1.4312  -1.4123  -1.4048  -1.3556  -1.3396  -1.3270  -1.3109  -1.2840
    -1.2689  -1.2620  -1.2530  -1.2417  -1.2289  -1.2151  -1.1947  -1.1538
    -1.1253  -1.0919  -1.0867  -1.0495  -0.9836  -0.9700  -0.9475  -0.8565
    -0.8457  -0.8317  -0.8240  -0.8102  -0.8042  -0.7904  -0.7740  -0.7548
    -0.7421  -0.7193  -0.7042  -0.6854  -0.6654  -0.6458  -0.6366  -0.6186
    -0.6017  -0.5860  -0.5576  -0.5413  -0.5365  -0.5180  -0.4438  -0.3897
    -0.3805  -0.3656  -0.3405  -0.3335  -0.3274  -0.3038  -0.2991  -0.2891
    -0.2767  -0.2666  -0.2025  -0.1918  -0.1820  -0.1740  -0.1347  -0.1252
    -0.1087  -0.1017  -0.0987  -0.0830  -0.0709  -0.0610  -0.0547  -0.0441
    -0.0263   0.0149   0.0576   0.0665   0.0743   0.1145   0.1190   0.1458
     0.4371   0.4595   0.4960   0.6302   0.7374   0.8070   1.1338   1.3298
     1.3480   1.5644

          k = 0.4000-0.2309 0.0000 ( 51204 PWs)   bands (ev):

   -21.5171 -10.2436  -6.9749  -6.6765  -6.2015  -5.9332  -5.4643  -5.1427
    -4.9838  -4.9764  -4.8249  -4.1389  -4.1064  -4.0860  -4.0682  -4.0046
    -3.8987  -3.8956  -3.8545  -3.7704  -3.7617  -3.7534  -3.6583  -3.5837
    -3.5790  -3.5715  -3.5673  -3.5164  -3.4677  -3.4563  -3.4534  -3.3037
    -3.2933  -3.2883  -3.2785  -3.2514  -3.2442  -3.1495  -3.1371  -3.1297
    -3.1201  -3.1152  -3.0030  -2.9222  -2.9067  -2.8247  -2.8092  -2.7881
    -2.7735  -2.7394  -2.7331  -2.7262  -2.7150  -2.6932  -2.6411  -2.6322
    -2.6016  -2.5717  -2.5596  -2.4438  -2.4233  -2.4156  -2.3944  -2.3620
    -2.3116  -2.3014  -2.2766  -2.2682  -2.2411  -2.1810  -2.1543  -2.1330
    -2.1288  -2.1222  -2.1154  -2.0973  -2.0901  -2.0745  -2.0310  -2.0250
    -1.9940  -1.9860  -1.9604  -1.9430  -1.9164  -1.8959  -1.8268  -1.8241
    -1.8097  -1.7918  -1.7704  -1.7589  -1.7240  -1.7019  -1.6977  -1.6893
    -1.6780  -1.6609  -1.6514  -1.6278  -1.6133  -1.6102  -1.6015  -1.5821
    -1.5660  -1.5512  -1.5085  -1.4991  -1.4384  -1.4210  -1.4097  -1.3939
    -1.3766  -1.3548  -1.3316  -1.2933  -1.2823  -1.2651  -1.2603  -1.2564
    -1.2519  -1.2462  -1.2296  -1.2247  -1.2185  -1.2131  -1.2007  -1.1895
    -1.1688  -1.1467  -1.0773  -1.0584  -1.0271  -1.0207  -0.9976  -0.9871
    -0.9536  -0.9355  -0.9002  -0.8827  -0.8784  -0.8289  -0.8122  -0.7634
    -0.7544  -0.7162  -0.6977  -0.6792  -0.6671  -0.6630  -0.6340  -0.5797
    -0.5225  -0.5108  -0.4947  -0.4804  -0.4770  -0.4703  -0.4628  -0.4430
    -0.4416  -0.4309  -0.3710  -0.3373  -0.3176  -0.3124  -0.3024  -0.3003
    -0.2945  -0.2711  -0.2566  -0.2473  -0.2322  -0.2177  -0.1549  -0.1309
    -0.1249  -0.1143  -0.0965  -0.0555  -0.0304  -0.0115   0.0062   0.0314
     0.0467   0.0896   0.0932   0.1143   0.1160   0.1193   0.1355   0.1514
     0.2243   0.2457   0.3483   0.9152   1.1560   1.3159   1.3497   1.3783
     1.6121   1.7225

          k = 0.4000 0.0000 0.0000 ( 51202 PWs)   bands (ev):

   -21.5171 -10.2446  -7.0872  -6.6991  -6.0133  -5.7064  -5.6701  -5.4302
    -5.1593  -4.5768  -4.4900  -4.2611  -4.2566  -4.2145  -4.0427  -4.0383
    -3.9491  -3.9432  -3.9259  -3.8090  -3.7994  -3.6726  -3.6604  -3.6000
    -3.5534  -3.4620  -3.4597  -3.4325  -3.4172  -3.4069  -3.3954  -3.3738
    -3.3593  -3.3356  -3.3325  -3.2851  -3.2475  -3.2045  -3.1986  -3.0835
    -3.0723  -2.9845  -2.9747  -2.9499  -2.9286  -2.9214  -2.8316  -2.7858
    -2.7767  -2.7565  -2.7428  -2.7353  -2.6938  -2.6838  -2.6648  -2.6557
    -2.6361  -2.5393  -2.5197  -2.4661  -2.4636  -2.4419  -2.4129  -2.4014
    -2.3883  -2.2963  -2.2264  -2.2014  -2.1858  -2.1502  -2.1318  -2.1097
    -2.1034  -2.0950  -2.0840  -2.0624  -2.0492  -2.0341  -2.0269  -2.0129
    -2.0039  -1.9714  -1.9221  -1.8855  -1.8419  -1.8347  -1.8172  -1.7970
    -1.7886  -1.7647  -1.7425  -1.7255  -1.7118  -1.6870  -1.6826  -1.6760
    -1.6624  -1.6566  -1.6454  -1.6373  -1.6256  -1.6192  -1.5947  -1.5780
    -1.5699  -1.5588  -1.5228  -1.5045  -1.4879  -1.4677  -1.4470  -1.4354
    -1.4261  -1.4159  -1.3997  -1.3656  -1.3416  -1.3337  -1.3111  -1.2831
    -1.2665  -1.2626  -1.2572  -1.2332  -1.2268  -1.2114  -1.1996  -1.1594
    -1.1106  -1.0966  -1.0821  -1.0605  -0.9875  -0.9609  -0.9470  -0.8825
    -0.8369  -0.8317  -0.8232  -0.8106  -0.8028  -0.7883  -0.7766  -0.7489
    -0.7439  -0.7258  -0.7006  -0.6756  -0.6598  -0.6523  -0.6293  -0.6193
    -0.5955  -0.5822  -0.5519  -0.5459  -0.5363  -0.5219  -0.4598  -0.3941
    -0.3763  -0.3545  -0.3452  -0.3329  -0.3263  -0.3061  -0.2974  -0.2886
    -0.2803  -0.2666  -0.2046  -0.1894  -0.1794  -0.1724  -0.1395  -0.1202
    -0.1076  -0.1018  -0.0953  -0.0751  -0.0713  -0.0630  -0.0536  -0.0493
    -0.0269   0.0109   0.0568   0.0661   0.0756   0.1168   0.1228   0.1316
     0.4339   0.4611   0.5022   0.6245   0.7582   0.8067   1.0997   1.3137
     1.3677   1.5318

          k = 0.4000 0.2309 0.0000 ( 51204 PWs)   bands (ev):

   -21.5171 -10.2456  -6.9707  -6.6757  -6.1824  -5.9254  -5.4333  -5.2070
    -4.9832  -4.9436  -4.8746  -4.1594  -4.0878  -4.0842  -4.0429  -4.0176
    -3.8982  -3.8931  -3.8574  -3.7663  -3.7611  -3.7560  -3.6760  -3.5831
    -3.5786  -3.5681  -3.5666  -3.5196  -3.4751  -3.4600  -3.4493  -3.2961
    -3.2929  -3.2818  -3.2645  -3.2494  -3.2412  -3.1443  -3.1332  -3.1281
    -3.1219  -3.1169  -3.0012  -2.9324  -2.9155  -2.8422  -2.8185  -2.7937
    -2.7791  -2.7458  -2.7347  -2.7258  -2.7121  -2.7047  -2.6325  -2.6314
    -2.6082  -2.5791  -2.5629  -2.4518  -2.4201  -2.4114  -2.4030  -2.3590
    -2.3132  -2.2944  -2.2873  -2.2698  -2.2191  -2.1752  -2.1491  -2.1348
    -2.1300  -2.1220  -2.1058  -2.0968  -2.0831  -2.0755  -2.0611  -2.0116
    -1.9882  -1.9735  -1.9568  -1.9267  -1.9001  -1.8929  -1.8448  -1.8139
    -1.8063  -1.8001  -1.7749  -1.7618  -1.7179  -1.7002  -1.6910  -1.6870
    -1.6720  -1.6613  -1.6497  -1.6261  -1.6208  -1.6108  -1.5904  -1.5764
    -1.5639  -1.5514  -1.5079  -1.4818  -1.4385  -1.4233  -1.4001  -1.3933
    -1.3680  -1.3531  -1.3310  -1.2976  -1.2795  -1.2681  -1.2622  -1.2603
    -1.2514  -1.2464  -1.2339  -1.2281  -1.2254  -1.2133  -1.1956  -1.1851
    -1.1728  -1.1311  -1.0989  -1.0558  -1.0262  -1.0137  -1.0038  -0.9816
    -0.9616  -0.9272  -0.9003  -0.8950  -0.8749  -0.8283  -0.8176  -0.7789
    -0.7538  -0.7153  -0.6946  -0.6751  -0.6699  -0.6513  -0.6174  -0.5953
    -0.5565  -0.5014  -0.4934  -0.4788  -0.4752  -0.4667  -0.4576  -0.4529
    -0.4400  -0.4209  -0.3665  -0.3292  -0.3198  -0.3123  -0.3043  -0.2991
    -0.2865  -0.2603  -0.2563  -0.2483  -0.2319  -0.2279  -0.1463  -0.1303
    -0.1236  -0.1203  -0.0926  -0.0696  -0.0307  -0.0162   0.0090   0.0311
     0.0462   0.0922   0.0926   0.1156   0.1168   0.1184   0.1397   0.1607
     0.2242   0.2404   0.3050   0.9395   1.1175   1.2576   1.3499   1.3734
     1.6208   1.7103

          k = 0.4000-0.6928 0.0000 ( 51262 PWs)   bands (ev):

   -21.5171 -10.2453  -6.8284  -6.4501  -6.3887  -5.9388  -5.7253  -5.2622
    -5.1479  -4.9939  -4.5570  -4.2431  -4.0072  -3.9640  -3.8683  -3.8308
    -3.8226  -3.8068  -3.7964  -3.7784  -3.7202  -3.7151  -3.7118  -3.7047
    -3.6272  -3.6123  -3.5637  -3.5589  -3.5328  -3.5301  -3.4142  -3.3941
    -3.3782  -3.3731  -3.3457  -3.3098  -3.2262  -3.2047  -3.1089  -3.0823
    -3.0795  -3.0124  -2.9980  -2.9778  -2.9474  -2.8858  -2.8705  -2.8567
    -2.8044  -2.7918  -2.7117  -2.6853  -2.6525  -2.6433  -2.5997  -2.5847
    -2.5217  -2.4998  -2.4903  -2.4821  -2.4761  -2.4501  -2.4313  -2.3612
    -2.3064  -2.2815  -2.2791  -2.2691  -2.2280  -2.2054  -2.1684  -2.1493
    -2.1244  -2.1001  -2.0933  -2.0848  -2.0745  -2.0542  -2.0253  -2.0061
    -1.9999  -1.9919  -1.9812  -1.9512  -1.9486  -1.9110  -1.8771  -1.8631
    -1.8491  -1.8258  -1.7775  -1.7717  -1.7392  -1.7095  -1.6955  -1.6874
    -1.6676  -1.6644  -1.6584  -1.6451  -1.6392  -1.6056  -1.5985  -1.5720
    -1.5284  -1.5150  -1.5071  -1.5013  -1.4837  -1.4809  -1.4757  -1.4658
    -1.4573  -1.4446  -1.4297  -1.4144  -1.3947  -1.3681  -1.3443  -1.3308
    -1.2834  -1.2612  -1.2173  -1.2040  -1.1957  -1.1914  -1.1774  -1.1238
    -1.1019  -1.0987  -1.0876  -1.0394  -0.9848  -0.9655  -0.9486  -0.9353
    -0.9192  -0.9125  -0.8920  -0.8815  -0.8509  -0.8331  -0.8017  -0.7881
    -0.7735  -0.7454  -0.7307  -0.7251  -0.7007  -0.6655  -0.6473  -0.6299
    -0.6200  -0.6135  -0.5933  -0.5836  -0.5464  -0.5308  -0.5153  -0.4449
    -0.3567  -0.3355  -0.3280  -0.3229  -0.3169  -0.3044  -0.3000  -0.2796
    -0.2558  -0.2467  -0.2346  -0.2242  -0.1910  -0.1700  -0.1079  -0.1033
    -0.0864  -0.0730  -0.0621  -0.0474  -0.0164  -0.0003   0.0088   0.0129
     0.0186   0.0749   0.0973   0.0992   0.1176   0.1267   0.1467   0.1764
     0.2418   0.4955   0.5711   0.8455   1.2590   1.4042   1.4825   1.7655
     1.8667   1.9176

          k = 0.4000-0.4619 0.0000 ( 51262 PWs)   bands (ev):

   -21.5171 -10.2440  -6.8300  -6.4555  -6.3998  -5.9148  -5.7424  -5.3610
    -5.0088  -4.9818  -4.6023  -4.2475  -4.0042  -3.9590  -3.8475  -3.8291
    -3.8263  -3.8017  -3.7952  -3.7738  -3.7310  -3.7140  -3.7123  -3.7074
    -3.6252  -3.6091  -3.5629  -3.5620  -3.5338  -3.5277  -3.4313  -3.3938
    -3.3775  -3.3697  -3.3533  -3.3108  -3.2293  -3.2105  -3.1030  -3.0838
    -3.0788  -3.0112  -2.9988  -2.9775  -2.9522  -2.8727  -2.8656  -2.8613
    -2.7953  -2.7871  -2.7130  -2.6778  -2.6496  -2.6411  -2.5896  -2.5858
    -2.5162  -2.5003  -2.4927  -2.4789  -2.4712  -2.4464  -2.4276  -2.3646
    -2.3107  -2.2901  -2.2694  -2.2657  -2.2328  -2.2087  -2.1903  -2.1469
    -2.1342  -2.1013  -2.0947  -2.0846  -2.0675  -2.0376  -2.0241  -2.0157
    -2.0055  -1.9958  -1.9716  -1.9544  -1.9506  -1.9382  -1.8795  -1.8654
    -1.8444  -1.8035  -1.7889  -1.7634  -1.7328  -1.7153  -1.7102  -1.6899
    -1.6717  -1.6655  -1.6552  -1.6510  -1.6351  -1.6280  -1.6021  -1.5949
    -1.5396  -1.5170  -1.5058  -1.5024  -1.4852  -1.4799  -1.4760  -1.4631
    -1.4595  -1.4501  -1.4331  -1.4023  -1.3881  -1.3559  -1.3452  -1.3222
    -1.2637  -1.2535  -1.2277  -1.2067  -1.1942  -1.1847  -1.1731  -1.1180
    -1.1011  -1.0922  -1.0807  -1.0425  -1.0130  -0.9621  -0.9539  -0.9320
    -0.9173  -0.9092  -0.8982  -0.8815  -0.8501  -0.8402  -0.8118  -0.7829
    -0.7679  -0.7469  -0.7307  -0.7157  -0.7060  -0.6739  -0.6442  -0.6347
    -0.6218  -0.6061  -0.5940  -0.5816  -0.5502  -0.5246  -0.5137  -0.4371
    -0.3558  -0.3397  -0.3310  -0.3224  -0.3131  -0.3079  -0.3033  -0.2852
    -0.2556  -0.2425  -0.2302  -0.2270  -0.1873  -0.1763  -0.1099  -0.1039
    -0.0868  -0.0752  -0.0627  -0.0533  -0.0103   0.0013   0.0060   0.0106
     0.0217   0.0873   0.0972   0.1033   0.1184   0.1235   0.1493   0.1799
     0.2761   0.4823   0.5418   0.8248   1.3488   1.3974   1.5209   1.6878
     1.8782   1.9492

 ------ SPIN DOWN ----------


          k = 0.0000 0.0000 0.0000 ( 51087 PWs)   bands (ev):

   -21.5345 -10.3124  -7.6311  -6.7585  -6.2612  -5.6384  -5.2040  -4.4264
    -4.4000  -4.3975  -4.3940  -4.3913  -4.3731  -4.2730  -3.5321  -3.5233
    -3.5196  -3.5169  -3.4954  -3.4822  -3.3694  -2.5841  -2.5761  -2.5740
    -2.5694  -2.5512  -2.5013  -2.1353  -2.1110  -2.1088  -2.1060  -2.0986
    -2.0957  -1.9212  -1.9049  -1.8357  -1.8279  -1.8208  -1.8122  -1.7635
    -1.7170  -1.7049  -1.6669  -1.6646  -1.6095  -1.5701  -1.5625  -1.5564
    -1.5406  -1.4840  -1.3406  -1.3097  -1.2931  -1.2892  -1.2819  -1.2736
    -1.2722  -1.2677  -1.2531  -1.2176  -1.2133  -1.1977  -1.1937  -1.1856
    -1.1638  -1.0339  -0.6829  -0.6290  -0.6172  -0.6109  -0.6075  -0.4642
    -0.4228  -0.3210  -0.2943  -0.2907  -0.2827  -0.2778  -0.2726  -0.2446
    -0.2243  -0.2097  -0.1970  -0.1960  -0.1951  -0.1908  -0.1480  -0.1180
    -0.1052  -0.0927  -0.0889  -0.0852  -0.0594  -0.0371  -0.0328  -0.0297
    -0.0287  -0.0272  -0.0035  -0.0022   0.0027   0.0046   0.0635   0.0916
     0.1398   0.1613   0.1777   0.2016   0.2142   0.2263   0.2275   0.2301
     0.2325   0.2345   0.2350   0.2399   0.3051   0.3056   0.3658   0.3842
     0.3980   0.4127   0.4217   0.4270   0.6069   0.6158   0.6438   0.6705
     0.7012   0.7023   0.7123   0.7141   0.7537   0.9694   1.0141   1.0529
     1.0579   1.1082   1.2103   1.2398   1.2624   1.2742   1.2789   1.2806
     1.2831   1.4234   1.4385   1.4436   1.4504   1.4549   1.4701   1.4791
     1.4863   1.5062   1.5310   1.5375   1.5539   1.5792   1.5868   1.5971
     1.6026   1.6047   1.6066   1.6255   1.6594   1.6775   1.6842   1.6923
     1.7081   1.7241   1.7263   1.7276   1.7310   1.7374   1.7396   1.7774
     1.7788   1.8042   1.8063   1.8138   1.8234   1.8280   1.8310   1.8535
     1.8658   1.8684   1.8755   1.8779   1.8804   1.8845   1.8902   1.8951
     1.8994   1.9300   1.9554   1.9572   2.1025   2.1070   2.1113   2.1138
     2.1153   2.1155

          k = 0.0000 0.2309 0.0000 ( 51134 PWs)   bands (ev):

   -21.5345 -10.3125  -7.4835  -6.7322  -6.1755  -5.6385  -5.3626  -5.1860
    -4.7796  -4.7632  -4.2619  -4.1478  -3.8527  -3.8448  -3.7589  -3.7040
    -3.5587  -3.3097  -3.1798  -3.1539  -3.0762  -2.8091  -2.5913  -2.5604
    -2.5232  -2.4747  -2.4493  -2.2373  -2.1522  -2.1445  -2.1388  -2.1154
    -2.0975  -2.0584  -2.0489  -2.0241  -2.0087  -1.8902  -1.8643  -1.8066
    -1.7823  -1.7652  -1.6988  -1.6123  -1.5890  -1.5823  -1.5459  -1.4848
    -1.4362  -1.4116  -1.3690  -1.3426  -1.3292  -1.3076  -1.2878  -1.2809
    -1.2718  -1.2282  -1.1966  -1.1674  -1.1440  -1.1182  -1.1024  -1.0823
    -1.0228  -0.9425  -0.7518  -0.6756  -0.6645  -0.6450  -0.6186  -0.5653
    -0.5185  -0.4958  -0.4459  -0.4304  -0.3348  -0.3121  -0.3006  -0.2854
    -0.2705  -0.2574  -0.2477  -0.2292  -0.2161  -0.2083  -0.1706  -0.1270
    -0.1061  -0.0863  -0.0828  -0.0611  -0.0498  -0.0273  -0.0200  -0.0006
     0.0018   0.0088   0.0182   0.0197   0.0241   0.0314   0.0539   0.0734
     0.1041   0.1135   0.1223   0.1282   0.1573   0.1733   0.1829   0.1975
     0.2352   0.2490   0.2899   0.2979   0.3253   0.3422   0.3449   0.3722
     0.4850   0.5096   0.5592   0.5847   0.5879   0.6308   0.6424   0.6599
     0.6687   0.6890   0.6918   0.6932   0.8582   0.9203   0.9969   1.0216
     1.0263   1.0415   1.0547   1.0652   1.0885   1.1253   1.1827   1.2144
     1.2242   1.2774   1.3041   1.3139   1.3377   1.3653   1.3880   1.3937
     1.4492   1.4802   1.4917   1.5075   1.5160   1.5319   1.5526   1.5607
     1.5906   1.6147   1.6414   1.6649   1.6850   1.6984   1.7074   1.7350
     1.7526   1.7635   1.7705   1.7779   1.7926   1.8090   1.8488   1.8561
     1.8632   1.8647   1.9055   1.9136   1.9216   1.9384   1.9490   1.9636
     1.9709   2.0082   2.0103   2.0132   2.0381   2.0426   2.0503   2.0679
     2.0760   2.1014   2.1081   2.1225   2.1942   2.2060   2.2139   2.2321
     2.2876   2.3028

          k = 0.0000 0.4619 0.0000 ( 51204 PWs)   bands (ev):

   -21.5345 -10.3125  -7.0674  -6.6966  -6.2845  -5.9577  -5.4920  -5.2090
    -4.9986  -4.9606  -4.8482  -3.9206  -3.8807  -3.7766  -3.3088  -3.2315
    -3.2242  -3.1112  -2.9716  -2.9169  -2.7860  -2.7743  -2.6314  -2.6263
    -2.5729  -2.5500  -2.5055  -2.4904  -2.3895  -2.3798  -2.3379  -2.3116
    -2.2986  -2.1036  -2.0898  -2.0305  -2.0098  -1.9236  -1.8926  -1.8864
    -1.8742  -1.8682  -1.7126  -1.5843  -1.5775  -1.5442  -1.5305  -1.4844
    -1.3666  -1.3562  -1.3402  -1.3243  -1.3107  -1.2972  -1.2882  -1.2757
    -1.2214  -1.1790  -1.1709  -1.1624  -1.1347  -1.1049  -0.9989  -0.9550
    -0.8510  -0.8191  -0.7629  -0.7140  -0.6855  -0.6533  -0.6342  -0.6128
    -0.6027  -0.5777  -0.5465  -0.5117  -0.5001  -0.4579  -0.4343  -0.4071
    -0.3858  -0.3536  -0.3337  -0.3264  -0.3164  -0.2647  -0.2231  -0.1788
    -0.1432  -0.1269  -0.1017  -0.0658  -0.0535  -0.0292  -0.0102   0.0161
     0.0364   0.0523   0.0600   0.0735   0.0765   0.0859   0.1101   0.1259
     0.1383   0.1679   0.1784   0.1809   0.1888   0.1943   0.2068   0.2363
     0.2438   0.2601   0.3029   0.3783   0.3889   0.3954   0.4273   0.4435
     0.4457   0.4682   0.4764   0.5293   0.5523   0.5581   0.5694   0.5980
     0.6155   0.6348   0.6595   0.6671   0.6984   0.7058   0.8066   0.8481
     0.8836   0.9110   0.9751   1.0463   1.0872   1.1043   1.1231   1.1275
     1.1438   1.1716   1.1917   1.2244   1.2371   1.2761   1.3639   1.4096
     1.4233   1.4365   1.4791   1.4976   1.5265   1.5407   1.5610   1.5830
     1.6114   1.6250   1.6471   1.6973   1.7294   1.7486   1.7563   1.7780
     1.7832   1.7882   1.8087   1.8266   1.8525   1.8608   1.8762   1.8927
     1.9105   1.9403   1.9915   2.0051   2.0179   2.0445   2.0509   2.0627
     2.0692   2.0740   2.1042   2.1099   2.1181   2.1342   2.1413   2.1431
     2.1530   2.1896   2.2923   2.3557   2.3874   2.4644   2.5237   2.8063
     2.8798   2.9161

          k = 0.2000-0.1155 0.0000 ( 51134 PWs)   bands (ev):

   -21.5345 -10.3118  -7.4844  -6.7322  -6.1813  -5.6559  -5.3422  -5.1758
    -4.7850  -4.7738  -4.2587  -4.1141  -3.8522  -3.8465  -3.7647  -3.7319
    -3.5539  -3.3083  -3.1819  -3.1664  -3.0630  -2.7887  -2.5980  -2.5747
    -2.5123  -2.4766  -2.4559  -2.2414  -2.1530  -2.1483  -2.1353  -2.1037
    -2.0969  -2.0594  -2.0487  -2.0203  -2.0128  -1.8981  -1.8633  -1.7917
    -1.7825  -1.7645  -1.6600  -1.6365  -1.5902  -1.5832  -1.5535  -1.4640
    -1.4489  -1.4135  -1.3759  -1.3540  -1.3295  -1.3071  -1.2885  -1.2807
    -1.2707  -1.2493  -1.1934  -1.1652  -1.1449  -1.1205  -1.0994  -1.0822
    -1.0133  -0.9486  -0.7557  -0.6774  -0.6629  -0.6490  -0.6110  -0.5616
    -0.5169  -0.4991  -0.4498  -0.4332  -0.3330  -0.3135  -0.3037  -0.2839
    -0.2726  -0.2588  -0.2474  -0.2270  -0.2239  -0.2056  -0.1712  -0.1243
    -0.0946  -0.0882  -0.0815  -0.0658  -0.0519  -0.0316  -0.0196  -0.0027
     0.0057   0.0096   0.0164   0.0206   0.0237   0.0262   0.0599   0.0724
     0.1051   0.1151   0.1245   0.1262   0.1599   0.1712   0.1884   0.1937
     0.2301   0.2449   0.2664   0.2945   0.3314   0.3395   0.3446   0.3722
     0.4811   0.5233   0.5755   0.5844   0.6144   0.6210   0.6403   0.6663
     0.6765   0.6864   0.6894   0.6942   0.8537   0.9177   1.0024   1.0228
     1.0301   1.0381   1.0565   1.0654   1.1002   1.1342   1.1758   1.2141
     1.2344   1.2619   1.3027   1.3124   1.3448   1.3613   1.3903   1.4165
     1.4465   1.4580   1.4917   1.5078   1.5179   1.5322   1.5532   1.5619
     1.5871   1.6061   1.6510   1.6593   1.6800   1.6950   1.7055   1.7160
     1.7617   1.7632   1.7700   1.7730   1.7965   1.8149   1.8501   1.8594
     1.8616   1.8658   1.9026   1.9125   1.9212   1.9359   1.9545   1.9614
     1.9733   2.0074   2.0110   2.0133   2.0386   2.0443   2.0481   2.0738
     2.0843   2.0999   2.1036   2.1254   2.1857   2.2089   2.2124   2.2493
     2.2828   2.3009

          k = 0.2000 0.1155 0.0000 ( 51134 PWs)   bands (ev):

   -21.5345 -10.3126  -7.4833  -6.7327  -6.1726  -5.6333  -5.3542  -5.2108
    -4.7684  -4.7625  -4.2655  -4.1599  -3.8511  -3.8464  -3.7455  -3.7015
    -3.5613  -3.3093  -3.1768  -3.1575  -3.0775  -2.8131  -2.5850  -2.5600
    -2.5184  -2.4756  -2.4540  -2.2363  -2.1554  -2.1391  -2.1356  -2.1096
    -2.0988  -2.0593  -2.0493  -2.0190  -2.0119  -1.8936  -1.8633  -1.8020
    -1.7835  -1.7719  -1.7048  -1.6360  -1.5984  -1.5832  -1.5085  -1.4650
    -1.4471  -1.4217  -1.3697  -1.3572  -1.3255  -1.2996  -1.2892  -1.2836
    -1.2728  -1.2276  -1.2044  -1.1732  -1.1450  -1.1126  -1.1015  -1.0798
    -1.0088  -0.9357  -0.7669  -0.6765  -0.6643  -0.6387  -0.6095  -0.5714
    -0.5287  -0.4985  -0.4412  -0.4273  -0.3415  -0.3067  -0.2997  -0.2923
    -0.2586  -0.2506  -0.2475  -0.2287  -0.2245  -0.1989  -0.1844  -0.1285
    -0.1021  -0.0869  -0.0790  -0.0695  -0.0579  -0.0237  -0.0180  -0.0040
     0.0041   0.0081   0.0144   0.0201   0.0222   0.0353   0.0575   0.0738
     0.1078   0.1121   0.1268   0.1292   0.1482   0.1770   0.1900   0.1960
     0.2344   0.2465   0.2850   0.2955   0.3307   0.3367   0.3442   0.3719
     0.4946   0.5256   0.5492   0.5828   0.5960   0.6363   0.6413   0.6636
     0.6694   0.6824   0.6911   0.6944   0.8201   0.9269   1.0000   1.0117
     1.0261   1.0448   1.0588   1.0653   1.0951   1.1439   1.1991   1.2231
     1.2277   1.2553   1.3050   1.3187   1.3404   1.3597   1.3769   1.3924
     1.4538   1.4739   1.4991   1.5104   1.5168   1.5345   1.5502   1.5628
     1.5822   1.6140   1.6459   1.6566   1.6760   1.6984   1.7106   1.7363
     1.7567   1.7658   1.7690   1.7777   1.7898   1.8118   1.8510   1.8567
     1.8602   1.8640   1.9019   1.9146   1.9238   1.9388   1.9476   1.9628
     1.9707   2.0093   2.0107   2.0185   2.0392   2.0434   2.0489   2.0704
     2.0768   2.1016   2.1057   2.1227   2.1908   2.2064   2.2170   2.2310
     2.2885   2.3007

          k = 0.2000 0.3464 0.0000 ( 51202 PWs)   bands (ev):

   -21.5345 -10.3129  -7.1979  -6.7020  -6.0333  -5.7691  -5.7585  -5.4613
    -5.1992  -4.5040  -4.4416  -4.0481  -4.0349  -3.9344  -3.2096  -3.2025
    -3.1958  -3.1875  -3.0876  -2.9929  -2.9053  -2.8950  -2.8888  -2.5286
    -2.4570  -2.4437  -2.4390  -2.3589  -2.3479  -2.3265  -2.2447  -2.2395
    -2.2314  -2.2221  -2.2104  -2.0838  -2.0348  -1.9176  -1.8496  -1.8447
    -1.7994  -1.7800  -1.7197  -1.7077  -1.6294  -1.5431  -1.5087  -1.4831
    -1.3850  -1.3635  -1.3275  -1.3242  -1.3217  -1.3005  -1.2724  -1.2644
    -1.2495  -1.2215  -1.1776  -1.1409  -1.1045  -1.0281  -0.9824  -0.9444
    -0.8798  -0.8474  -0.7585  -0.7430  -0.6537  -0.6247  -0.6066  -0.5808
    -0.5630  -0.5359  -0.5293  -0.5153  -0.4629  -0.4417  -0.4156  -0.4031
    -0.3853  -0.3708  -0.3522  -0.3425  -0.2974  -0.2274  -0.1873  -0.1736
    -0.1564  -0.1411  -0.1000  -0.0813  -0.0651  -0.0559  -0.0394  -0.0290
    -0.0104   0.0091   0.0224   0.0341   0.0469   0.0592   0.0906   0.1069
     0.1197   0.1277   0.1481   0.1585   0.1687   0.1754   0.1962   0.1994
     0.2337   0.2866   0.2970   0.3173   0.3984   0.4329   0.4458   0.4584
     0.4842   0.4961   0.5297   0.5783   0.5987   0.6097   0.6155   0.6230
     0.6375   0.6490   0.6819   0.7171   0.7668   0.7922   0.9149   0.9312
     0.9856   1.0350   1.0418   1.0600   1.0899   1.1030   1.1187   1.1282
     1.1437   1.1604   1.1737   1.1962   1.2116   1.2577   1.3132   1.3422
     1.3691   1.3810   1.4085   1.4217   1.4458   1.4605   1.5014   1.5176
     1.5750   1.6270   1.6914   1.7347   1.7391   1.7554   1.7768   1.7947
     1.8071   1.8125   1.8258   1.8385   1.8497   1.8967   1.9108   1.9130
     1.9249   1.9625   1.9702   1.9770   1.9911   2.0144   2.0193   2.0463
     2.0512   2.0588   2.0631   2.0901   2.0943   2.1105   2.1361   2.1644
     2.1900   2.1974   2.3002   2.3203   2.3762   2.4339   2.4673   2.6196
     2.7024   2.7858

          k = 0.2000-0.5774 0.0000 ( 51262 PWs)   bands (ev):

   -21.5345 -10.3123  -6.8429  -6.5734  -6.4750  -5.9695  -5.7928  -5.3572
    -5.1341  -4.9986  -4.5399  -4.0953  -3.5760  -3.4554  -3.2342  -3.2296
    -3.1990  -3.0077  -2.9746  -2.8303  -2.8153  -2.8083  -2.6852  -2.6742
    -2.6670  -2.6512  -2.6339  -2.6158  -2.4327  -2.3031  -2.2767  -2.2649
    -2.2516  -2.2374  -2.1995  -2.1948  -2.0949  -2.0735  -1.8779  -1.7892
    -1.7423  -1.7325  -1.7258  -1.6535  -1.6083  -1.5300  -1.4912  -1.4813
    -1.4397  -1.4316  -1.4160  -1.3157  -1.2721  -1.2586  -1.2494  -1.2205
    -1.1945  -1.1275  -1.1025  -1.0810  -1.0357  -1.0245  -0.9980  -0.9092
    -0.8972  -0.8275  -0.7339  -0.7119  -0.6963  -0.6554  -0.6324  -0.6255
    -0.5794  -0.5553  -0.5329  -0.5070  -0.4772  -0.4537  -0.4223  -0.4095
    -0.3830  -0.3755  -0.3626  -0.3438  -0.3428  -0.3287  -0.2967  -0.2791
    -0.2709  -0.2518  -0.2180  -0.1887  -0.1486  -0.1179  -0.0843  -0.0648
    -0.0206   0.0114   0.0248   0.0523   0.0640   0.0863   0.0933   0.1120
     0.1332   0.1648   0.1915   0.2092   0.2201   0.2261   0.2957   0.3182
     0.3387   0.3624   0.3697   0.3760   0.3874   0.4341   0.4482   0.4775
     0.4878   0.5183   0.5436   0.5754   0.5902   0.6017   0.6224   0.6356
     0.6616   0.6673   0.6755   0.7034   0.7318   0.7438   0.7516   0.7911
     0.8172   0.9103   0.9788   1.0186   1.0340   1.0463   1.0711   1.0870
     1.0980   1.1134   1.1277   1.1649   1.2284   1.2766   1.2920   1.3076
     1.3229   1.3543   1.3857   1.4167   1.4329   1.4489   1.4832   1.5286
     1.5723   1.6526   1.6906   1.7037   1.7405   1.8002   1.8062   1.8217
     1.8370   1.8445   1.8598   1.8727   1.8905   1.9183   1.9217   1.9330
     1.9691   1.9871   2.0090   2.0159   2.0229   2.0257   2.0343   2.0390
     2.0572   2.0821   2.0957   2.1230   2.1294   2.1505   2.1539   2.1829
     2.2160   2.2450   2.3397   2.4915   2.6459   2.7619   2.9411   3.0110
     3.0465   3.0526

          k = 0.2000-0.3464 0.0000 ( 51202 PWs)   bands (ev):

   -21.5345 -10.3117  -7.2010  -6.7016  -6.0493  -5.7910  -5.7517  -5.4513
    -5.1713  -4.5362  -4.4047  -4.0415  -4.0377  -3.9310  -3.2130  -3.2060
    -3.1972  -3.1919  -3.0843  -3.0085  -2.9222  -2.8915  -2.8609  -2.5300
[...]
     atom    8 type  1   force =    -0.00054885   -0.00365144   -0.10028216
     atom    9 type  1   force =     0.00131786    0.00245915   -0.10303671
     atom   10 type  1   force =     0.00087054    0.00126438   -0.01398558
     atom   11 type  1   force =    -0.00008415   -0.00000563   -0.00841620
     atom   12 type  1   force =    -0.00028968    0.00099967   -0.01080192
     atom   13 type  1   force =    -0.00129431   -0.00055173   -0.01051035
     atom   14 type  1   force =     0.00103365    0.00131145   -0.01154489
     atom   15 type  1   force =    -0.00032897    0.00038386   -0.01011992
     atom   16 type  1   force =     0.00121338   -0.00117284   -0.01029961
     atom   17 type  1   force =    -0.00060682   -0.00187910   -0.00974112
     atom   18 type  1   force =    -0.00007116   -0.00032949   -0.01322986
     atom   19 type  1   force =    -0.00054517    0.00079692    0.01218913
     atom   20 type  1   force =    -0.00448353    0.00438926    0.00199424
     atom   21 type  1   force =     0.00240853   -0.00568940    0.01168940
     atom   22 type  1   force =     0.00115462    0.00013353    0.01728292
     atom   23 type  1   force =    -0.00119085    0.00525610    0.00897811
     atom   24 type  1   force =     0.00016484    0.00191955    0.01728025
     atom   25 type  1   force =     0.00034063    0.00065672    0.01800856
     atom   26 type  1   force =    -0.00565780   -0.00538108    0.00418301
     atom   27 type  1   force =     0.00796204   -0.00276451    0.00323213
     atom   28 type  1   force =     0.02189544    0.00278296    0.13021882
     atom   29 type  1   force =     0.01338383    0.06243562    0.15198738
     atom   30 type  1   force =    -0.02476786    0.00618467    0.12990623
     atom   31 type  1   force =     0.03698216   -0.04803292    0.16631303
     atom   32 type  1   force =     0.00854357    0.01173350    0.09573268
     atom   33 type  1   force =    -0.00256702    0.00173941    0.10730022
     atom   34 type  1   force =    -0.00122118   -0.00467279    0.11016813
     atom   35 type  1   force =    -0.00051330    0.00046735    0.12089182
     atom   36 type  1   force =    -0.00295538    0.00319755    0.10674997
     atom   37 type  2   force =    -0.21175763   -0.25146853    0.19615368
     atom   38 type  3   force =     1.40396257    1.63351020   -1.38335704
     atom   39 type  4   force =    -0.03987169   -0.04537454   -0.04461788
     The ionic contribution  to forces
     atom    1 type  1   force =    -0.00663717    0.00139082 -111.17350111
     atom    2 type  1   force =    -0.00277923    0.00268633 -111.19238446
     atom    3 type  1   force =     0.00941632    0.00097249 -111.17901900
     atom    4 type  1   force =    -0.00358620    0.00514033 -111.17241273
     atom    5 type  1   force =     0.00186491    0.00733122 -111.17588117
     atom    6 type  1   force =     0.00172134   -0.00144156 -111.16875199
     atom    7 type  1   force =     0.00100622   -0.00120961 -111.16823562
     atom    8 type  1   force =    -0.00580432   -0.00613858 -111.17775587
     atom    9 type  1   force =     0.00479813   -0.00873144 -111.17979134
     atom   10 type  1   force =    -0.04338767   -0.01697133  -40.11597652
     atom   11 type  1   force =    -0.01330737   -0.05446610  -40.23027228
     atom   12 type  1   force =     0.05668653   -0.03213001  -40.14120034
     atom   13 type  1   force =    -0.06003912    0.04105186  -40.17809355
     atom   14 type  1   force =     0.04089582    0.04550961  -40.21825062
     atom   15 type  1   force =     0.01915747    0.01273276  -40.09876674
     atom   16 type  1   force =    -0.00635922    0.03930209  -40.10500055
     atom   17 type  1   force =     0.00241208   -0.00835659  -40.11158666
     atom   18 type  1   force =     0.00394496   -0.02667127  -40.09981614
     atom   19 type  1   force =    -0.31988658    0.06788176   31.48194658
     atom   20 type  1   force =    -0.16312909    0.14988554   30.46578496
     atom   21 type  1   force =     0.47986708    0.04329426   31.21248420
     atom   22 type  1   force =    -0.17009708    0.24446858   31.53427760
     atom   23 type  1   force =     0.09549756    0.36431069   31.36800930
     atom   24 type  1   force =     0.07533110   -0.06528152   31.68095999
     atom   25 type  1   force =     0.04088592   -0.05302510   31.70453046
     atom   26 type  1   force =    -0.28736082   -0.31058529   31.26928125
     atom   27 type  1   force =     0.24692301   -0.44044386   31.17843792
     atom   28 type  1   force =    -1.70013611   -0.57737872  103.71124452
     atom   29 type  1   force =    -0.73475059   -3.80687590   97.72002128
     atom   30 type  1   force =     2.33277442   -1.32011660  103.17218354
     atom   31 type  1   force =    -3.04682427    2.13118604  101.68126647
     atom   32 type  1   force =     2.93016925    3.25653845   98.25181191
     atom   33 type  1   force =     0.66306037    0.35362327  104.27876760
     atom   34 type  1   force =    -0.25772648    1.33539830  104.13453405
     atom   35 type  1   force =     0.02379155   -0.34381661  103.98080117
     atom   36 type  1   force =     0.22389395   -0.90434151  104.22788375
     atom   37 type  2   force =     3.55185092    4.44617543   55.31788500
     atom   38 type  3   force =    -5.37781894   -6.17840483   88.43468112
     atom   39 type  4   force =     1.39368138    1.60750659   15.07990398
     The local contribution  to forces
     atom    1 type  1   force =     0.00835078   -0.00312441  111.28096787
     atom    2 type  1   force =     0.00186999   -0.00414185  111.29783796
     atom    3 type  1   force =    -0.01020723    0.00022764  111.28743660
     atom    4 type  1   force =     0.00041096   -0.00454767  111.28047879
     atom    5 type  1   force =    -0.00137770   -0.01053586  111.28554239
     atom    6 type  1   force =     0.00030731    0.00199793  111.27407419
     atom    7 type  1   force =    -0.00122527    0.00184444  111.27561105
     atom    8 type  1   force =     0.00696650    0.00987405  111.28096974
     atom    9 type  1   force =    -0.00644285    0.00647328  111.28475080
     atom   10 type  1   force =     0.04331698    0.01558757   40.10809727
     atom   11 type  1   force =     0.01248036    0.05401759   40.21789078
     atom   12 type  1   force =    -0.05599773    0.03111664   40.13275114
     atom   13 type  1   force =     0.06083666   -0.04207714   40.16841140
     atom   14 type  1   force =    -0.04117359   -0.04575135   40.20764867
     atom   15 type  1   force =    -0.01855253   -0.01353915   40.08839364
     atom   16 type  1   force =     0.00600362   -0.03756671   40.09485922
     atom   17 type  1   force =    -0.00191571    0.01046694   40.10069412
     atom   18 type  1   force =    -0.00376213    0.02730550   40.09141660
     atom   19 type  1   force =     0.31972976   -0.06789139  -31.47205737
     atom   20 type  1   force =     0.16772414   -0.15551082  -30.44730398
     atom   21 type  1   force =    -0.48077118   -0.03852849  -31.20554247
     atom   22 type  1   force =     0.16857637   -0.24351628  -31.52809492
     atom   23 type  1   force =    -0.09391205   -0.36642980  -31.36137795
     atom   24 type  1   force =    -0.07512232    0.06370818  -31.67583696
     atom   25 type  1   force =    -0.04160891    0.05233782  -31.69666203
     atom   26 type  1   force =     0.29603698    0.31603846  -31.25026347
     atom   27 type  1   force =    -0.25586520    0.44334462  -31.16138058
     atom   28 type  1   force =     1.67043381    0.57211175 -103.85111985
     atom   29 type  1   force =     0.71246134    3.72246693  -97.87885968
     atom   30 type  1   force =    -2.29687700    1.30983539 -103.31153226
     atom   31 type  1   force =     2.99912267   -2.07259183 -101.85830976
     atom   32 type  1   force =    -2.93576814   -3.26540507  -98.34224201
     atom   33 type  1   force =    -0.65602960   -0.35381121 -104.39539691
     atom   34 type  1   force =     0.25662077   -1.32288643 -104.25266717
     atom   35 type  1   force =    -0.02280227    0.34144806 -104.11449372
     atom   36 type  1   force =    -0.22021108    0.89624054 -104.34418864
     atom   37 type  2   force =    -3.33754704   -4.19273667  -55.50950732
     atom   38 type  3   force =     3.98622431    4.55811516  -87.06947695
     atom   39 type  4   force =    -1.35479764   -1.56187013  -15.02413319
     The core correction contribution to forces
     atom    1 type  1   force =     0.00020648   -0.00012218    0.01026530
     atom    2 type  1   force =    -0.00018850   -0.00020274    0.01001316
     atom    3 type  1   force =    -0.00013143    0.00004709    0.01044110
     atom    4 type  1   force =    -0.00024235   -0.00013066    0.01005354
     atom    5 type  1   force =     0.00011710   -0.00013364    0.01040280
     atom    6 type  1   force =    -0.00003359   -0.00015401    0.00998573
     atom    7 type  1   force =    -0.00021706   -0.00003475    0.01014772
     atom    8 type  1   force =     0.00015951    0.00038803    0.01046425
     atom    9 type  1   force =    -0.00023269   -0.00011057    0.01020529
     atom   10 type  1   force =    -0.00005693    0.00008599   -0.00201247
     atom   11 type  1   force =    -0.00012822    0.00004529   -0.00152697
     atom   12 type  1   force =     0.00034471    0.00006741   -0.00194787
     atom   13 type  1   force =     0.00008937   -0.00006261   -0.00170850
     atom   14 type  1   force =     0.00015422    0.00002431   -0.00207151
     atom   15 type  1   force =    -0.00002621   -0.00006807   -0.00151735
     atom   16 type  1   force =     0.00009608    0.00016114   -0.00184499
     atom   17 type  1   force =     0.00007406    0.00006490   -0.00162006
     atom   18 type  1   force =    -0.00007852   -0.00014400   -0.00188696
     atom   19 type  1   force =    -0.00049763   -0.00030281    0.00148843
     atom   20 type  1   force =     0.00007251   -0.00013967    0.00168656
     atom   21 type  1   force =     0.00035618   -0.00053791    0.00086531
     atom   22 type  1   force =    -0.00035713   -0.00008620    0.00194114
     atom   23 type  1   force =    -0.00015579    0.00082071    0.00082577
     atom   24 type  1   force =    -0.00004565    0.00007648    0.00188040
     atom   25 type  1   force =     0.00027988    0.00014233    0.00205129
     atom   26 type  1   force =    -0.00035624   -0.00035194    0.00133755
     atom   27 type  1   force =    -0.00004198   -0.00027404    0.00084205
     atom   28 type  1   force =     0.00061450    0.00017298   -0.00898369
     atom   29 type  1   force =     0.00344362    0.01207646    0.00474288
     atom   30 type  1   force =    -0.00303568    0.00385673   -0.00808676
     atom   31 type  1   force =     0.00710802   -0.00205352   -0.00525788
     atom   32 type  1   force =    -0.00433914   -0.00468327    0.00248811
     atom   33 type  1   force =    -0.00216926   -0.00045286   -0.00998458
     atom   34 type  1   force =     0.00093568   -0.00302981   -0.00916024
     atom   35 type  1   force =    -0.00040838   -0.00052019   -0.00962824
     atom   36 type  1   force =    -0.00005837    0.00002739   -0.01043874
     atom   37 type  2   force =     0.00171476    0.00259734   -0.00181678
     atom   38 type  3   force =    -0.01141184   -0.01315939    0.01206709
     atom   39 type  4   force =     0.00000000    0.00000000    0.00000000
     The Hubbard contrib.    to forces
     atom    1 type  1   force =     0.00000000    0.00000000    0.00000000
     atom    2 type  1   force =     0.00000000    0.00000000    0.00000000
     atom    3 type  1   force =     0.00000000    0.00000000    0.00000000
     atom    4 type  1   force =     0.00000000    0.00000000    0.00000000
     atom    5 type  1   force =     0.00000000    0.00000000    0.00000000
     atom    6 type  1   force =     0.00000000    0.00000000    0.00000000
     atom    7 type  1   force =     0.00000000    0.00000000    0.00000000
     atom    8 type  1   force =     0.00000000    0.00000000    0.00000000
     atom    9 type  1   force =     0.00000000    0.00000000    0.00000000
     atom   10 type  1   force =     0.00000000    0.00000000    0.00000000
     atom   11 type  1   force =     0.00000000    0.00000000    0.00000000
     atom   12 type  1   force =     0.00000000    0.00000000    0.00000000
     atom   13 type  1   force =     0.00000000    0.00000000    0.00000000
     atom   14 type  1   force =     0.00000000    0.00000000    0.00000000
     atom   15 type  1   force =     0.00000000    0.00000000    0.00000000
     atom   16 type  1   force =     0.00000000    0.00000000    0.00000000
     atom   17 type  1   force =     0.00000000    0.00000000    0.00000000
     atom   18 type  1   force =     0.00000000    0.00000000    0.00000000
     atom   19 type  1   force =     0.00000000    0.00000000    0.00000000
     atom   20 type  1   force =     0.00000000    0.00000000    0.00000000
     atom   21 type  1   force =     0.00000000    0.00000000    0.00000000
     atom   22 type  1   force =     0.00000000    0.00000000    0.00000000
     atom   23 type  1   force =     0.00000000    0.00000000    0.00000000
     atom   24 type  1   force =     0.00000000    0.00000000    0.00000000
     atom   25 type  1   force =     0.00000000    0.00000000    0.00000000
     atom   26 type  1   force =     0.00000000    0.00000000    0.00000000
     atom   27 type  1   force =     0.00000000    0.00000000    0.00000000
     atom   28 type  1   force =     0.00000000    0.00000000    0.00000000
     atom   29 type  1   force =     0.00000000    0.00000000    0.00000000
     atom   30 type  1   force =     0.00000000    0.00000000    0.00000000
     atom   31 type  1   force =     0.00000000    0.00000000    0.00000000
     atom   32 type  1   force =     0.00000000    0.00000000    0.00000000
     atom   33 type  1   force =     0.00000000    0.00000000    0.00000000
     atom   34 type  1   force =     0.00000000    0.00000000    0.00000000
     atom   35 type  1   force =     0.00000000    0.00000000    0.00000000
     atom   36 type  1   force =     0.00000000    0.00000000    0.00000000
     atom   37 type  2   force =     0.00000000    0.00000000    0.00000000
     atom   38 type  3   force =     0.00000000    0.00000000    0.00000000
     atom   39 type  4   force =     0.00000000    0.00000000    0.00000000
     The SCF correction term to forces
     atom    1 type  1   force =    -0.00000000    0.00000000   -0.00000000
     atom    2 type  1   force =     0.00000000   -0.00000000   -0.00000000
     atom    3 type  1   force =     0.00000000   -0.00000000   -0.00000000
     atom    4 type  1   force =    -0.00000000    0.00000000   -0.00000000
     atom    5 type  1   force =     0.00000000   -0.00000000   -0.00000000
     atom    6 type  1   force =     0.00000000    0.00000000   -0.00000000
     atom    7 type  1   force =    -0.00000000   -0.00000000   -0.00000000
     atom    8 type  1   force =     0.00000000   -0.00000000   -0.00000000
     atom    9 type  1   force =     0.00000000   -0.00000000   -0.00000000
     atom   10 type  1   force =    -0.00000000   -0.00000000   -0.00000000
     atom   11 type  1   force =     0.00000000   -0.00000000   -0.00000000
     atom   12 type  1   force =     0.00000000   -0.00000000   -0.00000000
     atom   13 type  1   force =    -0.00000000    0.00000000   -0.00000000
     atom   14 type  1   force =     0.00000000    0.00000000   -0.00000000
     atom   15 type  1   force =    -0.00000000    0.00000000   -0.00000000
     atom   16 type  1   force =    -0.00000000    0.00000000   -0.00000000
     atom   17 type  1   force =     0.00000000   -0.00000000   -0.00000000
     atom   18 type  1   force =    -0.00000000   -0.00000000   -0.00000000
     atom   19 type  1   force =    -0.00000000   -0.00000000   -0.00000000
     atom   20 type  1   force =    -0.00000000    0.00000000   -0.00000000
     atom   21 type  1   force =     0.00000000    0.00000000   -0.00000000
     atom   22 type  1   force =    -0.00000000    0.00000000   -0.00000000
     atom   23 type  1   force =     0.00000000    0.00000000   -0.00000000
     atom   24 type  1   force =    -0.00000000   -0.00000000   -0.00000000
     atom   25 type  1   force =     0.00000000   -0.00000000   -0.00000000
     atom   26 type  1   force =    -0.00000000   -0.00000000   -0.00000000
     atom   27 type  1   force =     0.00000000   -0.00000000   -0.00000000
     atom   28 type  1   force =    -0.00000000    0.00000000   -0.00000000
     atom   29 type  1   force =     0.00000000   -0.00000000   -0.00000000
     atom   30 type  1   force =     0.00000000   -0.00000000   -0.00000000
     atom   31 type  1   force =    -0.00000000    0.00000000   -0.00000000
     atom   32 type  1   force =     0.00000000    0.00000000   -0.00000000
     atom   33 type  1   force =     0.00000000    0.00000000   -0.00000000
     atom   34 type  1   force =    -0.00000000   -0.00000000   -0.00000000
     atom   35 type  1   force =     0.00000000   -0.00000000   -0.00000000
     atom   36 type  1   force =     0.00000000   -0.00000000   -0.00000000
     atom   37 type  2   force =     0.00000399    0.00000900    0.00001002
     atom   38 type  3   force =     0.00000102    0.00000540    0.00001938
     atom   39 type  4   force =     0.00000090    0.00000102    0.00000196

     Total force =     0.014483     Total SCF correction =     0.000025

     Writing all to output data dir ./pwscf.save/

     init_run     :     16.02s CPU     16.52s WALL (       1 calls)
     electrons    :    890.20s CPU    907.61s WALL (       1 calls)
     forces       :      3.44s CPU      3.56s WALL (       1 calls)

     Called by init_run:
     wfcinit      :     12.96s CPU     13.34s WALL (       1 calls)
     potinit      :      1.96s CPU      2.05s WALL (       1 calls)
     hinit0       :      0.84s CPU      0.85s WALL (       1 calls)

     Called by electrons:
     c_bands      :    738.26s CPU    749.25s WALL (      50 calls)
     sum_band     :     98.56s CPU     99.93s WALL (      50 calls)
     v_of_rho     :     15.34s CPU     17.26s WALL (      51 calls)
     newd         :      4.63s CPU      4.69s WALL (      51 calls)
     PAW_pot      :     14.44s CPU     16.92s WALL (      51 calls)
     mix_rho      :     20.02s CPU     20.42s WALL (      50 calls)
     vdW_kernel   :      1.09s CPU      1.09s WALL (       1 calls)

     Called by c_bands:
     init_us_2    :      8.94s CPU      9.08s WALL (    2652 calls)
     init_us_2:cp :      8.92s CPU      9.08s WALL (    2652 calls)
     cegterg      :    712.22s CPU    722.39s WALL (    1300 calls)

     Called by *egterg:
     cdiaghg      :    193.38s CPU    194.77s WALL (    4307 calls)
     h_psi        :    359.22s CPU    365.76s WALL (    4333 calls)
     s_psi        :     36.29s CPU     37.06s WALL (    4333 calls)
     g_psi        :      0.95s CPU      0.98s WALL (    3007 calls)

     Called by h_psi:
     h_psi:calbec :     54.31s CPU     55.82s WALL (    4333 calls)
     vloc_psi     :    265.60s CPU    269.50s WALL (    4333 calls)
     add_vuspsi   :     37.03s CPU     38.13s WALL (    4333 calls)

     General routines
     calbec       :     80.44s CPU     82.25s WALL (    5737 calls)
     fft          :     12.19s CPU     13.50s WALL (    4616 calls)
     ffts         :     11.09s CPU     11.38s WALL (   21261 calls)
     fftw         :    308.36s CPU    312.86s WALL ( 1349496 calls)
     interpolate  :      0.58s CPU      0.59s WALL (     102 calls)

     Parallel routines

     PWSCF        :  15m19.65s CPU  15m42.57s WALL


   This run was terminated on:   9:56: 6  14Dec2025            

=------------------------------------------------------------------------------=
   JOB DONE.
=------------------------------------------------------------------------------=
