
     Program PWSCF v.7.1 starts on 14Dec2025 at  9:24:57 
        Git branch: heads/qe-7.1
        Last git commit: 48ba0178f8fede6d020eb786884699a9f063f55d-dirty
        Last git commit date: Fri Jan 27 14:22:33 2023 +0000
        Last git commit subject: Merge branch 'fix_hubbard' into 'develop'

     This program is part of the open-source Quantum ESPRESSO suite
     for quantum simulation of materials; please cite
         "P. Giannozzi et al., J. Phys.:Condens. Matter 21 395502 (2009);
         "P. Giannozzi et al., J. Phys.:Condens. Matter 29 465901 (2017);
         "P. Giannozzi et al., J. Chem. Phys. 152 154105 (2020);
          URL http://www.quantum-espresso.org", 
     in publications or presentations arising from this work. More details at
     http://www.quantum-espresso.org/quote

     Parallel version (MPI), running on    96 processors

     MPI processes distributed on     2 nodes
     72491 MiB available memory on the printing compute node when the environment starts

     Reading input from espresso.pwi
Warning: card &CELL ignored
Warning: card / ignored
Warning: card &FCP ignored
Warning: card / ignored
Warning: card &RISM ignored
Warning: card / ignored

     Current dimensions of program PWSCF are:
     Max number of different atomic species (ntypx) = 10
     Max number of k-points (npk) =  40000
     Max angular momentum in pseudopotentials (lmaxx) =  4
     file Co.pbe-n-kjpaw_psl.1.0.0.UPF: wavefunction(s)  4S 3D renormalized
     file C.pbe-n-kjpaw_psl.1.0.0.UPF: wavefunction(s)  2S 2P renormalized
     file O.pbe-nl-kjpaw_psl.1.0.0.UPF: wavefunction(s)  2S 2P renormalized
     file H.pbe-kjpaw_psl.1.0.0.UPF: wavefunction(s)  1S renormalized

     **************************************************************************
     Initializing libbeef V0.1.2 with the BEEF-vdW functional.
     Citation: Wellendorff et al., PRB 85, 235149 (2012).
     **************************************************************************


     IMPORTANT: XC functional enforced from input :
     Exchange-correlation= BEEF-VDW
                           (   1   4  43  14   2   0   0)
     Any further DFT definition will be discarded
     Please, verify this is what you really want


     R & G space division:  proc/nbgrp/npool/nimage =      96
     Subspace diagonalization in iterative solution of the eigenvalue problem:
     one sub-group per band group will be used
     custom distributed-memory algorithm (size of sub-group:  2*  2 procs)


     Parallelization info
     --------------------
     sticks:   dense  smooth     PW     G-vecs:    dense   smooth      PW
     Min          43      28      7                 7829     4248     595
     Max          44      29      8                 7845     4281     630
     Sum        4153    2773    757               752179   409445   59217

     Using Slab Decomposition



     bravais-lattice index     =            0
     lattice parameter (alat)  =      14.1729  a.u.
     unit-cell volume          =    8574.3059 (a.u.)^3
     number of atoms/cell      =           39
     number of atomic types    =            4
     number of electrons       =       335.00
     number of Kohn-Sham states=          202
     kinetic-energy cutoff     =      50.0000  Ry
     charge density cutoff     =     300.0000  Ry
     scf convergence threshold =      1.0E-08
     mixing beta               =       0.7000
     number of iterations used =            8  local-TF  mixing
     Exchange-correlation= BEEF-VDW
                           (   1   4  43  14   2   0   0)

     celldm(1)=  14.172946  celldm(2)=   0.000000  celldm(3)=   0.000000
     celldm(4)=   0.000000  celldm(5)=   0.000000  celldm(6)=   0.000000

     crystal axes: (cart. coord. in units of alat)
               a(1) = (   1.000000   0.000000   0.000000 )  
               a(2) = (   0.500000   0.866025   0.000000 )  
               a(3) = (   0.000000   0.000000   3.477667 )  

     reciprocal axes: (cart. coord. in units 2 pi/alat)
               b(1) = (  1.000000 -0.577350  0.000000 )  
               b(2) = (  0.000000  1.154701  0.000000 )  
               b(3) = (  0.000000  0.000000  0.287549 )  


     PseudoPot. # 1 for Co read from file:
     /users/kbadger1/espresso/pseudo/pslibrary.1.0.0/pbe/PSEUDOPOTENTIALS/Co.pbe-n-kjpaw_psl.1.0.0.UPF
     MD5 check sum: 88af6ec42553d4236c267fdfcb472151
     Pseudo is Projector augmented-wave + core cor, Zval =  9.0
     Generated using 'atomic' code by A. Dal Corso  v.7.0
     Shape of augmentation charge: PSQ
     Using radial grid of 1193 points,  6 beta functions with: 
                l(1) =   0
                l(2) =   0
                l(3) =   1
                l(4) =   1
                l(5) =   2
                l(6) =   2
     Q(r) pseudized with 0 coefficients 


     PseudoPot. # 2 for C  read from file:
     /users/kbadger1/espresso/pseudo/pslibrary.1.0.0/pbe/PSEUDOPOTENTIALS/C.pbe-n-kjpaw_psl.1.0.0.UPF
     MD5 check sum: 6408e75cdba28732cea38a4db8498ce4
     Pseudo is Projector augmented-wave + core cor, Zval =  4.0
     Generated using 'atomic' code by A. Dal Corso  v.7.0
     Shape of augmentation charge: PSQ
     Using radial grid of 1073 points,  4 beta functions with: 
                l(1) =   0
                l(2) =   0
                l(3) =   1
                l(4) =   1
     Q(r) pseudized with 0 coefficients 


     PseudoPot. # 3 for O  read from file:
     /users/kbadger1/espresso/pseudo/pslibrary.1.0.0/pbe/PSEUDOPOTENTIALS/O.pbe-nl-kjpaw_psl.1.0.0.UPF
     MD5 check sum: f0439fab3598ca4e468f064226030408
     Pseudo is Projector augmented-wave + core cor, Zval =  6.0
     Generated using 'atomic' code by A. Dal Corso  v.7.0
     Shape of augmentation charge: PSQ
     Using radial grid of 1095 points,  4 beta functions with: 
                l(1) =   0
                l(2) =   0
                l(3) =   1
                l(4) =   1
     Q(r) pseudized with 0 coefficients 


     PseudoPot. # 4 for H  read from file:
     /users/kbadger1/espresso/pseudo/pslibrary.1.0.0/pbe/PSEUDOPOTENTIALS/H.pbe-kjpaw_psl.1.0.0.UPF
     MD5 check sum: fe4c6fa958fa6d3815bf5d2419cbf1df
     Pseudo is Projector augmented-wave, Zval =  1.0
     Generated using 'atomic' code by A. Dal Corso  v.7.0
     Shape of augmentation charge: PSQ
     Using radial grid of  929 points,  2 beta functions with: 
                l(1) =   0
                l(2) =   0
     Q(r) pseudized with 0 coefficients 


     atomic species   valence    mass     pseudopotential
        Co             9.00    58.93319     Co( 1.00)
        C              4.00    12.00000     C ( 1.00)
        O              6.00    15.99491     O ( 1.00)
        H              1.00     1.00783     H ( 1.00)

     Starting magnetic structure 
     atomic species   magnetization
        Co           1.000
        C            1.000
        O            0.000
        H            0.000

     No symmetry found



   Cartesian axes

     site n.     atom                  positions (alat units)
         1           Co  tau(   1) = (   0.0000000   0.1924501   1.3333333  )
         2           Co  tau(   2) = (   0.3333333   0.1924501   1.3333333  )
         3           Co  tau(   3) = (   0.6666667   0.1924501   1.3333333  )
         4           Co  tau(   4) = (   0.1666667   0.4811252   1.3333333  )
         5           Co  tau(   5) = (   0.5000000   0.4811252   1.3333333  )
         6           Co  tau(   6) = (   0.8333333   0.4811252   1.3333333  )
         7           Co  tau(   7) = (   0.3333333   0.7698004   1.3333333  )
         8           Co  tau(   8) = (   0.6666667   0.7698004   1.3333333  )
         9           Co  tau(   9) = (   1.0000000   0.7698004   1.3333333  )
        10           Co  tau(  10) = (   0.0000000   0.0000000   1.6036667  )
        11           Co  tau(  11) = (   0.3333333   0.0000000   1.6036667  )
        12           Co  tau(  12) = (   0.6666667   0.0000000   1.6036667  )
        13           Co  tau(  13) = (   0.1666667   0.2886751   1.6036667  )
        14           Co  tau(  14) = (   0.5000000   0.2886751   1.6036667  )
        15           Co  tau(  15) = (   0.8333333   0.2886751   1.6036667  )
        16           Co  tau(  16) = (   0.3333333   0.5773503   1.6036667  )
        17           Co  tau(  17) = (   0.6666667   0.5773503   1.6036667  )
        18           Co  tau(  18) = (   1.0000000   0.5773503   1.6036667  )
        19           Co  tau(  19) = (   0.0000000   0.1924501   1.8740000  )
        20           Co  tau(  20) = (   0.3333333   0.1924501   1.8740000  )
        21           Co  tau(  21) = (   0.6666667   0.1924501   1.8740000  )
        22           Co  tau(  22) = (   0.1666667   0.4811252   1.8740000  )
        23           Co  tau(  23) = (   0.5000000   0.4811252   1.8740000  )
        24           Co  tau(  24) = (   0.8333333   0.4811252   1.8740000  )
        25           Co  tau(  25) = (   0.3333333   0.7698004   1.8740000  )
        26           Co  tau(  26) = (   0.6666667   0.7698004   1.8740000  )
        27           Co  tau(  27) = (   1.0000000   0.7698004   1.8740000  )
        28           Co  tau(  28) = (   0.0000000   0.0000000   2.1443333  )
        29           Co  tau(  29) = (   0.3333333   0.0000000   2.1443333  )
        30           Co  tau(  30) = (   0.6666667   0.0000000   2.1443333  )
        31           Co  tau(  31) = (   0.1666667   0.2886751   2.1443333  )
        32           Co  tau(  32) = (   0.5000000   0.2886751   2.1443333  )
        33           Co  tau(  33) = (   0.8333333   0.2886751   2.1443333  )
        34           Co  tau(  34) = (   0.3333333   0.5773503   2.1443333  )
        35           Co  tau(  35) = (   0.6666667   0.5773503   2.1443333  )
        36           Co  tau(  36) = (   1.0000000   0.5773503   2.1443333  )
        37           C   tau(  37) = (   0.3384430   0.1960528   2.3221460  )
        38           O   tau(  38) = (   0.2970758   0.1748809   2.4754346  )
        39           H   tau(  39) = (   0.5557286   0.3172822   2.3355885  )

     number of k points=    13  Marzari-Vanderbilt smearing, width (Ry)=  0.0010
                       cart. coord. in units 2pi/alat
        k(    1) = (   0.0000000   0.0000000   0.0000000), wk =   0.0400000
        k(    2) = (   0.0000000   0.2309401   0.0000000), wk =   0.0800000
        k(    3) = (   0.0000000   0.4618802   0.0000000), wk =   0.0800000
        k(    4) = (   0.2000000  -0.1154701   0.0000000), wk =   0.0800000
        k(    5) = (   0.2000000   0.1154701   0.0000000), wk =   0.0800000
        k(    6) = (   0.2000000   0.3464102   0.0000000), wk =   0.0800000
        k(    7) = (   0.2000000  -0.5773503   0.0000000), wk =   0.0800000
        k(    8) = (   0.2000000  -0.3464102   0.0000000), wk =   0.0800000
        k(    9) = (   0.4000000  -0.2309401   0.0000000), wk =   0.0800000
        k(   10) = (   0.4000000   0.0000000   0.0000000), wk =   0.0800000
        k(   11) = (   0.4000000   0.2309401   0.0000000), wk =   0.0800000
        k(   12) = (   0.4000000  -0.6928203   0.0000000), wk =   0.0800000
        k(   13) = (   0.4000000  -0.4618802   0.0000000), wk =   0.0800000

     Dense  grid:   752179 G-vectors     FFT dimensions: (  80,  80, 288)

     Smooth grid:   409445 G-vectors     FFT dimensions: (  64,  64, 225)

     Estimated max dynamical RAM per process >      99.02 MB

     Estimated total dynamical RAM >       9.28 GB
     Generating pointlists ...
     new r_m :   0.0830 (alat units)  1.1766 (a.u.) for type    1
     new r_m :   0.0661 (alat units)  0.9365 (a.u.) for type    2
     new r_m :   0.0661 (alat units)  0.9365 (a.u.) for type    3
     new r_m :   0.0830 (alat units)  1.1766 (a.u.) for type    4

     Initial potential from superposition of free atoms

     starting charge     334.9897, renormalised to     335.0000

     negative rho (up, down):  3.059E-03 4.613E-04


     %%%%%%%%%%%%%%%%%%%%%%%%%%%%%%%%%%%%%%%%%%%%%%%%%%%%%%%%%%%%%%%%%%%%%%%%
     %                                                                      %
     % You are using vdW-DF, which was implemented by the Thonhauser group. %
     % Please cite the following two papers that made this development      %
     % possible and the two reviews that describe the various versions:     %
     %                                                                      %
     %   T. Thonhauser et al., PRL 115, 136402 (2015).                      %
     %   T. Thonhauser et al., PRB 76, 125112 (2007).                       %
     %   K. Berland et al., Rep. Prog. Phys. 78, 066501 (2015).             %
     %   D.C. Langreth et al., J. Phys.: Condens. Matter 21, 084203 (2009). %
     %                                                                      %
     % If you are calculating stress with vdW-DF, please also cite:         %
     %                                                                      %
     %   R. Sabatini et al., J. Phys.: Condens. Matter 24, 424209 (2012).   %
     %   C.M. Frostenson et al., Electr. Struct. 4, 014001 (2022).          %
     %                                                                      %
     %%%%%%%%%%%%%%%%%%%%%%%%%%%%%%%%%%%%%%%%%%%%%%%%%%%%%%%%%%%%%%%%%%%%%%%%

     %%%%%%%%%%%%%%%%%%%%%%%%%%%%%%%%%%%%%%%%%%%%%%%%%%%%%%%%%%%%%%%%%%%%%%%%
     %                                                                      %
     %  vdW-DF NEWS:                                                        %
     %                                                                      %
     %  * vdW-DF3 is now available. DOI: 10.1021/acs.jctc.0c00471           %
     %    use with input_dft = 'vdW-DF3-opt1' or 'vdW-DF3-opt2'             %
     %                                                                      %
     %  * Unscreened and range-separated hybrid vdW-DF-cx functionals       %
     %    DOI: 10.1063/1.4986522 and 10.1088/1361-648X/ac2ad2               %
     %    use with input_dft = 'vdW-DF-cx0'    and 'vdW-DF-ahcx'            %
     %  * Unscreened and range-separated hybrid vdW-DF2-b86r functionals    %
     %    DOI: 10.1063/1.4986522 and DOI: 10.1103/PhysRevX.12.041003        %
     %    use with input_dft = 'vdW-DF2-br0' and 'vdW-DF2-ahbr'             %
     %                                                                      %
     %%%%%%%%%%%%%%%%%%%%%%%%%%%%%%%%%%%%%%%%%%%%%%%%%%%%%%%%%%%%%%%%%%%%%%%%


     Starting wfcs are  333 randomized atomic wfcs
     Checking if some PAW data can be deallocated... 

     total cpu time spent up to now is       20.3 secs

     per-process dynamical memory:   230.2 Mb

     Self-consistent Calculation

     iteration #  1     ecut=    50.00 Ry     beta= 0.70
     Davidson diagonalization with overlap
     ethr =  1.00E-02,  avg # of iterations =  2.0

     negative rho (up, down):  3.243E-05 9.920E-08

     total cpu time spent up to now is       41.7 secs

     total energy              =   -6053.05007901 Ry
     estimated scf accuracy    <      39.25615929 Ry

     total magnetization       =    69.00 Bohr mag/cell
     absolute magnetization    =    81.28 Bohr mag/cell

     iteration #  2     ecut=    50.00 Ry     beta= 0.70
     Davidson diagonalization with overlap
     ethr =  1.00E-02,  avg # of iterations =  1.0

     negative rho (up, down):  4.838E-06 2.287E-08

     total cpu time spent up to now is       57.7 secs

     total energy              =   -6052.51980457 Ry
     estimated scf accuracy    <      25.02433344 Ry

     total magnetization       =    68.87 Bohr mag/cell
     absolute magnetization    =    76.75 Bohr mag/cell

     iteration #  3     ecut=    50.00 Ry     beta= 0.70
     Davidson diagonalization with overlap
     ethr =  7.47E-03,  avg # of iterations =  1.1

     negative rho (up, down):  2.651E-08 0.000E+00

     total cpu time spent up to now is       75.1 secs

     total energy              =   -6055.11018062 Ry
     estimated scf accuracy    <      83.26549878 Ry

     total magnetization       =    66.29 Bohr mag/cell
     absolute magnetization    =    73.57 Bohr mag/cell

     iteration #  4     ecut=    50.00 Ry     beta= 0.70
     Davidson diagonalization with overlap
     ethr =  7.47E-03,  avg # of iterations =  1.0

     total cpu time spent up to now is       90.6 secs

     total energy              =   -6056.37112589 Ry
     estimated scf accuracy    <       5.23088270 Ry

     total magnetization       =    60.12 Bohr mag/cell
     absolute magnetization    =    69.97 Bohr mag/cell

     iteration #  5     ecut=    50.00 Ry     beta= 0.70
     Davidson diagonalization with overlap
     ethr =  1.56E-03,  avg # of iterations =  1.2

     total cpu time spent up to now is      108.5 secs

     total energy              =   -6056.38590753 Ry
     estimated scf accuracy    <       2.49565135 Ry

     total magnetization       =    59.87 Bohr mag/cell
     absolute magnetization    =    69.34 Bohr mag/cell

     iteration #  6     ecut=    50.00 Ry     beta= 0.70
     Davidson diagonalization with overlap
     ethr =  7.45E-04,  avg # of iterations =  1.7

     total cpu time spent up to now is      128.1 secs

     total energy              =   -6056.49788101 Ry
     estimated scf accuracy    <       0.60826639 Ry

     total magnetization       =    59.53 Bohr mag/cell
     absolute magnetization    =    68.72 Bohr mag/cell

     iteration #  7     ecut=    50.00 Ry     beta= 0.70
     Davidson diagonalization with overlap
     ethr =  1.82E-04,  avg # of iterations =  5.9

     total cpu time spent up to now is      147.4 secs

     total energy              =   -6056.54535673 Ry
     estimated scf accuracy    <       0.69040659 Ry

     total magnetization       =    59.64 Bohr mag/cell
     absolute magnetization    =    68.49 Bohr mag/cell

     iteration #  8     ecut=    50.00 Ry     beta= 0.70
     Davidson diagonalization with overlap
     ethr =  1.82E-04,  avg # of iterations =  1.6

     total cpu time spent up to now is      166.6 secs

     total energy              =   -6056.55999539 Ry
     estimated scf accuracy    <       0.15826589 Ry

     total magnetization       =    59.66 Bohr mag/cell
     absolute magnetization    =    68.35 Bohr mag/cell

     iteration #  9     ecut=    50.00 Ry     beta= 0.70
     Davidson diagonalization with overlap
     c_bands:  2 eigenvalues not converged
     ethr =  4.72E-05,  avg # of iterations =  8.8

     total cpu time spent up to now is      193.4 secs

     total energy              =   -6056.56311075 Ry
     estimated scf accuracy    <       0.14106721 Ry

     total magnetization       =    60.14 Bohr mag/cell
     absolute magnetization    =    68.41 Bohr mag/cell

     iteration # 10     ecut=    50.00 Ry     beta= 0.70
     Davidson diagonalization with overlap
     ethr =  4.21E-05,  avg # of iterations =  2.4

     total cpu time spent up to now is      208.3 secs

     total energy              =   -6056.56631661 Ry
     estimated scf accuracy    <       0.17550536 Ry

     total magnetization       =    60.12 Bohr mag/cell
     absolute magnetization    =    68.26 Bohr mag/cell

     iteration # 11     ecut=    50.00 Ry     beta= 0.70
     Davidson diagonalization with overlap
     ethr =  4.21E-05,  avg # of iterations =  1.7

     total cpu time spent up to now is      227.5 secs

     total energy              =   -6056.56417540 Ry
     estimated scf accuracy    <       0.12043883 Ry

     total magnetization       =    60.12 Bohr mag/cell
     absolute magnetization    =    68.11 Bohr mag/cell

     iteration # 12     ecut=    50.00 Ry     beta= 0.70
     Davidson diagonalization with overlap
     ethr =  3.60E-05,  avg # of iterations =  1.9

     total cpu time spent up to now is      246.6 secs

     total energy              =   -6056.56757906 Ry
     estimated scf accuracy    <       0.08016584 Ry

     total magnetization       =    60.12 Bohr mag/cell
     absolute magnetization    =    67.98 Bohr mag/cell

     iteration # 13     ecut=    50.00 Ry     beta= 0.70
     Davidson diagonalization with overlap
     ethr =  2.39E-05,  avg # of iterations =  1.4

     total cpu time spent up to now is      261.8 secs

     total energy              =   -6056.56536706 Ry
     estimated scf accuracy    <       0.09471296 Ry

     total magnetization       =    60.12 Bohr mag/cell
     absolute magnetization    =    67.96 Bohr mag/cell

     iteration # 14     ecut=    50.00 Ry     beta= 0.70
     Davidson diagonalization with overlap
     ethr =  2.39E-05,  avg # of iterations =  2.6

     negative rho (up, down):  1.087E-04 1.069E-05

     total cpu time spent up to now is      280.8 secs

     total energy              =   -6056.55982393 Ry
     estimated scf accuracy    <       0.09261884 Ry

     total magnetization       =    60.12 Bohr mag/cell
     absolute magnetization    =    67.97 Bohr mag/cell

     iteration # 15     ecut=    50.00 Ry     beta= 0.70
     Davidson diagonalization with overlap
     ethr =  2.39E-05,  avg # of iterations =  1.7

     negative rho (up, down):  8.499E-03 7.079E-03

     total cpu time spent up to now is      297.8 secs

     total energy              =   -6056.55789172 Ry
     estimated scf accuracy    <       0.10821933 Ry

     total magnetization       =    60.12 Bohr mag/cell
     absolute magnetization    =    67.91 Bohr mag/cell

     iteration # 16     ecut=    50.00 Ry     beta= 0.70
     Davidson diagonalization with overlap
     ethr =  2.39E-05,  avg # of iterations =  1.2

     negative rho (up, down):  1.253E-02 1.095E-02

     total cpu time spent up to now is      315.0 secs

     total energy              =   -6056.55897551 Ry
     estimated scf accuracy    <       0.02016887 Ry

     total magnetization       =    60.12 Bohr mag/cell
     absolute magnetization    =    67.86 Bohr mag/cell

     iteration # 17     ecut=    50.00 Ry     beta= 0.70
     Davidson diagonalization with overlap
     c_bands:  1 eigenvalues not converged
     c_bands:  3 eigenvalues not converged
     c_bands:  1 eigenvalues not converged
     c_bands:  2 eigenvalues not converged
     c_bands:  5 eigenvalues not converged
     c_bands:  2 eigenvalues not converged
     c_bands:  2 eigenvalues not converged
     c_bands:  5 eigenvalues not converged
     ethr =  6.02E-06,  avg # of iterations = 12.5

     negative rho (up, down):  1.653E-02 1.502E-02

     total cpu time spent up to now is      346.8 secs

     total energy              =   -6056.55813274 Ry
     estimated scf accuracy    <       0.04035066 Ry

     total magnetization       =    60.12 Bohr mag/cell
     absolute magnetization    =    67.79 Bohr mag/cell

     iteration # 18     ecut=    50.00 Ry     beta= 0.70
     Davidson diagonalization with overlap
     ethr =  6.02E-06,  avg # of iterations =  2.0

     negative rho (up, down):  1.600E-02 1.440E-02

     total cpu time spent up to now is      367.2 secs

     total energy              =   -6056.55901285 Ry
     estimated scf accuracy    <       0.03086154 Ry

     total magnetization       =    60.12 Bohr mag/cell
     absolute magnetization    =    67.76 Bohr mag/cell

     iteration # 19     ecut=    50.00 Ry     beta= 0.70
     Davidson diagonalization with overlap
     ethr =  6.02E-06,  avg # of iterations =  1.2

     negative rho (up, down):  1.819E-02 1.653E-02

     total cpu time spent up to now is      380.5 secs

     total energy              =   -6056.55776358 Ry
     estimated scf accuracy    <       0.00946689 Ry

     total magnetization       =    60.12 Bohr mag/cell
     absolute magnetization    =    67.75 Bohr mag/cell

     iteration # 20     ecut=    50.00 Ry     beta= 0.70
     Davidson diagonalization with overlap
     c_bands:  2 eigenvalues not converged
     c_bands:  1 eigenvalues not converged
     ethr =  2.83E-06,  avg # of iterations =  3.4

     negative rho (up, down):  2.521E-02 2.347E-02

     total cpu time spent up to now is      402.0 secs

     total energy              =   -6056.55653011 Ry
     estimated scf accuracy    <       0.01366423 Ry

     total magnetization       =    60.12 Bohr mag/cell
     absolute magnetization    =    67.73 Bohr mag/cell

     iteration # 21     ecut=    50.00 Ry     beta= 0.70
     Davidson diagonalization with overlap
     ethr =  2.83E-06,  avg # of iterations =  2.0

     negative rho (up, down):  2.041E-02 1.888E-02

     total cpu time spent up to now is      417.5 secs

     total energy              =   -6056.55635354 Ry
     estimated scf accuracy    <       0.00787609 Ry

     total magnetization       =    60.12 Bohr mag/cell
     absolute magnetization    =    67.70 Bohr mag/cell

     iteration # 22     ecut=    50.00 Ry     beta= 0.70
     Davidson diagonalization with overlap
     c_bands:  2 eigenvalues not converged
     ethr =  2.35E-06,  avg # of iterations =  2.2

     negative rho (up, down):  2.134E-02 1.988E-02

     total cpu time spent up to now is      437.5 secs

     total energy              =   -6056.55611098 Ry
     estimated scf accuracy    <       0.01210653 Ry

     total magnetization       =    60.12 Bohr mag/cell
     absolute magnetization    =    67.70 Bohr mag/cell

     iteration # 23     ecut=    50.00 Ry     beta= 0.70
     Davidson diagonalization with overlap
     ethr =  2.35E-06,  avg # of iterations =  1.1

     negative rho (up, down):  1.351E-02 1.242E-02

     total cpu time spent up to now is      450.8 secs

     total energy              =   -6056.55598318 Ry
     estimated scf accuracy    <       0.00192885 Ry

     total magnetization       =    60.12 Bohr mag/cell
     absolute magnetization    =    67.70 Bohr mag/cell

     iteration # 24     ecut=    50.00 Ry     beta= 0.70
     Davidson diagonalization with overlap
     ethr =  5.76E-07,  avg # of iterations =  2.4

     negative rho (up, down):  8.264E-03 7.545E-03

     total cpu time spent up to now is      469.6 secs

     total energy              =   -6056.55613155 Ry
     estimated scf accuracy    <       0.00424350 Ry

     total magnetization       =    60.12 Bohr mag/cell
     absolute magnetization    =    67.72 Bohr mag/cell

     iteration # 25     ecut=    50.00 Ry     beta= 0.70
     Davidson diagonalization with overlap
     ethr =  5.76E-07,  avg # of iterations =  2.0

     negative rho (up, down):  1.105E-02 1.025E-02

     total cpu time spent up to now is      491.4 secs

     total energy              =   -6056.55611579 Ry
     estimated scf accuracy    <       0.00259743 Ry

     total magnetization       =    60.12 Bohr mag/cell
     absolute magnetization    =    67.73 Bohr mag/cell

     iteration # 26     ecut=    50.00 Ry     beta= 0.70
     Davidson diagonalization with overlap
     ethr =  5.76E-07,  avg # of iterations =  1.4

     negative rho (up, down):  7.154E-03 6.432E-03

     total cpu time spent up to now is      504.8 secs

     total energy              =   -6056.55629844 Ry
     estimated scf accuracy    <       0.00085048 Ry

     total magnetization       =    60.12 Bohr mag/cell
     absolute magnetization    =    67.72 Bohr mag/cell

     iteration # 27     ecut=    50.00 Ry     beta= 0.70
     Davidson diagonalization with overlap
     ethr =  2.54E-07,  avg # of iterations =  2.2

     negative rho (up, down):  5.816E-03 5.059E-03

     total cpu time spent up to now is      525.2 secs

     total energy              =   -6056.55631864 Ry
     estimated scf accuracy    <       0.00043688 Ry

     total magnetization       =    60.12 Bohr mag/cell
     absolute magnetization    =    67.72 Bohr mag/cell

     iteration # 28     ecut=    50.00 Ry     beta= 0.70
     Davidson diagonalization with overlap
     ethr =  1.30E-07,  avg # of iterations =  2.3

     negative rho (up, down):  5.402E-03 4.628E-03

     total cpu time spent up to now is      540.9 secs

     total energy              =   -6056.55631569 Ry
     estimated scf accuracy    <       0.00024236 Ry

     total magnetization       =    60.12 Bohr mag/cell
     absolute magnetization    =    67.72 Bohr mag/cell

     iteration # 29     ecut=    50.00 Ry     beta= 0.70
     Davidson diagonalization with overlap
     ethr =  7.23E-08,  avg # of iterations =  1.6

     negative rho (up, down):  3.094E-03 1.998E-03

     total cpu time spent up to now is      560.7 secs

     total energy              =   -6056.55637477 Ry
     estimated scf accuracy    <       0.00007417 Ry

     total magnetization       =    60.12 Bohr mag/cell
     absolute magnetization    =    67.72 Bohr mag/cell

     iteration # 30     ecut=    50.00 Ry     beta= 0.70
     Davidson diagonalization with overlap
     ethr =  2.21E-08,  avg # of iterations =  6.1

     negative rho (up, down):  2.565E-03 1.430E-03

     total cpu time spent up to now is      584.2 secs

     total energy              =   -6056.55638227 Ry
     estimated scf accuracy    <       0.00011814 Ry

     total magnetization       =    60.12 Bohr mag/cell
     absolute magnetization    =    67.72 Bohr mag/cell

     iteration # 31     ecut=    50.00 Ry     beta= 0.70
     Davidson diagonalization with overlap
     ethr =  2.21E-08,  avg # of iterations =  1.3

     negative rho (up, down):  2.472E-03 1.338E-03

     total cpu time spent up to now is      600.7 secs

     total energy              =   -6056.55638151 Ry
     estimated scf accuracy    <       0.00006164 Ry

     total magnetization       =    60.12 Bohr mag/cell
     absolute magnetization    =    67.72 Bohr mag/cell

     iteration # 32     ecut=    50.00 Ry     beta= 0.70
     Davidson diagonalization with overlap
     ethr =  1.84E-08,  avg # of iterations =  1.1

     negative rho (up, down):  2.459E-03 1.367E-03

     total cpu time spent up to now is      618.5 secs

     total energy              =   -6056.55639139 Ry
     estimated scf accuracy    <       0.00006319 Ry

     total magnetization       =    60.12 Bohr mag/cell
     absolute magnetization    =    67.72 Bohr mag/cell

     iteration # 33     ecut=    50.00 Ry     beta= 0.70
     Davidson diagonalization with overlap
     ethr =  1.84E-08,  avg # of iterations =  1.7

     negative rho (up, down):  2.511E-03 1.464E-03

     total cpu time spent up to now is      638.7 secs

     total energy              =   -6056.55639299 Ry
     estimated scf accuracy    <       0.00002100 Ry

     total magnetization       =    60.12 Bohr mag/cell
     absolute magnetization    =    67.72 Bohr mag/cell

     iteration # 34     ecut=    50.00 Ry     beta= 0.70
     Davidson diagonalization with overlap
     ethr =  6.27E-09,  avg # of iterations =  1.9

     negative rho (up, down):  2.529E-03 1.478E-03

     total cpu time spent up to now is      653.0 secs

     total energy              =   -6056.55639357 Ry
     estimated scf accuracy    <       0.00001033 Ry

     total magnetization       =    60.12 Bohr mag/cell
     absolute magnetization    =    67.72 Bohr mag/cell

     iteration # 35     ecut=    50.00 Ry     beta= 0.70
     Davidson diagonalization with overlap
     ethr =  3.08E-09,  avg # of iterations =  3.5

     negative rho (up, down):  2.591E-03 1.538E-03

     total cpu time spent up to now is      675.2 secs

     total energy              =   -6056.55639395 Ry
     estimated scf accuracy    <       0.00001102 Ry

     total magnetization       =    60.12 Bohr mag/cell
     absolute magnetization    =    67.72 Bohr mag/cell

     iteration # 36     ecut=    50.00 Ry     beta= 0.70
     Davidson diagonalization with overlap
     ethr =  3.08E-09,  avg # of iterations =  1.8

     negative rho (up, down):  2.593E-03 1.522E-03

     total cpu time spent up to now is      689.7 secs

     total energy              =   -6056.55639400 Ry
     estimated scf accuracy    <       0.00000340 Ry

     total magnetization       =    60.12 Bohr mag/cell
     absolute magnetization    =    67.72 Bohr mag/cell

     iteration # 37     ecut=    50.00 Ry     beta= 0.70
     Davidson diagonalization with overlap
     ethr =  1.02E-09,  avg # of iterations =  4.2

     negative rho (up, down):  2.545E-03 1.466E-03

     total cpu time spent up to now is      710.5 secs

     total energy              =   -6056.55639425 Ry
     estimated scf accuracy    <       0.00000477 Ry

     total magnetization       =    60.12 Bohr mag/cell
     absolute magnetization    =    67.72 Bohr mag/cell

     iteration # 38     ecut=    50.00 Ry     beta= 0.70
     Davidson diagonalization with overlap
     ethr =  1.02E-09,  avg # of iterations =  1.2

     negative rho (up, down):  2.513E-03 1.451E-03

     total cpu time spent up to now is      730.6 secs

     total energy              =   -6056.55639408 Ry
     estimated scf accuracy    <       0.00000345 Ry

     total magnetization       =    60.12 Bohr mag/cell
     absolute magnetization    =    67.72 Bohr mag/cell

     iteration # 39     ecut=    50.00 Ry     beta= 0.70
     Davidson diagonalization with overlap
     ethr =  1.02E-09,  avg # of iterations =  1.6

     negative rho (up, down):  2.509E-03 1.439E-03

     total cpu time spent up to now is      744.5 secs

     total energy              =   -6056.55639423 Ry
     estimated scf accuracy    <       0.00000206 Ry

     total magnetization       =    60.12 Bohr mag/cell
     absolute magnetization    =    67.72 Bohr mag/cell

     iteration # 40     ecut=    50.00 Ry     beta= 0.70
     Davidson diagonalization with overlap
     ethr =  6.15E-10,  avg # of iterations =  1.4

     negative rho (up, down):  2.418E-03 1.332E-03

     total cpu time spent up to now is      764.3 secs

     total energy              =   -6056.55639437 Ry
     estimated scf accuracy    <       0.00000104 Ry

     total magnetization       =    60.12 Bohr mag/cell
     absolute magnetization    =    67.72 Bohr mag/cell

     iteration # 41     ecut=    50.00 Ry     beta= 0.70
     Davidson diagonalization with overlap
     ethr =  3.10E-10,  avg # of iterations =  2.7

     negative rho (up, down):  2.383E-03 1.302E-03

     total cpu time spent up to now is      779.5 secs

     total energy              =   -6056.55639438 Ry
     estimated scf accuracy    <       0.00000140 Ry

     total magnetization       =    60.12 Bohr mag/cell
     absolute magnetization    =    67.72 Bohr mag/cell

     iteration # 42     ecut=    50.00 Ry     beta= 0.70
     Davidson diagonalization with overlap
     ethr =  3.10E-10,  avg # of iterations =  1.5

     negative rho (up, down):  2.324E-03 1.239E-03

     total cpu time spent up to now is      799.9 secs

     total energy              =   -6056.55639438 Ry
     estimated scf accuracy    <       0.00000143 Ry

     total magnetization       =    60.12 Bohr mag/cell
     absolute magnetization    =    67.72 Bohr mag/cell

     iteration # 43     ecut=    50.00 Ry     beta= 0.70
     Davidson diagonalization with overlap
     ethr =  3.10E-10,  avg # of iterations =  1.5

     negative rho (up, down):  2.283E-03 1.197E-03

     total cpu time spent up to now is      818.1 secs

     total energy              =   -6056.55639438 Ry
     estimated scf accuracy    <       0.00000073 Ry

     total magnetization       =    60.12 Bohr mag/cell
     absolute magnetization    =    67.72 Bohr mag/cell

     iteration # 44     ecut=    50.00 Ry     beta= 0.70
     Davidson diagonalization with overlap
     ethr =  2.17E-10,  avg # of iterations =  1.9

     negative rho (up, down):  2.285E-03 1.198E-03

     total cpu time spent up to now is      834.0 secs

     total energy              =   -6056.55639440 Ry
     estimated scf accuracy    <       0.00000012 Ry

     total magnetization       =    60.12 Bohr mag/cell
     absolute magnetization    =    67.72 Bohr mag/cell

     iteration # 45     ecut=    50.00 Ry     beta= 0.70
     Davidson diagonalization with overlap
     ethr =  3.45E-11,  avg # of iterations =  7.2

     negative rho (up, down):  2.258E-03 1.170E-03

     total cpu time spent up to now is      858.6 secs

     total energy              =   -6056.55639436 Ry
     estimated scf accuracy    <       0.00000041 Ry

     total magnetization       =    60.12 Bohr mag/cell
     absolute magnetization    =    67.72 Bohr mag/cell

     iteration # 46     ecut=    50.00 Ry     beta= 0.70
     Davidson diagonalization with overlap
     ethr =  3.45E-11,  avg # of iterations =  1.8

     negative rho (up, down):  2.256E-03 1.169E-03

     total cpu time spent up to now is      878.5 secs

     total energy              =   -6056.55639438 Ry
     estimated scf accuracy    <       0.00000001 Ry

     total magnetization       =    60.12 Bohr mag/cell
     absolute magnetization    =    67.72 Bohr mag/cell

     iteration # 47     ecut=    50.00 Ry     beta= 0.70
     Davidson diagonalization with overlap
     ethr =  4.26E-12,  avg # of iterations =  6.7

     negative rho (up, down):  2.253E-03 1.165E-03

     total cpu time spent up to now is      900.7 secs

     total energy              =   -6056.55639437 Ry
     estimated scf accuracy    <       0.00000003 Ry

     total magnetization       =    60.12 Bohr mag/cell
     absolute magnetization    =    67.72 Bohr mag/cell

     iteration # 48     ecut=    50.00 Ry     beta= 0.70
     Davidson diagonalization with overlap
     ethr =  4.26E-12,  avg # of iterations =  1.8

     negative rho (up, down):  2.255E-03 1.167E-03

     total cpu time spent up to now is      919.5 secs

     total energy              =   -6056.55639438 Ry
     estimated scf accuracy    <       0.00000002 Ry

     total magnetization       =    60.12 Bohr mag/cell
     absolute magnetization    =    67.72 Bohr mag/cell

     iteration # 49     ecut=    50.00 Ry     beta= 0.70
     Davidson diagonalization with overlap
     ethr =  4.26E-12,  avg # of iterations =  1.3

     negative rho (up, down):  2.243E-03 1.156E-03

     total cpu time spent up to now is      937.0 secs

     total energy              =   -6056.55639436 Ry
     estimated scf accuracy    <       0.00000002 Ry

     total magnetization       =    60.12 Bohr mag/cell
     absolute magnetization    =    67.72 Bohr mag/cell

     iteration # 50     ecut=    50.00 Ry     beta= 0.70
     Davidson diagonalization with overlap
     ethr =  4.26E-12,  avg # of iterations =  1.2

     negative rho (up, down):  2.246E-03 1.160E-03

     Magnetic moment per site  (integrated on atomic sphere of radius R)
     atom   1 (R=0.083)  charge=  5.2860  magn=  1.5664
     atom   2 (R=0.083)  charge=  5.2898  magn=  1.5406
     atom   3 (R=0.083)  charge=  5.2877  magn=  1.5607
     atom   4 (R=0.083)  charge=  5.2884  magn=  1.5628
     atom   5 (R=0.083)  charge=  5.2877  magn=  1.5609
     atom   6 (R=0.083)  charge=  5.2884  magn=  1.5655
     atom   7 (R=0.083)  charge=  5.2859  magn=  1.5705
     atom   8 (R=0.083)  charge=  5.2860  magn=  1.5665
     atom   9 (R=0.083)  charge=  5.2884  magn=  1.5627
     atom  10 (R=0.083)  charge=  5.2789  magn=  1.5020
     atom  11 (R=0.083)  charge=  5.2802  magn=  1.5058
     atom  12 (R=0.083)  charge=  5.2798  magn=  1.5111
     atom  13 (R=0.083)  charge=  5.2802  magn=  1.5058
     atom  14 (R=0.083)  charge=  5.2816  magn=  1.4968
     atom  15 (R=0.083)  charge=  5.2800  magn=  1.5141
     atom  16 (R=0.083)  charge=  5.2797  magn=  1.5109
     atom  17 (R=0.083)  charge=  5.2800  magn=  1.5141
     atom  18 (R=0.083)  charge=  5.2813  magn=  1.5066
     atom  19 (R=0.083)  charge=  5.2790  magn=  1.4885
     atom  20 (R=0.083)  charge=  5.2791  magn=  1.4989
     atom  21 (R=0.083)  charge=  5.2797  magn=  1.4910
     atom  22 (R=0.083)  charge=  5.2800  magn=  1.4999
     atom  23 (R=0.083)  charge=  5.2797  magn=  1.4895
     atom  24 (R=0.083)  charge=  5.2792  magn=  1.5237
     atom  25 (R=0.083)  charge=  5.2788  magn=  1.5047
     atom  26 (R=0.083)  charge=  5.2790  magn=  1.4885
     atom  27 (R=0.083)  charge=  5.2800  magn=  1.4998
     atom  28 (R=0.083)  charge=  5.2857  magn=  1.5883
     atom  29 (R=0.083)  charge=  5.2949  magn=  1.2985
     atom  30 (R=0.083)  charge=  5.2880  magn=  1.5919
     atom  31 (R=0.083)  charge=  5.2953  magn=  1.2962
     atom  32 (R=0.083)  charge=  5.2864  magn=  0.7296
     atom  33 (R=0.083)  charge=  5.2867  magn=  1.5652
     atom  34 (R=0.083)  charge=  5.2879  magn=  1.5923
     atom  35 (R=0.083)  charge=  5.2867  magn=  1.5663
     atom  36 (R=0.083)  charge=  5.2874  magn=  1.5683
     atom  37 (R=0.066)  charge=  1.0671  magn= -0.0230
     atom  38 (R=0.066)  charge=  2.9659  magn= -0.0358
     atom  39 (R=0.083)  charge=  0.6945  magn= -0.0172

     total cpu time spent up to now is      950.2 secs

     End of self-consistent calculation

 ------ SPIN UP ------------


          k = 0.0000 0.0000 0.0000 ( 51087 PWs)   bands (ev):

   -21.7729  -9.4692  -7.6280  -6.3702  -5.9555  -5.7806  -5.4511  -4.8270
    -4.8067  -4.8026  -4.7982  -4.7646  -4.7580  -4.7309  -4.4226  -4.2691
    -4.2652  -4.2651  -4.2168  -4.2142  -4.1951  -3.7504  -3.7453  -3.7427
    -3.7394  -3.7185  -3.6843  -3.6333  -3.6196  -3.6182  -3.6029  -3.6017
    -3.5464  -3.5376  -3.5046  -3.3143  -3.2341  -3.2299  -3.2269  -3.2204
    -3.1660  -3.1624  -3.1573  -3.1509  -3.1418  -3.1356  -3.1280  -3.1149
    -2.9986  -2.9970  -2.9287  -2.9208  -2.9165  -2.9113  -2.9084  -2.9057
    -2.9019  -2.8933  -2.8864  -2.8471  -2.7916  -2.7795  -2.7765  -2.7692
    -2.6794  -2.6495  -2.2791  -2.2470  -2.2461  -2.2421  -2.2354  -2.1488
    -2.1170  -2.1162  -2.0949  -2.0852  -2.0760  -2.0746  -2.0660  -2.0560
    -2.0184  -2.0171  -1.9671  -1.9623  -1.9589  -1.9503  -1.9449  -1.9401
    -1.9268  -1.9238  -1.9229  -1.9186  -1.9123  -1.8937  -1.8889  -1.8858
    -1.8808  -1.8786  -1.8742  -1.8716  -1.8698  -1.8689  -1.8666  -1.8617
    -1.8403  -1.8142  -1.8084  -1.7860  -1.7771  -1.7117  -1.7093  -1.6036
    -1.5128  -1.4306  -1.4235  -1.4212  -1.4202  -1.3955  -1.3877  -1.3807
    -1.3782  -1.3679  -1.3455  -1.3254  -1.3208  -1.2387  -1.1985  -1.1939
    -1.1706  -1.1631  -1.0877  -1.0294  -1.0091  -0.9873  -0.9770  -0.9403
    -0.9354  -0.9244  -0.9242  -0.9201  -0.9188  -0.8671  -0.8021  -0.7847
    -0.6926  -0.6881  -0.6835  -0.6759  -0.6475  -0.6405  -0.6255  -0.6198
    -0.6193  -0.6136  -0.6104  -0.6068  -0.6024  -0.5932  -0.5906  -0.5804
    -0.5799  -0.5733  -0.5618  -0.5429  -0.5423  -0.5396  -0.5280  -0.5158
    -0.5114  -0.5017  -0.4949  -0.4822  -0.4764  -0.4758  -0.4688  -0.4649
    -0.4532  -0.4496  -0.4310  -0.4108  -0.3928  -0.3824  -0.3800  -0.3728
    -0.3646  -0.3571  -0.3378  -0.3272  -0.3198  -0.2961  -0.2938  -0.2897
    -0.2741  -0.2660  -0.2147  -0.2143  -0.2108  -0.1941  -0.1396  -0.1369
     0.4671   0.8817

          k = 0.0000 0.2309 0.0000 ( 51134 PWs)   bands (ev):

   -21.7729  -9.4609  -7.4848  -6.2719  -5.9712  -5.7781  -5.5585  -5.3826
    -5.0380  -5.0217  -4.6667  -4.5347  -4.4596  -4.4529  -4.3893  -4.3351
    -4.2824  -4.2528  -4.1840  -4.1268  -4.1220  -3.8632  -3.7576  -3.7437
    -3.6749  -3.6597  -3.6315  -3.6244  -3.6181  -3.6101  -3.5941  -3.5753
    -3.5400  -3.5082  -3.4793  -3.4679  -3.4447  -3.3092  -3.2687  -3.2439
    -3.2328  -3.1875  -3.1833  -3.1719  -3.1488  -3.0913  -3.0553  -3.0471
    -3.0171  -3.0112  -3.0068  -2.9760  -2.9454  -2.8822  -2.8700  -2.8445
    -2.8053  -2.7960  -2.7801  -2.7743  -2.7436  -2.7228  -2.7107  -2.6930
    -2.6504  -2.6069  -2.3662  -2.3586  -2.3359  -2.3275  -2.3009  -2.2216
    -2.2132  -2.2008  -2.1904  -2.1818  -2.1743  -2.1609  -2.1407  -2.0883
    -2.0791  -2.0653  -2.0457  -2.0109  -2.0085  -2.0035  -1.9858  -1.9770
    -1.9718  -1.9664  -1.9572  -1.9500  -1.9352  -1.9151  -1.8889  -1.8648
    -1.8560  -1.8299  -1.7889  -1.7787  -1.7706  -1.7647  -1.7570  -1.7501
    -1.7358  -1.7305  -1.7240  -1.7194  -1.7000  -1.6884  -1.6702  -1.6683
    -1.6457  -1.6359  -1.6219  -1.5572  -1.5399  -1.4755  -1.4472  -1.4436
    -1.4299  -1.4216  -1.4144  -1.4109  -1.3853  -1.3724  -1.3165  -1.2520
    -1.2354  -1.2195  -1.1565  -1.1463  -1.1288  -1.0900  -1.0651  -1.0435
    -1.0149  -0.9642  -0.9576  -0.9416  -0.9122  -0.9081  -0.8731  -0.8629
    -0.8436  -0.8297  -0.8135  -0.7866  -0.7771  -0.7666  -0.7593  -0.7480
    -0.7137  -0.6906  -0.6842  -0.6805  -0.6543  -0.6428  -0.6196  -0.6112
    -0.6052  -0.5964  -0.5898  -0.5798  -0.5567  -0.5486  -0.5388  -0.5293
    -0.4904  -0.4677  -0.4571  -0.4298  -0.4179  -0.3959  -0.3807  -0.3640
    -0.3509  -0.3401  -0.3357  -0.3286  -0.3147  -0.3054  -0.2979  -0.2533
    -0.2199  -0.2138  -0.2120  -0.1905  -0.1805  -0.1547  -0.1342  -0.1242
    -0.0507   0.0140   0.1452   0.1689   0.2512   0.3348   0.4316   0.4525
     0.4784   0.8026

          k = 0.0000 0.4619 0.0000 ( 51204 PWs)   bands (ev):

   -21.7729  -9.4477  -7.0643  -6.4115  -6.0622  -5.9458  -5.6550  -5.3867
    -5.1766  -5.1439  -5.0260  -4.3505  -4.2895  -4.2770  -4.2488  -4.2135
    -4.1048  -4.0964  -4.0520  -3.9681  -3.9615  -3.9541  -3.8632  -3.7870
    -3.7838  -3.7701  -3.7654  -3.7119  -3.6673  -3.6571  -3.6124  -3.5262
    -3.4956  -3.4793  -3.4668  -3.4485  -3.4251  -3.3592  -3.3358  -3.3299
    -3.3211  -3.3052  -3.2460  -3.2000  -3.1050  -3.0923  -3.0109  -3.0054
    -2.9798  -2.9609  -2.9396  -2.9323  -2.9142  -2.8865  -2.8723  -2.8319
    -2.8228  -2.7828  -2.7555  -2.7414  -2.6255  -2.6165  -2.5867  -2.5627
    -2.5290  -2.5084  -2.4833  -2.4705  -2.4452  -2.3962  -2.3407  -2.3366
    -2.3310  -2.3212  -2.3095  -2.2925  -2.2787  -2.2689  -2.2589  -2.2244
    -2.2002  -2.1677  -2.1557  -2.1420  -2.1070  -2.0969  -2.0646  -2.0136
    -2.0015  -1.9979  -1.9733  -1.9581  -1.9413  -1.9052  -1.8971  -1.8841
    -1.8761  -1.8570  -1.8496  -1.8341  -1.8151  -1.8080  -1.7980  -1.7777
    -1.7653  -1.7404  -1.7037  -1.6876  -1.6249  -1.6157  -1.6017  -1.5917
    -1.5718  -1.5550  -1.5337  -1.4996  -1.4876  -1.4654  -1.4601  -1.4528
    -1.4509  -1.4451  -1.4313  -1.4274  -1.4230  -1.4022  -1.3908  -1.3840
    -1.3724  -1.3468  -1.2789  -1.2531  -1.2374  -1.2174  -1.1999  -1.1824
    -1.1534  -1.1008  -1.0830  -1.0761  -1.0610  -1.0286  -0.9969  -0.9472
    -0.9416  -0.9129  -0.9058  -0.8881  -0.8674  -0.8373  -0.8146  -0.7705
    -0.7497  -0.7077  -0.7016  -0.6858  -0.6812  -0.6767  -0.6614  -0.6582
    -0.6344  -0.6263  -0.5382  -0.5247  -0.5170  -0.5107  -0.5020  -0.4821
    -0.4713  -0.4625  -0.4468  -0.4408  -0.4076  -0.3937  -0.3489  -0.3347
    -0.3208  -0.3025  -0.2774  -0.2410  -0.2298  -0.2033  -0.1926  -0.1602
    -0.1145  -0.1114  -0.1056  -0.0904  -0.0873  -0.0839  -0.0672  -0.0046
     0.0216   0.0872   0.4715   0.6855   0.9635   1.1208   1.1496   1.3431
     1.4883   1.5421

          k = 0.2000-0.1155 0.0000 ( 51134 PWs)   bands (ev):

   -21.7729  -9.4609  -7.4849  -6.2725  -5.9730  -5.7754  -5.5571  -5.3848
    -5.0382  -5.0211  -4.6670  -4.5340  -4.4596  -4.4528  -4.3895  -4.3349
    -4.2827  -4.2531  -4.1836  -4.1269  -4.1225  -3.8631  -3.7585  -3.7435
    -3.6753  -3.6564  -3.6320  -3.6248  -3.6183  -3.6100  -3.5949  -3.5756
    -3.5394  -3.5083  -3.4792  -3.4681  -3.4448  -3.3104  -3.2678  -3.2441
    -3.2327  -3.1876  -3.1835  -3.1719  -3.1488  -3.0925  -3.0552  -3.0473
    -3.0171  -3.0111  -3.0067  -2.9763  -2.9444  -2.8821  -2.8703  -2.8445
    -2.8055  -2.7947  -2.7803  -2.7743  -2.7433  -2.7231  -2.7108  -2.6922
    -2.6501  -2.6076  -2.3660  -2.3588  -2.3363  -2.3273  -2.3007  -2.2216
    -2.2132  -2.2008  -2.1901  -2.1822  -2.1741  -2.1609  -2.1394  -2.0888
    -2.0793  -2.0654  -2.0456  -2.0108  -2.0086  -2.0037  -1.9860  -1.9769
    -1.9719  -1.9666  -1.9571  -1.9501  -1.9348  -1.9155  -1.8889  -1.8649
    -1.8560  -1.8296  -1.7886  -1.7786  -1.7704  -1.7646  -1.7569  -1.7499
    -1.7357  -1.7306  -1.7240  -1.7194  -1.7002  -1.6885  -1.6700  -1.6683
    -1.6462  -1.6366  -1.6216  -1.5578  -1.5404  -1.4759  -1.4472  -1.4436
    -1.4300  -1.4217  -1.4144  -1.4112  -1.3871  -1.3708  -1.3153  -1.2517
    -1.2347  -1.2192  -1.1565  -1.1462  -1.1286  -1.0901  -1.0651  -1.0438
    -1.0141  -0.9644  -0.9580  -0.9421  -0.9130  -0.9082  -0.8733  -0.8631
    -0.8435  -0.8295  -0.8125  -0.7866  -0.7775  -0.7672  -0.7595  -0.7472
    -0.7144  -0.6905  -0.6841  -0.6805  -0.6542  -0.6424  -0.6195  -0.6111
    -0.6051  -0.5962  -0.5899  -0.5797  -0.5566  -0.5490  -0.5384  -0.5300
    -0.4904  -0.4674  -0.4567  -0.4295  -0.4178  -0.3968  -0.3805  -0.3641
    -0.3513  -0.3400  -0.3356  -0.3283  -0.3146  -0.3054  -0.2979  -0.2528
    -0.2199  -0.2135  -0.2113  -0.1904  -0.1804  -0.1550  -0.1341  -0.1241
    -0.0513   0.0139   0.1452   0.1691   0.2498   0.3340   0.4312   0.4530
     0.4795   0.7998

          k = 0.2000 0.1155 0.0000 ( 51134 PWs)   bands (ev):

   -21.7729  -9.4603  -7.4859  -6.2834  -5.9960  -5.7335  -5.4941  -5.4620
    -5.0372  -5.0131  -4.6661  -4.5335  -4.4583  -4.4511  -4.3939  -4.3326
    -4.2807  -4.2575  -4.1878  -4.1249  -4.1200  -3.8665  -3.7507  -3.7432
    -3.6804  -3.6602  -3.6255  -3.6231  -3.6192  -3.6158  -3.5904  -3.5833
    -3.5330  -3.5073  -3.4829  -3.4654  -3.4469  -3.3486  -3.2576  -3.2440
    -3.2232  -3.1884  -3.1801  -3.1698  -3.1589  -3.0608  -3.0543  -3.0502
    -3.0128  -3.0065  -3.0008  -2.9844  -2.9669  -2.8864  -2.8721  -2.8377
    -2.8111  -2.7891  -2.7778  -2.7623  -2.7482  -2.7146  -2.7117  -2.7042
    -2.6359  -2.6132  -2.3658  -2.3640  -2.3296  -2.3245  -2.3016  -2.2213
    -2.2146  -2.2056  -2.1884  -2.1793  -2.1786  -2.1620  -2.1291  -2.0871
    -2.0834  -2.0668  -2.0326  -2.0093  -2.0044  -2.0033  -1.9894  -1.9757
    -1.9700  -1.9691  -1.9612  -1.9476  -1.9263  -1.9154  -1.8887  -1.8675
    -1.8646  -1.8151  -1.7956  -1.7738  -1.7729  -1.7614  -1.7579  -1.7545
    -1.7339  -1.7313  -1.7255  -1.7192  -1.7150  -1.6914  -1.6717  -1.6654
    -1.6466  -1.6450  -1.6111  -1.5554  -1.5434  -1.4897  -1.4485  -1.4380
    -1.4308  -1.4202  -1.4110  -1.4098  -1.3865  -1.3760  -1.2729  -1.2700
    -1.2491  -1.2148  -1.1537  -1.1526  -1.1191  -1.1025  -1.0656  -1.0639
    -0.9982  -0.9669  -0.9636  -0.9320  -0.9251  -0.9129  -0.8751  -0.8650
    -0.8481  -0.8277  -0.8096  -0.7840  -0.7792  -0.7710  -0.7683  -0.7419
    -0.7126  -0.6915  -0.6820  -0.6720  -0.6566  -0.6325  -0.6184  -0.6109
    -0.6048  -0.5937  -0.5905  -0.5793  -0.5616  -0.5495  -0.5466  -0.5386
    -0.4825  -0.4590  -0.4434  -0.4415  -0.4118  -0.4096  -0.3770  -0.3634
    -0.3594  -0.3419  -0.3360  -0.3175  -0.3133  -0.3056  -0.2971  -0.2470
    -0.2148  -0.2105  -0.2101  -0.1866  -0.1829  -0.1315  -0.1232  -0.1193
    -0.0538  -0.0113   0.1486   0.1690   0.2088   0.3298   0.4312   0.4443
     0.4777   0.7749

          k = 0.2000 0.3464 0.0000 ( 51202 PWs)   bands (ev):

   -21.7729  -9.4494  -7.2046  -6.1524  -6.0713  -5.9095  -5.7328  -5.5977
    -5.4047  -4.7532  -4.6784  -4.4663  -4.4529  -4.4021  -4.2493  -4.2416
    -4.1478  -4.1401  -4.1199  -4.0113  -3.9861  -3.8693  -3.8555  -3.7973
    -3.7557  -3.6870  -3.6615  -3.6429  -3.6106  -3.6022  -3.5882  -3.5747
    -3.5579  -3.5453  -3.5014  -3.4694  -3.4417  -3.4196  -3.3764  -3.3393
    -3.2684  -3.2219  -3.1858  -3.1557  -3.1403  -3.1257  -3.0580  -3.0225
    -2.9877  -2.9634  -2.9509  -2.9430  -2.9149  -2.8903  -2.8712  -2.8572
    -2.8303  -2.7831  -2.7320  -2.6763  -2.6580  -2.6482  -2.6337  -2.5969
    -2.5800  -2.5411  -2.4769  -2.4062  -2.3892  -2.3629  -2.3402  -2.3168
    -2.2994  -2.2922  -2.2861  -2.2643  -2.2417  -2.2344  -2.2249  -2.2150
    -2.2028  -2.1681  -2.1401  -2.0893  -2.0418  -2.0325  -2.0142  -1.9970
    -1.9749  -1.9649  -1.9472  -1.9296  -1.9160  -1.8888  -1.8825  -1.8748
    -1.8602  -1.8582  -1.8427  -1.8256  -1.8235  -1.8137  -1.7955  -1.7887
    -1.7610  -1.7435  -1.7169  -1.6960  -1.6909  -1.6678  -1.6432  -1.6405
    -1.6232  -1.6063  -1.5924  -1.5645  -1.5370  -1.5298  -1.5048  -1.4823
    -1.4767  -1.4614  -1.4521  -1.4270  -1.4227  -1.4098  -1.3950  -1.3594
    -1.3170  -1.3070  -1.2867  -1.2304  -1.1772  -1.1586  -1.1441  -1.0723
    -1.0382  -1.0266  -1.0196  -1.0074  -1.0011  -0.9912  -0.9725  -0.9665
    -0.9446  -0.9226  -0.9058  -0.8655  -0.8524  -0.8451  -0.8222  -0.8155
    -0.7943  -0.7739  -0.7497  -0.7444  -0.7401  -0.7247  -0.6257  -0.5866
    -0.5692  -0.5469  -0.5384  -0.5354  -0.5166  -0.5069  -0.4935  -0.4851
    -0.4579  -0.4269  -0.4035  -0.3915  -0.3775  -0.3652  -0.3242  -0.3215
    -0.3100  -0.3085  -0.2972  -0.2771  -0.2638  -0.2567  -0.2459  -0.2272
    -0.2159  -0.1487  -0.1349  -0.1300  -0.0878  -0.0750  -0.0345   0.0619
     0.2414   0.2586   0.3146   0.4624   0.5797   0.6650   1.0218   1.1443
     1.2701   1.4078

          k = 0.2000-0.5774 0.0000 ( 51262 PWs)   bands (ev):

   -21.7729  -9.4434  -6.6811  -6.6415  -6.1220  -5.9680  -5.8333  -5.5637
    -5.2278  -5.1682  -4.7591  -4.4462  -4.2080  -4.1634  -4.0738  -4.0395
    -4.0255  -4.0062  -3.9989  -3.9780  -3.9229  -3.9184  -3.9116  -3.9040
    -3.8392  -3.7906  -3.7669  -3.7542  -3.7376  -3.7212  -3.6219  -3.5870
    -3.5719  -3.5547  -3.5485  -3.4758  -3.4237  -3.3634  -3.3274  -3.2909
    -3.2824  -3.2666  -3.1960  -3.1859  -3.1596  -3.1297  -3.0766  -3.0668
    -3.0299  -3.0001  -2.9445  -2.8966  -2.8677  -2.8441  -2.8318  -2.7837
    -2.7656  -2.7082  -2.6983  -2.6832  -2.6716  -2.6532  -2.6373  -2.5874
    -2.5291  -2.4897  -2.4799  -2.4650  -2.4556  -2.4042  -2.3900  -2.3446
    -2.3340  -2.2955  -2.2842  -2.2830  -2.2692  -2.2506  -2.2285  -2.2151
    -2.1996  -2.1896  -2.1745  -2.1552  -2.1500  -2.1123  -2.0772  -2.0608
    -2.0519  -2.0348  -1.9788  -1.9611  -1.9377  -1.9181  -1.9010  -1.8945
    -1.8717  -1.8609  -1.8509  -1.8453  -1.8286  -1.8118  -1.8030  -1.7882
    -1.7431  -1.7198  -1.7113  -1.6996  -1.6898  -1.6821  -1.6738  -1.6637
    -1.6574  -1.6487  -1.6282  -1.5936  -1.5738  -1.5568  -1.5469  -1.5152
    -1.4641  -1.4560  -1.4236  -1.4069  -1.3977  -1.3850  -1.3758  -1.3351
    -1.3107  -1.2970  -1.2668  -1.2214  -1.1862  -1.1675  -1.1519  -1.1326
    -1.1105  -1.1041  -1.0918  -1.0668  -1.0461  -1.0311  -1.0131  -0.9975
    -0.9529  -0.9385  -0.9283  -0.9179  -0.9030  -0.8705  -0.8398  -0.8278
    -0.8190  -0.7942  -0.7863  -0.7719  -0.7686  -0.7400  -0.7015  -0.5837
    -0.5470  -0.5351  -0.5252  -0.5215  -0.5075  -0.5031  -0.4837  -0.4733
    -0.4499  -0.4404  -0.4320  -0.4139  -0.3716  -0.3248  -0.3019  -0.2944
    -0.2781  -0.2755  -0.2521  -0.2401  -0.2168  -0.2016  -0.1963  -0.1799
    -0.1668  -0.1114  -0.1081  -0.0970  -0.0860  -0.0660  -0.0530   0.0086
     0.1844   0.2902   0.5547   0.8846   1.1025   1.1955   1.3225   1.5574
     1.7091   1.7517

          k = 0.2000-0.3464 0.0000 ( 51202 PWs)   bands (ev):

   -21.7729  -9.4504  -7.2013  -6.1303  -6.0389  -5.9345  -5.7790  -5.6170
    -5.3722  -4.7531  -4.6763  -4.4694  -4.4506  -4.4097  -4.2444  -4.2420
    -4.1469  -4.1401  -4.1226  -4.0119  -3.9863  -3.8692  -3.8522  -3.8029
    -3.7682  -3.6832  -3.6605  -3.6317  -3.6162  -3.6036  -3.5923  -3.5693
    -3.5559  -3.5466  -3.4952  -3.4500  -3.4413  -3.4112  -3.3805  -3.3126
    -3.2684  -3.2457  -3.1842  -3.1636  -3.1359  -3.1277  -3.0754  -3.0210
    -2.9832  -2.9694  -2.9520  -2.9314  -2.9204  -2.8911  -2.8640  -2.8475
    -2.8240  -2.8138  -2.7204  -2.7030  -2.6612  -2.6508  -2.6146  -2.6013
    -2.5853  -2.5490  -2.4704  -2.4050  -2.3849  -2.3611  -2.3409  -2.3125
    -2.2980  -2.2928  -2.2868  -2.2654  -2.2420  -2.2373  -2.2260  -2.2072
    -2.2023  -2.1732  -2.1461  -2.1126  -2.0423  -2.0306  -2.0114  -1.9921
    -1.9802  -1.9605  -1.9559  -1.9282  -1.9036  -1.8936  -1.8882  -1.8819
    -1.8626  -1.8563  -1.8499  -1.8318  -1.8179  -1.8167  -1.7958  -1.7811
    -1.7627  -1.7415  -1.7281  -1.6987  -1.6903  -1.6779  -1.6476  -1.6396
    -1.6298  -1.5983  -1.5909  -1.5606  -1.5372  -1.5189  -1.5016  -1.4856
    -1.4605  -1.4590  -1.4568  -1.4338  -1.4240  -1.4031  -1.3948  -1.3450
    -1.3217  -1.2887  -1.2734  -1.2276  -1.1731  -1.1570  -1.1512  -1.0569
    -1.0429  -1.0330  -1.0111  -1.0063  -1.0000  -0.9856  -0.9798  -0.9530
    -0.9436  -0.9337  -0.9050  -0.8610  -0.8594  -0.8428  -0.8230  -0.8111
    -0.7945  -0.7856  -0.7602  -0.7440  -0.7386  -0.7222  -0.6174  -0.5919
    -0.5789  -0.5505  -0.5442  -0.5281  -0.5148  -0.4998  -0.4987  -0.4827
    -0.4576  -0.4305  -0.3964  -0.3866  -0.3794  -0.3685  -0.3299  -0.3236
    -0.3101  -0.3068  -0.3004  -0.2746  -0.2604  -0.2532  -0.2511  -0.2300
    -0.2268  -0.1540  -0.1318  -0.1292  -0.0873  -0.0734  -0.0528   0.0781
     0.2252   0.2535   0.2964   0.5135   0.5434   0.6793   1.0649   1.1511
     1.2861   1.3801

          k = 0.4000-0.2309 0.0000 ( 51204 PWs)   bands (ev):

   -21.7729  -9.4476  -7.0646  -6.4125  -6.0644  -5.9448  -5.6498  -5.3896
    -5.1769  -5.1426  -5.0269  -4.3501  -4.2900  -4.2775  -4.2490  -4.2132
    -4.1046  -4.0963  -4.0527  -3.9686  -3.9616  -3.9541  -3.8610  -3.7870
    -3.7840  -3.7701  -3.7654  -3.7120  -3.6661  -3.6572  -3.6106  -3.5275
    -3.4957  -3.4799  -3.4669  -3.4485  -3.4250  -3.3596  -3.3358  -3.3302
    -3.3211  -3.3050  -3.2470  -3.2024  -3.1053  -3.0920  -3.0111  -3.0051
    -2.9799  -2.9600  -2.9392  -2.9324  -2.9146  -2.8876  -2.8693  -2.8320
    -2.8228  -2.7839  -2.7546  -2.7398  -2.6257  -2.6160  -2.5861  -2.5632
    -2.5294  -2.5083  -2.4835  -2.4704  -2.4447  -2.3963  -2.3405  -2.3363
    -2.3308  -2.3207  -2.3091  -2.2926  -2.2776  -2.2693  -2.2603  -2.2240
    -2.1998  -2.1677  -2.1561  -2.1420  -2.1065  -2.0973  -2.0661  -2.0134
    -2.0015  -1.9983  -1.9732  -1.9580  -1.9411  -1.9054  -1.8967  -1.8843
    -1.8764  -1.8569  -1.8498  -1.8341  -1.8153  -1.8079  -1.7987  -1.7777
    -1.7649  -1.7407  -1.7038  -1.6880  -1.6253  -1.6163  -1.6017  -1.5919
    -1.5716  -1.5550  -1.5331  -1.4996  -1.4876  -1.4652  -1.4602  -1.4529
    -1.4508  -1.4446  -1.4312  -1.4273  -1.4230  -1.4025  -1.3909  -1.3832
    -1.3725  -1.3461  -1.2796  -1.2527  -1.2374  -1.2178  -1.2002  -1.1819
    -1.1527  -1.1008  -1.0834  -1.0762  -1.0595  -1.0288  -0.9975  -0.9478
    -0.9426  -0.9135  -0.9059  -0.8884  -0.8674  -0.8363  -0.8139  -0.7721
    -0.7499  -0.7074  -0.7015  -0.6856  -0.6811  -0.6764  -0.6614  -0.6580
    -0.6345  -0.6263  -0.5383  -0.5244  -0.5168  -0.5116  -0.5022  -0.4820
    -0.4712  -0.4616  -0.4466  -0.4410  -0.4079  -0.3935  -0.3488  -0.3347
    -0.3210  -0.3031  -0.2765  -0.2406  -0.2298  -0.2031  -0.1926  -0.1601
    -0.1142  -0.1113  -0.1056  -0.0901  -0.0873  -0.0839  -0.0668  -0.0045
     0.0215   0.0867   0.4709   0.6853   0.9624   1.1197   1.1496   1.3389
     1.4881   1.5409

          k = 0.4000 0.0000 0.0000 ( 51202 PWs)   bands (ev):

   -21.7729  -9.4493  -7.2047  -6.1540  -6.0721  -5.9088  -5.7307  -5.5959
    -5.4069  -4.7525  -4.6788  -4.4663  -4.4529  -4.4022  -4.2493  -4.2417
    -4.1477  -4.1402  -4.1197  -4.0114  -3.9870  -3.8691  -3.8561  -3.7975
    -3.7549  -3.6851  -3.6614  -3.6437  -3.6106  -3.6019  -3.5888  -3.5743
    -3.5579  -3.5448  -3.5008  -3.4699  -3.4414  -3.4195  -3.3768  -3.3416
    -3.2682  -3.2219  -3.1857  -3.1552  -3.1403  -3.1257  -3.0586  -3.0228
    -2.9880  -2.9634  -2.9510  -2.9426  -2.9156  -2.8907  -2.8701  -2.8575
    -2.8312  -2.7812  -2.7321  -2.6749  -2.6578  -2.6480  -2.6332  -2.5972
    -2.5803  -2.5418  -2.4768  -2.4062  -2.3885  -2.3629  -2.3401  -2.3169
    -2.2989  -2.2924  -2.2863  -2.2641  -2.2419  -2.2346  -2.2254  -2.2151
    -2.2009  -2.1682  -2.1408  -2.0898  -2.0420  -2.0324  -2.0144  -1.9971
    -1.9755  -1.9659  -1.9464  -1.9293  -1.9164  -1.8890  -1.8825  -1.8748
    -1.8602  -1.8573  -1.8435  -1.8255  -1.8233  -1.8139  -1.7960  -1.7890
    -1.7609  -1.7432  -1.7156  -1.6961  -1.6907  -1.6683  -1.6430  -1.6402
    -1.6232  -1.6061  -1.5923  -1.5648  -1.5372  -1.5294  -1.5045  -1.4824
    -1.4767  -1.4615  -1.4519  -1.4268  -1.4228  -1.4097  -1.3954  -1.3600
    -1.3168  -1.3069  -1.2876  -1.2292  -1.1771  -1.1584  -1.1444  -1.0733
    -1.0382  -1.0266  -1.0195  -1.0076  -1.0009  -0.9913  -0.9727  -0.9671
    -0.9443  -0.9223  -0.9059  -0.8652  -0.8522  -0.8448  -0.8221  -0.8153
    -0.7942  -0.7741  -0.7500  -0.7453  -0.7402  -0.7243  -0.6258  -0.5865
    -0.5692  -0.5470  -0.5385  -0.5356  -0.5159  -0.5070  -0.4934  -0.4849
    -0.4582  -0.4263  -0.4042  -0.3915  -0.3775  -0.3649  -0.3242  -0.3213
    -0.3101  -0.3086  -0.2973  -0.2772  -0.2639  -0.2568  -0.2456  -0.2272
    -0.2156  -0.1486  -0.1350  -0.1299  -0.0878  -0.0749  -0.0344   0.0615
     0.2421   0.2587   0.3142   0.4618   0.5814   0.6658   1.0180   1.1452
     1.2690   1.4060

          k = 0.4000 0.2309 0.0000 ( 51204 PWs)   bands (ev):

   -21.7729  -9.4460  -7.0696  -6.4323  -6.0914  -5.9268  -5.5235  -5.4831
    -5.1787  -5.1245  -5.0388  -4.3460  -4.3048  -4.2741  -4.2493  -4.2165
    -4.1028  -4.0940  -4.0522  -3.9654  -3.9601  -3.9553  -3.8447  -3.7861
    -3.7826  -3.7670  -3.7648  -3.7065  -3.6589  -3.6557  -3.6280  -3.5484
    -3.4978  -3.4880  -3.4762  -3.4468  -3.4343  -3.3827  -3.3392  -3.3322
    -3.3223  -3.3054  -3.2552  -3.1509  -3.1055  -3.0667  -3.0118  -2.9902
    -2.9845  -2.9726  -2.9404  -2.9361  -2.9263  -2.9028  -2.8469  -2.8310
    -2.8268  -2.7889  -2.7614  -2.7113  -2.6148  -2.6032  -2.5978  -2.5668
    -2.5343  -2.4926  -2.4829  -2.4771  -2.4624  -2.3919  -2.3504  -2.3376
    -2.3314  -2.3236  -2.3073  -2.2922  -2.2749  -2.2737  -2.2523  -2.2064
    -2.1857  -2.1743  -2.1644  -2.1464  -2.0995  -2.0928  -2.0543  -2.0247
    -2.0021  -1.9974  -1.9723  -1.9593  -1.9313  -1.9012  -1.8878  -1.8872
    -1.8722  -1.8528  -1.8520  -1.8293  -1.8179  -1.8091  -1.8068  -1.7804
    -1.7597  -1.7415  -1.7024  -1.6860  -1.6456  -1.6216  -1.6000  -1.5761
    -1.5677  -1.5519  -1.5336  -1.4875  -1.4869  -1.4742  -1.4668  -1.4582
    -1.4493  -1.4460  -1.4313  -1.4274  -1.4267  -1.4129  -1.4017  -1.3757
    -1.3554  -1.3367  -1.3094  -1.2472  -1.2310  -1.2208  -1.2039  -1.1745
    -1.1576  -1.1188  -1.0963  -1.0765  -1.0679  -1.0160  -1.0157  -0.9752
    -0.9494  -0.9155  -0.8987  -0.8962  -0.8661  -0.8298  -0.7966  -0.7779
    -0.7453  -0.7094  -0.6994  -0.6890  -0.6787  -0.6693  -0.6663  -0.6434
    -0.6316  -0.6277  -0.5328  -0.5262  -0.5140  -0.5112  -0.4968  -0.4899
    -0.4667  -0.4571  -0.4485  -0.4320  -0.4219  -0.3871  -0.3453  -0.3284
    -0.3260  -0.3052  -0.2642  -0.2389  -0.2277  -0.1998  -0.1903  -0.1584
    -0.1139  -0.1097  -0.1003  -0.0899  -0.0834  -0.0802  -0.0545  -0.0177
     0.0213   0.0836   0.4255   0.8412   0.8799   1.0658   1.1540   1.2169
     1.5041   1.5337

          k = 0.4000-0.6928 0.0000 ( 51262 PWs)   bands (ev):

   -21.7729  -9.4423  -6.7007  -6.6388  -6.0797  -5.9849  -5.8956  -5.4460
    -5.2797  -5.1821  -4.7585  -4.4449  -4.2176  -4.1662  -4.0736  -4.0299
    -4.0253  -4.0050  -3.9935  -3.9678  -3.9274  -3.9184  -3.9115  -3.9023
    -3.8390  -3.7796  -3.7660  -3.7560  -3.7359  -3.7262  -3.6235  -3.5840
    -3.5702  -3.5593  -3.5513  -3.4919  -3.4519  -3.3883  -3.3256  -3.2894
    -3.2785  -3.2417  -3.1996  -3.1828  -3.1604  -3.0780  -3.0753  -3.0713
    -3.0475  -3.0018  -2.9697  -2.9014  -2.8669  -2.8414  -2.8167  -2.7809
    -2.7506  -2.7072  -2.6953  -2.6892  -2.6774  -2.6583  -2.6087  -2.6030
    -2.5322  -2.4896  -2.4796  -2.4665  -2.4497  -2.4100  -2.4014  -2.3443
    -2.3345  -2.2971  -2.2889  -2.2732  -2.2642  -2.2481  -2.2263  -2.2033
    -2.1982  -2.1862  -2.1687  -2.1573  -2.1493  -2.1177  -2.0817  -2.0659
    -2.0501  -2.0391  -1.9797  -1.9561  -1.9230  -1.9176  -1.9100  -1.8992
    -1.8686  -1.8621  -1.8491  -1.8381  -1.8311  -1.8104  -1.7910  -1.7764
    -1.7402  -1.7171  -1.7094  -1.7026  -1.6854  -1.6842  -1.6817  -1.6655
    -1.6566  -1.6526  -1.6312  -1.6076  -1.5694  -1.5528  -1.5408  -1.5301
    -1.4689  -1.4597  -1.4294  -1.4052  -1.3924  -1.3841  -1.3707  -1.3501
    -1.3088  -1.3009  -1.2720  -1.2342  -1.1734  -1.1701  -1.1590  -1.1279
    -1.1167  -1.0961  -1.0856  -1.0810  -1.0568  -1.0369  -1.0005  -0.9798
    -0.9531  -0.9473  -0.9382  -0.9091  -0.8984  -0.8793  -0.8484  -0.8396
    -0.8126  -0.7990  -0.7878  -0.7660  -0.7546  -0.7349  -0.7075  -0.5932
    -0.5432  -0.5340  -0.5290  -0.5112  -0.5075  -0.4997  -0.4830  -0.4649
    -0.4506  -0.4398  -0.4376  -0.4243  -0.3638  -0.3064  -0.3050  -0.2942
    -0.2810  -0.2718  -0.2552  -0.2287  -0.2127  -0.2017  -0.1919  -0.1788
    -0.1762  -0.1270  -0.1082  -0.0976  -0.0854  -0.0679  -0.0536   0.0083
     0.1905   0.2949   0.6052   0.9019   1.0050   1.1928   1.2735   1.6170
     1.6988   1.7449

          k = 0.4000-0.4619 0.0000 ( 51262 PWs)   bands (ev):

   -21.7729  -9.4434  -6.6822  -6.6412  -6.1207  -5.9683  -5.8375  -5.5568
    -5.2311  -5.1681  -4.7588  -4.4463  -4.2083  -4.1633  -4.0751  -4.0386
    -4.0255  -4.0062  -3.9987  -3.9778  -3.9235  -3.9182  -3.9116  -3.9039
    -3.8398  -3.7883  -3.7669  -3.7542  -3.7377  -3.7209  -3.6223  -3.5871
    -3.5712  -3.5541  -3.5487  -3.4753  -3.4248  -3.3657  -3.3277  -3.2904
    -3.2825  -3.2663  -3.1961  -3.1856  -3.1596  -3.1307  -3.0769  -3.0668
    -3.0299  -3.0005  -2.9435  -2.8966  -2.8666  -2.8440  -2.8320  -2.7835
    -2.7649  -2.7082  -2.6984  -2.6835  -2.6718  -2.6539  -2.6373  -2.5854
    -2.5295  -2.4894  -2.4799  -2.4652  -2.4558  -2.4044  -2.3891  -2.3450
    -2.3335  -2.2953  -2.2835  -2.2826  -2.2701  -2.2513  -2.2289  -2.2144
    -2.1995  -2.1896  -2.1744  -2.1552  -2.1501  -2.1120  -2.0774  -2.0608
    -2.0519  -2.0378  -1.9786  -1.9612  -1.9372  -1.9181  -1.9009  -1.8944
    -1.8719  -1.8608  -1.8509  -1.8460  -1.8282  -1.8114  -1.8024  -1.7876
    -1.7432  -1.7197  -1.7112  -1.6996  -1.6899  -1.6819  -1.6733  -1.6635
    -1.6572  -1.6486  -1.6284  -1.5944  -1.5741  -1.5566  -1.5472  -1.5154
    -1.4643  -1.4555  -1.4243  -1.4070  -1.3977  -1.3846  -1.3755  -1.3352
    -1.3107  -1.2972  -1.2683  -1.2200  -1.1858  -1.1673  -1.1521  -1.1330
    -1.1102  -1.1044  -1.0920  -1.0663  -1.0460  -1.0312  -1.0129  -0.9972
    -0.9525  -0.9390  -0.9285  -0.9180  -0.9027  -0.8704  -0.8396  -0.8284
    -0.8192  -0.7940  -0.7859  -0.7725  -0.7685  -0.7397  -0.7020  -0.5836
    -0.5470  -0.5349  -0.5253  -0.5215  -0.5074  -0.5031  -0.4841  -0.4730
    -0.4498  -0.4404  -0.4325  -0.4140  -0.3711  -0.3246  -0.3019  -0.2943
    -0.2784  -0.2757  -0.2519  -0.2399  -0.2165  -0.2016  -0.1959  -0.1800
    -0.1671  -0.1112  -0.1080  -0.0967  -0.0859  -0.0658  -0.0530   0.0082
     0.1836   0.2906   0.5555   0.8853   1.0990   1.1963   1.3214   1.5603
     1.7082   1.7502

 ------ SPIN DOWN ----------


          k = 0.0000 0.0000 0.0000 ( 51087 PWs)   bands (ev):

   -21.8512  -9.5597  -7.7654  -6.4574  -5.9943  -5.7761  -5.4773  -4.6411
    -4.6135  -4.6095  -4.6082  -4.5668  -4.5636  -4.4735  -3.7426  -3.7403
    -3.7327  -3.7063  -3.6971  -3.6871  -3.5790  -3.0604  -2.7978  -2.7916
    -2.7874  -2.7724  -2.6958  -2.5910  -2.3295  -2.3273  -2.3182  -2.3147
    -2.3024  -2.2629  -2.1280  -2.1267  -2.0617  -2.0288  -2.0280  -2.0255
    -1.9418  -1.9411  -1.8920  -1.8911  -1.8345  -1.8101  -1.7967  -1.7751
    -1.7588  -1.7193  -1.5448  -1.5378  -1.5234  -1.5136  -1.4961  -1.4909
    -1.4859  -1.4856  -1.4566  -1.4511  -1.4237  -1.4069  -1.4056  -1.4024
    -1.3157  -1.2752  -0.8903  -0.8846  -0.8395  -0.8324  -0.8251  -0.7629
    -0.6525  -0.6068  -0.5339  -0.5243  -0.5090  -0.5020  -0.4916  -0.4846
    -0.4520  -0.4424  -0.4248  -0.4141  -0.4096  -0.4092  -0.3549  -0.3478
    -0.3284  -0.3158  -0.3028  -0.2973  -0.2751  -0.2642  -0.2595  -0.2525
    -0.2447  -0.2396  -0.2325  -0.2294  -0.2223  -0.2219  -0.1487  -0.1433
    -0.1399  -0.0876  -0.0695  -0.0415  -0.0117  -0.0083   0.0021   0.0065
     0.0079   0.0128   0.0131   0.0393   0.0893   0.0900   0.1425   0.1680
     0.1756   0.1797   0.1948   0.2099   0.3067   0.3723   0.4146   0.4149
     0.4562   0.4872   0.4942   0.4968   0.5694   0.7150   0.7277   0.8070
     0.8264   0.8959   0.9483   0.9784   1.0226   1.0552   1.0588   1.0632
     1.1628   1.1713   1.2177   1.2224   1.2334   1.2390   1.2410   1.2667
     1.2852   1.2893   1.3141   1.3232   1.3369   1.3469   1.3503   1.3721
     1.3842   1.3855   1.3893   1.3910   1.4120   1.4490   1.4571   1.4696
     1.4724   1.4910   1.4920   1.5089   1.5120   1.5215   1.5255   1.5570
     1.5578   1.5805   1.5838   1.5864   1.6013   1.6058   1.6119   1.6439
     1.6475   1.6513   1.6563   1.6590   1.6684   1.6734   1.6812   1.6879
     1.6921   1.7325   1.7326   1.8798   1.8799   1.8857   1.8873   1.8883
     1.8952   1.9746

          k = 0.0000 0.2309 0.0000 ( 51134 PWs)   bands (ev):

   -21.8512  -9.5515  -7.6216  -6.3534  -6.0136  -5.7964  -5.5757  -5.4101
    -4.9769  -4.9626  -4.4616  -4.3367  -4.0604  -4.0559  -3.9461  -3.9130
    -3.7689  -3.5282  -3.3994  -3.3725  -3.2912  -3.1182  -2.9220  -2.7763
    -2.7562  -2.7202  -2.6511  -2.5900  -2.4326  -2.3604  -2.3527  -2.3481
    -2.3121  -2.2937  -2.2681  -2.2646  -2.2242  -2.2005  -2.0890  -2.0811
    -1.9985  -1.9932  -1.9670  -1.8520  -1.8301  -1.8010  -1.7857  -1.6956
    -1.6643  -1.6456  -1.5898  -1.5626  -1.5445  -1.5259  -1.5016  -1.4987
    -1.4850  -1.4741  -1.4028  -1.3769  -1.3633  -1.3433  -1.3170  -1.2669
    -1.2409  -1.1512  -0.9785  -0.9439  -0.8893  -0.8849  -0.8297  -0.7730
    -0.7435  -0.7125  -0.6692  -0.6533  -0.6254  -0.5593  -0.5356  -0.5259
    -0.4828  -0.4768  -0.4660  -0.4616  -0.4475  -0.4196  -0.4170  -0.3794
    -0.3287  -0.3130  -0.2991  -0.2967  -0.2860  -0.2627  -0.2448  -0.2279
    -0.2184  -0.2091  -0.2041  -0.1986  -0.1974  -0.1930  -0.1750  -0.1495
    -0.1248  -0.1103  -0.1012  -0.0908  -0.0793  -0.0544  -0.0377  -0.0206
     0.0011   0.0194   0.0433   0.0739   0.1014   0.1118   0.1236   0.1567
     0.2692   0.2807   0.2995   0.3479   0.3815   0.3855   0.4163   0.4353
     0.4397   0.4527   0.4703   0.4774   0.6011   0.6934   0.7357   0.7943
     0.8013   0.8176   0.8345   0.8432   0.8929   0.9052   0.9521   0.9826
     1.0197   1.0368   1.0537   1.1008   1.1187   1.1390   1.1623   1.1965
     1.2210   1.2404   1.2704   1.2834   1.2901   1.3083   1.3403   1.3515
     1.3723   1.3964   1.4232   1.4377   1.4606   1.4718   1.4884   1.5004
     1.5347   1.5463   1.5519   1.5562   1.5757   1.6228   1.6325   1.6363
     1.6468   1.6638   1.6742   1.7036   1.7061   1.7248   1.7279   1.7346
     1.7481   1.7943   1.7985   1.8150   1.8197   1.8281   1.8409   1.8519
     1.8720   1.8765   1.8881   1.9084   1.9708   1.9883   1.9946   2.0496
     2.0709   2.1119

          k = 0.0000 0.4619 0.0000 ( 51204 PWs)   bands (ev):

   -21.8512  -9.5385  -7.1960  -6.5198  -6.1204  -5.9852  -5.6968  -5.4163
    -5.1907  -5.1507  -5.0195  -4.1352  -4.0659  -3.9764  -3.5411  -3.4441
    -3.4362  -3.3314  -3.2180  -3.1415  -3.0412  -2.9919  -2.9342  -2.8406
    -2.8368  -2.7675  -2.7270  -2.7024  -2.6480  -2.5967  -2.5783  -2.5415
    -2.5010  -2.4473  -2.3098  -2.2931  -2.2239  -2.2149  -2.1067  -2.1012
    -2.0952  -2.0861  -2.0507  -1.8317  -1.8019  -1.7869  -1.7506  -1.7280
    -1.5882  -1.5699  -1.5626  -1.5462  -1.5424  -1.5149  -1.5085  -1.4976
    -1.4690  -1.4035  -1.3928  -1.3738  -1.3555  -1.3381  -1.1975  -1.1620
    -1.0725  -1.0240  -0.9602  -0.9326  -0.9184  -0.8839  -0.8563  -0.8476
    -0.8306  -0.8077  -0.7887  -0.7532  -0.7157  -0.6784  -0.6683  -0.6377
    -0.6027  -0.5916  -0.5603  -0.5501  -0.5131  -0.4968  -0.4488  -0.3986
    -0.3785  -0.3624  -0.3381  -0.3193  -0.2836  -0.2655  -0.2472  -0.2341
    -0.1930  -0.1914  -0.1745  -0.1504  -0.1424  -0.1384  -0.1268  -0.1023
    -0.0841  -0.0615  -0.0546  -0.0440  -0.0336  -0.0290  -0.0116   0.0034
     0.0194   0.0476   0.0751   0.1335   0.1608   0.1667   0.1831   0.2199
     0.2293   0.2407   0.2486   0.2987   0.3163   0.3344   0.3531   0.3559
     0.4072   0.4111   0.4267   0.4455   0.4807   0.5466   0.6090   0.6298
     0.6682   0.7022   0.7178   0.7915   0.8250   0.8708   0.8950   0.9056
     0.9268   0.9518   0.9735   0.9894   1.0070   1.0876   1.1410   1.1907
     1.2015   1.2153   1.2610   1.2785   1.3135   1.3261   1.3446   1.3641
     1.3950   1.4070   1.4192   1.4753   1.4942   1.5082   1.5439   1.5554
     1.5667   1.5697   1.6013   1.6108   1.6312   1.6442   1.6543   1.6804
     1.6909   1.7458   1.7691   1.7856   1.7991   1.8181   1.8243   1.8500
     1.8553   1.8736   1.8825   1.8935   1.9144   1.9184   1.9270   1.9318
     1.9736   2.0135   2.0483   2.1415   2.1615   2.2370   2.5613   2.6241
     2.6694   2.6984

          k = 0.2000-0.1155 0.0000 ( 51134 PWs)   bands (ev):

   -21.8512  -9.5515  -7.6216  -6.3539  -6.0151  -5.7936  -5.5750  -5.4119
    -4.9769  -4.9623  -4.4620  -4.3354  -4.0603  -4.0560  -3.9470  -3.9132
    -3.7687  -3.5282  -3.4010  -3.3728  -3.2890  -3.1152  -2.9258  -2.7766
    -2.7540  -2.7215  -2.6513  -2.5888  -2.4322  -2.3604  -2.3527  -2.3481
    -2.3124  -2.2940  -2.2680  -2.2646  -2.2244  -2.2010  -2.0888  -2.0814
    -1.9985  -1.9932  -1.9665  -1.8532  -1.8295  -1.8010  -1.7848  -1.6960
    -1.6644  -1.6461  -1.5898  -1.5626  -1.5443  -1.5255  -1.5017  -1.4989
    -1.4851  -1.4732  -1.4031  -1.3769  -1.3633  -1.3428  -1.3172  -1.2684
    -1.2400  -1.1513  -0.9787  -0.9443  -0.8898  -0.8848  -0.8292  -0.7732
    -0.7439  -0.7127  -0.6693  -0.6529  -0.6252  -0.5596  -0.5354  -0.5255
    -0.4829  -0.4771  -0.4656  -0.4616  -0.4477  -0.4207  -0.4172  -0.3794
    -0.3269  -0.3127  -0.2991  -0.2967  -0.2856  -0.2618  -0.2450  -0.2283
    -0.2185  -0.2090  -0.2040  -0.1987  -0.1975  -0.1930  -0.1750  -0.1495
    -0.1247  -0.1098  -0.1014  -0.0908  -0.0795  -0.0551  -0.0374  -0.0207
     0.0016   0.0198   0.0434   0.0743   0.1012   0.1119   0.1236   0.1568
     0.2693   0.2799   0.3000   0.3473   0.3805   0.3852   0.4168   0.4347
     0.4393   0.4526   0.4707   0.4773   0.6017   0.6943   0.7348   0.7940
     0.8010   0.8175   0.8349   0.8423   0.8920   0.9041   0.9512   0.9826
     1.0190   1.0379   1.0544   1.1006   1.1195   1.1393   1.1622   1.1974
     1.2209   1.2397   1.2707   1.2834   1.2901   1.3087   1.3404   1.3518
     1.3720   1.3961   1.4229   1.4378   1.4608   1.4718   1.4887   1.5005
     1.5347   1.5464   1.5518   1.5564   1.5754   1.6228   1.6323   1.6363
     1.6466   1.6637   1.6744   1.7038   1.7060   1.7246   1.7281   1.7346
     1.7480   1.7943   1.7985   1.8152   1.8196   1.8281   1.8414   1.8519
     1.8720   1.8766   1.8881   1.9089   1.9708   1.9884   1.9947   2.0492
     2.0709   2.1112

          k = 0.2000 0.1155 0.0000 ( 51134 PWs)   bands (ev):

   -21.8512  -9.5509  -7.6226  -6.3646  -6.0377  -5.7439  -5.5175  -5.4909
    -4.9726  -4.9598  -4.4631  -4.3330  -4.0574  -4.0566  -3.9424  -3.9221
    -3.7691  -3.5286  -3.3954  -3.3798  -3.2904  -3.0997  -2.9408  -2.7990
    -2.7382  -2.6921  -2.6841  -2.5732  -2.4423  -2.3565  -2.3531  -2.3446
    -2.3162  -2.2899  -2.2681  -2.2568  -2.2249  -2.2064  -2.0892  -2.0858
    -2.0007  -1.9957  -1.9443  -1.8468  -1.8318  -1.8007  -1.7980  -1.6822
    -1.6623  -1.6556  -1.5785  -1.5760  -1.5514  -1.5190  -1.5031  -1.4954
    -1.4952  -1.4253  -1.4193  -1.3895  -1.3599  -1.3488  -1.3162  -1.2845
    -1.2402  -1.1405  -0.9848  -0.9413  -0.8874  -0.8735  -0.8062  -0.8047
    -0.7621  -0.7033  -0.6630  -0.6561  -0.6323  -0.5608  -0.5432  -0.5148
    -0.4872  -0.4794  -0.4704  -0.4543  -0.4541  -0.4246  -0.4231  -0.3779
    -0.3179  -0.3118  -0.2996  -0.2951  -0.2901  -0.2581  -0.2435  -0.2249
    -0.2163  -0.2089  -0.2063  -0.2008  -0.1971  -0.1968  -0.1614  -0.1510
    -0.1221  -0.1137  -0.0984  -0.0954  -0.0795  -0.0526  -0.0374  -0.0310
     0.0075   0.0133   0.0711   0.0746   0.0963   0.0982   0.1240   0.1572
     0.2348   0.3056   0.3110   0.3454   0.3692   0.3924   0.4013   0.4241
     0.4395   0.4610   0.4724   0.4757   0.6360   0.6978   0.7194   0.7842
     0.8052   0.8101   0.8385   0.8524   0.8832   0.9130   0.9284   0.9648
     0.9907   1.0549   1.0740   1.1009   1.1151   1.1496   1.1640   1.1788
     1.2115   1.2576   1.2769   1.2887   1.2948   1.3139   1.3431   1.3486
     1.3701   1.4016   1.4217   1.4515   1.4574   1.4760   1.4930   1.5015
     1.5177   1.5443   1.5523   1.5595   1.5682   1.6201   1.6250   1.6348
     1.6499   1.6615   1.6814   1.7063   1.7093   1.7217   1.7284   1.7352
     1.7484   1.7941   1.8007   1.8155   1.8172   1.8294   1.8339   1.8488
     1.8731   1.8821   1.8859   1.8923   1.9692   1.9860   1.9959   2.0380
     2.0764   2.1183

          k = 0.2000 0.3464 0.0000 ( 51202 PWs)   bands (ev):

   -21.8512  -9.5402  -7.3386  -6.2194  -6.1309  -5.9910  -5.7885  -5.6158
    -5.4388  -4.7114  -4.5941  -4.2569  -4.2357  -4.1307  -3.4574  -3.4207
    -3.4065  -3.4029  -3.3390  -3.2407  -3.1458  -3.1126  -3.0690  -2.8628
    -2.7371  -2.6620  -2.6551  -2.6311  -2.5709  -2.5473  -2.5220  -2.4558
    -2.4475  -2.4352  -2.4025  -2.3628  -2.2929  -2.2355  -2.0744  -2.0625
    -2.0284  -2.0041  -1.9545  -1.9286  -1.9227  -1.7744  -1.7263  -1.7068
    -1.6375  -1.5887  -1.5461  -1.5425  -1.5274  -1.5207  -1.5005  -1.4867
    -1.4632  -1.4461  -1.4019  -1.3699  -1.3252  -1.2830  -1.1987  -1.1558
    -1.0881  -1.0645  -0.9786  -0.9555  -0.8928  -0.8606  -0.8391  -0.8089
    -0.7891  -0.7708  -0.7514  -0.7204  -0.6917  -0.6700  -0.6563  -0.6294
    -0.6151  -0.5896  -0.5755  -0.5600  -0.5368  -0.4669  -0.4124  -0.3945
    -0.3872  -0.3743  -0.3425  -0.3317  -0.3058  -0.2820  -0.2660  -0.2523
    -0.2390  -0.2186  -0.2111  -0.1917  -0.1803  -0.1586  -0.1487  -0.1177
    -0.1094  -0.0945  -0.0810  -0.0690  -0.0587  -0.0487  -0.0335  -0.0217
     0.0196   0.0557   0.0676   0.0839   0.1752   0.1965   0.2167   0.2378
     0.2661   0.2944   0.3077   0.3181   0.3522   0.3876   0.3952   0.4035
     0.4147   0.4359   0.4790   0.4910   0.5528   0.6057   0.6511   0.6968
     0.7510   0.7801   0.8207   0.8494   0.8627   0.8715   0.8766   0.9028
     0.9155   0.9328   0.9429   0.9630   0.9993   1.0461   1.0853   1.1199
     1.1355   1.1579   1.1905   1.2062   1.2132   1.2647   1.2708   1.3145
     1.3636   1.4238   1.4592   1.5008   1.5258   1.5397   1.5587   1.5701
     1.5770   1.5895   1.6132   1.6215   1.6635   1.6862   1.6948   1.6999
     1.7129   1.7467   1.7497   1.7629   1.7699   1.7953   1.8052   1.8263
     1.8300   1.8417   1.8475   1.8633   1.8759   1.8944   1.9252   1.9585
     1.9736   1.9869   2.0674   2.0984   2.2042   2.2428   2.3385   2.4776
     2.5385   2.5629

          k = 0.2000-0.5774 0.0000 ( 51262 PWs)   bands (ev):

   -21.8512  -9.5343  -6.8031  -6.7623  -6.2003  -6.0118  -5.8838  -5.6134
    -5.2613  -5.1891  -4.7210  -4.3022  -3.7952  -3.6789  -3.4515  -3.4427
    -3.4176  -3.2510  -3.1929  -3.0834  -3.0301  -3.0216  -2.9752  -2.8933
    -2.8839  -2.8629  -2.8480  -2.8256  -2.7169  -2.6302  -2.5050  -2.4883
    -2.4714  -2.4473  -2.4229  -2.3909  -2.3713  -2.2766  -2.2565  -2.0693
    -1.9750  -1.9433  -1.9423  -1.9237  -1.8569  -1.7798  -1.7071  -1.7002
    -1.6630  -1.6455  -1.6428  -1.5435  -1.4917  -1.4854  -1.4731  -1.4601
    -1.4207  -1.3599  -1.3326  -1.3094  -1.2588  -1.2394  -1.2240  -1.1235
    -1.0847  -1.0273  -0.9607  -0.9297  -0.9278  -0.8770  -0.8566  -0.8393
    -0.8102  -0.7943  -0.7672  -0.7349  -0.7140  -0.6795  -0.6487  -0.6363
    -0.6308  -0.6006  -0.5869  -0.5755  -0.5606  -0.5592  -0.5238  -0.4955
    -0.4908  -0.4522  -0.4388  -0.4095  -0.3776  -0.3568  -0.3242  -0.2774
    -0.2515  -0.2384  -0.2062  -0.1926  -0.1610  -0.1501  -0.1369  -0.1162
    -0.0825  -0.0605  -0.0433  -0.0267  -0.0092   0.0040   0.0487   0.0929
     0.1159   0.1367   0.1459   0.1555   0.1833   0.1927   0.2222   0.2396
     0.2604   0.2637   0.3177   0.3415   0.3629   0.3720   0.4001   0.4223
     0.4371   0.4513   0.4685   0.4955   0.5073   0.5210   0.5374   0.5664
     0.6243   0.6753   0.7257   0.7530   0.7969   0.8190   0.8503   0.8645
     0.8747   0.8936   0.9084   0.9614   0.9949   1.0539   1.0645   1.0887
     1.1101   1.1209   1.1734   1.1930   1.2149   1.2331   1.2651   1.3069
     1.3735   1.4319   1.4750   1.4786   1.5313   1.5672   1.5930   1.6057
     1.6183   1.6261   1.6387   1.6482   1.6772   1.6974   1.7065   1.7169
     1.7554   1.7785   1.7878   1.7960   1.8031   1.8061   1.8167   1.8213
     1.8394   1.8751   1.8850   1.9058   1.9142   1.9315   1.9390   1.9625
     2.0214   2.0935   2.2035   2.3161   2.4599   2.6564   2.7542   2.8197
[...]
     atom    8 type  1   force =     0.00003341   -0.00144202   -0.10498517
     atom    9 type  1   force =    -0.00125942    0.00078593   -0.10573828
     atom   10 type  1   force =    -0.00006580   -0.00000731   -0.01505915
     atom   11 type  1   force =     0.00127334   -0.00199844   -0.00797036
     atom   12 type  1   force =    -0.00098032    0.00043988   -0.01019267
     atom   13 type  1   force =    -0.00110154    0.00206821   -0.00794569
     atom   14 type  1   force =     0.00064055    0.00035389   -0.00624904
     atom   15 type  1   force =     0.00001167    0.00099265   -0.00977844
     atom   16 type  1   force =    -0.00010664   -0.00108867   -0.01030480
     atom   17 type  1   force =     0.00087813   -0.00051287   -0.00983909
     atom   18 type  1   force =    -0.00077414   -0.00043603   -0.01154825
     atom   19 type  1   force =    -0.00411861   -0.00322307    0.00603129
     atom   20 type  1   force =    -0.00979884   -0.00574429   -0.00210701
     atom   21 type  1   force =     0.01540555   -0.00896936   -0.00354152
     atom   22 type  1   force =     0.00050033    0.00361332    0.00725872
     atom   23 type  1   force =    -0.00003709    0.01778272   -0.00354497
     atom   24 type  1   force =    -0.00076151   -0.00038424    0.01399127
     atom   25 type  1   force =    -0.00017696   -0.00010973    0.01685718
     atom   26 type  1   force =    -0.00488438   -0.00198332    0.00616472
     atom   27 type  1   force =     0.00338806   -0.00137992    0.00713505
     atom   28 type  1   force =     0.00558574    0.00335502    0.12544124
     atom   29 type  1   force =    -0.00429230    0.04433336    0.12244695
     atom   30 type  1   force =    -0.00330549    0.00776939    0.13258038
     atom   31 type  1   force =     0.03656355   -0.02639945    0.12555914
     atom   32 type  1   force =    -0.07788244   -0.04560092    0.06193883
     atom   33 type  1   force =    -0.00413316    0.00121100    0.12679051
     atom   34 type  1   force =     0.00425389   -0.00629723    0.13185109
     atom   35 type  1   force =    -0.00027636   -0.00424497    0.12652259
     atom   36 type  1   force =    -0.00059688   -0.00037375    0.10652108
     atom   37 type  2   force =    -0.04501566   -0.02101758    0.36647557
     atom   38 type  3   force =     0.70863033    0.36320184   -2.56136490
     atom   39 type  4   force =    -0.00784430   -0.00408317   -0.02862330
     The ionic contribution  to forces
     atom    1 type  1   force =    -0.00863015   -0.00019665 -111.16826809
     atom    2 type  1   force =    -0.00084201   -0.00056506 -111.18732696
     atom    3 type  1   force =     0.00947218   -0.00093618 -111.16994947
     atom    4 type  1   force =    -0.00504073    0.00832585 -111.16786123
     atom    5 type  1   force =     0.00399297    0.00870419 -111.16995988
     atom    6 type  1   force =     0.00104774    0.00067645 -111.15996558
     atom    7 type  1   force =    -0.00020993   -0.00011511 -111.15898321
     atom    8 type  1   force =    -0.00441743   -0.00740791 -111.16814400
     atom    9 type  1   force =     0.00462736   -0.00848558 -111.16772509
     atom   10 type  1   force =    -0.04777644   -0.02794142  -40.10663435
     atom   11 type  1   force =    -0.00114283   -0.07500498  -40.20613067
     atom   12 type  1   force =     0.04891992   -0.03556871  -40.10871166
     atom   13 type  1   force =    -0.06523047    0.03607356  -40.20723096
     atom   14 type  1   force =     0.05776610    0.03310021  -40.22250789
     atom   15 type  1   force =     0.00746004    0.01106128  -40.09401779
     atom   16 type  1   force =    -0.00601981    0.06058824  -40.10913028
     atom   17 type  1   force =     0.01351514    0.00140612  -40.09341054
     atom   18 type  1   force =    -0.00749315   -0.00371492  -40.08162979
     atom   19 type  1   force =    -0.42618972   -0.00628381   31.37922164
     atom   20 type  1   force =    -0.04400851   -0.03005089   30.29583625
     atom   21 type  1   force =     0.47070438   -0.05434464   31.29518661
     atom   22 type  1   force =    -0.24325943    0.40513397   31.40131497
     atom   23 type  1   force =     0.19159729    0.43648295   31.29555685
     atom   24 type  1   force =     0.05102155    0.03272763   31.72709556
     atom   25 type  1   force =    -0.01081723   -0.00607271   31.77091350
     atom   26 type  1   force =    -0.21497573   -0.36712344   31.38504325
     atom   27 type  1   force =     0.22579025   -0.41067559   31.40822547
     atom   28 type  1   force =    -1.68023934   -0.98332191  103.85786856
     atom   29 type  1   force =     0.05640130   -4.99016391   99.72914235
     atom   30 type  1   force =     1.63232725   -1.19884304  103.97189670
     atom   31 type  1   force =    -4.30923574    2.53038447   99.63792388
     atom   32 type  1   force =     3.70039130    2.14203174   98.20064637
     atom   33 type  1   force =     0.36007707    0.25157994  104.22435794
     atom   34 type  1   force =    -0.20398130    2.03225775  103.95985330
     atom   35 type  1   force =     0.39896667    0.19678769  104.24267534
     atom   36 type  1   force =    -0.17516613   -0.07819396  104.49939229
     atom   37 type  2   force =     1.77081618    0.87034763   51.70477560
     atom   38 type  3   force =    -2.69556810   -1.39725071   90.33751867
     atom   39 type  4   force =     1.14534949    0.62459147   15.42314235
     The local contribution  to forces
     atom    1 type  1   force =     0.00962713    0.00080437  111.27610919
     atom    2 type  1   force =     0.00393061    0.00230545  111.29969000
     atom    3 type  1   force =    -0.01317582    0.00227450  111.27889020
     atom    4 type  1   force =     0.00443224   -0.00755835  111.27529885
     atom    5 type  1   force =    -0.00466863   -0.01255796  111.27882099
     atom    6 type  1   force =     0.00064142    0.00033608  111.26504355
     atom    7 type  1   force =    -0.00069578   -0.00044757  111.26521835
     atom    8 type  1   force =     0.00546635    0.00795941  111.27589987
     atom    9 type  1   force =    -0.00429503    0.00758774  111.27527169
     atom   10 type  1   force =     0.04798928    0.02805951   40.10378257
     atom   11 type  1   force =    -0.00067698    0.07519054   40.19623636
     atom   12 type  1   force =    -0.04711973    0.03527059   40.10265646
     atom   13 type  1   force =     0.06448517   -0.03769252   40.19719574
     atom   14 type  1   force =    -0.05767899   -0.03300791   40.20918068
     atom   15 type  1   force =    -0.00701765   -0.01236990   40.08404042
     atom   16 type  1   force =     0.00663164   -0.05890597   40.10321415
     atom   17 type  1   force =    -0.01444749   -0.00037657   40.08348599
     atom   18 type  1   force =     0.00842767    0.00420098   40.07229996
     atom   19 type  1   force =     0.42743338    0.00727204  -31.36774632
     atom   20 type  1   force =     0.05381497    0.03575950  -30.28550685
     atom   21 type  1   force =    -0.48512915    0.06118291  -31.27728476
     atom   22 type  1   force =     0.24397878   -0.40662448  -31.39151346
     atom   23 type  1   force =    -0.19290906   -0.45246939  -31.27759219
     atom   24 type  1   force =    -0.04963150   -0.03190919  -31.71715162
     atom   25 type  1   force =     0.01034616    0.00579161  -31.76180639
     atom   26 type  1   force =     0.21659720    0.36777552  -31.37375452
     atom   27 type  1   force =    -0.22678768    0.41205813  -31.39840441
     atom   28 type  1   force =     1.66948451    0.97685840 -103.99236593
     atom   29 type  1   force =    -0.05364311    4.92053276  -99.85829730
     atom   30 type  1   force =    -1.62132145    1.18144317 -104.11307766
     atom   31 type  1   force =     4.24914530   -2.49209496  -99.77208176
     atom   32 type  1   force =    -3.61739001   -2.09345256  -98.22722804
     atom   33 type  1   force =    -0.35362893   -0.25331048 -104.35855037
     atom   34 type  1   force =     0.19539030   -2.01445040 -104.10042347
     atom   35 type  1   force =    -0.39779213   -0.18995998 -104.37674417
     atom   36 type  1   force =     0.17629975    0.07906599 -104.61556883
     atom   37 type  2   force =    -1.73173058   -0.85242919  -52.07313700
     atom   38 type  3   force =     2.00221916    1.04154924  -87.79209250
     atom   39 type  4   force =    -1.11286661   -0.60663828  -15.40597144
     The core correction contribution to forces
     atom    1 type  1   force =    -0.00008614   -0.00000987    0.01003594
     atom    2 type  1   force =     0.00037070    0.00021038    0.00920388
     atom    3 type  1   force =    -0.00022744    0.00005877    0.01031129
     atom    4 type  1   force =     0.00003925    0.00011139    0.00992352
     atom    5 type  1   force =    -0.00006311   -0.00022339    0.01031647
     atom    6 type  1   force =     0.00020653    0.00013020    0.00979584
     atom    7 type  1   force =     0.00010247    0.00006167    0.01045488
     atom    8 type  1   force =    -0.00005163   -0.00008041    0.01004015
     atom    9 type  1   force =     0.00011250   -0.00002085    0.00992774
     atom   10 type  1   force =    -0.00023870   -0.00013754   -0.00182907
     atom   11 type  1   force =    -0.00004312   -0.00038878   -0.00188565
     atom   12 type  1   force =     0.00019677   -0.00024093   -0.00184933
     atom   13 type  1   force =    -0.00036335    0.00016868   -0.00188631
     atom   14 type  1   force =     0.00032960    0.00019541   -0.00153013
     atom   15 type  1   force =     0.00008571    0.00006053   -0.00188665
     atom   16 type  1   force =    -0.00011450    0.00028384   -0.00185149
     atom   17 type  1   force =     0.00009632    0.00004479   -0.00188855
     atom   18 type  1   force =     0.00009190    0.00004863   -0.00168452
     atom   19 type  1   force =     0.00011331   -0.00039646    0.00180593
     atom   20 type  1   force =    -0.00083997   -0.00043995    0.00042033
     atom   21 type  1   force =     0.00109197   -0.00069053    0.00029637
     atom   22 type  1   force =     0.00010378    0.00063240    0.00134934
     atom   23 type  1   force =    -0.00006111    0.00131935    0.00026378
     atom   24 type  1   force =     0.00021803    0.00013131    0.00215016
     atom   25 type  1   force =     0.00027308    0.00015493    0.00209212
     atom   26 type  1   force =    -0.00029856    0.00028050    0.00181949
     atom   27 type  1   force =     0.00061370   -0.00024808    0.00133366
     atom   28 type  1   force =     0.00181166    0.00105389   -0.00914211
     atom   29 type  1   force =     0.00091462    0.00937871   -0.00457677
     atom   30 type  1   force =    -0.00303611    0.00407038   -0.00767545
     atom   31 type  1   force =     0.00865237   -0.00395643   -0.00424792
     atom   32 type  1   force =    -0.01215869   -0.00727595    0.00291478
     atom   33 type  1   force =    -0.00481970    0.00069158   -0.00713319
     atom   34 type  1   force =     0.00191122   -0.00462478   -0.00776505
     atom   35 type  1   force =    -0.00172080   -0.00443475   -0.00724620
     atom   36 type  1   force =    -0.00035856   -0.00020641   -0.01083804
     atom   37 type  2   force =    -0.00029782   -0.00006967   -0.00122185
     atom   38 type  3   force =    -0.00541543   -0.00277618    0.01911321
     atom   39 type  4   force =     0.00000000    0.00000000    0.00000000
     The Hubbard contrib.    to forces
     atom    1 type  1   force =     0.00000000    0.00000000    0.00000000
     atom    2 type  1   force =     0.00000000    0.00000000    0.00000000
     atom    3 type  1   force =     0.00000000    0.00000000    0.00000000
     atom    4 type  1   force =     0.00000000    0.00000000    0.00000000
     atom    5 type  1   force =     0.00000000    0.00000000    0.00000000
     atom    6 type  1   force =     0.00000000    0.00000000    0.00000000
     atom    7 type  1   force =     0.00000000    0.00000000    0.00000000
     atom    8 type  1   force =     0.00000000    0.00000000    0.00000000
     atom    9 type  1   force =     0.00000000    0.00000000    0.00000000
     atom   10 type  1   force =     0.00000000    0.00000000    0.00000000
     atom   11 type  1   force =     0.00000000    0.00000000    0.00000000
     atom   12 type  1   force =     0.00000000    0.00000000    0.00000000
     atom   13 type  1   force =     0.00000000    0.00000000    0.00000000
     atom   14 type  1   force =     0.00000000    0.00000000    0.00000000
     atom   15 type  1   force =     0.00000000    0.00000000    0.00000000
     atom   16 type  1   force =     0.00000000    0.00000000    0.00000000
     atom   17 type  1   force =     0.00000000    0.00000000    0.00000000
     atom   18 type  1   force =     0.00000000    0.00000000    0.00000000
     atom   19 type  1   force =     0.00000000    0.00000000    0.00000000
     atom   20 type  1   force =     0.00000000    0.00000000    0.00000000
     atom   21 type  1   force =     0.00000000    0.00000000    0.00000000
     atom   22 type  1   force =     0.00000000    0.00000000    0.00000000
     atom   23 type  1   force =     0.00000000    0.00000000    0.00000000
     atom   24 type  1   force =     0.00000000    0.00000000    0.00000000
     atom   25 type  1   force =     0.00000000    0.00000000    0.00000000
     atom   26 type  1   force =     0.00000000    0.00000000    0.00000000
     atom   27 type  1   force =     0.00000000    0.00000000    0.00000000
     atom   28 type  1   force =     0.00000000    0.00000000    0.00000000
     atom   29 type  1   force =     0.00000000    0.00000000    0.00000000
     atom   30 type  1   force =     0.00000000    0.00000000    0.00000000
     atom   31 type  1   force =     0.00000000    0.00000000    0.00000000
     atom   32 type  1   force =     0.00000000    0.00000000    0.00000000
     atom   33 type  1   force =     0.00000000    0.00000000    0.00000000
     atom   34 type  1   force =     0.00000000    0.00000000    0.00000000
     atom   35 type  1   force =     0.00000000    0.00000000    0.00000000
     atom   36 type  1   force =     0.00000000    0.00000000    0.00000000
     atom   37 type  2   force =     0.00000000    0.00000000    0.00000000
     atom   38 type  3   force =     0.00000000    0.00000000    0.00000000
     atom   39 type  4   force =     0.00000000    0.00000000    0.00000000
     The SCF correction term to forces
     atom    1 type  1   force =     0.00000000    0.00000000    0.00000000
     atom    2 type  1   force =    -0.00000000   -0.00000000    0.00000000
     atom    3 type  1   force =     0.00000000   -0.00000000    0.00000000
     atom    4 type  1   force =    -0.00000000   -0.00000000    0.00000000
     atom    5 type  1   force =     0.00000000    0.00000000    0.00000000
     atom    6 type  1   force =     0.00000000    0.00000000    0.00000000
     atom    7 type  1   force =     0.00000000    0.00000000    0.00000000
     atom    8 type  1   force =     0.00000000    0.00000000    0.00000000
     atom    9 type  1   force =    -0.00000000   -0.00000000    0.00000000
     atom   10 type  1   force =    -0.00000000   -0.00000000    0.00000000
     atom   11 type  1   force =    -0.00000000   -0.00000000   -0.00000000
     atom   12 type  1   force =     0.00000000   -0.00000000    0.00000000
     atom   13 type  1   force =    -0.00000000   -0.00000000   -0.00000000
     atom   14 type  1   force =     0.00000000    0.00000000   -0.00000000
     atom   15 type  1   force =     0.00000000   -0.00000000    0.00000000
     atom   16 type  1   force =     0.00000000    0.00000000    0.00000000
     atom   17 type  1   force =     0.00000000    0.00000000    0.00000000
     atom   18 type  1   force =    -0.00000000   -0.00000000    0.00000000
     atom   19 type  1   force =    -0.00000000   -0.00000000   -0.00000000
     atom   20 type  1   force =    -0.00000000   -0.00000000    0.00000000
     atom   21 type  1   force =     0.00000000   -0.00000000   -0.00000000
     atom   22 type  1   force =    -0.00000000    0.00000000   -0.00000000
     atom   23 type  1   force =     0.00000000    0.00000000   -0.00000000
     atom   24 type  1   force =     0.00000000    0.00000000   -0.00000000
     atom   25 type  1   force =     0.00000000    0.00000000   -0.00000000
     atom   26 type  1   force =    -0.00000000    0.00000000   -0.00000000
     atom   27 type  1   force =    -0.00000000   -0.00000000   -0.00000000
     atom   28 type  1   force =     0.00000000    0.00000000   -0.00000000
     atom   29 type  1   force =    -0.00000000    0.00000000    0.00000000
     atom   30 type  1   force =    -0.00000000   -0.00000000    0.00000000
     atom   31 type  1   force =     0.00000000   -0.00000000    0.00000000
     atom   32 type  1   force =    -0.00000000   -0.00000000    0.00000000
     atom   33 type  1   force =     0.00000000   -0.00000000   -0.00000000
     atom   34 type  1   force =    -0.00000000    0.00000000   -0.00000000
     atom   35 type  1   force =    -0.00000000    0.00000000   -0.00000000
     atom   36 type  1   force =     0.00000000    0.00000000   -0.00000000
     atom   37 type  2   force =    -0.00000285   -0.00000279   -0.00001315
     atom   38 type  3   force =     0.00000121    0.00000015   -0.00001682
     atom   39 type  4   force =    -0.00000083   -0.00000070    0.00000064

     Total force =     0.033442     Total SCF correction =     0.000022

     Writing all to output data dir ./pwscf.save/

     init_run     :     17.94s CPU     19.99s WALL (       1 calls)
     electrons    :    913.26s CPU    930.01s WALL (       1 calls)
     forces       :      3.38s CPU      3.46s WALL (       1 calls)

     Called by init_run:
     wfcinit      :     12.43s CPU     12.77s WALL (       1 calls)
     potinit      :      4.42s CPU      6.09s WALL (       1 calls)
     hinit0       :      0.83s CPU      0.85s WALL (       1 calls)

     Called by electrons:
     c_bands      :    751.06s CPU    765.27s WALL (      50 calls)
     sum_band     :    111.66s CPU    112.97s WALL (      50 calls)
     v_of_rho     :     14.21s CPU     16.30s WALL (      51 calls)
     newd         :      2.74s CPU      2.79s WALL (      51 calls)
     PAW_pot      :     16.50s CPU     16.73s WALL (      51 calls)
     mix_rho      :     20.53s CPU     20.84s WALL (      50 calls)
     vdW_kernel   :      3.15s CPU      3.21s WALL (       1 calls)

     Called by c_bands:
     init_us_2    :      8.80s CPU      8.95s WALL (    2652 calls)
     init_us_2:cp :      8.78s CPU      8.94s WALL (    2652 calls)
     cegterg      :    725.18s CPU    738.12s WALL (    1300 calls)

     Called by *egterg:
     cdiaghg      :    201.54s CPU    204.06s WALL (    4592 calls)
     h_psi        :    338.87s CPU    346.04s WALL (    4618 calls)
     s_psi        :     37.76s CPU     38.67s WALL (    4618 calls)
     g_psi        :      0.94s CPU      1.14s WALL (    3292 calls)

     Called by h_psi:
     h_psi:calbec :     55.88s CPU     56.69s WALL (    4618 calls)
     vloc_psi     :    242.45s CPU    247.49s WALL (    4618 calls)
     add_vuspsi   :     38.12s CPU     39.19s WALL (    4618 calls)

     General routines
     calbec       :     83.96s CPU     85.07s WALL (    6022 calls)
     fft          :     12.03s CPU     13.99s WALL (    4616 calls)
     ffts         :     11.16s CPU     11.33s WALL (   21025 calls)
     fftw         :    292.51s CPU    297.86s WALL ( 1351940 calls)
     interpolate  :      0.42s CPU      0.43s WALL (     102 calls)

     Parallel routines

     PWSCF        :  15m45.61s CPU  16m 9.34s WALL


   This run was terminated on:   9:41: 6  14Dec2025            

=------------------------------------------------------------------------------=
   JOB DONE.
=------------------------------------------------------------------------------=
