  37  37   0   0
  0.4190497E+02  0.8468310E-09  0.8468310E-09  0.2496566E-08  0.5000000E-15
  1.000000000000000E-004
  CAR 
 unknown system                          
      8.83955049     -9.88049481  301     -0.06681789      1.00000000
     -9.880  0.0000E+00  0.0000E+00
     -9.818  0.0000E+00  0.0000E+00
     -9.756  0.0000E+00  0.0000E+00
     -9.693 -0.5983E-28 -0.3733E-29
     -9.631 -0.9516E-24 -0.5939E-25
     -9.568 -0.6899E-20 -0.4306E-21
     -9.506 -0.2277E-16 -0.1421E-17
     -9.444 -0.3306E-13 -0.2065E-14
     -9.381 -0.2228E-10 -0.1392E-11
     -9.319 -0.6749E-08 -0.4225E-09
     -9.256 -0.9113E-06 -0.5729E-07
     -9.194 -0.5395E-04 -0.3424E-05
     -9.132 -0.1353E-02 -0.8785E-04
     -9.069 -0.1314E-01 -0.9078E-03
     -9.007 -0.3339E-01 -0.2991E-02
     -8.944  0.8790E-01  0.2494E-02
     -8.882  0.3704E+00  0.2561E-01
     -8.820  0.7223E+00  0.7068E-01
     -8.757  0.2467E+01  0.2246E+00
     -8.695  0.3791E+01  0.4611E+00
     -8.632  0.1689E+01  0.5665E+00
     -8.570 -0.2109E+00  0.5534E+00
     -8.508  0.5762E+00  0.5893E+00
     -8.445  0.3066E+01  0.7807E+00
     -8.383  0.3729E+01  0.1013E+01
     -8.320  0.3612E+01  0.1239E+01
     -8.258  0.3511E+01  0.1458E+01
     -8.196  0.1256E+01  0.1536E+01
     -8.133 -0.1708E+00  0.1526E+01
     -8.071 -0.3887E+00  0.1501E+01
     -8.008 -0.1186E+00  0.1494E+01
     -7.946  0.3293E+01  0.1699E+01
     -7.884  0.7539E+01  0.2170E+01
     -7.821  0.4747E+01  0.2466E+01
     -7.759  0.5198E+00  0.2498E+01
     -7.696  0.1840E+01  0.2613E+01
     -7.634  0.4089E+01  0.2868E+01
     -7.572  0.2633E+01  0.3033E+01
     -7.509  0.2301E+01  0.3176E+01
     -7.447  0.3447E+01  0.3391E+01
     -7.384  0.1742E+01  0.3500E+01
     -7.322  0.2099E+01  0.3631E+01
     -7.260  0.7502E+01  0.4099E+01
     -7.197  0.1190E+02  0.4842E+01
     -7.135  0.9199E+01  0.5416E+01
     -7.072  0.4931E+01  0.5723E+01
     -7.010  0.4145E+01  0.5982E+01
     -6.948  0.4158E+01  0.6241E+01
     -6.885  0.2227E+01  0.6380E+01
     -6.823  0.5451E+00  0.6414E+01
     -6.760  0.2477E+01  0.6569E+01
     -6.698  0.5465E+01  0.6910E+01
     -6.636  0.1004E+02  0.7537E+01
     -6.573  0.1643E+02  0.8562E+01
     -6.511  0.1620E+02  0.9573E+01
     -6.448  0.1125E+02  0.1027E+02
     -6.386  0.8032E+01  0.1078E+02
     -6.324  0.8711E+01  0.1132E+02
     -6.261  0.1603E+02  0.1232E+02
     -6.199  0.2240E+02  0.1372E+02
     -6.136  0.2798E+02  0.1546E+02
     -6.074  0.3533E+02  0.1767E+02
     -6.012  0.3447E+02  0.1982E+02
     -5.949  0.3226E+02  0.2183E+02
     -5.887  0.3485E+02  0.2401E+02
     -5.824  0.3382E+02  0.2612E+02
     -5.762  0.2497E+02  0.2768E+02
     -5.700  0.2377E+02  0.2916E+02
     -5.637  0.3581E+02  0.3139E+02
     -5.575  0.4531E+02  0.3422E+02
     -5.512  0.4658E+02  0.3713E+02
     -5.450  0.4999E+02  0.4025E+02
     -5.388  0.5988E+02  0.4398E+02
     -5.325  0.6325E+02  0.4793E+02
     -5.263  0.5627E+02  0.5144E+02
     -5.200  0.4958E+02  0.5454E+02
     -5.138  0.4584E+02  0.5740E+02
     -5.076  0.4975E+02  0.6050E+02
     -5.013  0.6947E+02  0.6484E+02
     -4.951  0.6372E+02  0.6881E+02
     -4.888  0.3390E+02  0.7093E+02
     -4.826  0.2810E+02  0.7268E+02
     -4.764  0.4252E+02  0.7533E+02
     -4.701  0.3794E+02  0.7770E+02
     -4.639  0.1972E+02  0.7893E+02
     -4.576  0.2198E+02  0.8030E+02
     -4.514  0.4313E+02  0.8300E+02
     -4.452  0.6104E+02  0.8680E+02
     -4.389  0.6198E+02  0.9067E+02
     -4.327  0.5062E+02  0.9383E+02
     -4.264  0.4443E+02  0.9660E+02
     -4.202  0.4467E+02  0.9939E+02
     -4.140  0.4866E+02  0.1024E+03
     -4.077  0.5860E+02  0.1061E+03
     -4.015  0.5508E+02  0.1095E+03
     -3.952  0.4433E+02  0.1123E+03
     -3.890  0.4212E+02  0.1149E+03
     -3.828  0.3958E+02  0.1174E+03
     -3.765  0.3618E+02  0.1196E+03
     -3.703  0.4566E+02  0.1225E+03
     -3.640  0.6178E+02  0.1263E+03
     -3.578  0.6266E+02  0.1303E+03
     -3.516  0.5710E+02  0.1338E+03
     -3.453  0.6019E+02  0.1376E+03
     -3.391  0.7137E+02  0.1420E+03
     -3.328  0.7780E+02  0.1469E+03
     -3.266  0.7363E+02  0.1515E+03
     -3.204  0.6633E+02  0.1556E+03
     -3.141  0.7501E+02  0.1603E+03
     -3.079  0.8713E+02  0.1657E+03
     -3.016  0.8019E+02  0.1707E+03
     -2.954  0.7618E+02  0.1755E+03
     -2.892  0.7658E+02  0.1803E+03
     -2.829  0.7673E+02  0.1851E+03
     -2.767  0.9213E+02  0.1908E+03
     -2.704  0.1065E+03  0.1975E+03
     -2.642  0.9605E+02  0.2034E+03
     -2.580  0.6994E+02  0.2078E+03
     -2.517  0.6274E+02  0.2117E+03
     -2.455  0.6629E+02  0.2159E+03
     -2.392  0.5543E+02  0.2193E+03
     -2.330  0.3714E+02  0.2216E+03
     -2.268  0.2907E+02  0.2235E+03
     -2.205  0.3019E+02  0.2253E+03
     -2.143  0.3555E+02  0.2276E+03
     -2.080  0.5252E+02  0.2308E+03
     -2.018  0.7630E+02  0.2356E+03
     -1.956  0.9118E+02  0.2413E+03
     -1.893  0.8640E+02  0.2467E+03
     -1.831  0.6843E+02  0.2509E+03
     -1.768  0.5120E+02  0.2541E+03
     -1.706  0.4434E+02  0.2569E+03
     -1.644  0.4286E+02  0.2596E+03
     -1.581  0.4744E+02  0.2625E+03
     -1.519  0.5949E+02  0.2663E+03
     -1.456  0.6391E+02  0.2702E+03
     -1.394  0.5952E+02  0.2740E+03
     -1.332  0.5740E+02  0.2775E+03
     -1.269  0.5236E+02  0.2808E+03
     -1.207  0.5120E+02  0.2840E+03
     -1.144  0.6558E+02  0.2881E+03
     -1.082  0.8031E+02  0.2931E+03
     -1.020  0.8536E+02  0.2984E+03
     -0.957  0.7737E+02  0.3033E+03
     -0.895  0.6041E+02  0.3070E+03
     -0.832  0.5529E+02  0.3105E+03
     -0.770  0.5168E+02  0.3137E+03
     -0.708  0.4350E+02  0.3164E+03
     -0.645  0.4874E+02  0.3195E+03
     -0.583  0.6385E+02  0.3234E+03
     -0.520  0.6336E+02  0.3274E+03
     -0.458  0.5867E+02  0.3311E+03
     -0.396  0.6447E+02  0.3351E+03
     -0.333  0.7977E+02  0.3401E+03
     -0.271  0.9323E+02  0.3459E+03
     -0.208  0.7789E+02  0.3507E+03
     -0.146  0.5869E+02  0.3544E+03
     -0.084  0.7947E+02  0.3594E+03
     -0.021  0.9527E+02  0.3653E+03
      0.041  0.6127E+02  0.3691E+03
      0.104  0.3588E+02  0.3714E+03
      0.166  0.5130E+02  0.3746E+03
      0.228  0.5451E+02  0.3780E+03
      0.291  0.4193E+02  0.3806E+03
      0.353  0.3768E+02  0.3829E+03
      0.416  0.2753E+02  0.3847E+03
      0.478  0.1459E+02  0.3856E+03
      0.540  0.6807E+01  0.3860E+03
      0.603  0.4383E+01  0.3863E+03
      0.665  0.5587E+01  0.3866E+03
      0.728  0.9426E+01  0.3872E+03
      0.790  0.1264E+02  0.3880E+03
      0.852  0.1058E+02  0.3886E+03
      0.915  0.8790E+01  0.3892E+03
      0.977  0.1211E+02  0.3900E+03
      1.040  0.1066E+02  0.3906E+03
      1.102  0.5379E+01  0.3910E+03
      1.164  0.5494E+01  0.3913E+03
      1.227  0.9968E+01  0.3919E+03
      1.289  0.1156E+02  0.3926E+03
      1.352  0.1129E+02  0.3933E+03
      1.414  0.8716E+01  0.3939E+03
      1.476  0.1279E+02  0.3947E+03
      1.539  0.2598E+02  0.3963E+03
      1.601  0.2684E+02  0.3980E+03
      1.664  0.1959E+02  0.3992E+03
      1.726  0.1525E+02  0.4002E+03
      1.788  0.8622E+01  0.4007E+03
      1.851  0.3631E+01  0.4009E+03
      1.913  0.5065E+01  0.4012E+03
      1.976  0.6658E+01  0.4016E+03
      2.038  0.5579E+01  0.4020E+03
      2.100  0.3267E+01  0.4022E+03
      2.163  0.4399E+01  0.4025E+03
      2.225  0.9174E+01  0.4030E+03
      2.288  0.1218E+02  0.4038E+03
      2.350  0.1168E+02  0.4045E+03
      2.412  0.1506E+02  0.4055E+03
      2.475  0.2273E+02  0.4069E+03
      2.537  0.1825E+02  0.4080E+03
      2.600  0.8113E+01  0.4085E+03
      2.662  0.6438E+01  0.4089E+03
      2.724  0.1061E+02  0.4096E+03
      2.787  0.1573E+02  0.4106E+03
      2.849  0.1578E+02  0.4116E+03
      2.912  0.1298E+02  0.4124E+03
      2.974  0.1108E+02  0.4131E+03
      3.036  0.1001E+02  0.4137E+03
      3.099  0.1419E+02  0.4146E+03
      3.161  0.1436E+02  0.4155E+03
      3.224  0.9722E+01  0.4161E+03
      3.286  0.9519E+01  0.4167E+03
      3.348  0.9293E+01  0.4173E+03
      3.411  0.6210E+01  0.4176E+03
      3.473  0.6417E+01  0.4180E+03
      3.536  0.6963E+01  0.4185E+03
      3.598  0.8177E+01  0.4190E+03
      3.660  0.1580E+02  0.4200E+03
      3.723  0.2123E+02  0.4213E+03
      3.785  0.1720E+02  0.4224E+03
      3.848  0.8748E+01  0.4229E+03
      3.910  0.5255E+01  0.4232E+03
      3.972  0.8063E+01  0.4238E+03
      4.035  0.1065E+02  0.4244E+03
      4.097  0.9081E+01  0.4250E+03
      4.160  0.3491E+01  0.4252E+03
      4.222  0.6139E+00  0.4252E+03
      4.284  0.3172E+01  0.4254E+03
      4.347  0.1044E+02  0.4261E+03
      4.409  0.2323E+02  0.4275E+03
      4.472  0.2724E+02  0.4292E+03
      4.534  0.1530E+02  0.4302E+03
      4.596  0.7070E+01  0.4306E+03
      4.659  0.7934E+01  0.4311E+03
      4.721  0.1007E+02  0.4318E+03
      4.784  0.1094E+02  0.4324E+03
      4.846  0.8994E+01  0.4330E+03
      4.908  0.8232E+01  0.4335E+03
      4.971  0.1280E+02  0.4343E+03
      5.033  0.1372E+02  0.4352E+03
      5.096  0.1033E+02  0.4358E+03
      5.158  0.1135E+02  0.4365E+03
      5.220  0.1101E+02  0.4372E+03
      5.283  0.1094E+02  0.4379E+03
      5.345  0.9887E+01  0.4385E+03
      5.408  0.6165E+01  0.4389E+03
      5.470  0.1084E+02  0.4396E+03
      5.532  0.2050E+02  0.4408E+03
      5.595  0.2208E+02  0.4422E+03
      5.657  0.2062E+02  0.4435E+03
      5.720  0.2413E+02  0.4450E+03
      5.782  0.2369E+02  0.4465E+03
      5.844  0.1653E+02  0.4475E+03
      5.907  0.1611E+02  0.4485E+03
      5.969  0.2389E+02  0.4500E+03
      6.032  0.3046E+02  0.4519E+03
      6.094  0.2759E+02  0.4536E+03
      6.156  0.1756E+02  0.4547E+03
      6.219  0.1564E+02  0.4557E+03
      6.281  0.1939E+02  0.4569E+03
      6.344  0.2676E+02  0.4586E+03
      6.406  0.2788E+02  0.4603E+03
      6.468  0.1623E+02  0.4614E+03
      6.531  0.1374E+02  0.4622E+03
      6.593  0.2524E+02  0.4638E+03
      6.656  0.3007E+02  0.4657E+03
      6.718  0.2802E+02  0.4674E+03
      6.780  0.2292E+02  0.4688E+03
      6.843  0.1864E+02  0.4700E+03
      6.905  0.2193E+02  0.4714E+03
      6.968  0.1686E+02  0.4724E+03
      7.030  0.9412E+01  0.4730E+03
      7.092  0.1513E+02  0.4740E+03
      7.155  0.2194E+02  0.4753E+03
      7.217  0.2219E+02  0.4767E+03
      7.280  0.1782E+02  0.4778E+03
      7.342  0.9126E+01  0.4784E+03
      7.404  0.1759E+01  0.4785E+03
      7.467  0.1549E+01  0.4786E+03
      7.529  0.6467E+01  0.4790E+03
      7.592  0.8645E+01  0.4795E+03
      7.654  0.5349E+01  0.4799E+03
      7.716  0.1134E+01  0.4799E+03
      7.779 -0.1135E+00  0.4799E+03
      7.841  0.4181E+00  0.4800E+03
      7.904  0.5240E+00  0.4800E+03
      7.966  0.1247E+00  0.4800E+03
      8.028 -0.3072E-01  0.4800E+03
      8.091 -0.1306E-01  0.4800E+03
      8.153 -0.1352E-02  0.4800E+03
      8.216 -0.5394E-04  0.4800E+03
      8.278 -0.9113E-06  0.4800E+03
      8.340 -0.6749E-08  0.4800E+03
      8.403 -0.2228E-10  0.4800E+03
      8.465 -0.3302E-13  0.4800E+03
      8.528  0.0000E+00  0.4800E+03
      8.590  0.0000E+00  0.4800E+03
      8.652  0.0000E+00  0.4800E+03
      8.715  0.0000E+00  0.4800E+03
      8.777  0.0000E+00  0.4800E+03
      8.840  0.0000E+00  0.4800E+03
