   37   37    1    1
  0.4190497E+02  0.8468310E-09  0.8468310E-09  0.2496566E-08  0.5000000E-15
  1.000000000000000E-004
  CAR 
 unknown system                          
    361     13    240
 
  0.1276756E-14  0.1276756E-14  0.1276756E-14  0.4000000E-01
      1         -8.880495   1.000000
      2         -7.623824   1.000000
      3         -6.584877   1.000000
      4         -6.482033   1.000000
      5         -6.472571   1.000000
      6         -6.457608   1.000000
      7         -6.453543   1.000000
      8         -6.446579   1.000000
      9         -6.431890   1.000000
     10         -6.427011   1.000000
     11         -6.027378   1.000000
     12         -5.912112   1.000000
     13         -5.906916   1.000000
     14         -5.905601   1.000000
     15         -5.894620   1.000000
     16         -5.892493   1.000000
     17         -5.658418   1.000000
     18         -5.450888   1.000000
     19         -5.448745   1.000000
     20         -5.444335   1.000000
     21         -5.440951   1.000000
     22         -5.438198   1.000000
     23         -5.364288   1.000000
     24         -5.227806   1.000000
     25         -5.219124   1.000000
     26         -5.215794   1.000000
     27         -5.212049   1.000000
     28         -5.208148   1.000000
     29         -5.062999   1.000000
     30         -5.020866   1.000000
     31         -5.017018   1.000000
     32         -5.010382   1.000000
     33         -5.006048   1.000000
     34         -5.001808   1.000000
     35         -4.973227   1.000000
     36         -4.964863   1.000000
     37         -4.956604   1.000000
     38         -4.950331   1.000000
     39         -4.946227   1.000000
     40         -4.903708   1.000000
     41         -4.802987   1.000000
     42         -4.375794   1.000000
     43         -4.369944   1.000000
     44         -4.345178   1.000000
     45         -4.337590   1.000000
     46         -4.318362   1.000000
     47         -4.314427   1.000000
     48         -4.302253   1.000000
     49         -4.292407   1.000000
     50         -4.287339   1.000000
     51         -4.228391   1.000000
     52         -4.132406   1.000000
     53         -4.113563   1.000000
     54         -4.045971   1.000000
     55         -3.957758   1.000000
     56         -3.595786   1.000000
     57         -3.566314   1.000000
     58         -3.562676   1.000000
     59         -3.559526   1.000000
     60         -3.550355   1.000000
     61         -3.529544   1.000000
     62         -3.485463   1.000000
     63         -3.385078   1.000000
     64         -3.369934   1.000000
     65         -3.367595   1.000000
     66         -3.366837   1.000000
     67         -3.359498   1.000000
     68         -3.352959   1.000000
     69         -3.335306   1.000000
     70         -3.318255   1.000000
     71         -3.314956   1.000000
     72         -3.297655   1.000000
     73         -3.289298   1.000000
     74         -3.284715   1.000000
     75         -3.260536   1.000000
     76         -3.258034   1.000000
     77         -3.233552   1.000000
     78         -3.156053   1.000000
     79         -3.147114   1.000000
     80         -3.138908   1.000000
     81         -3.136129   1.000000
     82         -3.125939   1.000000
     83         -3.022829   1.000000
     84         -2.936498   1.000000
     85         -2.927438   1.000000
     86         -2.915238   1.000000
     87         -2.909599   1.000000
     88         -2.902526   1.000000
     89         -2.895690   1.000000
     90         -2.888869   1.000000
     91         -2.880244   1.000000
     92         -2.830561   1.000000
     93         -2.817528   1.000000
     94         -2.773839   1.000000
     95         -2.764511   1.000000
     96         -2.729971   1.000000
     97         -2.729591   1.000000
     98         -2.684572   1.000000
     99         -2.682336   1.000000
    100         -2.677748   1.000000
    101         -2.651085   1.000000
    102         -2.531252   1.000000
    103         -2.524663   1.000000
    104         -2.518280   1.000000
    105         -2.501851   1.000000
    106         -2.489390   1.000000
    107         -2.480591   1.000000
    108         -2.193765   1.000000
    109         -2.026190   1.000000
    110         -2.013497   1.000000
    111         -1.993008   1.000000
    112         -1.992235   1.000000
    113         -1.988057   1.000000
    114         -1.983995   1.000000
    115         -1.979893   1.000000
    116         -1.952007   1.000000
    117         -1.947061   1.000000
    118         -1.941101   1.000000
    119         -1.937060   1.000000
    120         -1.887557   1.000000
    121         -1.853561   1.000000
    122         -1.845481   1.000000
    123         -1.734977   1.000000
    124         -1.708221   1.000000
    125         -1.704839   1.000000
    126         -1.695005   1.000000
    127         -1.693959   1.000000
    128         -1.607612   1.000000
    129         -1.581862   1.000000
    130         -1.535172   1.000000
    131         -1.528351   1.000000
    132         -1.523165   1.000000
    133         -1.481634   1.000000
    134         -1.469002   1.000000
    135         -1.287905   1.000000
    136         -1.277583   1.000000
    137         -1.260189   1.000000
    138         -1.256402   1.000000
    139         -1.248066   1.000000
    140         -1.235377   1.000000
    141         -1.182297   1.000000
    142         -1.172675   1.000000
    143         -1.025888   1.000000
    144         -1.021259   1.000000
    145         -1.014593   1.000000
    146         -1.008345   1.000000
    147         -1.003033   1.000000
    148         -0.947041   1.000000
    149         -0.857047   1.000000
    150         -0.846290   1.000000
    151         -0.838165   1.000000
    152         -0.828077   1.000000
    153         -0.825638   1.000000
    154         -0.805502   1.000000
    155         -0.804577   1.000000
    156         -0.795601   1.000000
    157         -0.791563   1.000000
    158         -0.788860   1.000000
    159         -0.788260   1.000000
    160         -0.706925   1.000000
    161         -0.694135   1.000000
    162         -0.682311   1.000000
    163         -0.664745   1.000000
    164         -0.660338   1.000000
    165         -0.656502   1.000000
    166         -0.634861   1.000000
    167         -0.623900   1.000000
    168         -0.586587   1.000000
    169         -0.584050   1.000000
    170         -0.553540   1.000000
    171         -0.549885   1.000000
    172         -0.546470   1.000000
    173         -0.542268   1.000000
    174         -0.537003   1.000000
    175         -0.533395   1.000000
    176         -0.451396   1.000000
    177         -0.442216   1.000001
    178         -0.440593   1.000001
    179         -0.434220   1.000001
    180         -0.428461   1.000002
    181         -0.426547   1.000002
    182         -0.411190   1.000006
    183         -0.348966   1.000245
    184         -0.323448   1.000857
    185         -0.316088   1.001196
    186         -0.310800   1.001509
    187         -0.301559   1.002228
    188         -0.292993   1.003140
    189         -0.119587   0.884926
    190         -0.085733   0.656940
    191         -0.018205   0.137614
    192         -0.008432   0.087358
    193          0.012227   0.012437
    194          0.016174   0.002690
    195          0.018879  -0.003221
    196          0.023378  -0.011734
    197          0.365967  -0.000000
    198          0.815985  -0.000000
    199          0.885045  -0.000000
    200          0.894427  -0.000000
    201          0.908024  -0.000000
    202          0.911108  -0.000000
    203          0.915012  -0.000000
    204          2.484877  -0.000000
    205          3.175909   0.000000
    206          3.182170   0.000000
    207          3.207847   0.000000
    208          3.224991   0.000000
    209          3.238897   0.000000
    210          4.397328   0.000000
    211          4.767161   0.000000
    212          4.778070   0.000000
    213          4.814227   0.000000
    214          4.817186   0.000000
    215          4.840946   0.000000
    216          4.842622   0.000000
    217          4.966780   0.000000
    218          5.108707   0.000000
    219          5.503001   0.000000
    220          5.530444   0.000000
    221          5.816432   0.000000
    222          5.822351   0.000000
    223          5.839130   0.000000
    224          5.861914   0.000000
    225          5.884141   0.000000
    226          6.088925   0.000000
    227          6.504413   0.000000
    228          6.626215   0.000000
    229          6.634506   0.000000
    230          6.640068   0.000000
    231          6.733511   0.000000
    232          6.859631   0.000000
    233          7.113119   0.000000
    234          7.126280   0.000000
    235          7.148372   0.000000
    236          7.167204   0.000000
    237          7.168959   0.000000
    238          7.177242   0.000000
    239          7.313498   0.000000
    240          7.839550   0.000000
 
  0.2000000E+00  0.1278043E-14  0.1276756E-14  0.8000000E-01
      1         -8.732079   1.000000
      2         -7.478941   1.000000
      3         -6.960010   1.000000
      4         -6.586801   1.000000
      5         -6.554473   1.000000
      6         -6.423621   1.000000
      7         -6.338316   1.000000
      8         -6.268624   1.000000
      9         -6.226133   1.000000
     10         -6.212960   1.000000
     11         -6.075282   1.000000
     12         -6.000402   1.000000
     13         -5.921212   1.000000
     14         -5.834970   1.000000
     15         -5.830012   1.000000
     16         -5.820897   1.000000
     17         -5.590163   1.000000
     18         -5.536736   1.000000
     19         -5.410397   1.000000
     20         -5.407805   1.000000
     21         -5.400562   1.000000
     22         -5.375936   1.000000
     23         -5.324695   1.000000
     24         -5.307395   1.000000
     25         -5.266239   1.000000
     26         -5.231078   1.000000
     27         -5.207008   1.000000
     28         -5.202436   1.000000
     29         -5.150742   1.000000
     30         -5.114949   1.000000
     31         -5.089690   1.000000
     32         -5.019413   1.000000
     33         -5.008336   1.000000
     34         -5.001340   1.000000
     35         -5.000614   1.000000
     36         -4.849261   1.000000
     37         -4.800525   1.000000
     38         -4.796805   1.000000
     39         -4.766073   1.000000
     40         -4.760237   1.000000
     41         -4.736374   1.000000
     42         -4.497531   1.000000
     43         -4.492099   1.000000
     44         -4.467200   1.000000
     45         -4.414800   1.000000
     46         -4.399881   1.000000
     47         -4.389196   1.000000
     48         -4.329876   1.000000
     49         -4.209373   1.000000
     50         -4.194942   1.000000
     51         -4.115099   1.000000
     52         -4.095164   1.000000
     53         -4.085900   1.000000
     54         -4.051176   1.000000
     55         -3.992581   1.000000
     56         -3.833244   1.000000
     57         -3.736245   1.000000
     58         -3.731371   1.000000
     59         -3.683237   1.000000
     60         -3.673328   1.000000
     61         -3.619012   1.000000
     62         -3.576228   1.000000
     63         -3.551433   1.000000
     64         -3.547945   1.000000
     65         -3.520354   1.000000
     66         -3.511954   1.000000
     67         -3.496534   1.000000
     68         -3.442580   1.000000
     69         -3.397085   1.000000
     70         -3.368667   1.000000
     71         -3.359986   1.000000
     72         -3.325670   1.000000
     73         -3.261099   1.000000
     74         -3.243934   1.000000
     75         -3.238084   1.000000
     76         -3.182140   1.000000
     77         -3.168566   1.000000
     78         -3.144823   1.000000
     79         -3.108606   1.000000
     80         -3.097441   1.000000
     81         -3.086697   1.000000
     82         -3.063341   1.000000
     83         -3.015533   1.000000
     84         -2.986418   1.000000
     85         -2.959014   1.000000
     86         -2.954991   1.000000
     87         -2.932581   1.000000
     88         -2.928887   1.000000
     89         -2.915411   1.000000
     90         -2.896263   1.000000
     91         -2.850526   1.000000
     92         -2.810537   1.000000
     93         -2.806138   1.000000
     94         -2.774364   1.000000
     95         -2.764661   1.000000
     96         -2.751477   1.000000
     97         -2.733417   1.000000
     98         -2.712793   1.000000
     99         -2.703699   1.000000
    100         -2.679635   1.000000
    101         -2.590475   1.000000
    102         -2.537020   1.000000
    103         -2.534001   1.000000
    104         -2.508567   1.000000
    105         -2.498844   1.000000
    106         -2.493815   1.000000
    107         -2.483777   1.000000
    108         -2.480217   1.000000
    109         -2.434105   1.000000
    110         -2.422131   1.000000
    111         -2.406941   1.000000
    112         -2.402643   1.000000
    113         -2.299768   1.000000
    114         -2.087154   1.000000
    115         -2.081709   1.000000
    116         -2.030792   1.000000
    117         -1.990314   1.000000
    118         -1.981783   1.000000
    119         -1.967478   1.000000
    120         -1.962231   1.000000
    121         -1.931816   1.000000
    122         -1.887559   1.000000
    123         -1.783850   1.000000
    124         -1.776740   1.000000
    125         -1.774818   1.000000
    126         -1.664520   1.000000
    127         -1.640075   1.000000
    128         -1.615356   1.000000
    129         -1.575500   1.000000
    130         -1.553900   1.000000
    131         -1.531143   1.000000
    132         -1.521851   1.000000
    133         -1.502270   1.000000
    134         -1.450164   1.000000
    135         -1.428377   1.000000
    136         -1.392845   1.000000
    137         -1.383349   1.000000
    138         -1.369287   1.000000
    139         -1.363163   1.000000
    140         -1.192602   1.000000
    141         -1.177697   1.000000
    142         -1.157327   1.000000
    143         -1.138751   1.000000
    144         -1.129967   1.000000
    145         -1.109268   1.000000
    146         -1.079950   1.000000
    147         -1.022790   1.000000
    148         -1.001358   1.000000
    149         -0.993733   1.000000
    150         -0.974439   1.000000
    151         -0.959374   1.000000
    152         -0.906357   1.000000
    153         -0.900767   1.000000
    154         -0.885671   1.000000
    155         -0.855563   1.000000
    156         -0.775945   1.000000
    157         -0.768605   1.000000
    158         -0.747809   1.000000
    159         -0.705282   1.000000
    160         -0.640696   1.000000
    161         -0.623523   1.000000
    162         -0.622657   1.000000
    163         -0.596409   1.000000
    164         -0.577674   1.000000
    165         -0.555025   1.000000
    166         -0.534369   1.000000
    167         -0.478536   1.000000
    168         -0.458114   1.000000
    169         -0.431768   1.000002
    170         -0.390823   1.000023
    171         -0.385374   1.000032
    172         -0.376818   1.000053
    173         -0.343629   1.000322
    174         -0.340428   1.000378
    175         -0.333252   1.000539
    176         -0.330285   1.000621
    177         -0.326004   1.000761
    178         -0.262827   1.009076
    179         -0.250392   1.013096
    180         -0.123320   0.903700
    181         -0.110451   0.833150
    182         -0.088905   0.681954
    183         -0.083603   0.639855
    184         -0.075757   0.575314
    185         -0.062391   0.462578
    186         -0.032383   0.226859
    187         -0.024435   0.174554
    188         -0.004613   0.070335
    189          0.011193   0.015218
    190          0.077758  -0.029987
    191          0.119252  -0.012210
    192          0.143282  -0.005691
    193          0.166343  -0.002377
    194          0.292892  -0.000002
    195          0.307547  -0.000001
    196          0.318082  -0.000000
    197          0.369556  -0.000000
    198          0.642611  -0.000000
    199          0.760463  -0.000000
    200          1.198635  -0.000000
    201          1.489196  -0.000000
    202          1.494004  -0.000000
    203          1.617208  -0.000000
    204          2.298058  -0.000000
    205          2.722890   0.000000
    206          2.918118   0.000000
    207          3.441554   0.000000
    208          3.663000   0.000000
    209          3.664119   0.000000
    210          3.762841   0.000000
    211          3.981437   0.000000
    212          4.360309   0.000000
    213          4.627649   0.000000
    214          4.674898   0.000000
    215          4.954597   0.000000
    216          4.983855   0.000000
    217          5.006619   0.000000
    218          5.122923   0.000000
    219          5.229533   0.000000
    220          5.470006   0.000000
    221          5.641783   0.000000
    222          5.746447   0.000000
    223          5.818865   0.000000
    224          5.914261   0.000000
    225          6.066059   0.000000
    226          6.192248   0.000000
    227          6.231197   0.000000
    228          6.317079   0.000000
    229          6.344930   0.000000
    230          6.655792   0.000000
    231          6.714121   0.000000
    232          6.715460   0.000000
    233          6.784550   0.000000
    234          6.844756   0.000000
    235          6.905982   0.000000
    236          7.050480   0.000000
    237          7.220273   0.000000
    238          7.503749   0.000000
    239          7.549159   0.000000
    240          7.621643   0.000000
 
  0.2000000E+00  0.2000000E+00  0.1276756E-14  0.8000000E-01
      1         -8.732392   1.000000
      2         -7.479736   1.000000
      3         -6.968369   1.000000
      4         -6.579660   1.000000
      5         -6.553085   1.000000
      6         -6.423552   1.000000
      7         -6.339502   1.000000
      8         -6.273173   1.000000
      9         -6.228616   1.000000
     10         -6.208077   1.000000
     11         -6.082484   1.000000
     12         -5.997702   1.000000
     13         -5.903554   1.000000
     14         -5.840419   1.000000
     15         -5.834204   1.000000
     16         -5.821258   1.000000
     17         -5.621621   1.000000
     18         -5.505771   1.000000
     19         -5.413192   1.000000
     20         -5.405229   1.000000
     21         -5.400886   1.000000
     22         -5.360911   1.000000
     23         -5.320461   1.000000
     24         -5.303177   1.000000
     25         -5.264915   1.000000
     26         -5.231446   1.000000
     27         -5.223663   1.000000
     28         -5.203273   1.000000
     29         -5.164186   1.000000
     30         -5.111134   1.000000
     31         -5.086207   1.000000
     32         -5.029958   1.000000
     33         -5.010953   1.000000
     34         -5.000593   1.000000
     35         -4.992243   1.000000
     36         -4.878710   1.000000
     37         -4.802252   1.000000
     38         -4.786066   1.000000
     39         -4.773095   1.000000
     40         -4.755140   1.000000
     41         -4.717410   1.000000
     42         -4.494618   1.000000
     43         -4.481289   1.000000
     44         -4.451785   1.000000
     45         -4.415910   1.000000
     46         -4.400483   1.000000
     47         -4.384136   1.000000
     48         -4.323894   1.000000
     49         -4.206644   1.000000
     50         -4.185150   1.000000
     51         -4.128026   1.000000
     52         -4.107788   1.000000
     53         -4.082248   1.000000
     54         -4.050199   1.000000
     55         -4.001774   1.000000
     56         -3.811348   1.000000
     57         -3.736205   1.000000
     58         -3.722921   1.000000
     59         -3.664382   1.000000
     60         -3.646333   1.000000
     61         -3.634392   1.000000
     62         -3.580588   1.000000
     63         -3.567612   1.000000
     64         -3.535657   1.000000
     65         -3.525254   1.000000
     66         -3.520113   1.000000
     67         -3.487795   1.000000
     68         -3.443402   1.000000
     69         -3.409373   1.000000
     70         -3.374973   1.000000
     71         -3.356002   1.000000
     72         -3.338536   1.000000
     73         -3.290536   1.000000
     74         -3.263954   1.000000
     75         -3.256883   1.000000
     76         -3.179826   1.000000
     77         -3.167277   1.000000
     78         -3.150475   1.000000
     79         -3.115725   1.000000
     80         -3.081518   1.000000
     81         -3.057432   1.000000
     82         -3.043491   1.000000
     83         -3.036671   1.000000
     84         -2.985323   1.000000
     85         -2.959744   1.000000
     86         -2.952838   1.000000
     87         -2.932198   1.000000
     88         -2.926554   1.000000
     89         -2.906596   1.000000
     90         -2.887725   1.000000
     91         -2.855870   1.000000
     92         -2.814912   1.000000
     93         -2.800091   1.000000
     94         -2.778248   1.000000
     95         -2.766078   1.000000
     96         -2.751169   1.000000
     97         -2.726592   1.000000
     98         -2.710148   1.000000
     99         -2.701221   1.000000
    100         -2.683934   1.000000
    101         -2.590591   1.000000
    102         -2.547680   1.000000
    103         -2.529689   1.000000
    104         -2.515098   1.000000
    105         -2.509470   1.000000
    106         -2.499460   1.000000
    107         -2.488274   1.000000
    108         -2.473574   1.000000
    109         -2.432804   1.000000
    110         -2.420215   1.000000
    111         -2.415157   1.000000
    112         -2.402191   1.000000
    113         -2.199537   1.000000
    114         -2.136254   1.000000
    115         -2.061449   1.000000
    116         -2.029488   1.000000
    117         -2.001446   1.000000
    118         -1.988899   1.000000
    119         -1.971092   1.000000
    120         -1.952335   1.000000
    121         -1.937193   1.000000
    122         -1.909977   1.000000
    123         -1.812414   1.000000
    124         -1.786385   1.000000
    125         -1.764547   1.000000
    126         -1.674773   1.000000
    127         -1.645335   1.000000
    128         -1.602188   1.000000
    129         -1.590990   1.000000
    130         -1.560469   1.000000
    131         -1.534010   1.000000
    132         -1.525806   1.000000
    133         -1.512987   1.000000
    134         -1.471853   1.000000
    135         -1.425562   1.000000
    136         -1.389443   1.000000
    137         -1.380775   1.000000
    138         -1.373576   1.000000
    139         -1.359508   1.000000
    140         -1.195457   1.000000
    141         -1.174700   1.000000
    142         -1.170997   1.000000
    143         -1.140770   1.000000
    144         -1.126037   1.000000
    145         -1.106884   1.000000
    146         -1.071352   1.000000
    147         -1.024819   1.000000
    148         -0.997431   1.000000
    149         -0.980917   1.000000
    150         -0.973607   1.000000
    151         -0.935352   1.000000
    152         -0.907541   1.000000
    153         -0.895400   1.000000
    154         -0.891000   1.000000
    155         -0.850122   1.000000
    156         -0.776984   1.000000
    157         -0.767304   1.000000
    158         -0.741376   1.000000
    159         -0.701559   1.000000
    160         -0.657250   1.000000
    161         -0.622101   1.000000
    162         -0.619318   1.000000
    163         -0.612703   1.000000
    164         -0.582845   1.000000
    165         -0.571877   1.000000
    166         -0.534031   1.000000
    167         -0.479829   1.000000
    168         -0.457541   1.000000
    169         -0.443963   1.000001
    170         -0.391984   1.000021
    171         -0.384144   1.000034
    172         -0.375850   1.000056
    173         -0.343189   1.000329
    174         -0.339265   1.000401
    175         -0.334910   1.000497
    176         -0.332339   1.000563
    177         -0.320558   1.000978
    178         -0.272757   1.006568
    179         -0.262991   1.009029
    180         -0.137686   0.962868
    181         -0.116917   0.870643
    182         -0.086885   0.666086
    183         -0.073447   0.555965
    184         -0.062489   0.463403
    185         -0.049137   0.352933
    186         -0.019299   0.143835
    187         -0.001640   0.058100
    188          0.009647   0.019558
    189          0.024107  -0.012967
    190          0.092165  -0.023536
    191          0.118591  -0.012440
    192          0.137409  -0.006957
    193          0.152853  -0.004025
    194          0.302019  -0.000001
    195          0.310423  -0.000001
    196          0.319699  -0.000000
    197          0.358080  -0.000000
    198          0.672431  -0.000000
    199          0.776092  -0.000000
    200          1.189428  -0.000000
    201          1.479195  -0.000000
    202          1.489268  -0.000000
    203          1.616044  -0.000000
    204          2.277022  -0.000000
    205          2.738969   0.000000
    206          2.932242   0.000000
    207          3.448591   0.000000
    208          3.658299   0.000000
    209          3.663624   0.000000
    210          3.764539   0.000000
    211          3.960412   0.000000
    212          4.355061   0.000000
    213          4.619764   0.000000
    214          4.670174   0.000000
    215          4.950357   0.000000
    216          4.990508   0.000000
    217          5.010733   0.000000
    218          5.130758   0.000000
    219          5.229467   0.000000
    220          5.488405   0.000000
    221          5.646313   0.000000
    222          5.726440   0.000000
    223          5.880544   0.000000
    224          5.920132   0.000000
    225          6.031397   0.000000
    226          6.177918   0.000000
    227          6.211699   0.000000
    228          6.322915   0.000000
    229          6.369939   0.000000
    230          6.587285   0.000000
    231          6.722118   0.000000
    232          6.727027   0.000000
    233          6.776732   0.000000
    234          6.861169   0.000000
    235          6.907355   0.000000
    236          7.046922   0.000000
    237          7.224355   0.000000
    238          7.497079   0.000000
    239          7.548892   0.000000
    240          7.599381   0.000000
 
  0.1276756E-14  0.2000000E+00  0.1276756E-14  0.8000000E-01
      1         -8.732325   1.000000
      2         -7.479784   1.000000
      3         -6.965617   1.000000
      4         -6.580677   1.000000
      5         -6.555218   1.000000
      6         -6.423819   1.000000
      7         -6.339202   1.000000
      8         -6.268707   1.000000
      9         -6.230881   1.000000
     10         -6.210908   1.000000
     11         -6.085709   1.000000
     12         -5.997324   1.000000
     13         -5.897020   1.000000
     14         -5.840360   1.000000
     15         -5.835746   1.000000
     16         -5.819848   1.000000
     17         -5.621736   1.000000
     18         -5.508768   1.000000
     19         -5.412924   1.000000
     20         -5.404428   1.000000
     21         -5.397583   1.000000
     22         -5.360631   1.000000
     23         -5.321967   1.000000
     24         -5.303342   1.000000
     25         -5.265311   1.000000
     26         -5.232008   1.000000
     27         -5.225154   1.000000
     28         -5.200956   1.000000
     29         -5.164355   1.000000
     30         -5.113621   1.000000
     31         -5.085527   1.000000
     32         -5.025740   1.000000
     33         -5.010079   1.000000
     34         -5.000673   1.000000
     35         -4.993047   1.000000
     36         -4.875214   1.000000
     37         -4.803163   1.000000
     38         -4.787606   1.000000
     39         -4.775132   1.000000
     40         -4.755275   1.000000
     41         -4.720811   1.000000
     42         -4.496880   1.000000
     43         -4.484486   1.000000
     44         -4.452222   1.000000
     45         -4.415987   1.000000
     46         -4.397796   1.000000
     47         -4.382330   1.000000
     48         -4.323947   1.000000
     49         -4.208154   1.000000
     50         -4.186179   1.000000
     51         -4.131658   1.000000
     52         -4.105378   1.000000
     53         -4.080967   1.000000
     54         -4.049038   1.000000
     55         -4.001516   1.000000
     56         -3.816576   1.000000
     57         -3.736116   1.000000
     58         -3.722014   1.000000
     59         -3.668966   1.000000
     60         -3.652592   1.000000
     61         -3.637942   1.000000
     62         -3.577263   1.000000
     63         -3.564016   1.000000
     64         -3.533928   1.000000
     65         -3.524771   1.000000
     66         -3.519593   1.000000
     67         -3.488407   1.000000
     68         -3.443242   1.000000
     69         -3.411228   1.000000
     70         -3.384058   1.000000
     71         -3.360671   1.000000
     72         -3.336302   1.000000
     73         -3.276229   1.000000
     74         -3.261459   1.000000
     75         -3.244212   1.000000
     76         -3.180255   1.000000
     77         -3.168212   1.000000
     78         -3.153675   1.000000