 vasp.6.4.2 20Jul23 (build Mar 01 2024 16:46:03) complex                        
  
 executed on             LinuxIFC date 2025.01.15  05:06:44
 running   48 mpi-ranks, on    1 nodes
 distrk:  each k-point on   48 cores,    1 groups
 distr:  one band on NCORE=   1 cores,   48 groups


--------------------------------------------------------------------------------------------------------


 INCAR:
   ENCUT = 680.290000
   SIGMA = 0.100000
   ZAB_VDW = -1.886700
   EDIFF = 1.00e-05
   ALGO = Fast
   GGA = BF
   IBRION = -1
   ISMEAR = 1
   ISPIN = 1
   ISYM = 0
   LUSE_VDW = .TRUE.
   LREAL = Auto

 POTCAR:    PAW_PBE Pt 04Feb2005                  
 POTCAR:    PAW_PBE H 15Jun2001                   
 -----------------------------------------------------------------------------
|                                                                             |
|           W    W    AA    RRRRR   N    N  II  N    N   GGGG   !!!           |
|           W    W   A  A   R    R  NN   N  II  NN   N  G    G  !!!           |
|           W    W  A    A  R    R  N N  N  II  N N  N  G       !!!           |
|           W WW W  AAAAAA  RRRRR   N  N N  II  N  N N  G  GGG   !            |
|           WW  WW  A    A  R   R   N   NN  II  N   NN  G    G                |
|           W    W  A    A  R    R  N    N  II  N    N   GGGG   !!!           |
|                                                                             |
|     For optimal performance we recommend to set                             |
|       NCORE = 2 up to number-of-cores-per-socket                            |
|     NCORE specifies how many cores store one orbital (NPAR=cpu/NCORE).      |
|     This setting can greatly improve the performance of VASP for DFT.       |
|     The default, NCORE=1 might be grossly inefficient on modern             |
|     multi-core architectures or massively parallel machines. Do your        |
|     own testing! More info at https://www.vasp.at/wiki/index.php/NCORE      |
|     Unfortunately you need to use the default for GW and RPA                |
|     calculations (for HF NCORE is supported but not extensively tested      |
|     yet).                                                                   |
|                                                                             |
 -----------------------------------------------------------------------------

 -----------------------------------------------------------------------------
|                                                                             |
|               ----> ADVICE to this user running VASP <----                  |
|                                                                             |
|     You have switched on vdW-DFT.                                           |
|     This routine was written and supplied by Jiri Klimes. We recommend      |
|     that you carefully read and cite the following publications:            |
|       J. Klimes, D.R. Bowler, A. Michelides                                 |
|          J. Phys.: Cond Matt. 22 022201 (2010)                              |
|       J. Klimes, D.R. Bowler, A. Michelides                                 |
|          Phys. Rev. B. 83, 195131 (2011)                                    |
|     and references therein.                                                 |
|                                                                             |
 -----------------------------------------------------------------------------

 POTCAR:    PAW_PBE Pt 04Feb2005                  
   SHA256 =  3ed90460adef76debcff1cfb73ee1349b515b1a3db03439735b44de3a8db7dc8 Pt/POTCAR             
   COPYR  = (c) Copyright 04Feb2005 Georg Kresse                                                    
   COPYR  = This file is part of the software VASP. Any use, copying, and all other rights are regul
   COPYR  = If you do not have a valid VASP license, you may not use, copy or distribute this file. 
   VRHFIN =Pt: s1d9                                                                                 
   LEXCH  = PE                                                                                      
   EATOM  =   729.1176 eV,   53.5886 Ry                                                             
                                                                                                    
   TITEL  = PAW_PBE Pt 04Feb2005                                                                    
   LULTRA =        F    use ultrasoft PP ?                                                          
   IUNSCR =        1    unscreen: 0-lin 1-nonlin 2-no                                               
   RPACOR =    2.330    partial core radius                                                         
   POMASS =  195.080; ZVAL   =   10.000    mass and valenz                                          
   RCORE  =    2.600    outmost cutoff radius                                                       
   RWIGS  =    2.750; RWIGS  =    1.455    wigner-seitz radius (au A)                               
   ENMAX  =  230.283; ENMIN  =  172.712 eV                                                          
   ICORE  =        3    local potential                                                             
   LCOR   =        T    correct aug charges                                                         
   LPAW   =        T    paw PP                                                                      
   EAUG   =  358.966                                                                                
   DEXC   =    0.000                                                                                
   RMAX   =    2.658    core radius for proj-oper                                                   
   RAUG   =    1.300    factor for augmentation sphere                                              
   RDEP   =    2.761    radius for radial grids                                                     
   RDEPT  =    2.203    core radius for aug-charge                                                  
                                                                                                    
   Atomic configuration                                                                             
   16 entries                                                                                       
     n  l   j            E        occ.                                                              
     1  0  0.50    -78401.1885   2.0000                                                             
     2  0  0.50    -13770.7750   2.0000                                                             
     2  1  1.50    -11931.0468   6.0000                                                             
     3  0  0.50     -3234.7234   2.0000                                                             
     3  1  1.50     -2699.2216   6.0000                                                             
     3  2  2.50     -2119.5714  10.0000                                                             
     4  0  0.50      -695.1528   2.0000                                                             
     4  1  1.50      -519.6034   6.0000                                                             
     4  2  2.50      -306.6786  10.0000                                                             
     4  3  3.50       -70.1041  14.0000                                                             
     5  0  0.50      -101.7747   2.0000                                                             
     5  1  1.50       -55.9873   6.0000                                                             
     5  2  2.50        -6.1423   9.0000                                                             
     6  0  0.50        -5.6573   1.0000                                                             
     6  1  1.50        -6.8029   0.0000                                                             
     5  3  2.50        -1.3606   0.0000                                                             
   Description                                                                                      
     l       E           TYP  RCUT    TYP  RCUT                                                     
     2     -6.1423404     23  2.500                                                                 
     2     -7.5029230     23  2.500                                                                 
     0     -5.6573207     23  2.500                                                                 
     0      0.7416693     23  2.500                                                                 
     1     -2.7211652     23  2.600                                                                 
     1     20.4087390     23  2.600                                                                 
     3     -1.3605826     23  2.500                                                                 
  local pseudopotential read in
  partial core-charges read in
  partial kinetic energy density read in
  atomic valenz-charges read in
  non local Contribution for L=           2  read in
    real space projection operators read in
  non local Contribution for L=           2  read in
    real space projection operators read in
  non local Contribution for L=           0  read in
    real space projection operators read in
  non local Contribution for L=           0  read in
    real space projection operators read in
  non local Contribution for L=           1  read in
    real space projection operators read in
  non local Contribution for L=           1  read in
    real space projection operators read in
    PAW grid and wavefunctions read in
 
   number of l-projection  operators is LMAX  =           6
   number of lm-projection operators is LMMAX =          18
 
 POTCAR:    PAW_PBE H 15Jun2001                   
   SHA256 =  030f79b5d3ab3cf0e668861823c8fb652ff669f3e15e46930bd03bfd63a607b6 H/POTCAR              
   COPYR  = (c) Copyright 15Jun2001 Georg Kresse                                                    
   COPYR  = This file is part of the software VASP. Any use, copying, and all other rights are regul
   COPYR  = If you do not have a valid VASP license, you may not use, copy or distribute this file. 
   VRHFIN =H: ultrasoft test                                                                        
   LEXCH  = PE                                                                                      
   EATOM  =    12.4884 eV,    0.9179 Ry                                                             
                                                                                                    
   TITEL  = PAW_PBE H 15Jun2001                                                                     
   LULTRA =        F    use ultrasoft PP ?                                                          
   IUNSCR =        0    unscreen: 0-lin 1-nonlin 2-no                                               
   RPACOR =    0.000    partial core radius                                                         
   POMASS =    1.000; ZVAL   =    1.000    mass and valenz                                          
   RCORE  =    1.100    outmost cutoff radius                                                       
   RWIGS  =    0.700; RWIGS  =    0.370    wigner-seitz radius (au A)                               
   ENMAX  =  250.000; ENMIN  =  200.000 eV                                                          
   RCLOC  =    0.701    cutoff for local pot                                                        
   LCOR   =        T    correct aug charges                                                         
   LPAW   =        T    paw PP                                                                      
   EAUG   =  400.000                                                                                
   RMAX   =    1.123    core radius for proj-oper                                                   
   RAUG   =    1.200    factor for augmentation sphere                                              
   RDEP   =    1.112    radius for radial grids                                                     
   RDEPT  =    0.926    core radius for aug-charge                                                  
                                                                                                    
   Atomic configuration                                                                             
    2 entries                                                                                       
     n  l   j            E        occ.                                                              
     1  0  0.50        -6.4927   1.0000                                                             
     2  1  0.50        -3.4015   0.0000                                                             
   Description                                                                                      
     l       E           TYP  RCUT    TYP  RCUT                                                     
     0     -6.4927494     23  1.100                                                                 
     0      6.8029130     23  1.100                                                                 
     1     -4.0817478     23  1.100                                                                 
  local pseudopotential read in
  atomic valenz-charges read in
  non local Contribution for L=           0  read in
    real space projection operators read in
  non local Contribution for L=           0  read in
    real space projection operators read in
  non local Contribution for L=           1  read in
    real space projection operators read in
    PAW grid and wavefunctions read in
 
   number of l-projection  operators is LMAX  =           3
   number of lm-projection operators is LMMAX =           5
 
 Optimization of the real space projectors (new method)

 maximal supplied QI-value         = 14.36
 optimisation between [QCUT,QGAM] = [ 13.36, 26.71] = [ 49.96,199.83] Ry 
 Optimized for a Real-space Cutoff    1.42 Angstroem

   l    n(q)    QCUT    max X(q) W(low)/X(q) W(high)/X(q)  e(spline) 
   2     11    13.357    66.195    0.16E-03    0.81E-04    0.36E-06
   2     11    13.357    64.643    0.16E-03    0.82E-04    0.36E-06
   0     11    13.357    95.520    0.60E-04    0.72E-05    0.55E-06
   0     11    13.357    63.403    0.58E-04    0.70E-05    0.53E-06
   1     11    13.357    19.961    0.21E-03    0.56E-03    0.21E-05
   1     11    13.357    13.289    0.17E-03    0.46E-03    0.17E-05
 Optimization of the real space projectors (new method)

 maximal supplied QI-value         = 34.20
 optimisation between [QCUT,QGAM] = [ 13.34, 26.68] = [ 49.83,199.32] Ry 
 Optimized for a Real-space Cutoff    0.91 Angstroem

   l    n(q)    QCUT    max X(q) W(low)/X(q) W(high)/X(q)  e(spline) 
   0      7    13.340    19.460    0.48E-03    0.16E-03    0.16E-06
   0      7    13.340    12.209    0.46E-03    0.14E-03    0.15E-06
   1      7    13.340     4.655    0.46E-03    0.87E-03    0.11E-06
 -----------------------------------------------------------------------------
|                                                                             |
|               ----> ADVICE to this user running VASP <----                  |
|                                                                             |
|     You enforced a specific xc type in the INCAR file but a different       |
|     type was found in the POTCAR file.                                      |
|     I HOPE YOU KNOW WHAT YOU ARE DOING!                                     |
|                                                                             |
 -----------------------------------------------------------------------------

  PAW_PBE Pt 04Feb2005                  :
 energy of atom  1       EATOM= -729.1176
 kinetic energy error for atom=    0.0010 (will be added to EATOM!!)
  PAW_PBE H 15Jun2001                   :
 energy of atom  2       EATOM=  -12.4884
 kinetic energy error for atom=    0.0002 (will be added to EATOM!!)
 
 
 POSCAR: Pt H
  positions in cartesian coordinates
  No initial velocities read in
 exchange correlation table for  LEXCH =       17
   RHO(1)=    0.500       N(1)  =     2000
   RHO(2)=  100.500       N(2)  =     4000
 


--------------------------------------------------------------------------------------------------------


 ion  position               nearest neighbor table
   1  0.000  0.000  0.340-   3 2.81   7 2.81   6 2.82   8 2.82  12 2.82  16 2.82   2 2.83   4 2.83
                            10 2.83
   2  0.334  0.000  0.340-   8 2.81   9 2.82  17 2.82   1 2.83   3 2.83   4 2.83   5 2.83  10 2.83
                            11 2.83
   3  0.668  0.000  0.340-   7 2.81   1 2.81   9 2.81  18 2.82   5 2.83   2 2.83   6 2.83  11 2.83
                            12 2.83
   4  0.000  0.334  0.340-   6 2.81   9 2.82  15 2.82   5 2.83   2 2.83   1 2.83   7 2.83  10 2.83
                            13 2.83
   5  0.334  0.334  0.340-   3 2.83   4 2.83   6 2.83   7 2.83   2 2.83   8 2.83  11 2.83  13 2.83
                            14 2.83
   6  0.668  0.334  0.340-   4 2.81   1 2.82   5 2.83   8 2.83   3 2.83   9 2.83  12 2.83  14 2.83
                            15 2.83
   7  0.000  0.668  0.340-   3 2.81   1 2.81   9 2.81  18 2.82   5 2.83   8 2.83   4 2.83  13 2.83
                            16 2.83
   8  0.334  0.668  0.340-   2 2.81   1 2.82   6 2.83   7 2.83   9 2.83   5 2.83  14 2.83  16 2.83
                            17 2.83
   9  0.668  0.668  0.340-   3 2.81   7 2.81   4 2.82   2 2.82   8 2.83   6 2.83  15 2.83  17 2.83
                            18 2.83
  10  0.111  0.111  0.433-  26 2.81  16 2.81  12 2.81  19 2.82  15 2.82  17 2.82  11 2.83  13 2.83
                             2 2.83   4 2.83   1 2.83  20 2.83
  11  0.445  0.111  0.433-  20 2.80  27 2.81  17 2.81  21 2.82  18 2.82  13 2.83  10 2.83  12 2.83
                            14 2.83   5 2.83   3 2.83   2 2.83
  12  0.779  0.111  0.433-  21 2.79  25 2.80  16 2.81  10 2.81  18 2.81   1 2.82  11 2.83  14 2.83
                            15 2.83   6 2.83   3 2.83  19 2.85
  13  0.111  0.445  0.433-  15 2.81  22 2.81  23 2.82  20 2.82  18 2.82  14 2.83  11 2.83  10 2.83
                            16 2.83   7 2.83   5 2.83   4 2.83
  14  0.445  0.445  0.433-  23 2.79  21 2.80  24 2.82  16 2.83  12 2.83  13 2.83  15 2.83  17 2.83
                            11 2.83   8 2.83   6 2.83   5 2.83
  15  0.779  0.445  0.433-  24 2.80  13 2.81  10 2.82   4 2.82  17 2.83  14 2.83  18 2.83  12 2.83
                             9 2.83   6 2.83  19 2.83  22 2.83
  16  0.111  0.779  0.433-  25 2.79  23 2.81  12 2.81  10 2.81  18 2.81  26 2.82   1 2.82  14 2.83
                            17 2.83  13 2.83   8 2.83   7 2.83
  17  0.445  0.779  0.433-  26 2.79  24 2.81  11 2.81  27 2.81  10 2.82   2 2.82  15 2.83  16 2.83
                            18 2.83  14 2.83   9 2.83   8 2.83
  18  0.779  0.779  0.433-  27 2.79  25 2.81  12 2.81  16 2.81  13 2.82  11 2.82   3 2.82   7 2.82
                            17 2.83  15 2.83   9 2.83  22 2.85
  19  0.893  0.224  0.526-  22 2.79  33 2.81  20 2.81  10 2.82  24 2.82  26 2.83  28 2.83  15 2.83
                            21 2.83  25 2.84  12 2.85  31 2.91
  20  0.226  0.222  0.525-  11 2.80  22 2.81  19 2.81  13 2.82  26 2.82  23 2.82  21 2.82  27 2.83
                            10 2.83  29 2.85  32 2.85  31 2.90
  21  0.560  0.223  0.524-  12 2.79  14 2.80  11 2.82  24 2.82  23 2.82  25 2.82  32 2.82  20 2.82
                            27 2.83  19 2.83  30 2.85  33 2.85
  22  0.894  0.553  0.526-  19 2.79  20 2.81  36 2.81  13 2.81  24 2.82  23 2.82  34 2.83  27 2.83
                            15 2.83  25 2.84  18 2.85  31 2.91
  23  0.226  0.556  0.524-  14 2.79  16 2.81  13 2.82  25 2.82  21 2.82  20 2.82  22 2.82  24 2.83
                            26 2.83  34 2.83  35 2.85  32 2.85
  24  0.559  0.556  0.524-  15 2.80  17 2.81  14 2.82  19 2.82  22 2.82  27 2.82  21 2.82  35 2.82
                            26 2.82  23 2.83  33 2.85  36 2.85
  25  0.893  0.889  0.524-  16 2.79  12 2.80  18 2.81  26 2.82  23 2.82  27 2.82  21 2.82  30 2.83
                            19 2.84  34 2.84  22 2.84  28 2.85
  26  0.226  0.889  0.525-  17 2.79  10 2.81  16 2.82  20 2.82  25 2.82  24 2.82  27 2.83  23 2.83
                            19 2.83  28 2.83  35 2.84  29 2.85
  27  0.560  0.889  0.524-  18 2.79  11 2.81  17 2.81  24 2.82  25 2.82  26 2.83  29 2.83  20 2.83
                            21 2.83  22 2.83  36 2.85  30 2.85
  28  0.006  0.999  0.618-  34 2.81  30 2.82  33 2.82  35 2.83  19 2.83  26 2.83  31 2.83  29 2.84
                            25 2.85
  29  0.342  0.997  0.618-  36 2.80  35 2.81  30 2.81  31 2.82  27 2.83  28 2.84  32 2.85  26 2.85
                            20 2.85
  30  0.673  0.999  0.618-  29 2.81  32 2.81  34 2.81  28 2.82  36 2.82  33 2.82  25 2.83  21 2.85
                            27 2.85
  31  0.011  0.330  0.622-  37 1.56  32 2.82  29 2.82  28 2.83  34 2.83  33 2.86  36 2.86  20 2.90
                            22 2.91  19 2.91
  32  0.342  0.333  0.618-  33 2.80  35 2.81  30 2.81  31 2.82  21 2.82  34 2.84  29 2.85  23 2.85
                            20 2.85
  33  0.673  0.332  0.618-  32 2.80  19 2.81  30 2.82  35 2.82  28 2.82  36 2.83  24 2.85  21 2.85
                            31 2.86
  34  0.006  0.667  0.618-  28 2.81  30 2.81  36 2.82  35 2.82  22 2.83  23 2.83  31 2.83  32 2.84
                            25 2.84
  35  0.340  0.666  0.617-  32 2.81  29 2.81  33 2.82  36 2.82  24 2.82  34 2.82  28 2.83  26 2.84
                            23 2.85
  36  0.673  0.666  0.618-  29 2.80  22 2.81  30 2.82  34 2.82  35 2.82  33 2.83  27 2.85  24 2.85
                            31 2.86
  37  0.095  0.290  0.680-  31 1.56
 

IMPORTANT INFORMATION: All symmetrisations will be switched off!
NOSYMM: (Re-)initialisation of all symmetry stuff for point group C_1.


----------------------------------------------------------------------------------------

                                     Primitive cell                                     

  volume of cell :    1550.4837

  direct lattice vectors                    reciprocal lattice vectors
     8.468310000  0.000000000  0.000000000     0.118087316 -0.068177744  0.000000000
     4.234155000  7.333771587  0.000000000     0.000000000  0.136355488  0.000000000
     0.000000000  0.000000000 24.965661990     0.000000000  0.000000000  0.040055016

  length of vectors
     8.468310000  8.468310000 24.965661990     0.136355488  0.136355488  0.040055016

  position of ions in fractional coordinates (direct lattice)
     0.000000000  0.000000000  0.340467639
     0.334001368  0.000000000  0.340467639
     0.668002736  0.000000000  0.340467639
     1.000000000  0.334001368  0.340467639
     0.334001368  0.334001368  0.340467639
     0.668002736  0.334001368  0.340467639
     1.000000000  0.668002736  0.340467639
     0.334001368  0.668002736  0.340467639
     0.668002736  0.668002736  0.340467639
     0.111333789  0.111333789  0.432970737
     0.445335157  0.111333789  0.432970737
     0.779336525  0.111333789  0.432970737
     0.111333789  0.445335157  0.432970737
     0.445335157  0.445335157  0.432970737
     0.779336525  0.445335157  0.432970737
     0.111333789  0.779336525  0.432970737
     0.445335157  0.779336525  0.432970737
     0.779336525  0.779336525  0.432970737
     0.893301599  0.224164618  0.525879610
     0.226132376  0.222292390  0.524853683
     0.559518373  0.222673899  0.524301005
     0.893633704  0.553401702  0.525816509
     0.225917086  0.555730152  0.524360706
     0.559398435  0.555979711  0.524461053
     0.892998267  0.889253049  0.524394185
     0.225963003  0.889396250  0.524514312
     0.559875528  0.888768388  0.524372486
     0.006011781  0.998839587  0.617722561
     0.342409630  0.996676935  0.617778312
     0.673362758  0.999300312  0.617696448
     0.011088850  0.330404516  0.622268394
     0.342267171  0.332809947  0.617734055
     0.673158782  0.332483294  0.617853602
     0.005977951  0.667132918  0.617585275
     0.340227323  0.665774376  0.617432277
     0.673143197  0.666398855  0.617879101
     0.094930650  0.289976194  0.679677595

  ion indices of the primitive-cell ions
   primitive index   ion index
                 1           1
                 2           2
                 3           3
                 4           4
                 5           5
                 6           6
                 7           7
                 8           8
                 9           9
                10          10
                11          11
                12          12
                13          13
                14          14
                15          15
                16          16
                17          17
                18          18
                19          19
                20          20
                21          21
                22          22
                23          23
                24          24
                25          25
                26          26
                27          27
                28          28
                29          29
                30          30
                31          31
                32          32
                33          33
                34          34
                35          35
                36          36
                37          37

----------------------------------------------------------------------------------------

 
 
 KPOINTS: KPOINTS created by Atomic Simulation Env

Automatic generation of k-mesh.
 Grid dimensions read from file:
 generate k-points for:    5    5    1

 Generating k-lattice:

  Cartesian coordinates                     Fractional coordinates (reciprocal lattice)
     0.023617463 -0.013635549  0.000000000     0.200000000 -0.000000000  0.000000000
     0.000000000  0.027271098  0.000000000     0.000000000  0.200000000  0.000000000
     0.000000000  0.000000000  0.040055016     0.000000000  0.000000000  1.000000000

  Length of vectors
     0.027271098  0.027271098  0.040055016

  Shift w.r.t. Gamma in fractional coordinates (k-lattice)
     0.000000000  0.000000000  0.000000000

 
 Subroutine IBZKPT returns following result:
 ===========================================
 
 Found     13 irreducible k-points:
 
 Following reciprocal coordinates:
            Coordinates               Weight
  0.000000  0.000000  0.000000      1.000000
  0.200000  0.000000  0.000000      2.000000
  0.200000  0.200000  0.000000      2.000000
  0.000000  0.200000  0.000000      2.000000
  0.400000  0.000000  0.000000      2.000000
  0.400000  0.400000  0.000000      2.000000
  0.000000  0.400000  0.000000      2.000000
  0.400000  0.200000  0.000000      2.000000
  0.200000  0.400000  0.000000      2.000000
 -0.200000  0.200000  0.000000      2.000000
 -0.400000  0.200000  0.000000      2.000000
  0.400000 -0.400000  0.000000      2.000000
 -0.200000  0.400000  0.000000      2.000000
 
 Following cartesian coordinates:
            Coordinates               Weight
  0.000000  0.000000  0.000000      1.000000
  0.023617 -0.013636  0.000000      2.000000
  0.023617  0.013636  0.000000      2.000000
  0.000000  0.027271  0.000000      2.000000
  0.047235 -0.027271  0.000000      2.000000
  0.047235  0.027271  0.000000      2.000000
  0.000000  0.054542  0.000000      2.000000
  0.047235  0.000000  0.000000      2.000000
  0.023617  0.040907  0.000000      2.000000
 -0.023617  0.040907  0.000000      2.000000
 -0.047235  0.054542  0.000000      2.000000
  0.047235 -0.081813  0.000000      2.000000
 -0.023617  0.068178  0.000000      2.000000
 


--------------------------------------------------------------------------------------------------------




 Dimension of arrays:
   k-points           NKPTS =     13   k-points in BZ     NKDIM =     13   number of bands    NBANDS=    240
   number of dos      NEDOS =    301   number of ions     NIONS =     37
   non local maximal  LDIM  =      6   non local SUM 2l+1 LMDIM =     18
   total plane-waves  NPLWV = 466560
   max r-space proj   IRMAX =   3679   max aug-charges    IRDMAX=  18423
   dimension x,y,z NGX =    54 NGY =   54 NGZ =  160
   dimension x,y,z NGXF=   108 NGYF=  108 NGZF=  320
   support grid    NGXF=   108 NGYF=  108 NGZF=  320
   ions per type =              36   1
   NGX,Y,Z   is equivalent  to a cutoff of  10.60, 10.60, 10.65 a.u.
   NGXF,Y,Z  is equivalent  to a cutoff of  21.20, 21.20, 21.31 a.u.

 SYSTEM =  unknown system                          
 POSCAR =  Pt H                                    

 Startparameter for this run:
   NWRITE =      2    write-flag & timer
   PREC   = normal    normal or accurate (medium, high low for compatibility)
   ISTART =      1    job   : 0-new  1-cont  2-samecut
   ICHARG =      0    charge: 1-file 2-atom 10-const
   ISPIN  =      1    spin polarized calculation?
   LNONCOLLINEAR =      F non collinear calculations
   LSORBIT =      F    spin-orbit coupling
   INIWAV =      1    electr: 0-lowe 1-rand  2-diag
   LASPH  =      F    aspherical Exc in radial PAW
 Electronic Relaxation 1
   ENCUT  =  680.3 eV  50.00 Ry    7.07 a.u.  18.01 18.01 53.09*2*pi/ulx,y,z
   ENINI  =  680.3     initial cutoff
   ENAUG  =  400.0 eV  augmentation charge cutoff
   NELM   =     60;   NELMIN=  2; NELMDL=  0     # of ELM steps 
   EDIFF  = 0.1E-04   stopping-criterion for ELM
   LREAL  =      T    real-space projection
   NLSPLINE    = F    spline interpolate recip. space projectors
   LCOMPAT=      F    compatible to vasp.4.4
   GGA_COMPAT  = T    GGA compatible to vasp.4.4-vasp.4.6
   LMAXPAW     = -100 max onsite density
   LMAXMIX     =    2 max onsite mixed and CHGCAR
   VOSKOWN=      0    Vosko Wilk Nusair interpolation
   ROPT   =   -0.00050  -0.00050
 Ionic relaxation
   EDIFFG = 0.1E-03   stopping-criterion for IOM
   NSW    =      0    number of steps for IOM
   NBLOCK =      1;   KBLOCK =      1    inner block; outer block 
   IBRION =     -1    ionic relax: 0-MD 1-quasi-New 2-CG
   NFREE  =      0    steps in history (QN), initial steepest desc. (CG)
   ISIF   =      2    stress and relaxation
   IWAVPR =     10    prediction:  0-non 1-charg 2-wave 3-comb
   ISYM   =      0    0-nonsym 1-usesym 2-fastsym
   LCORR  =      T    Harris-Foulkes like correction to forces

   POTIM  = 0.5000    time-step for ionic-motion
   TEIN   =    0.0    initial temperature
   TEBEG  =    0.0;   TEEND  =   0.0 temperature during run
   SMASS  =  -3.00    Nose mass-parameter (am)
   estimated Nose-frequenzy (Omega)   =  0.10E-29 period in steps = 0.13E+47 mass=  -0.164E-26a.u.
   SCALEE = 1.0000    scale energy and forces
   NPACO  =    256;   APACO  = 10.0  distance and # of slots for P.C.
   PSTRESS=    0.0 pullay stress

  Mass of Ions in am
   POMASS = 195.08  1.00
  Ionic Valenz
   ZVAL   =  10.00  1.00
  Atomic Wigner-Seitz radii
   RWIGS  =  -1.00 -1.00
  virtual crystal weights 
   VCA    =   1.00  1.00
   NELECT =     361.0000    total number of electrons
   NUPDOWN=      -1.0000    fix difference up-down

 DOS related values:
   EMIN   =  10.00;   EMAX   =-10.00  energy-range for DOS
   EFERMI =   0.00;   METHOD = LEGACY      
   ISMEAR =     1;   SIGMA  =   0.10  broadening in eV -4-tet -1-fermi 0-gaus

 Electronic relaxation 2 (details)
   IALGO  =     68    algorithm
   LDIAG  =      T    sub-space diagonalisation (order eigenvalues)
   LSUBROT=      F    optimize rotation matrix (better conditioning)
   TURBO    =      0    0=normal 1=particle mesh
   IRESTART =      0    0=no restart 2=restart with 2 vectors
   NREBOOT  =      0    no. of reboots
   NMIN     =      0    reboot dimension
   EREF     =   0.00    reference energy to select bands
   IMIX   =      4    mixing-type and parameters
     AMIX     =   0.40;   BMIX     =  1.00
     AMIX_MAG =   1.60;   BMIX_MAG =  1.00
     AMIN     =   0.10
     WC   =   100.;   INIMIX=   1;  MIXPRE=   1;  MAXMIX= -45

 Intra band minimization:
   WEIMIN = 0.0000     energy-eigenvalue tresh-hold
   EBREAK =  0.10E-07  absolut break condition
   DEPER  =   0.30     relativ break condition  

   TIME   =   0.40     timestep for ELM

  volume/ion in A,a.u.               =      41.90       282.79
  Fermi-wavevector in a.u.,A,eV,Ry     =   1.007136  1.903211 13.800704  1.014323
  Thomas-Fermi vector in A             =   2.139922
 
 Write flags
   LWAVE        =      T    write WAVECAR
   LDOWNSAMPLE  =      F    k-point downsampling of WAVECAR
   LCHARG       =      T    write CHGCAR
   LVTOT        =      F    write LOCPOT, total local potential
   LVHAR        =      F    write LOCPOT, Hartree potential only
   LELF         =      F    write electronic localiz. function (ELF)
   LORBIT       =      0    0 simple, 1 ext, 2 COOP (PROOUT), +10 PAW based schemes


 Dipole corrections
   LMONO  =      F    monopole corrections only (constant potential shift)
   LDIPOL =      F    correct potential (dipole corrections)
   IDIPOL =      0    1-x, 2-y, 3-z, 4-all directions 
   EPSILON=  1.0000000 bulk dielectric constant

 Exchange correlation treatment:
   GGA     =    BF    GGA type
   LEXCH   =    17    internal setting for exchange type
   LIBXC   =     F    Libxc                    
   VOSKOWN =     0    Vosko Wilk Nusair interpolation
   LHFCALC =     F    Hartree Fock is set to
   LHFONE  =     F    Hartree Fock one center treatment
   AEXX    =    0.0000 exact exchange contribution

 vdW DFT:
   LUSE_VDW   =     T    switch on vdW DFT
   IVDW_NL    =     1    kernel type
   LSPIN_VDW  =     F    use spin-polarized vdW DFT
   Zab_VDW    =******    correlation parameter
   PARAM1     =0.1234
   PARAM2     =1.0000
   PARAM3     =0.0000
   -- rVV10 --
   BPARAM     = 6.3000
   CPARAM     = 0.0093

 Linear response parameters
   LEPSILON=     F    determine dielectric tensor
   LRPA    =     F    only Hartree local field effects (RPA)
   LNABLA  =     F    use nabla operator in PAW spheres
   LVEL    =     F    velocity operator in full k-point grid
   CSHIFT  =0.1000    complex shift for real part using Kramers Kronig
   OMEGAMAX=  -1.0    maximum frequency
   DEG_THRESHOLD= 0.2000000E-02 threshold for treating states as degnerate
   RTIME   =   -0.100 relaxation time in fs
  (WPLASMAI=    0.000 imaginary part of plasma frequency in eV, 0.658/RTIME)
   DFIELD  = 0.0000000 0.0000000 0.0000000 field for delta impulse in time
 
  Optional k-point grid parameters
   LKPOINTS_OPT  =     F    use optional k-point grid
   KPOINTS_OPT_MODE=     1    mode for optional k-point grid
 
 Orbital magnetization related:
   ORBITALMAG=     F  switch on orbital magnetization
   LCHIMAG   =     F  perturbation theory with respect to B field
   DQ        =  0.001000  dq finite difference perturbation B field
   LLRAUG    =     F  two centre corrections for induced B field
   LBONE     =     F  B-component reconstruction in AE one-centre
   LVGVCALC  =     T  calculate vGv susceptibility
   LVGVAPPL  =     F  apply vGv susceptibility instead of pGv for G=0

 Random number generation:
   RANDOM_GENERATOR = DEFAULT
   PCG_SEED         = not used


--------------------------------------------------------------------------------------------------------


 Static calculation
 charge density and potential will be updated during run
 non-spin polarized calculation
 RMM-DIIS sequential band-by-band and
  variant of blocked Davidson during initial phase
 perform sub-space diagonalisation
    before iterative eigenvector-optimisation
 modified Broyden-mixing scheme, WC =      100.0
 initial mixing is a Kerker type mixing with AMIX =  0.4000 and BMIX =      1.0000
 Hartree-type preconditioning will be used
 using additional bands           59
 real space projection scheme for non local part
 use partial core corrections
 calculate Harris-corrections to forces 
   (improved forces if not selfconsistent)
 use gradient corrections 
 use of overlap-Matrix (Vanderbilt PP)
 Methfessel and Paxton  Order N= 1 SIGMA  =   0.10


--------------------------------------------------------------------------------------------------------


  energy-cutoff  :      680.29
  volume of cell :     1550.48
      direct lattice vectors                 reciprocal lattice vectors
     8.468310000  0.000000000  0.000000000     0.118087316 -0.068177744  0.000000000
     4.234155000  7.333771587  0.000000000     0.000000000  0.136355488  0.000000000
     0.000000000  0.000000000 24.965661990     0.000000000  0.000000000  0.040055016

  length of vectors
     8.468310000  8.468310000 24.965661990     0.136355488  0.136355488  0.040055016


 
 old parameters found on file WAVECAR:
  energy-cutoff  :      680.29
  volume of cell :     1550.48
      direct lattice vectors                 reciprocal lattice vectors
     8.468310000  0.000000000  0.000000000     0.118087316 -0.068177744  0.000000000
     4.234155000  7.333771587  0.000000000     0.000000000  0.136355488  0.000000000
     0.000000000  0.000000000 24.965661990     0.000000000  0.000000000  0.040055016

  length of vectors

 
 k-points in units of 2pi/SCALE and weight: KPOINTS created by Atomic Simulation Env
   0.00000000  0.00000000  0.00000000       0.040
   0.02361746 -0.01363555  0.00000000       0.080
   0.02361746  0.01363555  0.00000000       0.080
   0.00000000  0.02727110  0.00000000       0.080
   0.04723493 -0.02727110  0.00000000       0.080
   0.04723493  0.02727110  0.00000000       0.080
   0.00000000  0.05454220  0.00000000       0.080
   0.04723493  0.00000000  0.00000000       0.080
   0.02361746  0.04090665  0.00000000       0.080
  -0.02361746  0.04090665  0.00000000       0.080
  -0.04723493  0.05454220  0.00000000       0.080
   0.04723493 -0.08181329  0.00000000       0.080
  -0.02361746  0.06817774  0.00000000       0.080
 
 k-points in reciprocal lattice and weights: KPOINTS created by Atomic Simulation Env
   0.00000000  0.00000000  0.00000000       0.040
   0.20000000  0.00000000  0.00000000       0.080
   0.20000000  0.20000000  0.00000000       0.080
   0.00000000  0.20000000  0.00000000       0.080
   0.40000000  0.00000000  0.00000000       0.080
   0.40000000  0.40000000  0.00000000       0.080
   0.00000000  0.40000000  0.00000000       0.080
   0.40000000  0.20000000  0.00000000       0.080
   0.20000000  0.40000000  0.00000000       0.080
  -0.20000000  0.20000000  0.00000000       0.080
  -0.40000000  0.20000000  0.00000000       0.080
   0.40000000 -0.40000000  0.00000000       0.080
  -0.20000000  0.40000000  0.00000000       0.080
 
 position of ions in fractional coordinates (direct lattice) 
   0.00000000  0.00000000  0.34046764
   0.33400137  0.00000000  0.34046764
   0.66800274  0.00000000  0.34046764
   0.00000000  0.33400137  0.34046764
   0.33400137  0.33400137  0.34046764
   0.66800274  0.33400137  0.34046764
   0.00000000  0.66800274  0.34046764
   0.33400137  0.66800274  0.34046764
   0.66800274  0.66800274  0.34046764
   0.11133379  0.11133379  0.43297074
   0.44533516  0.11133379  0.43297074
   0.77933653  0.11133379  0.43297074
   0.11133379  0.44533516  0.43297074
   0.44533516  0.44533516  0.43297074
   0.77933653  0.44533516  0.43297074
   0.11133379  0.77933653  0.43297074
   0.44533516  0.77933653  0.43297074
   0.77933653  0.77933653  0.43297074
   0.89330160  0.22416462  0.52587961
   0.22613238  0.22229239  0.52485368
   0.55951837  0.22267390  0.52430101
   0.89363370  0.55340170  0.52581651
   0.22591709  0.55573015  0.52436071
   0.55939844  0.55597971  0.52446105
   0.89299827  0.88925305  0.52439419
   0.22596300  0.88939625  0.52451431
   0.55987553  0.88876839  0.52437249
   0.00601178  0.99883959  0.61772256
   0.34240963  0.99667693  0.61777831
   0.67336276  0.99930031  0.61769645
   0.01108885  0.33040452  0.62226839
   0.34226717  0.33280995  0.61773406
   0.67315878  0.33248329  0.61785360
   0.00597795  0.66713292  0.61758527
   0.34022732  0.66577438  0.61743228
   0.67314320  0.66639886  0.61787910
   0.09493065  0.28997619  0.67967760
 
 position of ions in cartesian coordinates  (Angst):
   0.00000000  0.00000000  8.50000000
   2.82842712  0.00000000  8.50000000
   5.65685425  0.00000000  8.50000000
   1.41421356  2.44948974  8.50000000
   4.24264069  2.44948974  8.50000000
   7.07106781  2.44948974  8.50000000
   2.82842712  4.89897949  8.50000000
   5.65685425  4.89897949  8.50000000
   8.48528137  4.89897949  8.50000000
   1.41421356  0.81649658 10.80940108
   4.24264069  0.81649658 10.80940108
   7.07106781  0.81649658 10.80940108
   2.82842712  3.26598632 10.80940108
   5.65685425  3.26598632 10.80940108
   8.48528137  3.26598632 10.80940108
   4.24264069  5.71547607 10.80940108
   7.07106781  5.71547607 10.80940108
   9.89949494  5.71547607 10.80940108
   8.51390260  1.64397211 13.12893258
   2.85617949  1.63024161 13.10331965
   5.68101083  1.63303951 13.08952167
   9.91075582  4.05852168 13.12735724
   4.26618352  4.07559800 13.09101216
   7.09126364  4.07742821 13.09351738
  11.32742140  6.52157875 13.09184798
   5.67936634  6.52262895 13.09484702
   8.50438265  6.51802435 13.09130624
   4.28015125  7.32526138 15.42185267
   7.11971552  7.30940098 15.42324452
   9.93343699  7.32864024 15.42120072
   1.49288775  2.42311125 15.53534239
   4.30759341  2.44075213 15.42213963
   7.10830305  2.43835653 15.42512418
   2.87536732  4.89260044 15.41842522
   5.70014234  4.88263720 15.41460553
   8.52202131  4.88721699 15.42576079
   2.03170632  2.12661917 16.96860110
 


--------------------------------------------------------------------------------------------------------


 k-point   1 :   0.0000 0.0000 0.0000  plane waves:   62399
 k-point   2 :   0.2000 0.0000 0.0000  plane waves:   62407
 k-point   3 :   0.2000 0.2000 0.0000  plane waves:   62407
 k-point   4 :   0.0000 0.2000 0.0000  plane waves:   62407
 k-point   5 :   0.4000 0.0000 0.0000  plane waves:   62451
 k-point   6 :   0.4000 0.4000 0.0000  plane waves:   62451
 k-point   7 :   0.0000 0.4000 0.0000  plane waves:   62451
 k-point   8 :   0.4000 0.2000 0.0000  plane waves:   62510
 k-point   9 :   0.2000 0.4000 0.0000  plane waves:   62510
 k-point  10 :  -0.2000 0.2000 0.0000  plane waves:   62510
 k-point  11 :  -0.4000 0.2000 0.0000  plane waves:   62498
 k-point  12 :   0.4000-0.4000 0.0000  plane waves:   62498
 k-point  13 :  -0.2000 0.4000 0.0000  plane waves:   62498

 maximum and minimum number of plane-waves per node :     62510    62399

 maximum number of plane-waves:     62510
 maximum index in each direction: 
   IXMAX=   18   IYMAX=   18   IZMAX=   53
   IXMIN=  -18   IYMIN=  -18   IZMIN=  -53


 serial   3D FFT for wavefunctions
 parallel 3D FFT for charge:
    minimum data exchange during FFTs selected (reduces bandwidth)


 total amount of memory used by VASP MPI-rank0   148555. kBytes
=======================================================================

   base      :      30000. kBytes
   nonlr-proj:      22482. kBytes
   fftplans  :       5213. kBytes
   grid      :      24541. kBytes
   one-center:        575. kBytes
   wavefun   :      65744. kBytes
 
     INWAV:  cpu time      7.8521: real time     15.1811
 Broyden mixing: mesh for mixing (old mesh)
   NGX = 37   NGY = 37   NGZ =107
  (NGX  =108   NGY  =108   NGZ  =320)
  gives a total of 146483 points

 charge density for first step will be calculated from the start-wavefunctions


--------------------------------------------------------------------------------------------------------


 Maximum index for non-local projection operator         3550
 Maximum index for augmentation-charges         1181 (set IRDMAX)


--------------------------------------------------------------------------------------------------------


 initial charge from wavefunction
 First call to EWALD:  gamma=   0.153
 Maximum number of real-space cells 4x 4x 2
 Maximum number of reciprocal cells 2x 2x 5

    FEWALD:  cpu time      0.0025: real time      0.0025


--------------------------------------- Ionic step        1  -------------------------------------------




--------------------------------------- Iteration      1(   1)  ---------------------------------------


vdW kernel read from vdw_kernel.bindat
  0.0000  0.2424  0.5071  0.7962  1.1119  1.4567  1.8333  2.2446  2.6937  3.1842
  3.7199  4.3049  4.9438  5.6415  6.4036  7.2358  8.1446  9.1372 10.2212 11.4050
 12.6979 14.1099 15.6519 17.3360 19.1751 21.1837 23.3773 25.7729 28.3892 31.2465
 34.3669 37.7748 41.4965 45.5611 50.0000
 
    POTLOK:  cpu time      2.7109: real time      2.7413
    SETDIJ:  cpu time      0.0055: real time      0.0055
     EDDAV:  cpu time     15.7974: real time     15.9447
       DOS:  cpu time      0.0009: real time      0.0009
    CHARGE:  cpu time      0.7561: real time      0.7640
    MIXING:  cpu time      0.0102: real time      0.0103
    --------------------------------------------
      LOOP:  cpu time     19.2810: real time     19.4667

 eigenvalue-minimisations  :  6960
 total energy-change (2. order) :-0.1046279E+03  (-0.1367899E+00)
 number of electron     360.9999966 magnetization 
 augmentation part      114.1231996 magnetization 

 Broyden mixing:
  rms(total) = 0.31810E+00    rms(broyden)= 0.31810E+00
  rms(prec ) = 0.46527E+00
  weight for this iteration     100.00

 Free energy of the ion-electron system (eV)
  ---------------------------------------------------
  alpha Z        PSCENC =       797.33612757
  Ewald energy   TEWEN  =    132132.85912538
  -Hartree energ DENC   =   -159535.54651691
  -exchange      EXHF   =         0.00000000
  -V(xc)+E(xc)   XCENC  =        89.46565327
  PAW double counting   =     32156.10465808   -31158.71336605
  entropy T*S    EENTRO =        -0.08534910
  eigenvalues    EBANDS =     -1082.85137245
  atomic energy  EATOM  =     26496.80315902
  Solvation  Ediel_sol  =         0.00000000
  ---------------------------------------------------
  free energy    TOTEN  =      -104.62788119 eV

  energy without entropy =     -104.54253209  energy(sigma->0) =     -104.59943149


--------------------------------------------------------------------------------------------------------




--------------------------------------- Iteration      1(   2)  ---------------------------------------


    POTLOK:  cpu time      2.9700: real time      3.0031
    SETDIJ:  cpu time      0.0056: real time      0.0056
    EDDIAG:  cpu time      2.8163: real time      2.8740
  RMM-DIIS:  cpu time      8.5394: real time      8.6085
    ORTHCH:  cpu time      0.6797: real time      0.6859
       DOS:  cpu time      0.0015: real time      0.0015
    CHARGE:  cpu time      0.7739: real time      0.7810
    MIXING:  cpu time      0.0027: real time      0.0027
    --------------------------------------------
      LOOP:  cpu time     15.7892: real time     15.9624

 eigenvalue-minimisations  :  6786
 total energy-change (2. order) :-0.8809316E+01  (-0.1465532E+00)
 number of electron     360.9999957 magnetization 
 augmentation part      113.9803793 magnetization 

 Broyden mixing:
  rms(total) = 0.29434E+01    rms(broyden)= 0.29434E+01
  rms(prec ) = 0.42964E+01
  weight for this iteration     100.00

 eigenvalues of (default mixing * dielectric matrix)
  average eigenvalue GAMMA=   0.0930
  0.0930

 Free energy of the ion-electron system (eV)
  ---------------------------------------------------
  alpha Z        PSCENC =       797.33612757
  Ewald energy   TEWEN  =    132132.85912538
  -Hartree energ DENC   =   -159531.20419323
  -exchange      EXHF   =         0.00000000
  -V(xc)+E(xc)   XCENC  =        89.47251825
  PAW double counting   =     32160.88713279   -31163.50677969
  entropy T*S    EENTRO =         0.02708248
  eigenvalues    EBANDS =     -1096.11137011
  atomic energy  EATOM  =     26496.80315902
  Solvation  Ediel_sol  =         0.00000000
  ---------------------------------------------------
  free energy    TOTEN  =      -113.43719754 eV

  energy without entropy =     -113.46428002  energy(sigma->0) =     -113.44622503


--------------------------------------------------------------------------------------------------------




--------------------------------------- Iteration      1(   3)  ---------------------------------------


    POTLOK:  cpu time      2.4864: real time      2.5593
    SETDIJ:  cpu time      0.0043: real time      0.0043
    EDDIAG:  cpu time      2.6876: real time      2.7193
  RMM-DIIS:  cpu time     11.1648: real time     11.2499
    ORTHCH:  cpu time      0.7517: real time      0.7583
       DOS:  cpu time      0.0011: real time      0.0011
    CHARGE:  cpu time      0.7528: real time      0.7597
    MIXING:  cpu time      0.0022: real time      0.0022
    --------------------------------------------
      LOOP:  cpu time     17.8509: real time     18.0542

 eigenvalue-minimisations  :  6830
 total energy-change (2. order) : 0.8799251E+01  (-0.9026819E-01)
 number of electron     360.9999965 magnetization 
 augmentation part      114.1031699 magnetization 

 Broyden mixing:
  rms(total) = 0.29673E+00    rms(broyden)= 0.29672E+00
  rms(prec ) = 0.34582E+00
  weight for this iteration     100.00

 eigenvalues of (default mixing * dielectric matrix)
  average eigenvalue GAMMA=   0.1490
  0.1950  0.1029

 Free energy of the ion-electron system (eV)
  ---------------------------------------------------
  alpha Z        PSCENC =       797.33612757
  Ewald energy   TEWEN  =    132132.85912538
  -Hartree energ DENC   =   -159539.44102177
  -exchange      EXHF   =         0.00000000
  -V(xc)+E(xc)   XCENC  =        89.41748554
  PAW double counting   =     32170.29373937   -31173.00907723
  entropy T*S    EENTRO =        -0.07964999
  eigenvalues    EBANDS =     -1078.81783484
  atomic energy  EATOM  =     26496.80315902
  Solvation  Ediel_sol  =         0.00000000
  ---------------------------------------------------
  free energy    TOTEN  =      -104.63794696 eV

  energy without entropy =     -104.55829697  energy(sigma->0) =     -104.61139696


--------------------------------------------------------------------------------------------------------




--------------------------------------- Iteration      1(   4)  ---------------------------------------


    POTLOK:  cpu time      2.5711: real time      2.6039
    SETDIJ:  cpu time      0.0043: real time      0.0043
    EDDIAG:  cpu time      2.9759: real time      2.9991
  RMM-DIIS:  cpu time     10.3043: real time     10.3703
    ORTHCH:  cpu time      0.7616: real time      0.7679
       DOS:  cpu time      0.0010: real time      0.0010
    CHARGE:  cpu time      0.7510: real time      0.7567
    MIXING:  cpu time      0.0021: real time      0.0021
    --------------------------------------------
      LOOP:  cpu time     17.3713: real time     17.5053

 eigenvalue-minimisations  :  6875
 total energy-change (2. order) : 0.9683680E-01  (-0.9464203E-02)
 number of electron     360.9999965 magnetization 
 augmentation part      114.1369590 magnetization 

 Broyden mixing:
  rms(total) = 0.94916E-01    rms(broyden)= 0.94916E-01
  rms(prec ) = 0.11473E+00
  weight for this iteration     100.00

 eigenvalues of (default mixing * dielectric matrix)
  average eigenvalue GAMMA=   0.2650
  0.4719  0.0976  0.2256

 Free energy of the ion-electron system (eV)
  ---------------------------------------------------
  alpha Z        PSCENC =       797.33612757
  Ewald energy   TEWEN  =    132132.85912538
  -Hartree energ DENC   =   -159532.15380369
  -exchange      EXHF   =         0.00000000
  -V(xc)+E(xc)   XCENC  =        89.44273218
  PAW double counting   =     32166.97021293   -31169.70663165
  entropy T*S    EENTRO =        -0.08365754
  eigenvalues    EBANDS =     -1086.00837434
  atomic energy  EATOM  =     26496.80315902
  Solvation  Ediel_sol  =         0.00000000
  ---------------------------------------------------
  free energy    TOTEN  =      -104.54111015 eV

  energy without entropy =     -104.45745261  energy(sigma->0) =     -104.51322430


--------------------------------------------------------------------------------------------------------




--------------------------------------- Iteration      1(   5)  ---------------------------------------


    POTLOK:  cpu time      2.4288: real time      2.4712
    SETDIJ:  cpu time      0.0043: real time      0.0043
    EDDIAG:  cpu time      2.8822: real time      2.9043
  RMM-DIIS:  cpu time      8.6807: real time      8.8399
    ORTHCH:  cpu time      0.6022: real time      0.6069
       DOS:  cpu time      0.0011: real time      0.0011
    CHARGE:  cpu time      0.7646: real time      0.7702
    MIXING:  cpu time      0.0024: real time      0.0024
    --------------------------------------------
      LOOP:  cpu time     15.3663: real time     15.6003

 eigenvalue-minimisations  :  7029
 total energy-change (2. order) : 0.1313091E-02  (-0.1652420E-02)
 number of electron     360.9999965 magnetization 
 augmentation part      114.1297077 magnetization 

 Broyden mixing:
  rms(total) = 0.62133E-01    rms(broyden)= 0.62133E-01
  rms(prec ) = 0.80127E-01
  weight for this iteration     100.00

 eigenvalues of (default mixing * dielectric matrix)
  average eigenvalue GAMMA=   0.2866
  0.4261  0.4261  0.0986  0.1955

 Free energy of the ion-electron system (eV)
  ---------------------------------------------------
  alpha Z        PSCENC =       797.33612757
  Ewald energy   TEWEN  =    132132.85912538
  -Hartree energ DENC   =   -159533.59955818
  -exchange      EXHF   =         0.00000000
  -V(xc)+E(xc)   XCENC  =        89.44843454
  PAW double counting   =     32164.11648526   -31166.79656284
  entropy T*S    EENTRO =        -0.08385744
  eigenvalues    EBANDS =     -1084.62315036
  atomic energy  EATOM  =     26496.80315902
  Solvation  Ediel_sol  =         0.00000000
  ---------------------------------------------------
  free energy    TOTEN  =      -104.53979706 eV

  energy without entropy =     -104.45593962  energy(sigma->0) =     -104.51184458


--------------------------------------------------------------------------------------------------------




--------------------------------------- Iteration      1(   6)  ---------------------------------------


    POTLOK:  cpu time      2.4101: real time      2.4435
    SETDIJ:  cpu time      0.0054: real time      0.0054
    EDDIAG:  cpu time      2.7522: real time      2.7741
  RMM-DIIS:  cpu time      8.9656: real time      9.0276
    ORTHCH:  cpu time      0.5732: real time      0.5809
       DOS:  cpu time      0.0010: real time      0.0010
    CHARGE:  cpu time      0.7553: real time      0.7607
    MIXING:  cpu time      0.0047: real time      0.0047
    --------------------------------------------
      LOOP:  cpu time     15.4675: real time     15.5979

 eigenvalue-minimisations  :  7016
 total energy-change (2. order) : 0.2448289E-02  (-0.4961801E-03)
 number of electron     360.9999965 magnetization 
 augmentation part      114.1318180 magnetization 

 Broyden mixing:
  rms(total) = 0.38779E-01    rms(broyden)= 0.38779E-01
  rms(prec ) = 0.42542E-01
  weight for this iteration     100.00

 eigenvalues of (default mixing * dielectric matrix)
  average eigenvalue GAMMA=   0.4581
  0.8674  0.8674  0.0984  0.2017  0.2557

 Free energy of the ion-electron system (eV)
  ---------------------------------------------------
  alpha Z        PSCENC =       797.33612757
  Ewald energy   TEWEN  =    132132.85912538
  -Hartree energ DENC   =   -159532.69642011
  -exchange      EXHF   =         0.00000000
  -V(xc)+E(xc)   XCENC  =        89.45490925
  PAW double counting   =     32162.47660863   -31165.14156157
  entropy T*S    EENTRO =        -0.08443809
  eigenvalues    EBANDS =     -1085.54485884
  atomic energy  EATOM  =     26496.80315902
  Solvation  Ediel_sol  =         0.00000000
  ---------------------------------------------------
  free energy    TOTEN  =      -104.53734877 eV

  energy without entropy =     -104.45291068  energy(sigma->0) =     -104.50920274


--------------------------------------------------------------------------------------------------------




--------------------------------------- Iteration      1(   7)  ---------------------------------------


    POTLOK:  cpu time      2.5259: real time      2.5642
    SETDIJ:  cpu time      0.0045: real time      0.0045
    EDDIAG:  cpu time      2.7480: real time      2.7727
  RMM-DIIS:  cpu time      8.9919: real time      9.0572
    ORTHCH:  cpu time      0.5777: real time      0.5822
       DOS:  cpu time      0.0011: real time      0.0011
    CHARGE:  cpu time      0.7562: real time      0.7630
    MIXING:  cpu time      0.0050: real time      0.0051
    --------------------------------------------
      LOOP:  cpu time     15.6103: real time     15.7500

 eigenvalue-minimisations  :  7005
 total energy-change (2. order) :-0.4955955E-03  (-0.2357371E-03)
 number of electron     360.9999965 magnetization 
 augmentation part      114.1273439 magnetization 

 Broyden mixing:
  rms(total) = 0.37024E-01    rms(broyden)= 0.37024E-01
  rms(prec ) = 0.41231E-01
  weight for this iteration     100.00

 eigenvalues of (default mixing * dielectric matrix)
  average eigenvalue GAMMA=   0.5470
  1.6225  0.8325  0.0984  0.2942  0.1959  0.2388

 Free energy of the ion-electron system (eV)
  ---------------------------------------------------
  alpha Z        PSCENC =       797.33612757
  Ewald energy   TEWEN  =    132132.85912538
  -Hartree energ DENC   =   -159533.67859788
  -exchange      EXHF   =         0.00000000
  -V(xc)+E(xc)   XCENC  =        89.45736469
  PAW double counting   =     32160.19729054   -31162.83596667
  entropy T*S    EENTRO =        -0.08487494
  eigenvalues    EBANDS =     -1084.59147206
  atomic energy  EATOM  =     26496.80315902
  Solvation  Ediel_sol  =         0.00000000
  ---------------------------------------------------
  free energy    TOTEN  =      -104.53784437 eV

  energy without entropy =     -104.45296942  energy(sigma->0) =     -104.50955272


--------------------------------------------------------------------------------------------------------




--------------------------------------- Iteration      1(   8)  ---------------------------------------


    POTLOK:  cpu time      2.5286: real time      2.5589
    SETDIJ:  cpu time      0.0044: real time      0.0044
    EDDIAG:  cpu time      2.7783: real time      2.8017
  RMM-DIIS:  cpu time      9.0083: real time      9.0763
    ORTHCH:  cpu time      0.5953: real time      0.6002
       DOS:  cpu time      0.0011: real time      0.0011
    CHARGE:  cpu time      0.7640: real time      0.7704
    MIXING:  cpu time      0.0035: real time      0.0035
    --------------------------------------------
      LOOP:  cpu time     15.6834: real time     15.8165

 eigenvalue-minimisations  :  6997
 total energy-change (2. order) : 0.8224157E-03  (-0.1044185E-03)
 number of electron     360.9999965 magnetization 
 augmentation part      114.1281914 magnetization 

 Broyden mixing:
  rms(total) = 0.16637E-01    rms(broyden)= 0.16637E-01
  rms(prec ) = 0.19429E-01
  weight for this iteration     100.00

 eigenvalues of (default mixing * dielectric matrix)
  average eigenvalue GAMMA=   0.6167
  2.2001  0.6601  0.6601  0.0984  0.2893  0.1951  0.2140

 Free energy of the ion-electron system (eV)
  ---------------------------------------------------
  alpha Z        PSCENC =       797.33612757
  Ewald energy   TEWEN  =    132132.85912538
  -Hartree energ DENC   =   -159533.34723870
  -exchange      EXHF   =         0.00000000
  -V(xc)+E(xc)   XCENC  =        89.46230067
  PAW double counting   =     32158.11145894   -31160.73160241
  entropy T*S    EENTRO =        -0.08491090
  eigenvalues    EBANDS =     -1084.94544151
  atomic energy  EATOM  =     26496.80315902
  Solvation  Ediel_sol  =         0.00000000
  ---------------------------------------------------
  free energy    TOTEN  =      -104.53702195 eV

  energy without entropy =     -104.45211105  energy(sigma->0) =     -104.50871832


--------------------------------------------------------------------------------------------------------




--------------------------------------- Iteration      1(   9)  ---------------------------------------


    POTLOK:  cpu time      2.4781: real time      2.5362
    SETDIJ:  cpu time      0.0059: real time      0.0059
    EDDIAG:  cpu time      2.7620: real time      2.7829
  RMM-DIIS:  cpu time      8.5653: real time      9.0197
    ORTHCH:  cpu time      0.4659: real time      0.4697
       DOS:  cpu time      0.0010: real time      0.0010
    CHARGE:  cpu time      0.7578: real time      0.7633
    MIXING:  cpu time      0.0030: real time      0.0030
    --------------------------------------------
      LOOP:  cpu time     15.0390: real time     15.5818

 eigenvalue-minimisations  :  6957
 total energy-change (2. order) : 0.1308198E-03  (-0.3998587E-04)
 number of electron     360.9999965 magnetization 
 augmentation part      114.1277742 magnetization 

 Broyden mixing:
  rms(total) = 0.82483E-02    rms(broyden)= 0.82483E-02
  rms(prec ) = 0.94070E-02
  weight for this iteration     100.00

 eigenvalues of (default mixing * dielectric matrix)
  average eigenvalue GAMMA=   0.6709
  2.4128  0.8767  0.8767  0.4134  0.0984  0.2839  0.2106  0.1944

 Free energy of the ion-electron system (eV)
  ---------------------------------------------------
  alpha Z        PSCENC =       797.33612757
  Ewald energy   TEWEN  =    132132.85912538
  -Hartree energ DENC   =   -159533.42473472
  -exchange      EXHF   =         0.00000000
  -V(xc)+E(xc)   XCENC  =        89.46339278
  PAW double counting   =     32157.12006193   -31159.73196302
  entropy T*S    EENTRO =        -0.08488090
  eigenvalues    EBANDS =     -1084.87717916
  atomic energy  EATOM  =     26496.80315902
  Solvation  Ediel_sol  =         0.00000000
  ---------------------------------------------------
  free energy    TOTEN  =      -104.53689113 eV

  energy without entropy =     -104.45201023  energy(sigma->0) =     -104.50859750


--------------------------------------------------------------------------------------------------------




--------------------------------------- Iteration      1(  10)  ---------------------------------------


    POTLOK:  cpu time      2.5486: real time      2.5810
    SETDIJ:  cpu time      0.0043: real time      0.0044
    EDDIAG:  cpu time      2.7651: real time      2.7867
  RMM-DIIS:  cpu time      9.0296: real time      9.1035
    ORTHCH:  cpu time      0.4321: real time      0.4358
       DOS:  cpu time      0.0009: real time      0.0009
    CHARGE:  cpu time      0.7544: real time      0.7616
    MIXING:  cpu time      0.0027: real time      0.0028
    --------------------------------------------
      LOOP:  cpu time     15.5378: real time     15.6767

 eigenvalue-minimisations  :  6978
 total energy-change (2. order) : 0.1208214E-04  (-0.1311513E-04)
 number of electron     360.9999965 magnetization 
 augmentation part      114.1288034 magnetization 

 Broyden mixing:
  rms(total) = 0.70613E-02    rms(broyden)= 0.70613E-02
  rms(prec ) = 0.85540E-02
  weight for this iteration     100.00

 eigenvalues of (default mixing * dielectric matrix)
  average eigenvalue GAMMA=   0.6547
  2.4678  0.9242  0.9242  0.4576  0.0984  0.3441  0.2684  0.1942  0.2130

 Free energy of the ion-electron system (eV)
  ---------------------------------------------------
  alpha Z        PSCENC =       797.33612757
  Ewald energy   TEWEN  =    132132.85912538
  -Hartree energ DENC   =   -159533.21465432
  -exchange      EXHF   =         0.00000000
  -V(xc)+E(xc)   XCENC  =        89.46442960
  PAW double counting   =     32156.37719362   -31158.98512775
  entropy T*S    EENTRO =        -0.08479545
  eigenvalues    EBANDS =     -1085.09233669
  atomic energy  EATOM  =     26496.80315902
  Solvation  Ediel_sol  =         0.00000000
  ---------------------------------------------------
  free energy    TOTEN  =      -104.53687905 eV

  energy without entropy =     -104.45208359  energy(sigma->0) =     -104.50861390


--------------------------------------------------------------------------------------------------------




--------------------------------------- Iteration      1(  11)  ---------------------------------------


    POTLOK:  cpu time      2.4867: real time      2.5556
    SETDIJ:  cpu time      0.0043: real time      0.0044
    EDDIAG:  cpu time      3.5207: real time      3.5458
  RMM-DIIS:  cpu time      7.8984: real time      7.9486
    ORTHCH:  cpu time      0.5634: real time      0.5679
       DOS:  cpu time      0.0011: real time      0.0011
    CHARGE:  cpu time      0.7567: real time      0.7631
    MIXING:  cpu time      0.0040: real time      0.0040
    --------------------------------------------
      LOOP:  cpu time     15.2353: real time     15.3904

 eigenvalue-minimisations  :  5799
 total energy-change (2. order) : 0.1280195E-04  (-0.4702079E-05)
 number of electron     360.9999965 magnetization 
 augmentation part      114.1286108 magnetization 

 Broyden mixing:
  rms(total) = 0.54216E-02    rms(broyden)= 0.54216E-02
  rms(prec ) = 0.67484E-02
  weight for this iteration     100.00

 eigenvalues of (default mixing * dielectric matrix)
  average eigenvalue GAMMA=   0.6712
  2.5137  1.1022  0.8165  0.8165  0.4374  0.0984  0.2749  0.1946  0.2107  0.2470

 Free energy of the ion-electron system (eV)
  ---------------------------------------------------
  alpha Z        PSCENC =       797.33612757
  Ewald energy   TEWEN  =    132132.85912538
  -Hartree energ DENC   =   -159533.25418358
  -exchange      EXHF   =         0.00000000
  -V(xc)+E(xc)   XCENC  =        89.46450693
  PAW double counting   =     32156.17349649   -31158.77978133
  entropy T*S    EENTRO =        -0.08481182
  eigenvalues    EBANDS =     -1085.05450489
  atomic energy  EATOM  =     26496.80315902
  Solvation  Ediel_sol  =         0.00000000
  ---------------------------------------------------
  free energy    TOTEN  =      -104.53686625 eV

  energy without entropy =     -104.45205442  energy(sigma->0) =     -104.50859564


--------------------------------------------------------------------------------------------------------




--------------------------------------- Iteration      1(  12)  ---------------------------------------


    POTLOK:  cpu time      2.4426: real time      2.4737
    SETDIJ:  cpu time      0.0043: real time      0.0044
    EDDIAG:  cpu time      2.7588: real time      2.7826
  RMM-DIIS:  cpu time      6.9812: real time      7.0335
    ORTHCH:  cpu time      0.5726: real time      0.5775
       DOS:  cpu time      0.0010: real time      0.0015
    --------------------------------------------
      LOOP:  cpu time     12.7607: real time     12.8732

 eigenvalue-minimisations  :  4868
 total energy-change (2. order) : 0.7484268E-05  (-0.2084299E-05)
 number of electron     360.9999965 magnetization 
 augmentation part      114.1286108 magnetization 

 Free energy of the ion-electron system (eV)
  ---------------------------------------------------
  alpha Z        PSCENC =       797.33612757
  Ewald energy   TEWEN  =    132132.85912538
  -Hartree energ DENC   =   -159533.24672198
  -exchange      EXHF   =         0.00000000
  -V(xc)+E(xc)   XCENC  =        89.46467870
  PAW double counting   =     32155.99044558   -31158.59547145
  entropy T*S    EENTRO =        -0.08487287
  eigenvalues    EBANDS =     -1085.06332870
  atomic energy  EATOM  =     26496.80315902
  Solvation  Ediel_sol  =         0.00000000
  ---------------------------------------------------
  free energy    TOTEN  =      -104.53685876 eV

  energy without entropy =     -104.45198590  energy(sigma->0) =     -104.50856781


--------------------------------------------------------------------------------------------------------




 average (electrostatic) potential at core
  the test charge radii are     1.2059  0.5201
  (the norm of the test charge is              1.0000)
       1 -73.5413       2 -73.5217       3 -73.5073       4 -73.5233       5 -73.5104
       6 -73.5234       7 -73.5377       8 -73.5210       9 -73.5309      10 -73.9772
      11 -73.9560      12 -73.9395      13 -73.9737      14 -73.9805      15 -73.9812
      16 -73.9939      17 -73.9884      18 -73.9421      19 -73.9294      20 -73.9197
      21 -73.9704      22 -73.9296      23 -73.9594      24 -73.9630      25 -73.9806
      26 -73.9599      27 -73.9744      28 -73.5236      29 -73.5176      30 -73.5301
      31 -73.9648      32 -73.5173      33 -73.5256      34 -73.5258      35 -73.5388
      36 -73.5250      37 -38.0446
 
 
 
 E-fermi :  -0.0668     XC(G=0):  -5.8963     alpha+bet : -5.8354

 Fermi energy:        -0.0668178871

 k-point     1 :       0.0000    0.0000    0.0000
  band No.  band energies     occupation 
      1      -8.8805      2.00000
      2      -7.6238      2.00000
      3      -6.5849      2.00000
      4      -6.4820      2.00000
      5      -6.4726      2.00000
      6      -6.4576      2.00000
      7      -6.4535      2.00000
      8      -6.4466      2.00000
      9      -6.4319      2.00000
     10      -6.4270      2.00000
     11      -6.0274      2.00000
     12      -5.9121      2.00000
     13      -5.9069      2.00000
     14      -5.9056      2.00000
     15      -5.8946      2.00000
     16      -5.8925      2.00000
     17      -5.6584      2.00000
     18      -5.4509      2.00000
     19      -5.4487      2.00000
     20      -5.4443      2.00000
     21      -5.4410      2.00000
     22      -5.4382      2.00000
     23      -5.3643      2.00000
     24      -5.2278      2.00000
     25      -5.2191      2.00000
     26      -5.2158      2.00000
     27      -5.2120      2.00000
     28      -5.2081      2.00000
     29      -5.0630      2.00000
     30      -5.0209      2.00000
     31      -5.0170      2.00000
     32      -5.0104      2.00000
     33      -5.0060      2.00000
     34      -5.0018      2.00000
     35      -4.9732      2.00000
     36      -4.9649      2.00000
     37      -4.9566      2.00000
     38      -4.9503      2.00000
     39      -4.9462      2.00000
     40      -4.9037      2.00000
     41      -4.8030      2.00000
     42      -4.3758      2.00000
     43      -4.3699      2.00000
     44      -4.3452      2.00000
     45      -4.3376      2.00000
     46      -4.3184      2.00000
     47      -4.3144      2.00000
     48      -4.3023      2.00000
     49      -4.2924      2.00000
     50      -4.2873      2.00000
     51      -4.2284      2.00000
     52      -4.1324      2.00000
     53      -4.1136      2.00000
     54      -4.0460      2.00000
     55      -3.9578      2.00000
     56      -3.5958      2.00000
     57      -3.5663      2.00000
     58      -3.5627      2.00000
     59      -3.5595      2.00000
     60      -3.5504      2.00000
     61      -3.5295      2.00000
     62      -3.4855      2.00000
     63      -3.3851      2.00000
     64      -3.3699      2.00000
     65      -3.3676      2.00000
     66      -3.3668      2.00000
     67      -3.3595      2.00000
     68      -3.3530      2.00000
     69      -3.3353      2.00000
     70      -3.3183      2.00000
     71      -3.3150      2.00000
     72      -3.2977      2.00000
     73      -3.2893      2.00000
     74      -3.2847      2.00000
     75      -3.2605      2.00000
     76      -3.2580      2.00000
     77      -3.2336      2.00000
     78      -3.1561      2.00000
     79      -3.1471      2.00000
     80      -3.1389      2.00000
     81      -3.1361      2.00000
     82      -3.1259      2.00000
     83      -3.0228      2.00000
     84      -2.9365      2.00000
     85      -2.9274      2.00000
     86      -2.9152      2.00000
     87      -2.9096      2.00000
     88      -2.9025      2.00000
     89      -2.8957      2.00000
     90      -2.8889      2.00000
     91      -2.8802      2.00000
     92      -2.8306      2.00000
     93      -2.8175      2.00000
     94      -2.7738      2.00000
     95      -2.7645      2.00000
     96      -2.7300      2.00000
     97      -2.7296      2.00000
     98      -2.6846      2.00000
     99      -2.6823      2.00000
    100      -2.6777      2.00000
    101      -2.6511      2.00000
    102      -2.5313      2.00000
    103      -2.5247      2.00000
    104      -2.5183      2.00000
    105      -2.5019      2.00000
    106      -2.4894      2.00000
    107      -2.4806      2.00000
    108      -2.1938      2.00000
    109      -2.0262      2.00000
    110      -2.0135      2.00000
    111      -1.9930      2.00000
    112      -1.9922      2.00000
    113      -1.9881      2.00000
    114      -1.9840      2.00000
    115      -1.9799      2.00000
    116      -1.9520      2.00000
    117      -1.9471      2.00000
    118      -1.9411      2.00000
    119      -1.9371      2.00000
    120      -1.8876      2.00000
    121      -1.8536      2.00000
    122      -1.8455      2.00000
    123      -1.7350      2.00000
    124      -1.7082      2.00000
    125      -1.7048      2.00000
    126      -1.6950      2.00000
    127      -1.6940      2.00000
    128      -1.6076      2.00000
    129      -1.5819      2.00000
    130      -1.5352      2.00000
    131      -1.5284      2.00000
    132      -1.5232      2.00000
    133      -1.4816      2.00000
    134      -1.4690      2.00000
    135      -1.2879      2.00000
    136      -1.2776      2.00000
    137      -1.2602      2.00000
    138      -1.2564      2.00000
    139      -1.2481      2.00000
    140      -1.2354      2.00000
    141      -1.1823      2.00000
    142      -1.1727      2.00000
    143      -1.0259      2.00000
    144      -1.0213      2.00000
    145      -1.0146      2.00000
    146      -1.0083      2.00000
    147      -1.0030      2.00000
    148      -0.9470      2.00000
    149      -0.8570      2.00000
    150      -0.8463      2.00000
    151      -0.8382      2.00000
    152      -0.8281      2.00000
    153      -0.8256      2.00000
    154      -0.8055      2.00000
    155      -0.8046      2.00000
    156      -0.7956      2.00000
    157      -0.7916      2.00000
    158      -0.7889      2.00000
    159      -0.7883      2.00000
    160      -0.7069      2.00000
    161      -0.6941      2.00000
    162      -0.6823      2.00000
    163      -0.6647      2.00000
    164      -0.6603      2.00000
    165      -0.6565      2.00000
    166      -0.6349      2.00000
    167      -0.6239      2.00000
    168      -0.5866      2.00000
    169      -0.5840      2.00000
    170      -0.5535      2.00000
    171      -0.5499      2.00000
    172      -0.5465      2.00000
    173      -0.5423      2.00000
    174      -0.5370      2.00000
    175      -0.5334      2.00000
    176      -0.4514      2.00000
    177      -0.4422      2.00000
    178      -0.4406      2.00000
    179      -0.4342      2.00000
    180      -0.4285      2.00000
    181      -0.4265      2.00000
    182      -0.4112      2.00001
    183      -0.3490      2.00049
    184      -0.3234      2.00171
    185      -0.3161      2.00239
    186      -0.3108      2.00302
    187      -0.3016      2.00446
    188      -0.2930      2.00628
    189      -0.1196      1.76985
    190      -0.0857      1.31388
    191      -0.0182      0.27523
    192      -0.0084      0.17472
    193       0.0122      0.02487
    194       0.0162      0.00538
    195       0.0189     -0.00644
    196       0.0234     -0.02347
    197       0.3660     -0.00000
    198       0.8160     -0.00000
    199       0.8850     -0.00000
    200       0.8944     -0.00000
    201       0.9080     -0.00000
    202       0.9111     -0.00000
    203       0.9150     -0.00000
    204       2.4849     -0.00000
    205       3.1759      0.00000
    206       3.1822      0.00000
    207       3.2078      0.00000
    208       3.2250      0.00000
    209       3.2389      0.00000
    210       4.3973      0.00000
    211       4.7672      0.00000
    212       4.7781      0.00000
    213       4.8142      0.00000
    214       4.8172      0.00000
    215       4.8409      0.00000
    216       4.8426      0.00000
    217       4.9668      0.00000
    218       5.1087      0.00000
    219       5.5030      0.00000
    220       5.5304      0.00000
    221       5.8164      0.00000
    222       5.8224      0.00000
    223       5.8391      0.00000
    224       5.8619      0.00000
    225       5.8841      0.00000
    226       6.0889      0.00000
    227       6.5044      0.00000
    228       6.6262      0.00000
    229       6.6345      0.00000
    230       6.6401      0.00000
    231       6.7335      0.00000
    232       6.8596      0.00000
    233       7.1131      0.00000
    234       7.1263      0.00000
    235       7.1484      0.00000
    236       7.1672      0.00000
    237       7.1690      0.00000
    238       7.1772      0.00000
    239       7.3135      0.00000
    240       7.8396      0.00000

 k-point     2 :       0.2000    0.0000    0.0000
  band No.  band energies     occupation 
      1      -8.7321      2.00000
      2      -7.4789      2.00000
      3      -6.9600      2.00000
      4      -6.5868      2.00000
      5      -6.5545      2.00000
      6      -6.4236      2.00000
      7      -6.3383      2.00000
      8      -6.2686      2.00000
      9      -6.2261      2.00000
     10      -6.2130      2.00000
     11      -6.0753      2.00000
     12      -6.0004      2.00000
     13      -5.9212      2.00000
     14      -5.8350      2.00000
     15      -5.8300      2.00000
     16      -5.8209      2.00000
     17      -5.5902      2.00000
     18      -5.5367      2.00000
     19      -5.4104      2.00000
     20      -5.4078      2.00000
     21      -5.4006      2.00000
     22      -5.3759      2.00000
     23      -5.3247      2.00000
     24      -5.3074      2.00000
     25      -5.2662      2.00000
     26      -5.2311      2.00000
     27      -5.2070      2.00000
     28      -5.2024      2.00000
     29      -5.1507      2.00000
     30      -5.1149      2.00000
     31      -5.0897      2.00000
     32      -5.0194      2.00000
     33      -5.0083      2.00000
     34      -5.0013      2.00000
     35      -5.0006      2.00000
     36      -4.8493      2.00000
     37      -4.8005      2.00000
     38      -4.7968      2.00000
     39      -4.7661      2.00000
     40      -4.7602      2.00000
     41      -4.7364      2.00000
     42      -4.4975      2.00000
     43      -4.4921      2.00000
     44      -4.4672      2.00000
     45      -4.4148      2.00000
     46      -4.3999      2.00000
     47      -4.3892      2.00000
     48      -4.3299      2.00000
     49      -4.2094      2.00000
     50      -4.1949      2.00000
     51      -4.1151      2.00000
     52      -4.0952      2.00000
     53      -4.0859      2.00000
     54      -4.0512      2.00000
     55      -3.9926      2.00000
     56      -3.8332      2.00000
     57      -3.7362      2.00000
     58      -3.7314      2.00000
     59      -3.6832      2.00000
     60      -3.6733      2.00000
     61      -3.6190      2.00000
     62      -3.5762      2.00000
     63      -3.5514      2.00000
     64      -3.5479      2.00000
     65      -3.5204      2.00000
     66      -3.5120      2.00000
     67      -3.4965      2.00000
     68      -3.4426      2.00000
     69      -3.3971      2.00000
     70      -3.3687      2.00000
     71      -3.3600      2.00000
     72      -3.3257      2.00000
     73      -3.2611      2.00000
     74      -3.2439      2.00000
     75      -3.2381      2.00000
     76      -3.1821      2.00000
     77      -3.1686      2.00000
[...]
    148      -1.1034      2.00000
    149      -1.0852      2.00000
    150      -1.0657      2.00000
    151      -1.0568      2.00000
    152      -1.0325      2.00000
    153      -1.0209      2.00000
    154      -0.9182      2.00000
    155      -0.8645      2.00000
    156      -0.8015      2.00000
    157      -0.7603      2.00000
    158      -0.6968      2.00000
    159      -0.6283      2.00000
    160      -0.6103      2.00000
    161      -0.5950      2.00000
    162      -0.5394      2.00000
    163      -0.4880      2.00000
    164      -0.4808      2.00000
    165      -0.4425      2.00000
    166      -0.3737      2.00013
    167      -0.3212      2.00190
    168      -0.2953      2.00573
    169      -0.2820      2.00949
    170      -0.2605      2.01948
    171      -0.2542      2.02350
    172      -0.2358      2.03796
    173      -0.1988      2.06849
    174      -0.1713      2.05843
    175      -0.1126      1.69158
    176      -0.0963      1.47556
    177      -0.0887      1.36049
    178      -0.0681      1.02135
    179      -0.0435      0.61671
    180      -0.0368      0.51575
    181      -0.0297      0.41725
    182       0.0282     -0.03826
    183       0.1348     -0.01519
    184       0.1540     -0.00772
    185       0.1725     -0.00368
    186       0.1774     -0.00299
    187       0.1958     -0.00130
    188       0.2371     -0.00015
    189       0.2833     -0.00001
    190       0.3677     -0.00000
    191       0.4723     -0.00000
    192       1.0887     -0.00000
    193       1.3430     -0.00000
    194       1.3454     -0.00000
    195       1.5279     -0.00000
    196       1.5864     -0.00000
    197       1.7052     -0.00000
    198       1.7182     -0.00000
    199       1.7233     -0.00000
    200       2.0214     -0.00000
    201       2.3353     -0.00000
    202       2.3561     -0.00000
    203       2.5658     -0.00000
    204       2.7915      0.00000
    205       2.8224      0.00000
    206       2.9075      0.00000
    207       2.9520      0.00000
    208       3.0474      0.00000
    209       3.1445      0.00000
    210       3.2494      0.00000
    211       3.3072      0.00000
    212       3.5579      0.00000
    213       3.7292      0.00000
    214       3.7802      0.00000
    215       4.0700      0.00000
    216       4.3989      0.00000
    217       4.4358      0.00000
    218       4.5652      0.00000
    219       4.7617      0.00000
    220       5.1503      0.00000
    221       5.4804      0.00000
    222       5.5602      0.00000
    223       5.6929      0.00000
    224       5.7479      0.00000
    225       5.8040      0.00000
    226       5.9112      0.00000
    227       5.9378      0.00000
    228       5.9895      0.00000
    229       6.0026      0.00000
    230       6.0743      0.00000
    231       6.2558      0.00000
    232       6.4200      0.00000
    233       6.5908      0.00000
    234       6.7018      0.00000
    235       6.8370      0.00000
    236       6.8712      0.00000
    237       6.9027      0.00000
    238       7.0444      0.00000
    239       7.2350      0.00000
    240       7.3080      0.00000


--------------------------------------------------------------------------------------------------------


 soft charge-density along one line, spin component           1
         0         1         2         3         4         5         6         7         8         9
 total charge-density along one line
 
 pseudopotential strength for first ion, spin component:           1
 -6.577   0.002  -0.000  -0.010  -0.001  -6.672   0.001  -0.000
  0.002  -6.464  -0.000   0.001  -0.010   0.001  -6.562  -0.000
 -0.000  -0.000  -6.454   0.001   0.000  -0.000  -0.000  -6.552
 -0.010   0.001   0.001  -6.465   0.001  -0.010   0.000   0.001
 -0.001  -0.010   0.000   0.001  -6.577  -0.001  -0.010   0.000
 -6.672   0.001  -0.000  -0.010  -0.001  -6.751   0.001  -0.000
  0.001  -6.562  -0.000   0.000  -0.010   0.001  -6.644  -0.000
 -0.000  -0.000  -6.552   0.001   0.000  -0.000  -0.000  -6.634
 -0.010   0.000   0.001  -6.562   0.001  -0.010   0.000   0.001
 -0.001  -0.010   0.000   0.001  -6.672  -0.000  -0.010   0.000
 -0.000  -0.000  -0.035  -0.001   0.000  -0.000  -0.000  -0.034
 -0.000  -0.000  -0.051  -0.001   0.000  -0.000  -0.000  -0.050
 -0.000  -0.004   0.000   0.000   0.001  -0.000  -0.004   0.000
  0.000  -0.000  -0.008   0.000  -0.000   0.000  -0.000  -0.008
  0.000   0.000   0.000  -0.004  -0.000   0.000   0.000   0.000
 -0.000  -0.004   0.000   0.000   0.001  -0.000  -0.003   0.000
  0.000  -0.000  -0.008  -0.000  -0.000   0.000  -0.000  -0.008
  0.000   0.000   0.000  -0.004  -0.000   0.000   0.000   0.000
 total augmentation occupancy for first ion, spin component:           1
  3.254   0.015   0.005  -0.270  -0.021  -1.915  -0.010  -0.003   0.088   0.013   0.002  -0.001   0.007  -0.000  -0.040  -0.000
  0.015   4.231  -0.009   0.011  -0.263  -0.010  -2.177   0.008  -0.005   0.090   0.003  -0.001  -0.245   0.003   0.001   0.014
  0.005  -0.009   4.367   0.027   0.003  -0.003   0.008  -2.553  -0.017  -0.002   0.840  -0.182   0.000  -0.278  -0.004   0.000
 -0.270   0.011   0.027   4.227   0.000   0.097  -0.005  -0.017  -2.172   0.000   0.011  -0.005   0.000  -0.000  -0.242  -0.000
 -0.021  -0.263   0.003   0.000   3.247   0.013   0.082  -0.002  -0.000  -1.909   0.001  -0.000  -0.048   0.000   0.004   0.004
 -1.915  -0.010  -0.003   0.097   0.013   2.226   0.006   0.001   0.034  -0.008  -0.002   0.000  -0.007  -0.000   0.040   0.001
 -0.010  -2.177   0.008  -0.005   0.082   0.006   1.973  -0.007   0.001   0.039  -0.002   0.001   0.236  -0.003  -0.001  -0.019
 -0.003   0.008  -2.553  -0.017  -0.002   0.001  -0.007   2.524   0.010   0.001  -0.707   0.126   0.001   0.336   0.005  -0.000
  0.088  -0.005  -0.017  -2.172  -0.000   0.034   0.001   0.010   1.966  -0.000  -0.006   0.002  -0.001  -0.002   0.234   0.000
  0.013   0.090  -0.002   0.000  -1.909  -0.008   0.039   0.001  -0.000   2.222  -0.001   0.001   0.048  -0.000  -0.006  -0.004
  0.002   0.003   0.840   0.011   0.001  -0.002  -0.002  -0.707  -0.006  -0.001   2.506  -0.574  -0.003   0.192  -0.005   0.000
 -0.001  -0.001  -0.182  -0.005  -0.000   0.000   0.001   0.126   0.002   0.001  -0.574   0.148   0.001  -0.068   0.001  -0.000
  0.007  -0.245   0.000   0.000  -0.048  -0.007   0.236   0.001  -0.001   0.048  -0.003   0.001   0.254  -0.000  -0.000  -0.018
 -0.000   0.003  -0.278  -0.000   0.000  -0.000  -0.003   0.336  -0.002  -0.000   0.192  -0.068  -0.000   0.141  -0.000   0.000
 -0.040   0.001  -0.004  -0.242   0.004   0.040  -0.001   0.005   0.234  -0.006  -0.005   0.001  -0.000  -0.000   0.254   0.000
 -0.000   0.014   0.000  -0.000   0.004   0.001  -0.019  -0.000   0.000  -0.004   0.000  -0.000  -0.018   0.000   0.000   0.001
 -0.000  -0.000   0.007   0.000  -0.000   0.000   0.000  -0.023   0.000   0.000  -0.021   0.007   0.000  -0.011   0.000  -0.000
  0.003  -0.000   0.000   0.014  -0.000  -0.003   0.000  -0.000  -0.019   0.000   0.000  -0.000   0.000   0.000  -0.018  -0.000


------------------------ aborting loop because EDIFF is reached ----------------------------------------


    CHARGE:  cpu time      0.7772: real time      0.7839
    FORLOC:  cpu time      0.0172: real time      0.0173
    FORNL :  cpu time      2.6290: real time      2.6522
    STRESS:  cpu time      7.8806: real time      7.9428
    FORCOR:  cpu time      2.4541: real time      2.4693
    FORHAR:  cpu time      0.0158: real time      0.0159
    MIXING:  cpu time      0.0136: real time      0.0137
    OFIELD:  cpu time      0.0000: real time      0.0000

  FORCE on cell =-STRESS in cart. coord.  units (eV):
  Direction    XX          YY          ZZ          XY          YZ          ZX
  --------------------------------------------------------------------------------------
  Alpha Z   797.33613   797.33613   797.33613
  Ewald  151843.16218151830.34084************   -18.05183    -4.22598     0.94414
  Hartree157816.82035157812.77521************    -5.62187    -0.44655    -0.71722
  E(xc)   -1657.78905 -1657.92183 -1666.28857    -0.19232    -0.03964    -0.02159
  Local  ************************321101.69472    20.20627     3.82820    -0.86314
  n-local   110.57425   110.30279    90.92567    -0.77515    -0.41454     0.30340
  augment  1891.79628  1892.50435  1951.28262     1.30639     0.17845     0.56955
  Kinetic  5211.96886  5213.96449  5361.20802     3.09024     1.14204    -0.22782
  Fock        0.00000     0.00000     0.00000     0.00000     0.00000     0.00000
  -------------------------------------------------------------------------------------
  Total     -33.39719   -33.41157     2.77576    -0.03827     0.02198    -0.01267
  in kB     -34.51066   -34.52552     2.86831    -0.03955     0.02271    -0.01309
  external pressure =      -22.06 kB  Pullay stress =        0.00 kB


 VOLUME and BASIS-vectors are now :
 -----------------------------------------------------------------------------
  energy-cutoff  :      680.29
  volume of cell :     1550.48
      direct lattice vectors                 reciprocal lattice vectors
     8.468310000  0.000000000  0.000000000     0.118087316 -0.068177744  0.000000000
     4.234155000  7.333771587  0.000000000     0.000000000  0.136355488  0.000000000
     0.000000000  0.000000000 24.965661990     0.000000000  0.000000000  0.040055016

  length of vectors
     8.468310000  8.468310000 24.965661990     0.136355488  0.136355488  0.040055016


 FORCES acting on ions
    electron-ion (+dipol)            ewald-force                    non-local-force                 convergence-correction
 -----------------------------------------------------------------------------------------------
   -.357E+01 -.242E+01 0.248E+04   0.351E+01 0.238E+01 -.248E+04   0.108E+00 0.509E-01 -.131E+01   -.714E-02 0.353E-01 -.592E-01
   -.362E+00 -.392E+01 0.248E+04   0.302E+00 0.385E+01 -.247E+04   0.360E-01 0.103E+00 -.131E+01   0.368E-01 0.289E-01 -.700E-01
   0.323E+01 -.563E+01 0.248E+04   -.329E+01 0.560E+01 -.247E+04   0.100E-01 0.868E-01 -.123E+01   -.301E-01 0.378E-01 -.451E-01
   -.327E+01 0.138E+01 0.247E+04   0.320E+01 -.134E+01 -.247E+04   0.106E+00 -.328E-01 -.126E+01   0.745E-02 -.245E-01 -.667E-01
   -.107E+00 -.151E+00 0.247E+04   0.844E-01 0.210E+00 -.247E+04   0.544E-02 -.115E-01 -.131E+01   0.992E-02 -.571E-01 -.611E-01
   0.313E+01 -.210E+01 0.247E+04   -.310E+01 0.212E+01 -.247E+04   -.751E-01 0.182E-01 -.132E+01   -.173E-01 -.271E-01 -.453E-01
   -.295E+01 0.602E+01 0.248E+04   0.290E+01 -.599E+01 -.247E+04   0.887E-01 -.869E-01 -.130E+01   -.166E-01 -.119E-02 -.748E-01
   -.190E+00 0.421E+01 0.247E+04   0.157E+00 -.417E+01 -.247E+04   -.125E-01 -.727E-01 -.132E+01   0.203E-01 -.992E-02 -.814E-01
   0.348E+01 0.249E+01 0.247E+04   -.345E+01 -.249E+01 -.247E+04   -.967E-01 -.481E-01 -.130E+01   -.398E-02 0.195E-01 -.697E-01
   -.192E+01 -.465E+01 0.834E+03   0.185E+01 0.463E+01 -.833E+03   0.124E+00 0.595E-01 -.278E+00   0.369E-03 0.319E-01 -.828E-01
   0.847E+00 -.459E+01 0.837E+03   -.810E+00 0.452E+01 -.837E+03   -.110E-01 0.102E+00 -.335E+00   0.354E-01 0.105E-01 -.915E-01
   -.639E+00 -.726E+01 0.833E+03   0.572E+00 0.716E+01 -.832E+03   0.308E-01 0.139E+00 -.310E+00   -.365E-01 0.253E-01 -.713E-01
   -.543E+00 0.185E+01 0.835E+03   0.477E+00 -.178E+01 -.834E+03   0.972E-01 -.407E-01 -.286E+00   -.146E-02 -.480E-01 -.781E-01
   -.720E+00 0.647E+00 0.838E+03   0.684E+00 -.586E+00 -.838E+03   0.434E-01 0.827E-02 -.372E+00   0.111E-01 -.765E-01 -.866E-01
   0.674E+00 0.212E+00 0.832E+03   -.635E+00 -.188E+00 -.832E+03   -.345E-01 0.295E-02 -.237E+00   -.113E-01 -.404E-01 -.798E-01
   -.293E+01 0.499E+01 0.836E+03   0.290E+01 -.499E+01 -.835E+03   0.117E+00 -.134E+00 -.350E+00   -.187E-01 0.277E-01 -.833E-01
   -.383E+00 0.387E+01 0.836E+03   0.350E+00 -.386E+01 -.836E+03   0.150E-02 -.112E+00 -.343E+00   0.309E-01 0.222E-01 -.104E+00
   0.283E+01 0.580E+01 0.831E+03   -.280E+01 -.571E+01 -.831E+03   -.711E-01 -.156E+00 -.277E+00   -.134E-01 0.507E-01 -.841E-01
   -.706E+00 -.334E+00 -.839E+03   0.116E+01 0.690E+00 0.839E+03   -.426E+00 -.370E+00 -.633E-01   -.146E-01 0.403E-02 0.307E-01
   0.268E+01 -.224E+01 -.824E+03   -.286E+01 0.235E+01 0.824E+03   0.171E+00 -.987E-01 0.538E+00   0.251E-01 -.832E-02 0.526E-01
   -.144E+01 0.284E+00 -.813E+03   0.147E+01 -.260E+00 0.813E+03   0.566E-02 -.936E-02 0.519E+00   -.684E-02 -.198E-01 0.308E-01
   -.531E+00 0.548E+00 -.838E+03   0.450E+00 -.107E+01 0.838E+03   0.940E-01 0.555E+00 -.340E-01   -.483E-02 -.288E-01 0.452E-01
   0.157E+01 0.905E+00 -.814E+03   -.162E+01 -.879E+00 0.814E+03   0.474E-01 0.369E-01 0.459E+00   0.610E-02 -.576E-01 0.591E-01
   -.129E+01 0.146E+01 -.816E+03   0.132E+01 -.143E+01 0.815E+03   -.442E-01 0.198E-01 0.480E+00   0.899E-02 -.459E-01 0.530E-01
   0.121E+01 -.187E+00 -.817E+03   -.118E+01 0.142E+00 0.816E+03   -.103E-01 -.888E-02 0.540E+00   -.273E-01 0.536E-01 0.189E-01
   0.448E+00 -.113E+01 -.818E+03   -.460E+00 0.115E+01 0.818E+03   -.206E-02 -.638E-01 0.439E+00   0.171E-01 0.404E-01 0.600E-01
   -.160E+01 0.117E+01 -.815E+03   0.160E+01 -.123E+01 0.815E+03   -.578E-02 -.924E-02 0.515E+00   0.169E-01 0.539E-01 0.440E-01
   0.249E+01 0.500E+01 -.245E+04   -.269E+01 -.515E+01 0.245E+04   0.179E+00 0.116E+00 0.133E+01   0.181E-01 0.310E-01 0.687E-01
   -.207E+01 0.727E+01 -.245E+04   0.232E+01 -.783E+01 0.245E+04   -.248E+00 0.517E+00 0.138E+01   0.216E-01 0.283E-01 0.792E-01
   -.104E+01 0.277E+00 -.246E+04   0.111E+01 -.331E+00 0.245E+04   -.252E-01 0.116E-01 0.119E+01   -.319E-01 0.421E-01 0.610E-01
   0.245E+02 -.139E+02 -.245E+04   -.228E+02 0.129E+02 0.245E+04   -.180E+01 0.988E+00 -.552E+01   0.159E-01 -.205E-01 0.568E-01
   -.778E+01 -.201E+01 -.245E+04   0.839E+01 0.209E+01 0.244E+04   -.586E+00 -.592E-01 0.138E+01   0.774E-02 -.343E-01 0.663E-01
   0.557E+00 -.232E+01 -.245E+04   -.630E+00 0.228E+01 0.245E+04   0.112E+00 0.543E-01 0.126E+01   -.134E-01 -.283E-02 0.611E-01
   -.318E+01 -.432E+01 -.245E+04   0.320E+01 0.459E+01 0.245E+04   -.173E-01 -.237E+00 0.134E+01   0.162E-02 -.298E-01 0.769E-01
   0.942E+00 -.442E-01 -.245E+04   -.896E+00 0.392E-01 0.245E+04   -.714E-01 0.315E-01 0.120E+01   0.205E-01 -.226E-01 0.990E-01
   0.206E+01 0.139E+01 -.246E+04   -.204E+01 -.126E+01 0.245E+04   0.563E-02 -.156E+00 0.126E+01   -.155E-01 -.502E-02 0.824E-01
   -.103E+02 0.565E+01 -.324E+03   0.112E+02 -.615E+01 0.327E+03   -.106E+01 0.583E+00 -.284E+01   0.935E-03 -.779E-03 -.105E-02
 -----------------------------------------------------------------------------------------------
   0.314E+01 -.175E+01 0.945E+01   0.124E-13 0.198E-12 0.688E-11   -.321E+01 0.178E+01 -.908E+01   0.421E-01 -.179E-01 -.290E+00
 
 
 POSITION                                       TOTAL-FORCE (eV/Angst)
 -----------------------------------------------------------------------------------
      0.00000      0.00000      8.50000         0.040733      0.046925     -0.117759
      2.82843      0.00000      8.50000         0.014230      0.060830     -0.100553
      5.65685      0.00000      8.50000        -0.074187      0.091315     -0.212168
      1.41421      2.44949      8.50000         0.043125     -0.013320     -0.087159
      4.24264      2.44949      8.50000        -0.006884     -0.009110     -0.075184
      7.07107      2.44949      8.50000        -0.058362      0.007554     -0.078404
      2.82843      4.89898      8.50000         0.020521     -0.055592     -0.107987
      5.65685      4.89898      8.50000        -0.023566     -0.043026     -0.090980
      8.48528      4.89898      8.50000        -0.069131     -0.028755     -0.094419
      1.41421      0.81650     10.80940         0.053725      0.077175      0.204065
      4.24264      0.81650     10.80940         0.061942      0.040403     -0.026649
      7.07107      0.81650     10.80940        -0.072061      0.064510      0.044983
      2.82843      3.26599     10.80940         0.030752     -0.023677      0.192614
      5.65685      3.26599     10.80940         0.018861     -0.006927      0.049572
      8.48528      3.26599     10.80940        -0.006179     -0.013263      0.261615
      4.24264      5.71548     10.80940         0.068742     -0.102713      0.083919
      7.07107      5.71548     10.80940         0.000556     -0.081360      0.084668
      9.89949      5.71548     10.80940        -0.055741     -0.017507      0.069692
      8.51390      1.64397     13.12893         0.009826     -0.010263     -0.016220
      2.85618      1.63024     13.10332         0.012240      0.000309      0.001334
      5.68101      1.63304     13.08952         0.021181     -0.004763      0.004765
      9.91076      4.05852     13.12736         0.009358      0.004659     -0.014374
      4.26618      4.07560     13.09101         0.005362      0.005277      0.002159
      7.09126      4.07743     13.09352        -0.002293     -0.000607     -0.013644
     11.32742      6.52158     13.09185        -0.006269     -0.001361     -0.008504
      5.67937      6.52263     13.09485         0.003713     -0.004333      0.004035
      8.50438      6.51802     13.09131         0.008436     -0.017286      0.006715
      4.28015      7.32526     15.42185         0.000260     -0.008927     -0.004298
      7.11972      7.30940     15.42324         0.023610     -0.010654     -0.033576
      9.93344      7.32864     15.42120         0.011160     -0.001040      0.006603
      1.49289      2.42311     15.53534        -0.011710      0.001935     -0.058795
      4.30759      2.44075     15.42214         0.031906     -0.013806     -0.034744
      7.10830      2.43836     15.42512         0.026015      0.005780      0.006701
      2.87537      4.89260     15.41843         0.013671      0.003240     -0.003644
      5.70014      4.88264     15.41461        -0.003831      0.003786      0.011890
      8.52202      4.88722     15.42576         0.010836     -0.030811      0.003851
      2.03171      2.12662     16.96860        -0.150546      0.085405      0.139881
 -----------------------------------------------------------------------------------
    total drift:                               -0.028226      0.004966      0.072426


--------------------------------------------------------------------------------------------------------



  FREE ENERGIE OF THE ION-ELECTRON SYSTEM (eV)
  ---------------------------------------------------
  free  energy   TOTEN  =      -104.53685876 eV

  energy  without entropy=     -104.45198590  energy(sigma->0) =     -104.50856781
 


--------------------------------------------------------------------------------------------------------


    POTLOK:  cpu time      2.5819: real time      2.6105


--------------------------------------------------------------------------------------------------------


 writing wavefunctions
     LOOP+:  cpu time    218.6526: real time    221.7373
    4ORBIT:  cpu time      0.0000: real time      0.0000

 total amount of memory used by VASP MPI-rank0   148555. kBytes
=======================================================================

   base      :      30000. kBytes
   nonlr-proj:      22482. kBytes
   fftplans  :       5213. kBytes
   grid      :      24541. kBytes
   one-center:        575. kBytes
   wavefun   :      65744. kBytes
 
  
  
 General timing and accounting informations for this job:
 ========================================================
  
                  Total CPU time used (sec):      232.120
                            User time (sec):      228.883
                          System time (sec):        3.237
                         Elapsed time (sec):      243.284
  
                   Maximum memory used (kb):      630132.
                   Average memory used (kb):          N/A
  
                          Minor page faults:       187323
                          Major page faults:          706
                 Voluntary context switches:         5731
