<?xml version="1.0" encoding="ISO-8859-1"?>
<modeling>
 <generator>
  <i name="program" type="string">vasp </i>
  <i name="version" type="string">6.4.2  </i>
  <i name="subversion" type="string">20Jul23 (build Mar 01 2024 16:46:03) complex                          parallel </i>
  <i name="platform" type="string">LinuxIFC </i>
  <i name="date" type="string">2025 01 15 </i>
  <i name="time" type="string">05:06:44 </i>
 </generator>
 <incar>
  <i type="string" name="ALGO">Fast</i>
  <i type="int" name="ISPIN">     1</i>
  <i type="int" name="IBRION">    -1</i>
  <i name="EDIFF">      0.00001000</i>
  <i type="int" name="ISYM">     0</i>
  <i name="ENCUT">    680.29000000</i>
  <i type="string" name="LREAL">Auto</i>
  <i type="int" name="ISMEAR">     1</i>
  <i name="SIGMA">      0.10000000</i>
  <i type="string" name="GGA">BF</i>
  <i type="logical" name="LUSE_VDW"> T  </i>
  <i name="Zab_VDW">     -1.88670000</i>
 </incar>
 <primitive_cell>
  <structure name="primitive_cell" >
   <crystal>
    <varray name="basis" >
     <v>       8.46831000       0.00000000       0.00000000 </v>
     <v>       4.23415500       7.33377159       0.00000000 </v>
     <v>       0.00000000       0.00000000      24.96566199 </v>
    </varray>
    <i name="volume">   1550.48373159 </i>
    <varray name="rec_basis" >
     <v>       0.11808732      -0.06817774       0.00000000 </v>
     <v>       0.00000000       0.13635549       0.00000000 </v>
     <v>       0.00000000       0.00000000       0.04005502 </v>
    </varray>
   </crystal>
   <varray name="positions" >
    <v>       0.00000000       0.00000000       0.34046764 </v>
    <v>       0.33400137       0.00000000       0.34046764 </v>
    <v>       0.66800274       0.00000000       0.34046764 </v>
    <v>       1.00000000       0.33400137       0.34046764 </v>
    <v>       0.33400137       0.33400137       0.34046764 </v>
    <v>       0.66800274       0.33400137       0.34046764 </v>
    <v>       1.00000000       0.66800274       0.34046764 </v>
    <v>       0.33400137       0.66800274       0.34046764 </v>
    <v>       0.66800274       0.66800274       0.34046764 </v>
    <v>       0.11133379       0.11133379       0.43297074 </v>
    <v>       0.44533516       0.11133379       0.43297074 </v>
    <v>       0.77933653       0.11133379       0.43297074 </v>
    <v>       0.11133379       0.44533516       0.43297074 </v>
    <v>       0.44533516       0.44533516       0.43297074 </v>
    <v>       0.77933653       0.44533516       0.43297074 </v>
    <v>       0.11133379       0.77933653       0.43297074 </v>
    <v>       0.44533516       0.77933653       0.43297074 </v>
    <v>       0.77933653       0.77933653       0.43297074 </v>
    <v>       0.89330160       0.22416462       0.52587961 </v>
    <v>       0.22613238       0.22229239       0.52485368 </v>
    <v>       0.55951837       0.22267390       0.52430101 </v>
    <v>       0.89363370       0.55340170       0.52581651 </v>
    <v>       0.22591709       0.55573015       0.52436071 </v>
    <v>       0.55939844       0.55597971       0.52446105 </v>
    <v>       0.89299827       0.88925305       0.52439419 </v>
    <v>       0.22596300       0.88939625       0.52451431 </v>
    <v>       0.55987553       0.88876839       0.52437249 </v>
    <v>       0.00601178       0.99883959       0.61772256 </v>
    <v>       0.34240963       0.99667693       0.61777831 </v>
    <v>       0.67336276       0.99930031       0.61769645 </v>
    <v>       0.01108885       0.33040452       0.62226839 </v>
    <v>       0.34226717       0.33280995       0.61773406 </v>
    <v>       0.67315878       0.33248329       0.61785360 </v>
    <v>       0.00597795       0.66713292       0.61758527 </v>
    <v>       0.34022732       0.66577438       0.61743228 </v>
    <v>       0.67314320       0.66639886       0.61787910 </v>
    <v>       0.09493065       0.28997619       0.67967760 </v>
   </varray>
  </structure>
  <varray name="primitive_index" >
   <v type="int" >        1 </v>
   <v type="int" >        2 </v>
   <v type="int" >        3 </v>
   <v type="int" >        4 </v>
   <v type="int" >        5 </v>
   <v type="int" >        6 </v>
   <v type="int" >        7 </v>
   <v type="int" >        8 </v>
   <v type="int" >        9 </v>
   <v type="int" >       10 </v>
   <v type="int" >       11 </v>
   <v type="int" >       12 </v>
   <v type="int" >       13 </v>
   <v type="int" >       14 </v>
   <v type="int" >       15 </v>
   <v type="int" >       16 </v>
   <v type="int" >       17 </v>
   <v type="int" >       18 </v>
   <v type="int" >       19 </v>
   <v type="int" >       20 </v>
   <v type="int" >       21 </v>
   <v type="int" >       22 </v>
   <v type="int" >       23 </v>
   <v type="int" >       24 </v>
   <v type="int" >       25 </v>
   <v type="int" >       26 </v>
   <v type="int" >       27 </v>
   <v type="int" >       28 </v>
   <v type="int" >       29 </v>
   <v type="int" >       30 </v>
   <v type="int" >       31 </v>
   <v type="int" >       32 </v>
   <v type="int" >       33 </v>
   <v type="int" >       34 </v>
   <v type="int" >       35 </v>
   <v type="int" >       36 </v>
   <v type="int" >       37 </v>
  </varray>
 </primitive_cell>
 <kpoints>
  <generation param="Monkhorst-Pack">
   <v type="int" name="divisions">       5        5        1 </v>
   <v name="usershift">      0.00000000       0.00000000       0.00000000 </v>
   <v name="genvec1">      0.20000000      -0.00000000       0.00000000 </v>
   <v name="genvec2">      0.00000000       0.20000000       0.00000000 </v>
   <v name="genvec3">      0.00000000       0.00000000       1.00000000 </v>
   <v name="shift">      0.00000000       0.00000000       0.00000000 </v>
  </generation>
  <varray name="kpointlist" >
   <v>       0.00000000       0.00000000       0.00000000 </v>
   <v>       0.20000000       0.00000000       0.00000000 </v>
   <v>       0.20000000       0.20000000       0.00000000 </v>
   <v>       0.00000000       0.20000000       0.00000000 </v>
   <v>       0.40000000       0.00000000       0.00000000 </v>
   <v>       0.40000000       0.40000000       0.00000000 </v>
   <v>       0.00000000       0.40000000       0.00000000 </v>
   <v>       0.40000000       0.20000000       0.00000000 </v>
   <v>       0.20000000       0.40000000       0.00000000 </v>
   <v>      -0.20000000       0.20000000       0.00000000 </v>
   <v>      -0.40000000       0.20000000       0.00000000 </v>
   <v>       0.40000000      -0.40000000       0.00000000 </v>
   <v>      -0.20000000       0.40000000       0.00000000 </v>
  </varray>
  <varray name="weights" >
   <v>       0.04000000 </v>
   <v>       0.08000000 </v>
   <v>       0.08000000 </v>
   <v>       0.08000000 </v>
   <v>       0.08000000 </v>
   <v>       0.08000000 </v>
   <v>       0.08000000 </v>
   <v>       0.08000000 </v>
   <v>       0.08000000 </v>
   <v>       0.08000000 </v>
   <v>       0.08000000 </v>
   <v>       0.08000000 </v>
   <v>       0.08000000 </v>
  </varray>
 </kpoints>
 <parameters>
  <separator name="general" >
   <i type="string" name="SYSTEM">unknown system</i>
   <i type="logical" name="LCOMPAT"> F  </i>
  </separator>
  <separator name="electronic" >
   <i type="string" name="PREC">normal</i>
   <i name="ENMAX">    680.29000000</i>
   <i name="ENAUG">    400.00000000</i>
   <i name="EDIFF">      0.00001000</i>
   <i type="int" name="IALGO">    68</i>
   <i type="int" name="IWAVPR">    10</i>
   <i type="int" name="NBANDS">   240</i>
   <i type="int" name="NBANDSLOW">    -1</i>
   <i type="int" name="NBANDSHIGH">    -1</i>
   <i name="NELECT">    361.00000000</i>
   <i type="int" name="TURBO">     0</i>
   <i type="int" name="IRESTART">     0</i>
   <i type="int" name="NREBOOT">     0</i>
   <i type="int" name="NMIN">     0</i>
   <i name="EREF">      0.00000000</i>
   <separator name="electronic smearing" >
    <i type="int" name="ISMEAR">     1</i>
    <i name="SIGMA">      0.10000000</i>
    <i name="KSPACING">      0.50000000</i>
    <i type="logical" name="KGAMMA"> T  </i>
    <i type="logical" name="KBLOWUP"> T  </i>
   </separator>
   <separator name="electronic projectors" >
    <i type="logical" name="LREAL"> T  </i>
    <v name="ROPT">     -0.00050000     -0.00050000</v>
    <i type="int" name="LMAXPAW">  -100</i>
    <i type="int" name="LMAXMIX">     2</i>
    <i type="logical" name="NLSPLINE"> F  </i>
   </separator>
   <separator name="electronic startup" >
    <i type="int" name="ISTART">     1</i>
    <i type="int" name="ICHARG">     0</i>
    <i type="int" name="INIWAV">     1</i>
   </separator>
   <separator name="electronic spin" >
    <i type="int" name="ISPIN">     1</i>
    <i type="logical" name="LNONCOLLINEAR"> F  </i>
    <v name="MAGMOM">      1.00000000      1.00000000      1.00000000      1.00000000      1.00000000      1.00000000      1.00000000      1.00000000      1.00000000      1.00000000      1.00000000      1.00000000      1.00000000      1.00000000      1.00000000      1.00000000      1.00000000      1.00000000      1.00000000      1.00000000
      1.00000000      1.00000000      1.00000000      1.00000000      1.00000000      1.00000000      1.00000000      1.00000000      1.00000000      1.00000000      1.00000000      1.00000000      1.00000000      1.00000000      1.00000000      1.00000000      1.00000000</v>
    <i name="NUPDOWN">     -1.00000000</i>
    <i type="logical" name="LSORBIT"> F  </i>
    <v name="SAXIS">      0.00000000      0.00000000      1.00000000</v>
    <i type="logical" name="LSPIRAL"> F  </i>
    <v name="QSPIRAL">      0.00000000      0.00000000      0.00000000</v>
    <i type="logical" name="LZEROZ"> F  </i>
   </separator>
   <separator name="electronic exchange-correlation" >
    <i type="logical" name="LASPH"> F  </i>
    <i type="logical" name="LMETAGGA"> F  </i>
   </separator>
   <separator name="electronic convergence" >
    <i type="int" name="NELM">    60</i>
    <i type="int" name="NELMDL">     0</i>
    <i type="int" name="NELMIN">     2</i>
    <i name="ENINI">    680.29000000</i>
    <separator name="electronic convergence detail" >
     <i type="logical" name="LDIAG"> T  </i>
     <i type="logical" name="LSUBROT"> F  </i>
     <i name="WEIMIN">      0.00000000</i>
     <i name="EBREAK">      0.00000001</i>
     <i name="DEPER">      0.30000000</i>
     <i type="int" name="NRMM">     4</i>
     <i name="TIME">      0.40000000</i>
    </separator>
   </separator>
   <separator name="electronic mixer" >
    <i name="AMIX">      0.40000000</i>
    <i name="BMIX">      1.00000000</i>
    <i name="AMIN">      0.10000000</i>
    <i name="AMIX_MAG">      1.60000000</i>
    <i name="BMIX_MAG">      1.00000000</i>
    <separator name="electronic mixer details" >
     <i type="int" name="IMIX">     4</i>
     <i type="logical" name="MIXFIRST"> F  </i>
     <i type="int" name="MAXMIX">   -45</i>
     <i name="WC">    100.00000000</i>
     <i type="int" name="INIMIX">     1</i>
     <i type="int" name="MIXPRE">     1</i>
     <i type="int" name="MREMOVE">     5</i>
    </separator>
   </separator>
   <separator name="electronic dipolcorrection" >
    <i type="logical" name="LDIPOL"> F  </i>
    <i type="logical" name="LMONO"> F  </i>
    <i type="int" name="IDIPOL">     0</i>
    <i name="EPSILON">      1.00000000</i>
    <v name="DIPOL">   -100.00000000   -100.00000000   -100.00000000</v>
    <i name="EFIELD">      0.00000000</i>
   </separator>
  </separator>
  <separator name="grids" >
   <i type="int" name="NGX">    54</i>
   <i type="int" name="NGY">    54</i>
   <i type="int" name="NGZ">   160</i>
   <i type="int" name="NGXF">   108</i>
   <i type="int" name="NGYF">   108</i>
   <i type="int" name="NGZF">   320</i>
   <i type="logical" name="ADDGRID"> F  </i>
  </separator>
  <separator name="ionic" >
   <i type="int" name="NSW">     0</i>
   <i type="int" name="IBRION">    -1</i>
   <i type="int" name="MDALGO">     0</i>
   <i type="int" name="ISIF">     2</i>
   <i name="PSTRESS">      0.00000000</i>
   <i name="EDIFFG">      0.00010000</i>
   <i type="int" name="NFREE">     0</i>
   <i name="POTIM">      0.50000000</i>
   <i name="SMASS">     -3.00000000</i>
   <i name="SCALEE">      1.00000000</i>
  </separator>
  <separator name="ionic md" >
   <i name="TEBEG">      0.00010000</i>
   <i name="TEEND">      0.00010000</i>
   <i type="int" name="NBLOCK">     1</i>
   <i type="int" name="KBLOCK">     1</i>
   <i type="int" name="NPACO">   256</i>
   <i name="APACO">     10.00000000</i>
  </separator>
  <separator name="symmetry" >
   <i type="int" name="ISYM">     0</i>
   <i name="SYMPREC">      0.00001000</i>
  </separator>
  <separator name="dos" >
   <i type="int" name="LORBIT">     0</i>
   <v name="RWIGS">     -1.00000000     -1.00000000</v>
   <i type="int" name="NEDOS">   301</i>
   <i name="EMIN">     10.00000000</i>
   <i name="EMAX">    -10.00000000</i>
   <i name="EFERMI">      0.00000000</i>
  </separator>
  <separator name="writing" >
   <i type="int" name="NWRITE">     2</i>
   <i type="logical" name="LWAVE"> T  </i>
   <i type="logical" name="LDOWNSAMPLE"> F  </i>
   <i type="logical" name="LCHARG"> T  </i>
   <i type="logical" name="LPARD"> F  </i>
   <i type="logical" name="LVTOT"> F  </i>
   <i type="logical" name="LVHAR"> F  </i>
   <i type="logical" name="LELF"> F  </i>
   <i type="logical" name="LOPTICS"> F  </i>
   <v name="STM">      0.00000000      0.00000000      0.00000000      0.00000000      0.00000000      0.00000000      0.00000000</v>
  </separator>
  <separator name="performance" >
   <i type="int" name="NPAR">    48</i>
   <i type="int" name="NSIM">     4</i>
   <i type="int" name="NBLK">    -1</i>
   <i type="logical" name="LPLANE"> T  </i>
   <i type="logical" name="LSCALAPACK"> T  </i>
   <i type="logical" name="LSCAAWARE"> F  </i>
   <i type="logical" name="LSCALU"> F  </i>
   <i type="logical" name="LASYNC"> F  </i>
   <i type="logical" name="LORBITALREAL"> F  </i>
  </separator>
  <separator name="miscellaneous" >
   <i type="int" name="IDIOT">     3</i>
   <i type="int" name="PHON_NSTRUCT">    -1</i>
   <i type="logical" name="LMUSIC"> F  </i>
   <v name="POMASS">    195.08000000      1.00000000</v>
   <v name="DARWINR">      0.00000000      0.00000000</v>
   <v name="DARWINV">      1.00000000      1.00000000</v>
   <i type="logical" name="LCORR"> T  </i>
  </separator>
  <i type="logical" name="GGA_COMPAT"> T  </i>
  <i type="logical" name="LBERRY"> F  </i>
  <i type="int" name="ICORELEVEL">     0</i>
  <i type="logical" name="LDAU"> F  </i>
  <i type="int" name="I_CONSTRAINED_M">     0</i>
  <separator name="electronic exchange-correlation" >
   <i type="string" name="GGA">BF</i>
   <i type="int" name="VOSKOWN">     0</i>
   <i type="logical" name="LHFCALC"> F  </i>
   <i type="string" name="PRECFOCK"></i>
   <i type="logical" name="LSYMGRAD"> F  </i>
   <i type="logical" name="LHFONE"> F  </i>
   <i type="logical" name="LRHFCALC"> F  </i>
   <i type="logical" name="LTHOMAS"> F  </i>
   <i type="logical" name="LMODELHF"> F  </i>
   <i type="logical" name="LFOCKACE"> F  </i>
   <i name="ENCUT4O">     -1.00000000</i>
   <i type="int" name="EXXOEP">     0</i>
   <i type="int" name="FOURORBIT">     0</i>
   <i name="AEXX">      0.00000000</i>
   <i name="HFALPHA">      0.00000000</i>
   <i name="MCALPHA">      0.00000000</i>
   <i name="ALDAX">      1.00000000</i>
   <i name="AGGAX">      1.00000000</i>
   <i name="ALDAC">      1.00000000</i>
   <i name="AGGAC">      1.00000000</i>
   <i type="int" name="NKREDX">     1</i>
   <i type="int" name="NKREDY">     1</i>
   <i type="int" name="NKREDZ">     1</i>
   <i type="logical" name="SHIFTRED"> F  </i>
   <i type="logical" name="ODDONLY"> F  </i>
   <i type="logical" name="EVENONLY"> F  </i>
   <i type="int" name="LMAXFOCK">     0</i>
   <i type="int" name="NMAXFOCKAE">     0</i>
   <i type="logical" name="LFOCKAEDFT"> F  </i>
   <i name="HFSCREEN">      0.00000000</i>
   <i name="HFSCREENC">      0.00000000</i>
   <i type="int" name="NBANDSGWLOW">     0</i>
  </separator>
  <separator name="vdW DFT" >
   <i type="logical" name="LUSE_VDW"> T  </i>
   <i type="int" name="IVDW_NL">     1</i>
   <i type="logical" name="LSPIN_VDW"> F  </i>
   <i name="Zab_VDW">     -1.88670000</i>
   <i name="PARAM1">      0.12340000</i>
   <i name="PARAM2">      1.00000000</i>
   <i name="PARAM3">      0.00000000</i>
  </separator>
  <separator name="model GW" >
   <i type="int" name="MODEL_GW">     0</i>
   <i name="MODEL_EPS0">     25.14297943</i>
   <i name="MODEL_ALPHA">      1.00000000</i>
  </separator>
  <separator name="linear response parameters" >
   <i type="logical" name="LEPSILON"> F  </i>
   <i type="logical" name="LRPA"> F  </i>
   <i type="logical" name="LNABLA"> F  </i>
   <i type="logical" name="LVEL"> F  </i>
   <i name="CSHIFT">      0.10000000</i>
   <i name="OMEGAMAX">     -1.00000000</i>
   <i name="DEG_THRESHOLD">      0.00200000</i>
   <i name="RTIME">     -0.10000000</i>
   <i name="WPLASMAI">      0.00000000</i>
   <v name="DFIELD">      0.00000000      0.00000000      0.00000000</v>
   <v name="WPLASMA">      0.00000000      0.00000000      0.00000000      0.00000000      0.00000000      0.00000000      0.00000000      0.00000000      0.00000000</v>
  </separator>
  <separator name="orbital magnetization" >
   <i type="logical" name="NUCIND"> F  </i>
   <v name="MAGPOS">      0.00000000      0.00000000      0.00000000</v>
   <i type="logical" name="LNICSALL"> T  </i>
   <i type="logical" name="ORBITALMAG"> F  </i>
   <i type="logical" name="LMAGBLOCH"> F  </i>
   <i type="logical" name="LCHIMAG"> F  </i>
   <i type="logical" name="LGAUGE"> T  </i>
   <i type="int" name="MAGATOM">     0</i>
   <v name="MAGDIPOL">      0.00000000      0.00000000      0.00000000</v>
   <v name="AVECCONST">      0.00000000      0.00000000      0.00000000</v>
  </separator>
  <separator name="response functions" >
   <i type="logical" name="LALL_IN_ONE"> F  </i>
   <i type="int" name="IALL_IN_ONE">    -1</i>
   <i type="int" name="NBANDS_WAVE">    -1</i>
   <i type="logical" name="LFINITE_TEMPERATURE"> F  </i>
   <i type="logical" name="LADDER"> F  </i>
   <i type="logical" name="LRPAFORCE"> F  </i>
   <i type="logical" name="LFXC"> F  </i>
   <i type="logical" name="LHARTREE"> T  </i>
   <i type="int" name="IBSE">     0</i>
   <v type="int" name="KPOINT">    -1     0     0     0</v>
   <i type="logical" name="LTCTC"> F  </i>
   <i type="logical" name="LTCTE"> F  </i>
   <i type="logical" name="LTETE"> F  </i>
   <i type="logical" name="LTRIPLET"> F  </i>
   <i type="logical" name="LFXCEPS"> F  </i>
   <i type="logical" name="LFXHEG"> F  </i>
   <i type="int" name="NATURALO">     2</i>
   <i type="logical" name="LHOLEGF"> F  </i>
   <i type="logical" name="L2ORDER"> F  </i>
   <i type="logical" name="LDMP1"> F  </i>
   <i type="logical" name="LMP2LT"> F  </i>
   <i type="logical" name="LSMP2LT"> F  </i>
   <i type="logical" name="LGWLF"> F  </i>
   <i name="ENCUTGW">     -1.60000002</i>
   <i name="ENCUTGWSOFT">     -1.60000002</i>
   <i name="ENCUTLF">     -1.00000000</i>
   <i type="logical" name="LESF_SPLINES"> F  </i>
   <i type="int" name="LMAXMP2">    -1</i>
   <i name="SCISSOR">      0.00000000</i>
   <i type="int" name="NOMEGA">     0</i>
   <i type="int" name="NOMEGAR">     0</i>
   <i type="int" name="NBANDSGW">    -1</i>
   <i type="int" name="NBANDSO">    -1</i>
   <i type="int" name="NBANDSV">    -1</i>
   <i type="int" name="NELMGW">     1</i>
   <i type="int" name="NELMHF">     1</i>
   <i type="int" name="DIM">     3</i>
   <i type="int" name="IESPILON">     4</i>
   <i type="int" name="ANTIRES">     0</i>
   <i name="OMEGAMAX">    -30.00000000</i>
   <i name="OMEGAMIN">    -30.00000000</i>
   <i name="OMEGATL">   -200.00000000</i>
   <i type="int" name="OMEGAGRID">     0</i>
   <i name="CSHIFT">     -0.10000000</i>
   <i type="logical" name="LSELFENERGY"> F  </i>
   <i type="logical" name="LSPECTRAL"> F  </i>
   <i type="logical" name="LSPECTRALGW"> F  </i>
   <i type="logical" name="LSINGLES"> F  </i>
   <i type="logical" name="LFERMIGW"> F  </i>
   <i type="logical" name="ODDONLYGW"> F  </i>
   <i type="logical" name="EVENONLYGW"> F  </i>
   <i type="int" name="NKREDLFX">     1</i>
   <i type="int" name="NKREDLFY">     1</i>
   <i type="int" name="NKREDLFZ">     1</i>
   <i type="int" name="MAXMEM">  2800</i>
   <i type="int" name="TELESCOPE">     0</i>
   <i type="int" name="NTAUPAR">    -1</i>
   <i type="int" name="NOMEGAPAR">    -1</i>
   <i name="DAMP_NEWTON">      0.80000001</i>
   <i name="LAMBDA">      1.00000000</i>
  </separator>
  <separator name="External order field" >
   <i name="OFIELD_KAPPA">      0.00000000</i>
   <v name="OFIELD_K">      0.00000000      0.00000000      0.00000000</v>
   <i name="OFIELD_Q6_NEAR">      0.00000000</i>
   <i name="OFIELD_Q6_FAR">      0.00000000</i>
   <i name="OFIELD_A">      0.00000000</i>
  </separator>
  <separator name="optional k-points parameters" >
   <i type="int" name="KPOINTS_OPT_MODE">     1</i>
   <i type="logical" name="LKPOINTS_OPT"> F  </i>
  </separator>
 </parameters>
 <atominfo>
  <atoms>      37 </atoms>
  <types>       2 </types>
  <array name="atoms" >
   <dimension dim="1">ion</dimension>
   <field type="string">element</field>
   <field type="int">atomtype</field>
   <set>
    <rc><c>Pt</c><c>   1</c></rc>
    <rc><c>Pt</c><c>   1</c></rc>
    <rc><c>Pt</c><c>   1</c></rc>
    <rc><c>Pt</c><c>   1</c></rc>
    <rc><c>Pt</c><c>   1</c></rc>
    <rc><c>Pt</c><c>   1</c></rc>
    <rc><c>Pt</c><c>   1</c></rc>
    <rc><c>Pt</c><c>   1</c></rc>
    <rc><c>Pt</c><c>   1</c></rc>
    <rc><c>Pt</c><c>   1</c></rc>
    <rc><c>Pt</c><c>   1</c></rc>
    <rc><c>Pt</c><c>   1</c></rc>
    <rc><c>Pt</c><c>   1</c></rc>
    <rc><c>Pt</c><c>   1</c></rc>
    <rc><c>Pt</c><c>   1</c></rc>
    <rc><c>Pt</c><c>   1</c></rc>
    <rc><c>Pt</c><c>   1</c></rc>
    <rc><c>Pt</c><c>   1</c></rc>
    <rc><c>Pt</c><c>   1</c></rc>
    <rc><c>Pt</c><c>   1</c></rc>
    <rc><c>Pt</c><c>   1</c></rc>
    <rc><c>Pt</c><c>   1</c></rc>
    <rc><c>Pt</c><c>   1</c></rc>
    <rc><c>Pt</c><c>   1</c></rc>
    <rc><c>Pt</c><c>   1</c></rc>
    <rc><c>Pt</c><c>   1</c></rc>
    <rc><c>Pt</c><c>   1</c></rc>
    <rc><c>Pt</c><c>   1</c></rc>
    <rc><c>Pt</c><c>   1</c></rc>
    <rc><c>Pt</c><c>   1</c></rc>
    <rc><c>Pt</c><c>   1</c></rc>
    <rc><c>Pt</c><c>   1</c></rc>
    <rc><c>Pt</c><c>   1</c></rc>
    <rc><c>Pt</c><c>   1</c></rc>
    <rc><c>Pt</c><c>   1</c></rc>
    <rc><c>Pt</c><c>   1</c></rc>
    <rc><c>H </c><c>   2</c></rc>
   </set>
  </array>
  <array name="atomtypes" >
   <dimension dim="1">type</dimension>
   <field type="int">atomspertype</field>
   <field type="string">element</field>
   <field>mass</field>
   <field>valence</field>
   <field type="string">pseudopotential</field>
   <set>
    <rc><c>  36</c><c>Pt</c><c>    195.08000000</c><c>     10.00000000</c><c>  PAW_PBE Pt 04Feb2005                  </c></rc>
    <rc><c>   1</c><c>H </c><c>      1.00000000</c><c>      1.00000000</c><c>  PAW_PBE H 15Jun2001                   </c></rc>
   </set>
  </array>
 </atominfo>
 <structure name="initialpos" >
  <crystal>
   <varray name="basis" >
    <v>       8.46831000       0.00000000       0.00000000 </v>
    <v>       4.23415500       7.33377159       0.00000000 </v>
    <v>       0.00000000       0.00000000      24.96566199 </v>
   </varray>
   <i name="volume">   1550.48373159 </i>
   <varray name="rec_basis" >
    <v>       0.11808732      -0.06817774       0.00000000 </v>
    <v>       0.00000000       0.13635549       0.00000000 </v>
    <v>       0.00000000       0.00000000       0.04005502 </v>
   </varray>
  </crystal>
  <varray name="positions" >
   <v>       0.00000000       0.00000000       0.34046764 </v>
   <v>       0.33400137       0.00000000       0.34046764 </v>
   <v>       0.66800274       0.00000000       0.34046764 </v>
   <v>       0.00000000       0.33400137       0.34046764 </v>
   <v>       0.33400137       0.33400137       0.34046764 </v>
   <v>       0.66800274       0.33400137       0.34046764 </v>
   <v>       0.00000000       0.66800274       0.34046764 </v>
   <v>       0.33400137       0.66800274       0.34046764 </v>
   <v>       0.66800274       0.66800274       0.34046764 </v>
   <v>       0.11133379       0.11133379       0.43297074 </v>
   <v>       0.44533516       0.11133379       0.43297074 </v>
   <v>       0.77933653       0.11133379       0.43297074 </v>
   <v>       0.11133379       0.44533516       0.43297074 </v>
   <v>       0.44533516       0.44533516       0.43297074 </v>
   <v>       0.77933653       0.44533516       0.43297074 </v>
   <v>       0.11133379       0.77933653       0.43297074 </v>
   <v>       0.44533516       0.77933653       0.43297074 </v>
   <v>       0.77933653       0.77933653       0.43297074 </v>
   <v>       0.89330160       0.22416462       0.52587961 </v>
   <v>       0.22613238       0.22229239       0.52485368 </v>
   <v>       0.55951837       0.22267390       0.52430101 </v>
   <v>       0.89363370       0.55340170       0.52581651 </v>
   <v>       0.22591709       0.55573015       0.52436071 </v>
   <v>       0.55939844       0.55597971       0.52446105 </v>
   <v>       0.89299827       0.88925305       0.52439419 </v>
   <v>       0.22596300       0.88939625       0.52451431 </v>
   <v>       0.55987553       0.88876839       0.52437249 </v>
   <v>       0.00601178       0.99883959       0.61772256 </v>
   <v>       0.34240963       0.99667693       0.61777831 </v>
   <v>       0.67336276       0.99930031       0.61769645 </v>
   <v>       0.01108885       0.33040452       0.62226839 </v>
   <v>       0.34226717       0.33280995       0.61773406 </v>
   <v>       0.67315878       0.33248329       0.61785360 </v>
   <v>       0.00597795       0.66713292       0.61758527 </v>
   <v>       0.34022732       0.66577438       0.61743228 </v>
   <v>       0.67314320       0.66639886       0.61787910 </v>
   <v>       0.09493065       0.28997619       0.67967760 </v>
  </varray>
  <varray name="selective"  type="logical" >
   <v type="logical" >  F  F  F </v>
   <v type="logical" >  F  F  F </v>
   <v type="logical" >  F  F  F </v>
   <v type="logical" >  F  F  F </v>
   <v type="logical" >  F  F  F </v>
   <v type="logical" >  F  F  F </v>
   <v type="logical" >  F  F  F </v>
   <v type="logical" >  F  F  F </v>
   <v type="logical" >  F  F  F </v>
   <v type="logical" >  F  F  F </v>
   <v type="logical" >  F  F  F </v>
   <v type="logical" >  F  F  F </v>
   <v type="logical" >  F  F  F </v>
   <v type="logical" >  F  F  F </v>
   <v type="logical" >  F  F  F </v>
   <v type="logical" >  F  F  F </v>
   <v type="logical" >  F  F  F </v>
   <v type="logical" >  F  F  F </v>
   <v type="logical" >  T  T  T </v>
   <v type="logical" >  T  T  T </v>
   <v type="logical" >  T  T  T </v>
   <v type="logical" >  T  T  T </v>
   <v type="logical" >  T  T  T </v>
   <v type="logical" >  T  T  T </v>
   <v type="logical" >  T  T  T </v>
   <v type="logical" >  T  T  T </v>
   <v type="logical" >  T  T  T </v>
   <v type="logical" >  T  T  T </v>
   <v type="logical" >  T  T  T </v>
   <v type="logical" >  T  T  T </v>
   <v type="logical" >  T  T  T </v>
   <v type="logical" >  T  T  T </v>
   <v type="logical" >  T  T  T </v>
   <v type="logical" >  T  T  T </v>
   <v type="logical" >  T  T  T </v>
   <v type="logical" >  T  T  T </v>
   <v type="logical" >  T  T  T </v>
  </varray>
  <nose>
   <v>      -3.00000000       0.00000000       0.00010000       0.00010000 </v>
  </nose>
 </structure>
 <calculation>
  <scstep>
   <time name="dav">   15.80   15.94</time>
   <time name="total">   19.28   19.47</time>
   <energy>
    <i name="alphaZ">    797.33612757 </i>
    <i name="ewald"> 132132.85912538 </i>
    <i name="hartreedc">-159535.54651691 </i>
    <i name="XCdc">     89.46565327 </i>
    <i name="pawpsdc">  32156.10465808 </i>
    <i name="pawaedc"> -31158.71336605 </i>
    <i name="eentropy">     -0.08534910 </i>
    <i name="bandstr">  -1082.85137245 </i>
    <i name="atom">  26496.80315902 </i>
    <i name="e_fr_energy">   -104.62788119 </i>
    <i name="e_wo_entrp">   -104.54253209 </i>
    <i name="e_0_energy">   -104.59943149 </i>
   </energy>
  </scstep>
  <scstep>
   <time name="diag">    2.82    2.87</time>
   <time name="diis">    8.54    8.61</time>
   <time name="orth">    0.68    0.69</time>
   <time name="total">   15.79   15.96</time>
   <energy>
    <i name="e_fr_energy">   -113.43719754 </i>
    <i name="e_wo_entrp">   -113.46428002 </i>
    <i name="e_0_energy">   -113.44622503 </i>
   </energy>
  </scstep>
  <scstep>
   <time name="diag">    2.69    2.72</time>
   <time name="diis">   11.16   11.25</time>
   <time name="orth">    0.75    0.76</time>
   <time name="total">   17.85   18.05</time>
   <energy>
    <i name="e_fr_energy">   -104.63794696 </i>
    <i name="e_wo_entrp">   -104.55829697 </i>
    <i name="e_0_energy">   -104.61139696 </i>
   </energy>
  </scstep>
  <scstep>
   <time name="diag">    2.98    3.00</time>
   <time name="diis">   10.30   10.37</time>
   <time name="orth">    0.76    0.77</time>
   <time name="total">   17.37   17.51</time>
   <energy>
    <i name="e_fr_energy">   -104.54111015 </i>
    <i name="e_wo_entrp">   -104.45745261 </i>
    <i name="e_0_energy">   -104.51322430 </i>
   </energy>
  </scstep>
  <scstep>
   <time name="diag">    2.88    2.90</time>
   <time name="diis">    8.68    8.84</time>
   <time name="orth">    0.60    0.61</time>
   <time name="total">   15.37   15.60</time>
   <energy>
    <i name="e_fr_energy">   -104.53979706 </i>
    <i name="e_wo_entrp">   -104.45593962 </i>
    <i name="e_0_energy">   -104.51184458 </i>
   </energy>
  </scstep>
  <scstep>
   <time name="diag">    2.75    2.77</time>
   <time name="diis">    8.97    9.03</time>
   <time name="orth">    0.57    0.58</time>
   <time name="total">   15.47   15.60</time>
   <energy>
    <i name="e_fr_energy">   -104.53734877 </i>
    <i name="e_wo_entrp">   -104.45291068 </i>
    <i name="e_0_energy">   -104.50920274 </i>
   </energy>
  </scstep>
  <scstep>
   <time name="diag">    2.75    2.77</time>
   <time name="diis">    8.99    9.06</time>
   <time name="orth">    0.58    0.58</time>
   <time name="total">   15.61   15.75</time>
   <energy>
    <i name="e_fr_energy">   -104.53784437 </i>
    <i name="e_wo_entrp">   -104.45296942 </i>
    <i name="e_0_energy">   -104.50955272 </i>
   </energy>
  </scstep>
  <scstep>
   <time name="diag">    2.78    2.80</time>
   <time name="diis">    9.01    9.08</time>
   <time name="orth">    0.60    0.60</time>
   <time name="total">   15.68   15.82</time>
   <energy>
    <i name="e_fr_energy">   -104.53702195 </i>
    <i name="e_wo_entrp">   -104.45211105 </i>
    <i name="e_0_energy">   -104.50871832 </i>
   </energy>
  </scstep>
  <scstep>
   <time name="diag">    2.76    2.78</time>
   <time name="diis">    8.57    9.02</time>
   <time name="orth">    0.47    0.47</time>
   <time name="total">   15.04   15.58</time>
   <energy>
    <i name="e_fr_energy">   -104.53689113 </i>
    <i name="e_wo_entrp">   -104.45201023 </i>
    <i name="e_0_energy">   -104.50859750 </i>
   </energy>
  </scstep>
  <scstep>
   <time name="diag">    2.77    2.79</time>
   <time name="diis">    9.03    9.10</time>
   <time name="orth">    0.43    0.44</time>
   <time name="total">   15.54   15.68</time>
   <energy>
    <i name="e_fr_energy">   -104.53687905 </i>
    <i name="e_wo_entrp">   -104.45208359 </i>
    <i name="e_0_energy">   -104.50861390 </i>
   </energy>
  </scstep>
  <scstep>
   <time name="diag">    3.52    3.55</time>
   <time name="diis">    7.90    7.95</time>
   <time name="orth">    0.56    0.57</time>
   <time name="total">   15.24   15.39</time>
   <energy>
    <i name="e_fr_energy">   -104.53686625 </i>
    <i name="e_wo_entrp">   -104.45205442 </i>
    <i name="e_0_energy">   -104.50859564 </i>
   </energy>
  </scstep>
  <scstep>
   <time name="diag">    2.76    2.78</time>
   <time name="diis">    6.98    7.03</time>
   <time name="orth">    0.57    0.58</time>
   <time name="total">   12.76   12.87</time>
   <energy>
    <i name="alphaZ">    797.33612757 </i>
    <i name="ewald"> 132132.85912538 </i>
    <i name="hartreedc">-159533.24672198 </i>
    <i name="XCdc">     89.46467870 </i>
    <i name="pawpsdc">  32155.99044558 </i>
    <i name="pawaedc"> -31158.59547145 </i>
    <i name="eentropy">     -0.08487287 </i>
    <i name="bandstr">  -1085.06332870 </i>
    <i name="atom">  26496.80315902 </i>
    <i name="e_fr_energy">   -104.53685876 </i>
    <i name="e_wo_entrp">   -104.45198590 </i>
    <i name="e_0_energy">   -104.50856781 </i>
   </energy>
  </scstep>
  <structure>
   <crystal>
    <varray name="basis" >
     <v>       8.46831000       0.00000000       0.00000000 </v>
     <v>       4.23415500       7.33377159       0.00000000 </v>
     <v>       0.00000000       0.00000000      24.96566199 </v>
    </varray>
    <i name="volume">   1550.48373159 </i>
    <varray name="rec_basis" >
     <v>       0.11808732      -0.06817774       0.00000000 </v>
     <v>       0.00000000       0.13635549       0.00000000 </v>
     <v>       0.00000000       0.00000000       0.04005502 </v>
    </varray>
   </crystal>
   <varray name="positions" >
    <v>       0.00000000       0.00000000       0.34046764 </v>
    <v>       0.33400137       0.00000000       0.34046764 </v>
    <v>       0.66800274       0.00000000       0.34046764 </v>
    <v>       0.00000000       0.33400137       0.34046764 </v>
    <v>       0.33400137       0.33400137       0.34046764 </v>
    <v>       0.66800274       0.33400137       0.34046764 </v>
    <v>       0.00000000       0.66800274       0.34046764 </v>
    <v>       0.33400137       0.66800274       0.34046764 </v>
    <v>       0.66800274       0.66800274       0.34046764 </v>
    <v>       0.11133379       0.11133379       0.43297074 </v>
    <v>       0.44533516       0.11133379       0.43297074 </v>
    <v>       0.77933653       0.11133379       0.43297074 </v>
    <v>       0.11133379       0.44533516       0.43297074 </v>
    <v>       0.44533516       0.44533516       0.43297074 </v>
    <v>       0.77933653       0.44533516       0.43297074 </v>
    <v>       0.11133379       0.77933653       0.43297074 </v>
    <v>       0.44533516       0.77933653       0.43297074 </v>
    <v>       0.77933653       0.77933653       0.43297074 </v>
    <v>       0.89330160       0.22416462       0.52587961 </v>
    <v>       0.22613238       0.22229239       0.52485368 </v>
    <v>       0.55951837       0.22267390       0.52430101 </v>
    <v>       0.89363370       0.55340170       0.52581651 </v>
    <v>       0.22591709       0.55573015       0.52436071 </v>
    <v>       0.55939844       0.55597971       0.52446105 </v>
    <v>       0.89299827       0.88925305       0.52439419 </v>
    <v>       0.22596300       0.88939625       0.52451431 </v>
    <v>       0.55987553       0.88876839       0.52437249 </v>
    <v>       0.00601178       0.99883959       0.61772256 </v>
    <v>       0.34240963       0.99667693       0.61777831 </v>
    <v>       0.67336276       0.99930031       0.61769645 </v>
    <v>       0.01108885       0.33040452       0.62226839 </v>
    <v>       0.34226717       0.33280995       0.61773406 </v>
    <v>       0.67315878       0.33248329       0.61785360 </v>
    <v>       0.00597795       0.66713292       0.61758527 </v>
    <v>       0.34022732       0.66577438       0.61743228 </v>
    <v>       0.67314320       0.66639886       0.61787910 </v>
    <v>       0.09493065       0.28997619       0.67967760 </v>
   </varray>
  </structure>
  <varray name="forces" >
   <v>       0.04073341       0.04692451      -0.11775946 </v>
   <v>       0.01423000       0.06082959      -0.10055325 </v>
   <v>      -0.07418678       0.09131510      -0.21216814 </v>
   <v>       0.04312525      -0.01331980      -0.08715861 </v>
   <v>      -0.00688410      -0.00911030      -0.07518384 </v>
   <v>      -0.05836208       0.00755362      -0.07840364 </v>
   <v>       0.02052052      -0.05559249      -0.10798664 </v>
   <v>      -0.02356569      -0.04302615      -0.09098047 </v>
   <v>      -0.06913109      -0.02875455      -0.09441915 </v>
   <v>       0.05372473       0.07717525       0.20406540 </v>
   <v>       0.06194206       0.04040300      -0.02664853 </v>
   <v>      -0.07206073       0.06451031       0.04498256 </v>
   <v>       0.03075152      -0.02367676       0.19261359 </v>
   <v>       0.01886096      -0.00692742       0.04957159 </v>
   <v>      -0.00617950      -0.01326337       0.26161452 </v>
   <v>       0.06874196      -0.10271335       0.08391877 </v>
   <v>       0.00055587      -0.08135969       0.08466848 </v>
   <v>      -0.05574054      -0.01750736       0.06969157 </v>
   <v>       0.00982604      -0.01026311      -0.01621973 </v>
   <v>       0.01224028       0.00030944       0.00133409 </v>
   <v>       0.02118106      -0.00476272       0.00476530 </v>
   <v>       0.00935758       0.00465912      -0.01437397 </v>
   <v>       0.00536187       0.00527657       0.00215899 </v>
   <v>      -0.00229314      -0.00060747      -0.01364350 </v>
   <v>      -0.00626887      -0.00136125      -0.00850417 </v>
   <v>       0.00371254      -0.00433320       0.00403493 </v>
   <v>       0.00843647      -0.01728553       0.00671476 </v>
   <v>       0.00026038      -0.00892669      -0.00429830 </v>
   <v>       0.02361001      -0.01065444      -0.03357600 </v>
   <v>       0.01115978      -0.00104048       0.00660269 </v>
   <v>      -0.01171050       0.00193471      -0.05879527 </v>
   <v>       0.03190640      -0.01380581      -0.03474370 </v>
   <v>       0.02601493       0.00578023       0.00670132 </v>
   <v>       0.01367072       0.00324041      -0.00364422 </v>
   <v>      -0.00383107       0.00378555       0.01188973 </v>
   <v>       0.01083609      -0.03081069       0.00385103 </v>
   <v>      -0.15054635       0.08540521       0.13988127 </v>
  </varray>
  <varray name="stress" >
   <v>     -34.51065767      -0.03954694      -0.01309252 </v>
   <v>      -0.03954706     -34.52552456       0.02271058 </v>
   <v>      -0.01309250       0.02271060       2.86830678 </v>
  </varray>
  <energy>
   <i name="e_fr_energy">   -104.53685876 </i>
   <i name="e_wo_entrp">   -104.45198590 </i>
   <i name="e_0_energy">   -104.50856781 </i>
  </energy>
  <time name="totalsc">  218.65  221.74</time>
  <eigenvalues>
   <array>
    <dimension dim="1">band</dimension>
    <dimension dim="2">kpoint</dimension>
    <dimension dim="3">spin</dimension>
    <field>eigene</field>
    <field>occ</field>
    <set>
     <set comment="spin 1">
      <set comment="kpoint 1">
       <r>   -8.8805    1.0000 </r>
       <r>   -7.6238    1.0000 </r>
       <r>   -6.5849    1.0000 </r>
       <r>   -6.4820    1.0000 </r>
       <r>   -6.4726    1.0000 </r>
       <r>   -6.4576    1.0000 </r>
       <r>   -6.4535    1.0000 </r>
       <r>   -6.4466    1.0000 </r>
       <r>   -6.4319    1.0000 </r>
       <r>   -6.4270    1.0000 </r>
       <r>   -6.0274    1.0000 </r>
       <r>   -5.9121    1.0000 </r>
       <r>   -5.9069    1.0000 </r>
       <r>   -5.9056    1.0000 </r>
       <r>   -5.8946    1.0000 </r>
       <r>   -5.8925    1.0000 </r>
       <r>   -5.6584    1.0000 </r>
       <r>   -5.4509    1.0000 </r>
       <r>   -5.4487    1.0000 </r>
       <r>   -5.4443    1.0000 </r>
       <r>   -5.4410    1.0000 </r>
       <r>   -5.4382    1.0000 </r>
       <r>   -5.3643    1.0000 </r>
       <r>   -5.2278    1.0000 </r>
       <r>   -5.2191    1.0000 </r>
       <r>   -5.2158    1.0000 </r>
       <r>   -5.2120    1.0000 </r>
       <r>   -5.2081    1.0000 </r>
       <r>   -5.0630    1.0000 </r>
       <r>   -5.0209    1.0000 </r>
       <r>   -5.0170    1.0000 </r>
       <r>   -5.0104    1.0000 </r>
       <r>   -5.0060    1.0000 </r>
       <r>   -5.0018    1.0000 </r>
       <r>   -4.9732    1.0000 </r>
       <r>   -4.9649    1.0000 </r>
       <r>   -4.9566    1.0000 </r>
       <r>   -4.9503    1.0000 </r>
       <r>   -4.9462    1.0000 </r>
       <r>   -4.9037    1.0000 </r>
       <r>   -4.8030    1.0000 </r>
       <r>   -4.3758    1.0000 </r>
       <r>   -4.3699    1.0000 </r>
       <r>   -4.3452    1.0000 </r>
       <r>   -4.3376    1.0000 </r>
       <r>   -4.3184    1.0000 </r>
       <r>   -4.3144    1.0000 </r>
       <r>   -4.3023    1.0000 </r>
       <r>   -4.2924    1.0000 </r>
       <r>   -4.2873    1.0000 </r>
       <r>   -4.2284    1.0000 </r>
       <r>   -4.1324    1.0000 </r>
       <r>   -4.1136    1.0000 </r>
       <r>   -4.0460    1.0000 </r>
       <r>   -3.9578    1.0000 </r>
       <r>   -3.5958    1.0000 </r>
       <r>   -3.5663    1.0000 </r>
       <r>   -3.5627    1.0000 </r>
       <r>   -3.5595    1.0000 </r>
       <r>   -3.5504    1.0000 </r>
       <r>   -3.5295    1.0000 </r>
       <r>   -3.4855    1.0000 </r>
       <r>   -3.3851    1.0000 </r>
       <r>   -3.3699    1.0000 </r>
       <r>   -3.3676    1.0000 </r>
       <r>   -3.3668    1.0000 </r>
       <r>   -3.3595    1.0000 </r>
       <r>   -3.3530    1.0000 </r>
       <r>   -3.3353    1.0000 </r>
       <r>   -3.3183    1.0000 </r>
       <r>   -3.3150    1.0000 </r>
       <r>   -3.2977    1.0000 </r>
       <r>   -3.2893    1.0000 </r>
       <r>   -3.2847    1.0000 </r>
       <r>   -3.2605    1.0000 </r>
       <r>   -3.2580    1.0000 </r>
       <r>   -3.2336    1.0000 </r>
       <r>   -3.1561    1.0000 </r>
       <r>   -3.1471    1.0000 </r>
       <r>   -3.1389    1.0000 </r>
       <r>   -3.1361    1.0000 </r>
       <r>   -3.1259    1.0000 </r>
       <r>   -3.0228    1.0000 </r>
       <r>   -2.9365    1.0000 </r>
       <r>   -2.9274    1.0000 </r>
       <r>   -2.9152    1.0000 </r>
       <r>   -2.9096    1.0000 </r>
       <r>   -2.9025    1.0000 </r>
       <r>   -2.8957    1.0000 </r>
       <r>   -2.8889    1.0000 </r>
       <r>   -2.8802    1.0000 </r>
       <r>   -2.8306    1.0000 </r>
       <r>   -2.8175    1.0000 </r>
       <r>   -2.7738    1.0000 </r>
       <r>   -2.7645    1.0000 </r>
       <r>   -2.7300    1.0000 </r>
       <r>   -2.7296    1.0000 </r>
       <r>   -2.6846    1.0000 </r>
       <r>   -2.6823    1.0000 </r>
       <r>   -2.6777    1.0000 </r>
       <r>   -2.6511    1.0000 </r>
       <r>   -2.5313    1.0000 </r>
       <r>   -2.5247    1.0000 </r>
       <r>   -2.5183    1.0000 </r>
       <r>   -2.5019    1.0000 </r>
       <r>   -2.4894    1.0000 </r>
       <r>   -2.4806    1.0000 </r>
       <r>   -2.1938    1.0000 </r>
       <r>   -2.0262    1.0000 </r>
       <r>   -2.0135    1.0000 </r>
       <r>   -1.9930    1.0000 </r>
       <r>   -1.9922    1.0000 </r>
       <r>   -1.9881    1.0000 </r>
       <r>   -1.9840    1.0000 </r>
       <r>   -1.9799    1.0000 </r>
       <r>   -1.9520    1.0000 </r>
       <r>   -1.9471    1.0000 </r>
       <r>   -1.9411    1.0000 </r>
       <r>   -1.9371    1.0000 </r>
       <r>   -1.8876    1.0000 </r>
       <r>   -1.8536    1.0000 </r>
       <r>   -1.8455    1.0000 </r>
       <r>   -1.7350    1.0000 </r>
       <r>   -1.7082    1.0000 </r>
       <r>   -1.7048    1.0000 </r>
       <r>   -1.6950    1.0000 </r>
       <r>   -1.6940    1.0000 </r>
       <r>   -1.6076    1.0000 </r>
       <r>   -1.5819    1.0000 </r>
       <r>   -1.5352    1.0000 </r>
       <r>   -1.5284    1.0000 </r>
       <r>   -1.5232    1.0000 </r>
       <r>   -1.4816    1.0000 </r>
       <r>   -1.4690    1.0000 </r>
       <r>   -1.2879    1.0000 </r>
       <r>   -1.2776    1.0000 </r>
       <r>   -1.2602    1.0000 </r>
       <r>   -1.2564    1.0000 </r>
       <r>   -1.2481    1.0000 </r>
       <r>   -1.2354    1.0000 </r>
       <r>   -1.1823    1.0000 </r>
       <r>   -1.1727    1.0000 </r>
       <r>   -1.0259    1.0000 </r>
       <r>   -1.0213    1.0000 </r>
       <r>   -1.0146    1.0000 </r>
       <r>   -1.0083    1.0000 </r>
       <r>   -1.0030    1.0000 </r>
       <r>   -0.9470    1.0000 </r>
       <r>   -0.8570    1.0000 </r>
       <r>   -0.8463    1.0000 </r>
       <r>   -0.8382    1.0000 </r>
       <r>   -0.8281    1.0000 </r>
       <r>   -0.8256    1.0000 </r>
       <r>   -0.8055    1.0000 </r>
       <r>   -0.8046    1.0000 </r>
       <r>   -0.7956    1.0000 </r>
       <r>   -0.7916    1.0000 </r>
       <r>   -0.7889    1.0000 </r>
       <r>   -0.7883    1.0000 </r>
       <r>   -0.7069    1.0000 </r>
       <r>   -0.6941    1.0000 </r>
       <r>   -0.6823    1.0000 </r>
       <r>   -0.6647    1.0000 </r>
       <r>   -0.6603    1.0000 </r>
       <r>   -0.6565    1.0000 </r>
       <r>   -0.6349    1.0000 </r>
       <r>   -0.6239    1.0000 </r>
       <r>   -0.5866    1.0000 </r>
       <r>   -0.5840    1.0000 </r>
       <r>   -0.5535    1.0000 </r>
       <r>   -0.5499    1.0000 </r>
       <r>   -0.5465    1.0000 </r>
       <r>   -0.5423    1.0000 </r>
       <r>   -0.5370    1.0000 </r>
       <r>   -0.5334    1.0000 </r>
       <r>   -0.4514    1.0000 </r>
       <r>   -0.4422    1.0000 </r>
       <r>   -0.4406    1.0000 </r>
       <r>   -0.4342    1.0000 </r>
       <r>   -0.4285    1.0000 </r>
       <r>   -0.4265    1.0000 </r>
       <r>   -0.4112    1.0000 </r>
       <r>   -0.3490    1.0002 </r>
       <r>   -0.3234    1.0009 </r>
       <r>   -0.3161    1.0012 </r>
       <r>   -0.3108    1.0015 </r>
       <r>   -0.3016    1.0022 </r>
       <r>   -0.2930    1.0031 </r>
       <r>   -0.1196    0.8849 </r>
       <r>   -0.0857    0.6569 </r>
       <r>   -0.0182    0.1376 </r>
       <r>   -0.0084    0.0874 </r>
       <r>    0.0122    0.0124 </r>
       <r>    0.0162    0.0027 </r>
       <r>    0.0189   -0.0032 </r>
       <r>    0.0234   -0.0117 </r>
       <r>    0.3660   -0.0000 </r>
       <r>    0.8160   -0.0000 </r>
       <r>    0.8850   -0.0000 </r>
       <r>    0.8944   -0.0000 </r>
       <r>    0.9080   -0.0000 </r>
       <r>    0.9111   -0.0000 </r>
       <r>    0.9150   -0.0000 </r>
       <r>    2.4849   -0.0000 </r>
       <r>    3.1759    0.0000 </r>
       <r>    3.1822    0.0000 </r>
       <r>    3.2078    0.0000 </r>
       <r>    3.2250    0.0000 </r>
       <r>    3.2389    0.0000 </r>
       <r>    4.3973    0.0000 </r>
       <r>    4.7672    0.0000 </r>
       <r>    4.7781    0.0000 </r>
       <r>    4.8142    0.0000 </r>
       <r>    4.8172    0.0000 </r>
       <r>    4.8409    0.0000 </r>
       <r>    4.8426    0.0000 </r>
       <r>    4.9668    0.0000 </r>
       <r>    5.1087    0.0000 </r>
       <r>    5.5030    0.0000 </r>
       <r>    5.5304    0.0000 </r>
       <r>    5.8164    0.0000 </r>
       <r>    5.8224    0.0000 </r>
       <r>    5.8391    0.0000 </r>
       <r>    5.8619    0.0000 </r>
       <r>    5.8841    0.0000 </r>
       <r>    6.0889    0.0000 </r>
       <r>    6.5044    0.0000 </r>
       <r>    6.6262    0.0000 </r>
       <r>    6.6345    0.0000 </r>
       <r>    6.6401    0.0000 </r>
       <r>    6.7335    0.0000 </r>
       <r>    6.8596    0.0000 </r>
       <r>    7.1131    0.0000 </r>
       <r>    7.1263    0.0000 </r>
       <r>    7.1484    0.0000 </r>
       <r>    7.1672    0.0000 </r>
       <r>    7.1690    0.0000 </r>
       <r>    7.1772    0.0000 </r>
       <r>    7.3135    0.0000 </r>
       <r>    7.8396    0.0000 </r>
      </set>
      <set comment="kpoint 2">
       <r>   -8.7321    1.0000 </r>
       <r>   -7.4789    1.0000 </r>
       <r>   -6.9600    1.0000 </r>
       <r>   -6.5868    1.0000 </r>
       <r>   -6.5545    1.0000 </r>
       <r>   -6.4236    1.0000 </r>
       <r>   -6.3383    1.0000 </r>
       <r>   -6.2686    1.0000 </r>
       <r>   -6.2261    1.0000 </r>
       <r>   -6.2130    1.0000 </r>
       <r>   -6.0753    1.0000 </r>
       <r>   -6.0004    1.0000 </r>
       <r>   -5.9212    1.0000 </r>
       <r>   -5.8350    1.0000 </r>
       <r>   -5.8300    1.0000 </r>
       <r>   -5.8209    1.0000 </r>
       <r>   -5.5902    1.0000 </r>
       <r>   -5.5367    1.0000 </r>
       <r>   -5.4104    1.0000 </r>
       <r>   -5.4078    1.0000 </r>
       <r>   -5.4006    1.0000 </r>
       <r>   -5.3759    1.0000 </r>
       <r>   -5.3247    1.0000 </r>
       <r>   -5.3074    1.0000 </r>
       <r>   -5.2662    1.0000 </r>
       <r>   -5.2311    1.0000 </r>
       <r>   -5.2070    1.0000 </r>
       <r>   -5.2024    1.0000 </r>
       <r>   -5.1507    1.0000 </r>
       <r>   -5.1149    1.0000 </r>
       <r>   -5.0897    1.0000 </r>
       <r>   -5.0194    1.0000 </r>
       <r>   -5.0083    1.0000 </r>
       <r>   -5.0013    1.0000 </r>
       <r>   -5.0006    1.0000 </r>
       <r>   -4.8493    1.0000 </r>
       <r>   -4.8005    1.0000 </r>
       <r>   -4.7968    1.0000 </r>
       <r>   -4.7661    1.0000 </r>
       <r>   -4.7602    1.0000 </r>
       <r>   -4.7364    1.0000 </r>
       <r>   -4.4975    1.0000 </r>
       <r>   -4.4921    1.0000 </r>
       <r>   -4.4672    1.0000 </r>
       <r>   -4.4148    1.0000 </r>
       <r>   -4.3999    1.0000 </r>
       <r>   -4.3892    1.0000 </r>
       <r>   -4.3299    1.0000 </r>
       <r>   -4.2094    1.0000 </r>
       <r>   -4.1949    1.0000 </r>
       <r>   -4.1151    1.0000 </r>
       <r>   -4.0952    1.0000 </r>
       <r>   -4.0859    1.0000 </r>
       <r>   -4.0512    1.0000 </r>
       <r>   -3.9926    1.0000 </r>
       <r>   -3.8332    1.0000 </r>
       <r>   -3.7362    1.0000 </r>
       <r>   -3.7314    1.0000 </r>
       <r>   -3.6832    1.0000 </r>
       <r>   -3.6733    1.0000 </r>
       <r>   -3.6190    1.0000 </r>
       <r>   -3.5762    1.0000 </r>
       <r>   -3.5514    1.0000 </r>
       <r>   -3.5479    1.0000 </r>
       <r>   -3.5204    1.0000 </r>
       <r>   -3.5120    1.0000 </r>
       <r>   -3.4965    1.0000 </r>
       <r>   -3.4426    1.0000 </r>
       <r>   -3.3971    1.0000 </r>
       <r>   -3.3687    1.0000 </r>
       <r>   -3.3600    1.0000 </r>
       <r>   -3.3257    1.0000 </r>
       <r>   -3.2611    1.0000 </r>
       <r>   -3.2439    1.0000 </r>
       <r>   -3.2381    1.0000 </r>
       <r>   -3.1821    1.0000 </r>
       <r>   -3.1686    1.0000 </r>
       <r>   -3.1448    1.0000 </r>
       <r>   -3.1086    1.0000 </r>
       <r>   -3.0974    1.0000 </r>
       <r>   -3.0867    1.0000 </r>
       <r>   -3.0633    1.0000 </r>
       <r>   -3.0155    1.0000 </r>
       <r>   -2.9864    1.0000 </r>
       <r>   -2.9590    1.0000 </r>
       <r>   -2.9550    1.0000 </r>
       <r>   -2.9326    1.0000 </r>
       <r>   -2.9289    1.0000 </r>
       <r>   -2.9154    1.0000 </r>
       <r>   -2.8963    1.0000 </r>
       <r>   -2.8505    1.0000 </r>
       <r>   -2.8105    1.0000 </r>
       <r>   -2.8061    1.0000 </r>
       <r>   -2.7744    1.0000 </r>
       <r>   -2.7647    1.0000 </r>
       <r>   -2.7515    1.0000 </r>
       <r>   -2.7334    1.0000 </r>
       <r>   -2.7128    1.0000 </r>
       <r>   -2.7037    1.0000 </r>
       <r>   -2.6796    1.0000 </r>
       <r>   -2.5905    1.0000 </r>
       <r>   -2.5370    1.0000 </r>
       <r>   -2.5340    1.0000 </r>
       <r>   -2.5086    1.0000 </r>
       <r>   -2.4988    1.0000 </r>
       <r>   -2.4938    1.0000 </r>
       <r>   -2.4838    1.0000 </r>
       <r>   -2.4802    1.0000 </r>
       <r>   -2.4341    1.0000 </r>
       <r>   -2.4221    1.0000 </r>
       <r>   -2.4069    1.0000 </r>
       <r>   -2.4026    1.0000 </r>
       <r>   -2.2998    1.0000 </r>
       <r>   -2.0872    1.0000 </r>
       <r>   -2.0817    1.0000 </r>
       <r>   -2.0308    1.0000 </r>
       <r>   -1.9903    1.0000 </r>
       <r>   -1.9818    1.0000 </r>
       <r>   -1.9675    1.0000 </r>
       <r>   -1.9622    1.0000 </r>
       <r>   -1.9318    1.0000 </r>
       <r>   -1.8876    1.0000 </r>
       <r>   -1.7838    1.0000 </r>
       <r>   -1.7767    1.0000 </r>
       <r>   -1.7748    1.0000 </r>
       <r>   -1.6645    1.0000 </r>
       <r>   -1.6401    1.0000 </r>
       <r>   -1.6154    1.0000 </r>
       <r>   -1.5755    1.0000 </r>
       <r>   -1.5539    1.0000 </r>
       <r>   -1.5311    1.0000 </r>
       <r>   -1.5219    1.0000 </r>
       <r>   -1.5023    1.0000 </r>
       <r>   -1.4502    1.0000 </r>
       <r>   -1.4284    1.0000 </r>
       <r>   -1.3928    1.0000 </r>
       <r>   -1.3833    1.0000 </r>
       <r>   -1.3693    1.0000 </r>
       <r>   -1.3632    1.0000 </r>
       <r>   -1.1926    1.0000 </r>
       <r>   -1.1777    1.0000 </r>
       <r>   -1.1573    1.0000 </r>
       <r>   -1.1388    1.0000 </r>
       <r>   -1.1300    1.0000 </r>
       <r>   -1.1093    1.0000 </r>
       <r>   -1.0800    1.0000 </r>
       <r>   -1.0228    1.0000 </r>
       <r>   -1.0014    1.0000 </r>
       <r>   -0.9937    1.0000 </r>
       <r>   -0.9744    1.0000 </r>
       <r>   -0.9594    1.0000 </r>
       <r>   -0.9064    1.0000 </r>
       <r>   -0.9008    1.0000 </r>
       <r>   -0.8857    1.0000 </r>
       <r>   -0.8556    1.0000 </r>
       <r>   -0.7759    1.0000 </r>
       <r>   -0.7686    1.0000 </r>
       <r>   -0.7478    1.0000 </r>
       <r>   -0.7053    1.0000 </r>
       <r>   -0.6407    1.0000 </r>
       <r>   -0.6235    1.0000 </r>
       <r>   -0.6227    1.0000 </r>
       <r>   -0.5964    1.0000 </r>
       <r>   -0.5777    1.0000 </r>
       <r>   -0.5550    1.0000 </r>
       <r>   -0.5344    1.0000 </r>
       <r>   -0.4785    1.0000 </r>
       <r>   -0.4581    1.0000 </r>
       <r>   -0.4318    1.0000 </r>
       <r>   -0.3908    1.0000 </r>
       <r>   -0.3854    1.0000 </r>
       <r>   -0.3768    1.0001 </r>
       <r>   -0.3436    1.0003 </r>
       <r>   -0.3404    1.0004 </r>
       <r>   -0.3333    1.0005 </r>
       <r>   -0.3303    1.0006 </r>
       <r>   -0.3260    1.0008 </r>
       <r>   -0.2628    1.0091 </r>
       <r>   -0.2504    1.0131 </r>
       <r>   -0.1233    0.9037 </r>
       <r>   -0.1105    0.8331 </r>
       <r>   -0.0889    0.6820 </r>
       <r>   -0.0836    0.6399 </r>
       <r>   -0.0758    0.5753 </r>
       <r>   -0.0624    0.4626 </r>
       <r>   -0.0324    0.2269 </r>
       <r>   -0.0244    0.1746 </r>
       <r>   -0.0046    0.0703 </r>
       <r>    0.0112    0.0152 </r>
       <r>    0.0778   -0.0300 </r>
       <r>    0.1193   -0.0122 </r>
       <r>    0.1433   -0.0057 </r>
       <r>    0.1663   -0.0024 </r>
       <r>    0.2929   -0.0000 </r>
       <r>    0.3075   -0.0000 </r>
       <r>    0.3181   -0.0000 </r>
       <r>    0.3696   -0.0000 </r>
       <r>    0.6426   -0.0000 </r>
       <r>    0.7605   -0.0000 </r>
       <r>    1.1986   -0.0000 </r>
       <r>    1.4892   -0.0000 </r>
       <r>    1.4940   -0.0000 </r>
       <r>    1.6172   -0.0000 </r>
       <r>    2.2981   -0.0000 </r>
       <r>    2.7229    0.0000 </r>
       <r>    2.9181    0.0000 </r>
       <r>    3.4416    0.0000 </r>
       <r>    3.6630    0.0000 </r>
       <r>    3.6641    0.0000 </r>
       <r>    3.7628    0.0000 </r>
       <r>    3.9814    0.0000 </r>
       <r>    4.3603    0.0000 </r>
       <r>    4.6276    0.0000 </r>
       <r>    4.6749    0.0000 </r>
       <r>    4.9546    0.0000 </r>
       <r>    4.9839    0.0000 </r>
       <r>    5.0066    0.0000 </r>
       <r>    5.1229    0.0000 </r>
       <r>    5.2295    0.0000 </r>
       <r>    5.4700    0.0000 </r>
       <r>    5.6418    0.0000 </r>
       <r>    5.7464    0.0000 </r>
       <r>    5.8189    0.0000 </r>
       <r>    5.9143    0.0000 </r>
       <r>    6.0661    0.0000 </r>
       <r>    6.1922    0.0000 </r>
       <r>    6.2312    0.0000 </r>
       <r>    6.3171    0.0000 </r>
       <r>    6.3449    0.0000 </r>
       <r>    6.6558    0.0000 </r>
       <r>    6.7141    0.0000 </r>
       <r>    6.7155    0.0000 </r>
       <r>    6.7845    0.0000 </r>
       <r>    6.8448    0.0000 </r>
       <r>    6.9060    0.0000 </r>
       <r>    7.0505    0.0000 </r>
       <r>    7.2203    0.0000 </r>
       <r>    7.5037    0.0000 </r>
       <r>    7.5492    0.0000 </r>
       <r>    7.6216    0.0000 </r>
      </set>
      <set comment="kpoint 3">
       <r>   -8.7324    1.0000 </r>
       <r>   -7.4797    1.0000 </r>
       <r>   -6.9684    1.0000 </r>
       <r>   -6.5797    1.0000 </r>
       <r>   -6.5531    1.0000 </r>
       <r>   -6.4236    1.0000 </r>
       <r>   -6.3395    1.0000 </r>
       <r>   -6.2732    1.0000 </r>
       <r>   -6.2286    1.0000 </r>
       <r>   -6.2081    1.0000 </r>
       <r>   -6.0825    1.0000 </r>
       <r>   -5.9977    1.0000 </r>
       <r>   -5.9036    1.0000 </r>
       <r>   -5.8404    1.0000 </r>
       <r>   -5.8342    1.0000 </r>
       <r>   -5.8213    1.0000 </r>
       <r>   -5.6216    1.0000 </r>
       <r>   -5.5058    1.0000 </r>
       <r>   -5.4132    1.0000 </r>
       <r>   -5.4052    1.0000 </r>
       <r>   -5.4009    1.0000 </r>
       <r>   -5.3609    1.0000 </r>
       <r>   -5.3205    1.0000 </r>
       <r>   -5.3032    1.0000 </r>
       <r>   -5.2649    1.0000 </r>
       <r>   -5.2314    1.0000 </r>
       <r>   -5.2237    1.0000 </r>
       <r>   -5.2033    1.0000 </r>
       <r>   -5.1642    1.0000 </r>
       <r>   -5.1111    1.0000 </r>
       <r>   -5.0862    1.0000 </r>
       <r>   -5.0300    1.0000 </r>
       <r>   -5.0110    1.0000 </r>
       <r>   -5.0006    1.0000 </r>
       <r>   -4.9922    1.0000 </r>
       <r>   -4.8787    1.0000 </r>
       <r>   -4.8023    1.0000 </r>
       <r>   -4.7861    1.0000 </r>
       <r>   -4.7731    1.0000 </r>
       <r>   -4.7551    1.0000 </r>
       <r>   -4.7174    1.0000 </r>
       <r>   -4.4946    1.0000 </r>
       <r>   -4.4813    1.0000 </r>
       <r>   -4.4518    1.0000 </r>
       <r>   -4.4159    1.0000 </r>
       <r>   -4.4005    1.0000 </r>
       <r>   -4.3841    1.0000 </r>
       <r>   -4.3239    1.0000 </r>
       <r>   -4.2066    1.0000 </r>
       <r>   -4.1852    1.0000 </r>
       <r>   -4.1280    1.0000 </r>
       <r>   -4.1078    1.0000 </r>
       <r>   -4.0822    1.0000 </r>
       <r>   -4.0502    1.0000 </r>
       <r>   -4.0018    1.0000 </r>
       <r>   -3.8113    1.0000 </r>
       <r>   -3.7362    1.0000 </r>
       <r>   -3.7229    1.0000 </r>
       <r>   -3.6644    1.0000 </r>
       <r>   -3.6463    1.0000 </r>
       <r>   -3.6344    1.0000 </r>
       <r>   -3.5806    1.0000 </r>
       <r>   -3.5676    1.0000 </r>
       <r>   -3.5357    1.0000 </r>
       <r>   -3.5253    1.0000 </r>
       <r>   -3.5201    1.0000 </r>
       <r>   -3.4878    1.0000 </r>
       <r>   -3.4434    1.0000 </r>
       <r>   -3.4094    1.0000 </r>
       <r>   -3.3750    1.0000 </r>
       <r>   -3.3560    1.0000 </r>
       <r>   -3.3385    1.0000 </r>
       <r>   -3.2905    1.0000 </r>
       <r>   -3.2640    1.0000 </r>
       <r>   -3.2569    1.0000 </r>
       <r>   -3.1798    1.0000 </r>
       <r>   -3.1673    1.0000 </r>
       <r>   -3.1505    1.0000 </r>
       <r>   -3.1157    1.0000 </r>
       <r>   -3.0815    1.0000 </r>
       <r>   -3.0574    1.0000 </r>
       <r>   -3.0435    1.0000 </r>
       <r>   -3.0367    1.0000 </r>
       <r>   -2.9853    1.0000 </r>
       <r>   -2.9597    1.0000 </r>
       <r>   -2.9528    1.0000 </r>
       <r>   -2.9322    1.0000 </r>
       <r>   -2.9266    1.0000 </r>
       <r>   -2.9066    1.0000 </r>
       <r>   -2.8877    1.0000 </r>
       <r>   -2.8559    1.0000 </r>
       <r>   -2.8149    1.0000 </r>
       <r>   -2.8001    1.0000 </r>
       <r>   -2.7782    1.0000 </r>
       <r>   -2.7661    1.0000 </r>
       <r>   -2.7512    1.0000 </r>
       <r>   -2.7266    1.0000 </r>
       <r>   -2.7101    1.0000 </r>
       <r>   -2.7012    1.0000 </r>
       <r>   -2.6839    1.0000 </r>
       <r>   -2.5906    1.0000 </r>
       <r>   -2.5477    1.0000 </r>
       <r>   -2.5297    1.0000 </r>
       <r>   -2.5151    1.0000 </r>
       <r>   -2.5095    1.0000 </r>
       <r>   -2.4995    1.0000 </r>
       <r>   -2.4883    1.0000 </r>
       <r>   -2.4736    1.0000 </r>
       <r>   -2.4328    1.0000 </r>
       <r>   -2.4202    1.0000 </r>
       <r>   -2.4152    1.0000 </r>
       <r>   -2.4022    1.0000 </r>
       <r>   -2.1995    1.0000 </r>
       <r>   -2.1363    1.0000 </r>
       <r>   -2.0614    1.0000 </r>
       <r>   -2.0295    1.0000 </r>
       <r>   -2.0014    1.0000 </r>
       <r>   -1.9889    1.0000 </r>
       <r>   -1.9711    1.0000 </r>
       <r>   -1.9523    1.0000 </r>
       <r>   -1.9372    1.0000 </r>
       <r>   -1.9100    1.0000 </r>
       <r>   -1.8124    1.0000 </r>
       <r>   -1.7864    1.0000 </r>
       <r>   -1.7645    1.0000 </r>
       <r>   -1.6748    1.0000 </r>
       <r>   -1.6453    1.0000 </r>
       <r>   -1.6022    1.0000 </r>
       <r>   -1.5910    1.0000 </r>
       <r>   -1.5605    1.0000 </r>
       <r>   -1.5340    1.0000 </r>
       <r>   -1.5258    1.0000 </r>
       <r>   -1.5130    1.0000 </r>
       <r>   -1.4719    1.0000 </r>
       <r>   -1.4256    1.0000 </r>
       <r>   -1.3894    1.0000 </r>
       <r>   -1.3808    1.0000 </r>
       <r>   -1.3736    1.0000 </r>
       <r>   -1.3595    1.0000 </r>
       <r>   -1.1955    1.0000 </r>
       <r>   -1.1747    1.0000 </r>
       <r>   -1.1710    1.0000 </r>
       <r>   -1.1408    1.0000 </r>
       <r>   -1.1260    1.0000 </r>
       <r>   -1.1069    1.0000 </r>
       <r>   -1.0714    1.0000 </r>
       <r>   -1.0248    1.0000 </r>
       <r>   -0.9974    1.0000 </r>
       <r>   -0.9809    1.0000 </r>
       <r>   -0.9736    1.0000 </r>
       <r>   -0.9354    1.0000 </r>
       <r>   -0.9075    1.0000 </r>
       <r>   -0.8954    1.0000 </r>
       <r>   -0.8910    1.0000 </r>
       <r>   -0.8501    1.0000 </r>
       <r>   -0.7770    1.0000 </r>
       <r>   -0.7673    1.0000 </r>
       <r>   -0.7414    1.0000 </r>
       <r>   -0.7016    1.0000 </r>
       <r>   -0.6573    1.0000 </r>
       <r>   -0.6221    1.0000 </r>
       <r>   -0.6193    1.0000 </r>
       <r>   -0.6127    1.0000 </r>
       <r>   -0.5828    1.0000 </r>
       <r>   -0.5719    1.0000 </r>
       <r>   -0.5340    1.0000 </r>
       <r>   -0.4798    1.0000 </r>
       <r>   -0.4575    1.0000 </r>
       <r>   -0.4440    1.0000 </r>
       <r>   -0.3920    1.0000 </r>
       <r>   -0.3841    1.0000 </r>
       <r>   -0.3758    1.0001 </r>
       <r>   -0.3432    1.0003 </r>
       <r>   -0.3393    1.0004 </r>
       <r>   -0.3349    1.0005 </r>
       <r>   -0.3323    1.0006 </r>
       <r>   -0.3206    1.0010 </r>
       <r>   -0.2728    1.0066 </r>
       <r>   -0.2630    1.0090 </r>
       <r>   -0.1377    0.9629 </r>
       <r>   -0.1169    0.8706 </r>
       <r>   -0.0869    0.6661 </r>
       <r>   -0.0734    0.5560 </r>
       <r>   -0.0625    0.4634 </r>
       <r>   -0.0491    0.3529 </r>
       <r>   -0.0193    0.1438 </r>
       <r>   -0.0016    0.0581 </r>
       <r>    0.0096    0.0196 </r>
       <r>    0.0241   -0.0130 </r>
       <r>    0.0922   -0.0235 </r>
       <r>    0.1186   -0.0124 </r>
       <r>    0.1374   -0.0070 </r>
       <r>    0.1529   -0.0040 </r>
       <r>    0.3020   -0.0000 </r>
       <r>    0.3104   -0.0000 </r>
       <r>    0.3197   -0.0000 </r>
       <r>    0.3581   -0.0000 </r>
       <r>    0.6724   -0.0000 </r>
       <r>    0.7761   -0.0000 </r>
       <r>    1.1894   -0.0000 </r>
       <r>    1.4792   -0.0000 </r>
       <r>    1.4893   -0.0000 </r>
       <r>    1.6160   -0.0000 </r>
       <r>    2.2770   -0.0000 </r>
       <r>    2.7390    0.0000 </r>
       <r>    2.9322    0.0000 </r>
       <r>    3.4486    0.0000 </r>
       <r>    3.6583    0.0000 </r>
       <r>    3.6636    0.0000 </r>
       <r>    3.7645    0.0000 </r>
       <r>    3.9604    0.0000 </r>
       <r>    4.3551    0.0000 </r>
       <r>    4.6198    0.0000 </r>
       <r>    4.6702    0.0000 </r>
       <r>    4.9504    0.0000 </r>
       <r>    4.9905    0.0000 </r>
       <r>    5.0107    0.0000 </r>
       <r>    5.1308    0.0000 </r>
       <r>    5.2295    0.0000 </r>
       <r>    5.4884    0.0000 </r>
       <r>    5.6463    0.0000 </r>
       <r>    5.7264    0.0000 </r>
       <r>    5.8805    0.0000 </r>
       <r>    5.9201    0.0000 </r>
       <r>    6.0314    0.0000 </r>
       <r>    6.1779    0.0000 </r>
       <r>    6.2117    0.0000 </r>
       <r>    6.3229    0.0000 </r>
       <r>    6.3699    0.0000 </r>
       <r>    6.5873    0.0000 </r>
       <r>    6.7221    0.0000 </r>
       <r>    6.7270    0.0000 </r>
       <r>    6.7767    0.0000 </r>
       <r>    6.8612    0.0000 </r>
       <r>    6.9074    0.0000 </r>
       <r>    7.0469    0.0000 </r>
       <r>    7.2244    0.0000 </r>
       <r>    7.4971    0.0000 </r>
       <r>    7.5489    0.0000 </r>
       <r>    7.5994    0.0000 </r>
      </set>
      <set comment="kpoint 4">
       <r>   -8.7323    1.0000 </r>
       <r>   -7.4798    1.0000 </r>
       <r>   -6.9656    1.0000 </r>
       <r>   -6.5807    1.0000 </r>
       <r>   -6.5552    1.0000 </r>
       <r>   -6.4238    1.0000 </r>
       <r>   -6.3392    1.0000 </r>
       <r>   -6.2687    1.0000 </r>
       <r>   -6.2309    1.0000 </r>
       <r>   -6.2109    1.0000 </r>
       <r>   -6.0857    1.0000 </r>
       <r>   -5.9973    1.0000 </r>
       <r>   -5.8970    1.0000 </r>
       <r>   -5.8404    1.0000 </r>
       <r>   -5.8357    1.0000 </r>
       <r>   -5.8198    1.0000 </r>
       <r>   -5.6217    1.0000 </r>
       <r>   -5.5088    1.0000 </r>
       <r>   -5.4129    1.0000 </r>
       <r>   -5.4044    1.0000 </r>
       <r>   -5.3976    1.0000 </r>
       <r>   -5.3606    1.0000 </r>
       <r>   -5.3220    1.0000 </r>
       <r>   -5.3033    1.0000 </r>
       <r>   -5.2653    1.0000 </r>
       <r>   -5.2320    1.0000 </r>
       <r>   -5.2252    1.0000 </r>
       <r>   -5.2010    1.0000 </r>
       <r>   -5.1644    1.0000 </r>
       <r>   -5.1136    1.0000 </r>
       <r>   -5.0855    1.0000 </r>
       <r>   -5.0257    1.0000 </r>
       <r>   -5.0101    1.0000 </r>
       <r>   -5.0007    1.0000 </r>
       <r>   -4.9930    1.0000 </r>
       <r>   -4.8752    1.0000 </r>
       <r>   -4.8032    1.0000 </r>
       <r>   -4.7876    1.0000 </r>
       <r>   -4.7751    1.0000 </r>
       <r>   -4.7553    1.0000 </r>
       <r>   -4.7208    1.0000 </r>
       <r>   -4.4969    1.0000 </r>
       <r>   -4.4845    1.0000 </r>
       <r>   -4.4522    1.0000 </r>
       <r>   -4.4160    1.0000 </r>
       <r>   -4.3978    1.0000 </r>
       <r>   -4.3823    1.0000 </r>
       <r>   -4.3239    1.0000 </r>
       <r>   -4.2082    1.0000 </r>
       <r>   -4.1862    1.0000 </r>
       <r>   -4.1317    1.0000 </r>
       <r>   -4.1054    1.0000 </r>
       <r>   -4.0810    1.0000 </r>
       <r>   -4.0490    1.0000 </r>
       <r>   -4.0015    1.0000 </r>
       <r>   -3.8166    1.0000 </r>
       <r>   -3.7361    1.0000 </r>
       <r>   -3.7220    1.0000 </r>
       <r>   -3.6690    1.0000 </r>
       <r>   -3.6526    1.0000 </r>
       <r>   -3.6379    1.0000 </r>
       <r>   -3.5773    1.0000 </r>
       <r>   -3.5640    1.0000 </r>
       <r>   -3.5339    1.0000 </r>
       <r>   -3.5248    1.0000 </r>
       <r>   -3.5196    1.0000 </r>
       <r>   -3.4884    1.0000 </r>
       <r>   -3.4432    1.0000 </r>
       <r>   -3.4112    1.0000 </r>
       <r>   -3.3841    1.0000 </r>
       <r>   -3.3607    1.0000 </r>
       <r>   -3.3363    1.0000 </r>
       <r>   -3.2762    1.0000 </r>
       <r>   -3.2615    1.0000 </r>
       <r>   -3.2442    1.0000 </r>
       <r>   -3.1803    1.0000 </r>
       <r>   -3.1682    1.0000 </r>
       <r>   -3.1537    1.0000 </r>
       <r>   -3.1142    1.0000 </r>
       <r>   -3.0862    1.0000 </r>
       <r>   -3.0641    1.0000 </r>
       <r>   -3.0461    1.0000 </r>
       <r>   -3.0275    1.0000 </r>
       <r>   -2.9852    1.0000 </r>
       <r>   -2.9627    1.0000 </r>
       <r>   -2.9512    1.0000 </r>
       <r>   -2.9335    1.0000 </r>
       <r>   -2.9265    1.0000 </r>
       <r>   -2.9079    1.0000 </r>
       <r>   -2.8873    1.0000 </r>
       <r>   -2.8584    1.0000 </r>
       <r>   -2.8164    1.0000 </r>
       <r>   -2.7969    1.0000 </r>
       <r>   -2.7755    1.0000 </r>
       <r>   -2.7697    1.0000 </r>
       <r>   -2.7501    1.0000 </r>
       <r>   -2.7275    1.0000 </r>
       <r>   -2.7076    1.0000 </r>
       <r>   -2.6992    1.0000 </r>
       <r>   -2.6816    1.0000 </r>
       <r>   -2.5902    1.0000 </r>
       <r>   -2.5472    1.0000 </r>
       <r>   -2.5315    1.0000 </r>
       <r>   -2.5159    1.0000 </r>
       <r>   -2.5082    1.0000 </r>
       <r>   -2.4961    1.0000 </r>
       <r>   -2.4896    1.0000 </r>
       <r>   -2.4716    1.0000 </r>
       <r>   -2.4332    1.0000 </r>
       <r>   -2.4240    1.0000 </r>
       <r>   -2.4172    1.0000 </r>
       <r>   -2.3987    1.0000 </r>
       <r>   -2.2049    1.0000 </r>
       <r>   -2.1361    1.0000 </r>
       <r>   -2.0650    1.0000 </r>
       <r>   -2.0277    1.0000 </r>
       <r>   -2.0010    1.0000 </r>
       <r>   -1.9877    1.0000 </r>
       <r>   -1.9679    1.0000 </r>
       <r>   -1.9535    1.0000 </r>
       <r>   -1.9368    1.0000 </r>
       <r>   -1.9080    1.0000 </r>
       <r>   -1.8109    1.0000 </r>
       <r>   -1.7834    1.0000 </r>
       <r>   -1.7628    1.0000 </r>
       <r>   -1.6736    1.0000 </r>
       <r>   -1.6441    1.0000 </r>
       <r>   -1.6056    1.0000 </r>
       <r>   -1.5881    1.0000 </r>
       <r>   -1.5577    1.0000 </r>
       <r>   -1.5333    1.0000 </r>
       <r>   -1.5231    1.0000 </r>
       <r>   -1.5121    1.0000 </r>
       <r>   -1.4699    1.0000 </r>
       <r>   -1.4252    1.0000 </r>
       <r>   -1.3897    1.0000 </r>
       <r>   -1.3798    1.0000 </r>
       <r>   -1.3769    1.0000 </r>
       <r>   -1.3597    1.0000 </r>
       <r>   -1.1939    1.0000 </r>
       <r>   -1.1733    1.0000 </r>
       <r>   -1.1712    1.0000 </r>
       <r>   -1.1414    1.0000 </r>
       <r>   -1.1281    1.0000 </r>
       <r>   -1.1069    1.0000 </r>
       <r>   -1.0750    1.0000 </r>
       <r>   -1.0254    1.0000 </r>
       <r>   -0.9986    1.0000 </r>
       <r>   -0.9824    1.0000 </r>
       <r>   -0.9730    1.0000 </r>
       <r>   -0.9385    1.0000 </r>
       <r>   -0.9083    1.0000 </r>
       <r>   -0.8972    1.0000 </r>
       <r>   -0.8900    1.0000 </r>
       <r>   -0.8485    1.0000 </r>
       <r>   -0.7772    1.0000 </r>
       <r>   -0.7690    1.0000 </r>
       <r>   -0.7428    1.0000 </r>
       <r>   -0.6994    1.0000 </r>
       <r>   -0.6551    1.0000 </r>
       <r>   -0.6224    1.0000 </r>
       <r>   -0.6180    1.0000 </r>
       <r>   -0.6116    1.0000 </r>
       <r>   -0.5819    1.0000 </r>
       <r>   -0.5667    1.0000 </r>
       <r>   -0.5333    1.0000 </r>
       <r>   -0.4796    1.0000 </r>
       <r>   -0.4579    1.0000 </r>
       <r>   -0.4418    1.0000 </r>
       <r>   -0.3933    1.0000 </r>
       <r>   -0.3847    1.0000 </r>
       <r>   -0.3737    1.0001 </r>
       <r>   -0.3462    1.0003 </r>
       <r>   -0.3392    1.0004 </r>
       <r>   -0.3344    1.0005 </r>
       <r>   -0.3300    1.0006 </r>
       <r>   -0.3234    1.0009 </r>
       <r>   -0.2695    1.0073 </r>
       <r>   -0.2590    1.0102 </r>
       <r>   -0.1337    0.9487 </r>
       <r>   -0.1157    0.8636 </r>
       <r>   -0.0899    0.6896 </r>
       <r>   -0.0752    0.5704 </r>
       <r>   -0.0664    0.4969 </r>
       <r>   -0.0504    0.3628 </r>
       <r>   -0.0245    0.1749 </r>
       <r>   -0.0021    0.0600 </r>
       <r>    0.0035    0.0389 </r>
       <r>    0.0203   -0.0060 </r>
       <r>    0.0930   -0.0231 </r>
       <r>    0.1195   -0.0121 </r>
       <r>    0.1373   -0.0070 </r>
       <r>    0.1528   -0.0040 </r>
       <r>    0.3009   -0.0000 </r>
       <r>    0.3104   -0.0000 </r>
       <r>    0.3167   -0.0000 </r>
       <r>    0.3639   -0.0000 </r>
       <r>    0.6682   -0.0000 </r>
       <r>    0.7699   -0.0000 </r>
       <r>    1.1908   -0.0000 </r>
       <r>    1.4794   -0.0000 </r>
       <r>    1.4917   -0.0000 </r>
       <r>    1.6185   -0.0000 </r>
       <r>    2.2800   -0.0000 </r>
       <r>    2.7396    0.0000 </r>
       <r>    2.9274    0.0000 </r>
       <r>    3.4470    0.0000 </r>
       <r>    3.6583    0.0000 </r>
       <r>    3.6630    0.0000 </r>
       <r>    3.7634    0.0000 </r>
       <r>    3.9618    0.0000 </r>
       <r>    4.3570    0.0000 </r>
       <r>    4.6207    0.0000 </r>
       <r>    4.6730    0.0000 </r>
       <r>    4.9533    0.0000 </r>
       <r>    4.9895    0.0000 </r>
       <r>    5.0091    0.0000 </r>
       <r>    5.1334    0.0000 </r>
       <r>    5.2294    0.0000 </r>
       <r>    5.4816    0.0000 </r>
       <r>    5.6463    0.0000 </r>
       <r>    5.7310    0.0000 </r>
       <r>    5.8776    0.0000 </r>
       <r>    5.9157    0.0000 </r>
       <r>    6.0311    0.0000 </r>
       <r>    6.1816    0.0000 </r>
       <r>    6.2117    0.0000 </r>
       <r>    6.3196    0.0000 </r>
       <r>    6.3640    0.0000 </r>
       <r>    6.5853    0.0000 </r>
       <r>    6.7215    0.0000 </r>
       <r>    6.7286    0.0000 </r>
       <r>    6.7783    0.0000 </r>
       <r>    6.8622    0.0000 </r>
       <r>    6.9090    0.0000 </r>
       <r>    7.0479    0.0000 </r>
       <r>    7.2251    0.0000 </r>
       <r>    7.5013    0.0000 </r>
       <r>    7.5527    0.0000 </r>
       <r>    7.5995    0.0000 </r>
      </set>
      <set comment="kpoint 5">
       <r>   -8.3051    1.0000 </r>
       <r>   -7.6647    1.0000 </r>
       <r>   -7.0746    1.0000 </r>
       <r>   -6.6228    1.0000 </r>
       <r>   -6.5830    1.0000 </r>
       <r>   -6.5089    1.0000 </r>
       <r>   -6.2474    1.0000 </r>
       <r>   -6.1042    1.0000 </r>
       <r>   -6.0261    1.0000 </r>
       <r>   -5.9582    1.0000 </r>
       <r>   -5.8946    1.0000 </r>
       <r>   -5.8725    1.0000 </r>
       <r>   -5.8307    1.0000 </r>
       <r>   -5.7039    1.0000 </r>
       <r>   -5.6646    1.0000 </r>
       <r>   -5.6535    1.0000 </r>
       <r>   -5.6406    1.0000 </r>
       <r>   -5.5637    1.0000 </r>
       <r>   -5.5102    1.0000 </r>
       <r>   -5.4831    1.0000 </r>
       <r>   -5.4761    1.0000 </r>
       <r>   -5.4290    1.0000 </r>
       <r>   -5.4245    1.0000 </r>
       <r>   -5.3930    1.0000 </r>
       <r>   -5.3459    1.0000 </r>
       <r>   -5.3210    1.0000 </r>
       <r>   -5.3063    1.0000 </r>
       <r>   -5.2239    1.0000 </r>
       <r>   -5.0489    1.0000 </r>
       <r>   -5.0436    1.0000 </r>
       <r>   -5.0384    1.0000 </r>
       <r>   -5.0307    1.0000 </r>
       <r>   -5.0193    1.0000 </r>
       <r>   -4.9522    1.0000 </r>
       <r>   -4.7918    1.0000 </r>
       <r>   -4.7863    1.0000 </r>
       <r>   -4.7761    1.0000 </r>
       <r>   -4.7581    1.0000 </r>
       <r>   -4.7331    1.0000 </r>
       <r>   -4.6732    1.0000 </r>
       <r>   -4.5525    1.0000 </r>
       <r>   -4.4712    1.0000 </r>
       <r>   -4.4639    1.0000 </r>
       <r>   -4.4509    1.0000 </r>
       <r>   -4.4358    1.0000 </r>
       <r>   -4.3964    1.0000 </r>
       <r>   -4.3547    1.0000 </r>
       <r>   -4.3293    1.0000 </r>
       <r>   -4.3000    1.0000 </r>
       <r>   -4.2852    1.0000 </r>
       <r>   -4.2547    1.0000 </r>
       <r>   -4.2014    1.0000 </r>
       <r>   -4.0879    1.0000 </r>
       <r>   -4.0855    1.0000 </r>
       <r>   -4.0639    1.0000 </r>
       <r>   -4.0529    1.0000 </r>
       <r>   -3.9427    1.0000 </r>
       <r>   -3.9193    1.0000 </r>
       <r>   -3.8747    1.0000 </r>
       <r>   -3.8707    1.0000 </r>
       <r>   -3.8476    1.0000 </r>
       <r>   -3.7150    1.0000 </r>
       <r>   -3.6538    1.0000 </r>
       <r>   -3.6416    1.0000 </r>
       <r>   -3.6389    1.0000 </r>
       <r>   -3.6054    1.0000 </r>
       <r>   -3.5420    1.0000 </r>
       <r>   -3.5403    1.0000 </r>
       <r>   -3.4614    1.0000 </r>
       <r>   -3.4214    1.0000 </r>
       <r>   -3.4169    1.0000 </r>
       <r>   -3.3674    1.0000 </r>
       <r>   -3.3374    1.0000 </r>
       <r>   -3.3011    1.0000 </r>
       <r>   -3.2790    1.0000 </r>
       <r>   -3.2724    1.0000 </r>
       <r>   -3.2490    1.0000 </r>
       <r>   -3.2337    1.0000 </r>
       <r>   -3.1898    1.0000 </r>
       <r>   -3.1655    1.0000 </r>
       <r>   -3.1634    1.0000 </r>
       <r>   -3.1510    1.0000 </r>
       <r>   -3.1320    1.0000 </r>
       <r>   -3.1213    1.0000 </r>
       <r>   -3.1028    1.0000 </r>
       <r>   -3.0845    1.0000 </r>
       <r>   -3.0646    1.0000 </r>
       <r>   -2.9954    1.0000 </r>
       <r>   -2.9876    1.0000 </r>
       <r>   -2.9681    1.0000 </r>
       <r>   -2.9612    1.0000 </r>
       <r>   -2.9531    1.0000 </r>
       <r>   -2.9512    1.0000 </r>
       <r>   -2.8419    1.0000 </r>
       <r>   -2.7941    1.0000 </r>
       <r>   -2.7702    1.0000 </r>
       <r>   -2.7348    1.0000 </r>
       <r>   -2.7316    1.0000 </r>
       <r>   -2.7088    1.0000 </r>
       <r>   -2.6999    1.0000 </r>
       <r>   -2.6527    1.0000 </r>
       <r>   -2.6331    1.0000 </r>
       <r>   -2.5899    1.0000 </r>
       <r>   -2.5354    1.0000 </r>
       <r>   -2.4956    1.0000 </r>
       <r>   -2.4862    1.0000 </r>
       <r>   -2.4411    1.0000 </r>
       <r>   -2.4196    1.0000 </r>
       <r>   -2.3927    1.0000 </r>
       <r>   -2.2674    1.0000 </r>
       <r>   -2.2620    1.0000 </r>
       <r>   -2.2127    1.0000 </r>
       <r>   -2.1699    1.0000 </r>
       <r>   -2.1152    1.0000 </r>
       <r>   -2.0987    1.0000 </r>
       <r>   -2.0797    1.0000 </r>
       <r>   -2.0629    1.0000 </r>
       <r>   -2.0477    1.0000 </r>
       <r>   -2.0414    1.0000 </r>
       <r>   -2.0274    1.0000 </r>
       <r>   -1.9777    1.0000 </r>
       <r>   -1.9375    1.0000 </r>
       <r>   -1.9235    1.0000 </r>
       <r>   -1.9184    1.0000 </r>
       <r>   -1.9090    1.0000 </r>
       <r>   -1.9004    1.0000 </r>
       <r>   -1.8593    1.0000 </r>
       <r>   -1.8419    1.0000 </r>
       <r>   -1.8269    1.0000 </r>
       <r>   -1.7117    1.0000 </r>
       <r>   -1.6925    1.0000 </r>
       <r>   -1.6760    1.0000 </r>
       <r>   -1.6600    1.0000 </r>
       <r>   -1.6186    1.0000 </r>
       <r>   -1.5005    1.0000 </r>
       <r>   -1.4824    1.0000 </r>
       <r>   -1.4555    1.0000 </r>
       <r>   -1.3828    1.0000 </r>
       <r>   -1.3776    1.0000 </r>
       <r>   -1.3144    1.0000 </r>
       <r>   -1.2455    1.0000 </r>
       <r>   -1.2061    1.0000 </r>
       <r>   -1.1685    1.0000 </r>
       <r>   -1.1524    1.0000 </r>
       <r>   -1.1370    1.0000 </r>
       <r>   -1.1289    1.0000 </r>
       <r>   -1.1123    1.0000 </r>
       <r>   -1.0524    1.0000 </r>
       <r>   -1.0469    1.0000 </r>
       <r>   -1.0169    1.0000 </r>
       <r>   -0.9873    1.0000 </r>
       <r>   -0.9507    1.0000 </r>
       <r>   -0.8969    1.0000 </r>
       <r>   -0.8670    1.0000 </r>
       <r>   -0.8456    1.0000 </r>
       <r>   -0.8393    1.0000 </r>
       <r>   -0.8248    1.0000 </r>
       <r>   -0.7553    1.0000 </r>
       <r>   -0.7323    1.0000 </r>
       <r>   -0.6396    1.0000 </r>
       <r>   -0.5872    1.0000 </r>
       <r>   -0.5828    1.0000 </r>
       <r>   -0.5481    1.0000 </r>
       <r>   -0.5329    1.0000 </r>
       <r>   -0.5287    1.0000 </r>
       <r>   -0.4528    1.0000 </r>
       <r>   -0.4338    1.0000 </r>
       <r>   -0.4074    1.0000 </r>
       <r>   -0.3342    1.0005 </r>
       <r>   -0.3308    1.0006 </r>
       <r>   -0.3225    1.0009 </r>
       <r>   -0.2754    1.0060 </r>
       <r>   -0.2453    1.0150 </r>
       <r>   -0.2343    1.0197 </r>
       <r>   -0.2142    1.0288 </r>
       <r>   -0.1302    0.9346 </r>
       <r>   -0.1135    0.8512 </r>
[...]
       <r>    6.8712    0.0000 </r>
       <r>    6.9027    0.0000 </r>
       <r>    7.0444    0.0000 </r>
       <r>    7.2350    0.0000 </r>
       <r>    7.3080    0.0000 </r>
      </set>
     </set>
    </set>
   </array>
  </eigenvalues>
  <separator name="orbital magnetization" >
   <v name="MAGDIPOLOUT">      0.00000000      0.00000000      0.00000000</v>
  </separator>
  <dos>
   <i name="efermi">     -0.06681789 </i>
   <total>
    <array>
     <dimension dim="1">gridpoints</dimension>
     <dimension dim="2">spin</dimension>
     <field>energy</field>
     <field>total</field>
     <field>integrated</field>
     <set>
      <set comment="spin 1">
       <r>    -9.8805     0.0000     0.0000 </r>
       <r>    -9.8181     0.0000     0.0000 </r>
       <r>    -9.7557     0.0000     0.0000 </r>
       <r>    -9.6933    -0.0000    -0.0000 </r>
       <r>    -9.6309    -0.0000    -0.0000 </r>
       <r>    -9.5685    -0.0000    -0.0000 </r>
       <r>    -9.5061    -0.0000    -0.0000 </r>
       <r>    -9.4437    -0.0000    -0.0000 </r>
       <r>    -9.3813    -0.0000    -0.0000 </r>
       <r>    -9.3189    -0.0000    -0.0000 </r>
       <r>    -9.2565    -0.0000    -0.0000 </r>
       <r>    -9.1941    -0.0001    -0.0000 </r>
       <r>    -9.1317    -0.0014    -0.0001 </r>
       <r>    -9.0693    -0.0131    -0.0009 </r>
       <r>    -9.0069    -0.0334    -0.0030 </r>
       <r>    -8.9445     0.0879     0.0025 </r>
       <r>    -8.8821     0.3704     0.0256 </r>
       <r>    -8.8197     0.7223     0.0707 </r>
       <r>    -8.7573     2.4667     0.2246 </r>
       <r>    -8.6949     3.7908     0.4611 </r>
       <r>    -8.6325     1.6888     0.5665 </r>
       <r>    -8.5701    -0.2109     0.5534 </r>
       <r>    -8.5077     0.5762     0.5893 </r>
       <r>    -8.4453     3.0662     0.7807 </r>
       <r>    -8.3829     3.7291     1.0133 </r>
       <r>    -8.3205     3.6119     1.2387 </r>
       <r>    -8.2581     3.5106     1.4578 </r>
       <r>    -8.1957     1.2559     1.5362 </r>
       <r>    -8.1333    -0.1708     1.5255 </r>
       <r>    -8.0709    -0.3887     1.5012 </r>
       <r>    -8.0085    -0.1186     1.4938 </r>
       <r>    -7.9461     3.2933     1.6993 </r>
       <r>    -7.8837     7.5393     2.1698 </r>
       <r>    -7.8213     4.7471     2.4660 </r>
       <r>    -7.7589     0.5198     2.4985 </r>
       <r>    -7.6965     1.8401     2.6133 </r>
       <r>    -7.6341     4.0891     2.8684 </r>
       <r>    -7.5717     2.6330     3.0327 </r>
       <r>    -7.5093     2.3014     3.1763 </r>
       <r>    -7.4469     3.4467     3.3914 </r>
       <r>    -7.3845     1.7417     3.5001 </r>
       <r>    -7.3221     2.0987     3.6311 </r>
       <r>    -7.2597     7.5016     4.0992 </r>
       <r>    -7.1973    11.8983     4.8416 </r>
       <r>    -7.1349     9.1990     5.4156 </r>
       <r>    -7.0725     4.9306     5.7233 </r>
       <r>    -7.0101     4.1449     5.9820 </r>
       <r>    -6.9477     4.1583     6.2414 </r>
       <r>    -6.8853     2.2272     6.3804 </r>
       <r>    -6.8229     0.5451     6.4144 </r>
       <r>    -6.7605     2.4774     6.5690 </r>
       <r>    -6.6981     5.4645     6.9100 </r>
       <r>    -6.6357    10.0416     7.5366 </r>
       <r>    -6.5733    16.4321     8.5620 </r>
       <r>    -6.5109    16.1978     9.5727 </r>
       <r>    -6.4485    11.2497    10.2747 </r>
       <r>    -6.3861     8.0319    10.7759 </r>
       <r>    -6.3237     8.7112    11.3195 </r>
       <r>    -6.2613    16.0331    12.3199 </r>
       <r>    -6.1989    22.4039    13.7179 </r>
       <r>    -6.1365    27.9813    15.4640 </r>
       <r>    -6.0741    35.3315    17.6687 </r>
       <r>    -6.0117    34.4679    19.8195 </r>
       <r>    -5.9493    32.2631    21.8327 </r>
       <r>    -5.8869    34.8538    24.0076 </r>
       <r>    -5.8245    33.8240    26.1182 </r>
       <r>    -5.7621    24.9653    27.6760 </r>
       <r>    -5.6997    23.7709    29.1593 </r>
       <r>    -5.6373    35.8119    31.3940 </r>
       <r>    -5.5749    45.3071    34.2212 </r>
       <r>    -5.5125    46.5803    37.1278 </r>
       <r>    -5.4501    49.9887    40.2471 </r>
       <r>    -5.3877    59.8840    43.9839 </r>
       <r>    -5.3253    63.2531    47.9309 </r>
       <r>    -5.2629    56.2731    51.4423 </r>
       <r>    -5.2005    49.5781    54.5360 </r>
       <r>    -5.1381    45.8436    57.3967 </r>
       <r>    -5.0757    49.7466    60.5009 </r>
       <r>    -5.0133    69.4717    64.8359 </r>
       <r>    -4.9509    63.7211    68.8121 </r>
       <r>    -4.8885    33.9027    70.9276 </r>
       <r>    -4.8261    28.1005    72.6811 </r>
       <r>    -4.7637    42.5188    75.3343 </r>
       <r>    -4.7013    37.9442    77.7020 </r>
       <r>    -4.6389    19.7171    78.9324 </r>
       <r>    -4.5765    21.9818    80.3040 </r>
       <r>    -4.5141    43.1336    82.9956 </r>
       <r>    -4.4517    61.0368    86.8043 </r>
       <r>    -4.3893    61.9759    90.6716 </r>
       <r>    -4.3269    50.6223    93.8304 </r>
       <r>    -4.2645    44.4331    96.6031 </r>
       <r>    -4.2021    44.6724    99.3906 </r>
       <r>    -4.1397    48.6592   102.4270 </r>
       <r>    -4.0773    58.5994   106.0836 </r>
       <r>    -4.0149    55.0819   109.5207 </r>
       <r>    -3.9525    44.3327   112.2871 </r>
       <r>    -3.8901    42.1199   114.9154 </r>
       <r>    -3.8277    39.5811   117.3852 </r>
       <r>    -3.7653    36.1760   119.6426 </r>
       <r>    -3.7029    45.6621   122.4919 </r>
       <r>    -3.6405    61.7808   126.3471 </r>
       <r>    -3.5781    62.6601   130.2571 </r>
       <r>    -3.5157    57.0955   133.8198 </r>
       <r>    -3.4533    60.1851   137.5754 </r>
       <r>    -3.3909    71.3739   142.0291 </r>
       <r>    -3.3285    77.7966   146.8836 </r>
       <r>    -3.2661    73.6291   151.4781 </r>
       <r>    -3.2037    66.3257   155.6168 </r>
       <r>    -3.1413    75.0135   160.2977 </r>
       <r>    -3.0789    87.1310   165.7347 </r>
       <r>    -3.0165    80.1858   170.7383 </r>
       <r>    -2.9541    76.1843   175.4922 </r>
       <r>    -2.8917    76.5840   180.2711 </r>
       <r>    -2.8293    76.7297   185.0590 </r>
       <r>    -2.7669    92.1336   190.8082 </r>
       <r>    -2.7045   106.4937   197.4534 </r>
       <r>    -2.6421    96.0524   203.4471 </r>
       <r>    -2.5797    69.9417   207.8114 </r>
       <r>    -2.5173    62.7413   211.7265 </r>
       <r>    -2.4549    66.2892   215.8629 </r>
       <r>    -2.3925    55.4317   219.3219 </r>
       <r>    -2.3301    37.1423   221.6396 </r>
       <r>    -2.2677    29.0699   223.4535 </r>
       <r>    -2.2053    30.1891   225.3373 </r>
       <r>    -2.1429    35.5477   227.5555 </r>
       <r>    -2.0805    52.5188   230.8327 </r>
       <r>    -2.0181    76.3043   235.5941 </r>
       <r>    -1.9557    91.1809   241.2838 </r>
       <r>    -1.8933    86.3998   246.6752 </r>
       <r>    -1.8309    68.4343   250.9455 </r>
       <r>    -1.7685    51.1988   254.1403 </r>
       <r>    -1.7061    44.3365   256.9069 </r>
       <r>    -1.6437    42.8553   259.5811 </r>
       <r>    -1.5813    47.4442   262.5416 </r>
       <r>    -1.5189    59.4868   266.2536 </r>
       <r>    -1.4565    63.9130   270.2418 </r>
       <r>    -1.3941    59.5181   273.9557 </r>
       <r>    -1.3317    57.3962   277.5372 </r>
       <r>    -1.2693    52.3560   280.8043 </r>
       <r>    -1.2069    51.2038   283.9994 </r>
       <r>    -1.1445    65.5766   288.0914 </r>
       <r>    -1.0821    80.3066   293.1025 </r>
       <r>    -1.0197    85.3579   298.4289 </r>
       <r>    -0.9573    77.3654   303.2565 </r>
       <r>    -0.8949    60.4063   307.0259 </r>
       <r>    -0.8325    55.2913   310.4760 </r>
       <r>    -0.7701    51.6836   313.7011 </r>
       <r>    -0.7077    43.5036   316.4157 </r>
       <r>    -0.6453    48.7372   319.4569 </r>
       <r>    -0.5829    63.8535   323.4414 </r>
       <r>    -0.5205    63.3573   327.3949 </r>
       <r>    -0.4581    58.6663   331.0557 </r>
       <r>    -0.3957    64.4660   335.0784 </r>
       <r>    -0.3333    79.7722   340.0562 </r>
       <r>    -0.2709    93.2345   345.8740 </r>
       <r>    -0.2085    77.8897   350.7344 </r>
       <r>    -0.1461    58.6908   354.3967 </r>
       <r>    -0.0837    79.4728   359.3558 </r>
       <r>    -0.0213    95.2666   365.3005 </r>
       <r>     0.0411    61.2745   369.1240 </r>
       <r>     0.1035    35.8827   371.3631 </r>
       <r>     0.1659    51.3046   374.5645 </r>
       <r>     0.2283    54.5081   377.9658 </r>
       <r>     0.2907    41.9337   380.5825 </r>
       <r>     0.3531    37.6798   382.9337 </r>
       <r>     0.4155    27.5316   384.6517 </r>
       <r>     0.4779    14.5949   385.5624 </r>
       <r>     0.5403     6.8071   385.9872 </r>
       <r>     0.6027     4.3831   386.2607 </r>
       <r>     0.6651     5.5868   386.6093 </r>
       <r>     0.7275     9.4257   387.1975 </r>
       <r>     0.7899    12.6351   387.9859 </r>
       <r>     0.8523    10.5790   388.6460 </r>
       <r>     0.9147     8.7902   389.1945 </r>
       <r>     0.9771    12.1119   389.9503 </r>
       <r>     1.0395    10.6574   390.6153 </r>
       <r>     1.1019     5.3788   390.9510 </r>
       <r>     1.1643     5.4937   391.2938 </r>
       <r>     1.2267     9.9680   391.9158 </r>
       <r>     1.2891    11.5571   392.6370 </r>
       <r>     1.3515    11.2856   393.3412 </r>
       <r>     1.4139     8.7163   393.8851 </r>
       <r>     1.4763    12.7932   394.6834 </r>
       <r>     1.5387    25.9754   396.3042 </r>
       <r>     1.6011    26.8392   397.9790 </r>
       <r>     1.6635    19.5903   399.2015 </r>
       <r>     1.7259    15.2508   400.1531 </r>
       <r>     1.7883     8.6223   400.6911 </r>
       <r>     1.8507     3.6307   400.9177 </r>
       <r>     1.9131     5.0647   401.2337 </r>
       <r>     1.9755     6.6578   401.6492 </r>
       <r>     2.0379     5.5794   401.9973 </r>
       <r>     2.1003     3.2666   402.2012 </r>
       <r>     2.1627     4.3994   402.4757 </r>
       <r>     2.2251     9.1737   403.0481 </r>
       <r>     2.2875    12.1841   403.8084 </r>
       <r>     2.3499    11.6776   404.5371 </r>
       <r>     2.4123    15.0636   405.4771 </r>
       <r>     2.4747    22.7343   406.8957 </r>
       <r>     2.5371    18.2506   408.0345 </r>
       <r>     2.5995     8.1129   408.5408 </r>
       <r>     2.6619     6.4381   408.9425 </r>
       <r>     2.7243    10.6081   409.6045 </r>
       <r>     2.7867    15.7295   410.5860 </r>
       <r>     2.8491    15.7766   411.5705 </r>
       <r>     2.9115    12.9820   412.3805 </r>
       <r>     2.9739    11.0785   413.0718 </r>
       <r>     3.0363    10.0085   413.6964 </r>
       <r>     3.0987    14.1905   414.5819 </r>
       <r>     3.1611    14.3626   415.4781 </r>
       <r>     3.2235     9.7224   416.0848 </r>
       <r>     3.2859     9.5192   416.6788 </r>
       <r>     3.3483     9.2930   417.2587 </r>
       <r>     3.4107     6.2101   417.6462 </r>
       <r>     3.4731     6.4166   418.0466 </r>
       <r>     3.5355     6.9628   418.4810 </r>
       <r>     3.5979     8.1768   418.9913 </r>
       <r>     3.6603    15.7983   419.9771 </r>
       <r>     3.7227    21.2337   421.3021 </r>
       <r>     3.7851    17.2036   422.3756 </r>
       <r>     3.8475     8.7481   422.9215 </r>
       <r>     3.9099     5.2551   423.2494 </r>
       <r>     3.9723     8.0629   423.7525 </r>
       <r>     4.0347    10.6532   424.4173 </r>
       <r>     4.0971     9.0813   424.9839 </r>
       <r>     4.1595     3.4915   425.2018 </r>
       <r>     4.2219     0.6139   425.2401 </r>
       <r>     4.2843     3.1718   425.4380 </r>
       <r>     4.3467    10.4375   426.0893 </r>
       <r>     4.4091    23.2344   427.5392 </r>
       <r>     4.4715    27.2362   429.2387 </r>
       <r>     4.5339    15.2950   430.1931 </r>
       <r>     4.5963     7.0696   430.6343 </r>
       <r>     4.6587     7.9337   431.1293 </r>
       <r>     4.7211    10.0742   431.7580 </r>
       <r>     4.7835    10.9425   432.4408 </r>
       <r>     4.8459     8.9937   433.0020 </r>
       <r>     4.9083     8.2319   433.5157 </r>
       <r>     4.9707    12.8047   434.3147 </r>
       <r>     5.0331    13.7171   435.1706 </r>
       <r>     5.0955    10.3261   435.8150 </r>
       <r>     5.1579    11.3535   436.5234 </r>
       <r>     5.2203    11.0115   437.2105 </r>
       <r>     5.2827    10.9374   437.8930 </r>
       <r>     5.3451     9.8872   438.5100 </r>
       <r>     5.4075     6.1652   438.8947 </r>
       <r>     5.4699    10.8387   439.5710 </r>
       <r>     5.5323    20.4956   440.8500 </r>
       <r>     5.5947    22.0780   442.2277 </r>
       <r>     5.6571    20.6198   443.5143 </r>
       <r>     5.7195    24.1324   445.0202 </r>
       <r>     5.7819    23.6925   446.4986 </r>
       <r>     5.8443    16.5290   447.5300 </r>
       <r>     5.9067    16.1125   448.5355 </r>
       <r>     5.9691    23.8917   450.0263 </r>
       <r>     6.0315    30.4558   451.9267 </r>
       <r>     6.0939    27.5878   453.6482 </r>
       <r>     6.1563    17.5552   454.7437 </r>
       <r>     6.2187    15.6373   455.7194 </r>
       <r>     6.2811    19.3863   456.9292 </r>
       <r>     6.3435    26.7578   458.5988 </r>
       <r>     6.4059    27.8775   460.3384 </r>
       <r>     6.4683    16.2307   461.3512 </r>
       <r>     6.5307    13.7388   462.2085 </r>
       <r>     6.5931    25.2435   463.7837 </r>
       <r>     6.6555    30.0666   465.6599 </r>
       <r>     6.7179    28.0212   467.4084 </r>
       <r>     6.7803    22.9236   468.8388 </r>
       <r>     6.8427    18.6430   470.0022 </r>
       <r>     6.9051    21.9295   471.3706 </r>
       <r>     6.9675    16.8580   472.4225 </r>
       <r>     7.0299     9.4117   473.0098 </r>
       <r>     7.0923    15.1296   473.9539 </r>
       <r>     7.1547    21.9377   475.3228 </r>
       <r>     7.2171    22.1939   476.7077 </r>
       <r>     7.2795    17.8239   477.8199 </r>
       <r>     7.3419     9.1261   478.3894 </r>
       <r>     7.4043     1.7593   478.4992 </r>
       <r>     7.4667     1.5488   478.5958 </r>
       <r>     7.5291     6.4670   478.9994 </r>
       <r>     7.5915     8.6454   479.5388 </r>
       <r>     7.6539     5.3485   479.8726 </r>
       <r>     7.7163     1.1338   479.9433 </r>
       <r>     7.7787    -0.1135   479.9362 </r>
       <r>     7.8411     0.4181   479.9623 </r>
       <r>     7.9035     0.5240   479.9950 </r>
       <r>     7.9659     0.1247   480.0028 </r>
       <r>     8.0283    -0.0307   480.0009 </r>
       <r>     8.0907    -0.0131   480.0001 </r>
       <r>     8.1531    -0.0014   480.0000 </r>
       <r>     8.2155    -0.0001   480.0000 </r>
       <r>     8.2779    -0.0000   480.0000 </r>
       <r>     8.3403    -0.0000   480.0000 </r>
       <r>     8.4027    -0.0000   480.0000 </r>
       <r>     8.4651    -0.0000   480.0000 </r>
       <r>     8.5275     0.0000   480.0000 </r>
       <r>     8.5899     0.0000   480.0000 </r>
       <r>     8.6524     0.0000   480.0000 </r>
       <r>     8.7148     0.0000   480.0000 </r>
       <r>     8.7772     0.0000   480.0000 </r>
       <r>     8.8396     0.0000   480.0000 </r>
      </set>
     </set>
    </array>
   </total>
  </dos>
 </calculation>
 <structure name="finalpos" >
  <crystal>
   <varray name="basis" >
    <v>       8.46831000       0.00000000       0.00000000 </v>
    <v>       4.23415500       7.33377159       0.00000000 </v>
    <v>       0.00000000       0.00000000      24.96566199 </v>
   </varray>
   <i name="volume">   1550.48373159 </i>
   <varray name="rec_basis" >
    <v>       0.11808732      -0.06817774       0.00000000 </v>
    <v>       0.00000000       0.13635549       0.00000000 </v>
    <v>       0.00000000       0.00000000       0.04005502 </v>
   </varray>
  </crystal>
  <varray name="positions" >
   <v>       0.00000000       0.00000000       0.34046764 </v>
   <v>       0.33400137       0.00000000       0.34046764 </v>
   <v>       0.66800274       0.00000000       0.34046764 </v>
   <v>       0.00000000       0.33400137       0.34046764 </v>
   <v>       0.33400137       0.33400137       0.34046764 </v>
   <v>       0.66800274       0.33400137       0.34046764 </v>
   <v>       0.00000000       0.66800274       0.34046764 </v>
   <v>       0.33400137       0.66800274       0.34046764 </v>
   <v>       0.66800274       0.66800274       0.34046764 </v>
   <v>       0.11133379       0.11133379       0.43297074 </v>
   <v>       0.44533516       0.11133379       0.43297074 </v>
   <v>       0.77933653       0.11133379       0.43297074 </v>
   <v>       0.11133379       0.44533516       0.43297074 </v>
   <v>       0.44533516       0.44533516       0.43297074 </v>
   <v>       0.77933653       0.44533516       0.43297074 </v>
   <v>       0.11133379       0.77933653       0.43297074 </v>
   <v>       0.44533516       0.77933653       0.43297074 </v>
   <v>       0.77933653       0.77933653       0.43297074 </v>
   <v>       0.89330160       0.22416462       0.52587961 </v>
   <v>       0.22613238       0.22229239       0.52485368 </v>
   <v>       0.55951837       0.22267390       0.52430101 </v>
   <v>       0.89363370       0.55340170       0.52581651 </v>
   <v>       0.22591709       0.55573015       0.52436071 </v>
   <v>       0.55939844       0.55597971       0.52446105 </v>
   <v>       0.89299827       0.88925305       0.52439419 </v>
   <v>       0.22596300       0.88939625       0.52451431 </v>
   <v>       0.55987553       0.88876839       0.52437249 </v>
   <v>       0.00601178       0.99883959       0.61772256 </v>
   <v>       0.34240963       0.99667693       0.61777831 </v>
   <v>       0.67336276       0.99930031       0.61769645 </v>
   <v>       0.01108885       0.33040452       0.62226839 </v>
   <v>       0.34226717       0.33280995       0.61773406 </v>
   <v>       0.67315878       0.33248329       0.61785360 </v>
   <v>       0.00597795       0.66713292       0.61758527 </v>
   <v>       0.34022732       0.66577438       0.61743228 </v>
   <v>       0.67314320       0.66639886       0.61787910 </v>
   <v>       0.09493065       0.28997619       0.67967760 </v>
  </varray>
  <varray name="selective"  type="logical" >
   <v type="logical" >  F  F  F </v>
   <v type="logical" >  F  F  F </v>
   <v type="logical" >  F  F  F </v>
   <v type="logical" >  F  F  F </v>
   <v type="logical" >  F  F  F </v>
   <v type="logical" >  F  F  F </v>
   <v type="logical" >  F  F  F </v>
   <v type="logical" >  F  F  F </v>
   <v type="logical" >  F  F  F </v>
   <v type="logical" >  F  F  F </v>
   <v type="logical" >  F  F  F </v>
   <v type="logical" >  F  F  F </v>
   <v type="logical" >  F  F  F </v>
   <v type="logical" >  F  F  F </v>
   <v type="logical" >  F  F  F </v>
   <v type="logical" >  F  F  F </v>
   <v type="logical" >  F  F  F </v>
   <v type="logical" >  F  F  F </v>
   <v type="logical" >  T  T  T </v>
   <v type="logical" >  T  T  T </v>
   <v type="logical" >  T  T  T </v>
   <v type="logical" >  T  T  T </v>
   <v type="logical" >  T  T  T </v>
   <v type="logical" >  T  T  T </v>
   <v type="logical" >  T  T  T </v>
   <v type="logical" >  T  T  T </v>
   <v type="logical" >  T  T  T </v>
   <v type="logical" >  T  T  T </v>
   <v type="logical" >  T  T  T </v>
   <v type="logical" >  T  T  T </v>
   <v type="logical" >  T  T  T </v>
   <v type="logical" >  T  T  T </v>
   <v type="logical" >  T  T  T </v>
   <v type="logical" >  T  T  T </v>
   <v type="logical" >  T  T  T </v>
   <v type="logical" >  T  T  T </v>
   <v type="logical" >  T  T  T </v>
  </varray>
  <nose>
   <v>      -3.00000000       0.00000000       0.00010000       0.00010000 </v>
  </nose>
 </structure>
</modeling>
