unknown system                          
           1
     8.468310    0.000000    0.000000
     4.234155    7.333772    0.000000
     0.000000    0.000000   24.965662
   Pt   H 
    36     1
Direct configuration=     1
   0.00000000  0.00000000  0.34046764
   0.33400137  0.00000000  0.34046764
   0.66800274  0.00000000  0.34046764
   0.00000000  0.33400137  0.34046764
   0.33400137  0.33400137  0.34046764
   0.66800274  0.33400137  0.34046764
   0.00000000  0.66800274  0.34046764
   0.33400137  0.66800274  0.34046764
   0.66800274  0.66800274  0.34046764
   0.11133379  0.11133379  0.43297074
   0.44533516  0.11133379  0.43297074
   0.77933653  0.11133379  0.43297074
   0.11133379  0.44533516  0.43297074
   0.44533516  0.44533516  0.43297074
   0.77933653  0.44533516  0.43297074
   0.11133379  0.77933653  0.43297074
   0.44533516  0.77933653  0.43297074
   0.77933653  0.77933653  0.43297074
   0.89330160  0.22416462  0.52587961
   0.22613238  0.22229239  0.52485368
   0.55951837  0.22267390  0.52430101
   0.89363370  0.55340170  0.52581651
   0.22591709  0.55573015  0.52436071
   0.55939844  0.55597971  0.52446105
   0.89299827  0.88925305  0.52439419
   0.22596300  0.88939625  0.52451431
   0.55987553  0.88876839  0.52437249
   0.00601178  0.99883959  0.61772256
   0.34240963  0.99667693  0.61777831
   0.67336276  0.99930031  0.61769645
   0.01108885  0.33040452  0.62226839
   0.34226717  0.33280995  0.61773406
   0.67315878  0.33248329  0.61785360
   0.00597795  0.66713292  0.61758527
   0.34022732  0.66577438  0.61743228
   0.67314320  0.66639886  0.61787910
   0.09493065  0.28997619  0.67967760
