
     Program PWSCF v.7.1 starts on 14Dec2025 at  9:24:26 
        Git branch: heads/qe-7.1
        Last git commit: 48ba0178f8fede6d020eb786884699a9f063f55d-dirty
        Last git commit date: Fri Jan 27 14:22:33 2023 +0000
        Last git commit subject: Merge branch 'fix_hubbard' into 'develop'

     This program is part of the open-source Quantum ESPRESSO suite
     for quantum simulation of materials; please cite
         "P. Giannozzi et al., J. Phys.:Condens. Matter 21 395502 (2009);
         "P. Giannozzi et al., J. Phys.:Condens. Matter 29 465901 (2017);
         "P. Giannozzi et al., J. Chem. Phys. 152 154105 (2020);
          URL http://www.quantum-espresso.org", 
     in publications or presentations arising from this work. More details at
     http://www.quantum-espresso.org/quote

     Parallel version (MPI), running on    96 processors

     MPI processes distributed on     2 nodes
     109192 MiB available memory on the printing compute node when the environment starts

     Reading input from espresso.pwi
Warning: card &CELL ignored
Warning: card / ignored
Warning: card &FCP ignored
Warning: card / ignored
Warning: card &RISM ignored
Warning: card / ignored

     Current dimensions of program PWSCF are:
     Max number of different atomic species (ntypx) = 10
     Max number of k-points (npk) =  40000
     Max angular momentum in pseudopotentials (lmaxx) =  4
     file Co.pbe-n-kjpaw_psl.1.0.0.UPF: wavefunction(s)  4S 3D renormalized
     file C.pbe-n-kjpaw_psl.1.0.0.UPF: wavefunction(s)  2S 2P renormalized
     file O.pbe-nl-kjpaw_psl.1.0.0.UPF: wavefunction(s)  2S 2P renormalized
     file H.pbe-kjpaw_psl.1.0.0.UPF: wavefunction(s)  1S renormalized

     **************************************************************************
     Initializing libbeef V0.1.2 with the BEEF-vdW functional.
     Citation: Wellendorff et al., PRB 85, 235149 (2012).
     **************************************************************************


     IMPORTANT: XC functional enforced from input :
     Exchange-correlation= BEEF-VDW
                           (   1   4  43  14   2   0   0)
     Any further DFT definition will be discarded
     Please, verify this is what you really want


     R & G space division:  proc/nbgrp/npool/nimage =      96
     Subspace diagonalization in iterative solution of the eigenvalue problem:
     one sub-group per band group will be used
     custom distributed-memory algorithm (size of sub-group:  2*  2 procs)


     Parallelization info
     --------------------
     sticks:   dense  smooth     PW     G-vecs:    dense   smooth      PW
     Min          43      28      7                 7829     4248     595
     Max          44      29      8                 7845     4281     630
     Sum        4153    2773    757               752179   409445   59217

     Using Slab Decomposition



     bravais-lattice index     =            0
     lattice parameter (alat)  =      14.1729  a.u.
     unit-cell volume          =    8574.3059 (a.u.)^3
     number of atoms/cell      =           39
     number of atomic types    =            4
     number of electrons       =       335.00
     number of Kohn-Sham states=          202
     kinetic-energy cutoff     =      50.0000  Ry
     charge density cutoff     =     300.0000  Ry
     scf convergence threshold =      1.0E-08
     mixing beta               =       0.7000
     number of iterations used =            8  local-TF  mixing
     Exchange-correlation= BEEF-VDW
                           (   1   4  43  14   2   0   0)

     celldm(1)=  14.172946  celldm(2)=   0.000000  celldm(3)=   0.000000
     celldm(4)=   0.000000  celldm(5)=   0.000000  celldm(6)=   0.000000

     crystal axes: (cart. coord. in units of alat)
               a(1) = (   1.000000   0.000000   0.000000 )  
               a(2) = (   0.500000   0.866025   0.000000 )  
               a(3) = (   0.000000   0.000000   3.477667 )  

     reciprocal axes: (cart. coord. in units 2 pi/alat)
               b(1) = (  1.000000 -0.577350  0.000000 )  
               b(2) = (  0.000000  1.154701  0.000000 )  
               b(3) = (  0.000000  0.000000  0.287549 )  


     PseudoPot. # 1 for Co read from file:
     /users/kbadger1/espresso/pseudo/pslibrary.1.0.0/pbe/PSEUDOPOTENTIALS/Co.pbe-n-kjpaw_psl.1.0.0.UPF
     MD5 check sum: 88af6ec42553d4236c267fdfcb472151
     Pseudo is Projector augmented-wave + core cor, Zval =  9.0
     Generated using 'atomic' code by A. Dal Corso  v.7.0
     Shape of augmentation charge: PSQ
     Using radial grid of 1193 points,  6 beta functions with: 
                l(1) =   0
                l(2) =   0
                l(3) =   1
                l(4) =   1
                l(5) =   2
                l(6) =   2
     Q(r) pseudized with 0 coefficients 


     PseudoPot. # 2 for C  read from file:
     /users/kbadger1/espresso/pseudo/pslibrary.1.0.0/pbe/PSEUDOPOTENTIALS/C.pbe-n-kjpaw_psl.1.0.0.UPF
     MD5 check sum: 6408e75cdba28732cea38a4db8498ce4
     Pseudo is Projector augmented-wave + core cor, Zval =  4.0
     Generated using 'atomic' code by A. Dal Corso  v.7.0
     Shape of augmentation charge: PSQ
     Using radial grid of 1073 points,  4 beta functions with: 
                l(1) =   0
                l(2) =   0
                l(3) =   1
                l(4) =   1
     Q(r) pseudized with 0 coefficients 


     PseudoPot. # 3 for O  read from file:
     /users/kbadger1/espresso/pseudo/pslibrary.1.0.0/pbe/PSEUDOPOTENTIALS/O.pbe-nl-kjpaw_psl.1.0.0.UPF
     MD5 check sum: f0439fab3598ca4e468f064226030408
     Pseudo is Projector augmented-wave + core cor, Zval =  6.0
     Generated using 'atomic' code by A. Dal Corso  v.7.0
     Shape of augmentation charge: PSQ
     Using radial grid of 1095 points,  4 beta functions with: 
                l(1) =   0
                l(2) =   0
                l(3) =   1
                l(4) =   1
     Q(r) pseudized with 0 coefficients 


     PseudoPot. # 4 for H  read from file:
     /users/kbadger1/espresso/pseudo/pslibrary.1.0.0/pbe/PSEUDOPOTENTIALS/H.pbe-kjpaw_psl.1.0.0.UPF
     MD5 check sum: fe4c6fa958fa6d3815bf5d2419cbf1df
     Pseudo is Projector augmented-wave, Zval =  1.0
     Generated using 'atomic' code by A. Dal Corso  v.7.0
     Shape of augmentation charge: PSQ
     Using radial grid of  929 points,  2 beta functions with: 
                l(1) =   0
                l(2) =   0
     Q(r) pseudized with 0 coefficients 


     atomic species   valence    mass     pseudopotential
        Co             9.00    58.93319     Co( 1.00)
        C              4.00    12.01100     C ( 1.00)
        O              6.00    15.99900     O ( 1.00)
        H              1.00     1.00800     H ( 1.00)

     Starting magnetic structure 
     atomic species   magnetization
        Co           1.000
        C            1.000
        O            0.000
        H            0.000

     No symmetry found



   Cartesian axes

     site n.     atom                  positions (alat units)
         1           Co  tau(   1) = (   0.0000000   0.1924501   1.3333333  )
         2           Co  tau(   2) = (   0.3333333   0.1924501   1.3333333  )
         3           Co  tau(   3) = (   0.6666667   0.1924501   1.3333333  )
         4           Co  tau(   4) = (   0.1666667   0.4811252   1.3333333  )
         5           Co  tau(   5) = (   0.5000000   0.4811252   1.3333333  )
         6           Co  tau(   6) = (   0.8333333   0.4811252   1.3333333  )
         7           Co  tau(   7) = (   0.3333333   0.7698004   1.3333333  )
         8           Co  tau(   8) = (   0.6666667   0.7698004   1.3333333  )
         9           Co  tau(   9) = (   1.0000000   0.7698004   1.3333333  )
        10           Co  tau(  10) = (   0.0000000   0.0000000   1.6036667  )
        11           Co  tau(  11) = (   0.3333333   0.0000000   1.6036667  )
        12           Co  tau(  12) = (   0.6666667   0.0000000   1.6036667  )
        13           Co  tau(  13) = (   0.1666667   0.2886751   1.6036667  )
        14           Co  tau(  14) = (   0.5000000   0.2886751   1.6036667  )
        15           Co  tau(  15) = (   0.8333333   0.2886751   1.6036667  )
        16           Co  tau(  16) = (   0.3333333   0.5773503   1.6036667  )
        17           Co  tau(  17) = (   0.6666667   0.5773503   1.6036667  )
        18           Co  tau(  18) = (   1.0000000   0.5773503   1.6036667  )
        19           Co  tau(  19) = (   0.0000000   0.1924501   1.8740000  )
        20           Co  tau(  20) = (   0.3333333   0.1924501   1.8740000  )
        21           Co  tau(  21) = (   0.6666667   0.1924501   1.8740000  )
        22           Co  tau(  22) = (   0.1666667   0.4811252   1.8740000  )
        23           Co  tau(  23) = (   0.5000000   0.4811252   1.8740000  )
        24           Co  tau(  24) = (   0.8333333   0.4811252   1.8740000  )
        25           Co  tau(  25) = (   0.3333333   0.7698004   1.8740000  )
        26           Co  tau(  26) = (   0.6666667   0.7698004   1.8740000  )
        27           Co  tau(  27) = (   1.0000000   0.7698004   1.8740000  )
        28           Co  tau(  28) = (   0.0000000   0.0000000   2.1443333  )
        29           Co  tau(  29) = (   0.3333333   0.0000000   2.1443333  )
        30           Co  tau(  30) = (   0.6666667   0.0000000   2.1443333  )
        31           Co  tau(  31) = (   0.1666667   0.2886751   2.1443333  )
        32           Co  tau(  32) = (   0.5000000   0.2886751   2.1443333  )
        33           Co  tau(  33) = (   0.8333333   0.2886751   2.1443333  )
        34           Co  tau(  34) = (   0.3333333   0.5773503   2.1443333  )
        35           Co  tau(  35) = (   0.6666667   0.5773503   2.1443333  )
        36           Co  tau(  36) = (   1.0000000   0.5773503   2.1443333  )
        37           C   tau(  37) = (   0.1685186  -0.0489316   2.3329257  )
        38           O   tau(  38) = (   0.1606127  -0.0601599   2.4908595  )
        39           H   tau(  39) = (   0.4954159   0.0808698   2.2771010  )

     number of k points=    13  Marzari-Vanderbilt smearing, width (Ry)=  0.0010
                       cart. coord. in units 2pi/alat
        k(    1) = (   0.0000000   0.0000000   0.0000000), wk =   0.0400000
        k(    2) = (   0.0000000   0.2309401   0.0000000), wk =   0.0800000
        k(    3) = (   0.0000000   0.4618802   0.0000000), wk =   0.0800000
        k(    4) = (   0.2000000  -0.1154701   0.0000000), wk =   0.0800000
        k(    5) = (   0.2000000   0.1154701   0.0000000), wk =   0.0800000
        k(    6) = (   0.2000000   0.3464102   0.0000000), wk =   0.0800000
        k(    7) = (   0.2000000  -0.5773503   0.0000000), wk =   0.0800000
        k(    8) = (   0.2000000  -0.3464102   0.0000000), wk =   0.0800000
        k(    9) = (   0.4000000  -0.2309401   0.0000000), wk =   0.0800000
        k(   10) = (   0.4000000   0.0000000   0.0000000), wk =   0.0800000
        k(   11) = (   0.4000000   0.2309401   0.0000000), wk =   0.0800000
        k(   12) = (   0.4000000  -0.6928203   0.0000000), wk =   0.0800000
        k(   13) = (   0.4000000  -0.4618802   0.0000000), wk =   0.0800000

     Dense  grid:   752179 G-vectors     FFT dimensions: (  80,  80, 288)

     Smooth grid:   409445 G-vectors     FFT dimensions: (  64,  64, 225)

     Estimated max dynamical RAM per process >      99.02 MB

     Estimated total dynamical RAM >       9.28 GB
     Generating pointlists ...
     new r_m :   0.0926 (alat units)  1.3130 (a.u.) for type    1
     new r_m :   0.0654 (alat units)  0.9268 (a.u.) for type    2
     new r_m :   0.0654 (alat units)  0.9268 (a.u.) for type    3
     new r_m :   0.0926 (alat units)  1.3130 (a.u.) for type    4

     Initial potential from superposition of free atoms

     starting charge     334.9897, renormalised to     335.0000

     negative rho (up, down):  3.055E-03 4.503E-04


     %%%%%%%%%%%%%%%%%%%%%%%%%%%%%%%%%%%%%%%%%%%%%%%%%%%%%%%%%%%%%%%%%%%%%%%%
     %                                                                      %
     % You are using vdW-DF, which was implemented by the Thonhauser group. %
     % Please cite the following two papers that made this development      %
     % possible and the two reviews that describe the various versions:     %
     %                                                                      %
     %   T. Thonhauser et al., PRL 115, 136402 (2015).                      %
     %   T. Thonhauser et al., PRB 76, 125112 (2007).                       %
     %   K. Berland et al., Rep. Prog. Phys. 78, 066501 (2015).             %
     %   D.C. Langreth et al., J. Phys.: Condens. Matter 21, 084203 (2009). %
     %                                                                      %
     % If you are calculating stress with vdW-DF, please also cite:         %
     %                                                                      %
     %   R. Sabatini et al., J. Phys.: Condens. Matter 24, 424209 (2012).   %
     %   C.M. Frostenson et al., Electr. Struct. 4, 014001 (2022).          %
     %                                                                      %
     %%%%%%%%%%%%%%%%%%%%%%%%%%%%%%%%%%%%%%%%%%%%%%%%%%%%%%%%%%%%%%%%%%%%%%%%

     %%%%%%%%%%%%%%%%%%%%%%%%%%%%%%%%%%%%%%%%%%%%%%%%%%%%%%%%%%%%%%%%%%%%%%%%
     %                                                                      %
     %  vdW-DF NEWS:                                                        %
     %                                                                      %
     %  * vdW-DF3 is now available. DOI: 10.1021/acs.jctc.0c00471           %
     %    use with input_dft = 'vdW-DF3-opt1' or 'vdW-DF3-opt2'             %
     %                                                                      %
     %  * Unscreened and range-separated hybrid vdW-DF-cx functionals       %
     %    DOI: 10.1063/1.4986522 and 10.1088/1361-648X/ac2ad2               %
     %    use with input_dft = 'vdW-DF-cx0'    and 'vdW-DF-ahcx'            %
     %  * Unscreened and range-separated hybrid vdW-DF2-b86r functionals    %
     %    DOI: 10.1063/1.4986522 and DOI: 10.1103/PhysRevX.12.041003        %
     %    use with input_dft = 'vdW-DF2-br0' and 'vdW-DF2-ahbr'             %
     %                                                                      %
     %%%%%%%%%%%%%%%%%%%%%%%%%%%%%%%%%%%%%%%%%%%%%%%%%%%%%%%%%%%%%%%%%%%%%%%%


     Starting wfcs are  333 randomized atomic wfcs
     Checking if some PAW data can be deallocated... 

     total cpu time spent up to now is       16.2 secs

     per-process dynamical memory:   231.9 Mb

     Self-consistent Calculation

     iteration #  1     ecut=    50.00 Ry     beta= 0.70
     Davidson diagonalization with overlap
     ethr =  1.00E-02,  avg # of iterations =  2.0

     negative rho (up, down):  3.410E-05 7.346E-08

     total cpu time spent up to now is       38.9 secs

     total energy              =   -6053.13442274 Ry
     estimated scf accuracy    <      39.03111379 Ry

     total magnetization       =    69.00 Bohr mag/cell
     absolute magnetization    =    81.22 Bohr mag/cell

     iteration #  2     ecut=    50.00 Ry     beta= 0.70
     Davidson diagonalization with overlap
     ethr =  1.00E-02,  avg # of iterations =  1.0

     negative rho (up, down):  5.007E-06 3.130E-08

     total cpu time spent up to now is       52.7 secs

     total energy              =   -6052.70018774 Ry
     estimated scf accuracy    <      24.17432952 Ry

     total magnetization       =    69.00 Bohr mag/cell
     absolute magnetization    =    76.82 Bohr mag/cell

     iteration #  3     ecut=    50.00 Ry     beta= 0.70
     Davidson diagonalization with overlap
     ethr =  7.22E-03,  avg # of iterations =  1.4

     negative rho (up, down):  4.063E-08 0.000E+00

     total cpu time spent up to now is       71.5 secs

     total energy              =   -6055.19932162 Ry
     estimated scf accuracy    <      85.72858168 Ry

     total magnetization       =    66.12 Bohr mag/cell
     absolute magnetization    =    73.60 Bohr mag/cell

     iteration #  4     ecut=    50.00 Ry     beta= 0.70
     Davidson diagonalization with overlap
     ethr =  7.22E-03,  avg # of iterations =  1.0

     total cpu time spent up to now is       85.5 secs

     total energy              =   -6056.46813144 Ry
     estimated scf accuracy    <       5.53204667 Ry

     total magnetization       =    60.35 Bohr mag/cell
     absolute magnetization    =    70.18 Bohr mag/cell

     iteration #  5     ecut=    50.00 Ry     beta= 0.70
     Davidson diagonalization with overlap
     ethr =  1.65E-03,  avg # of iterations =  1.2

     total cpu time spent up to now is      103.5 secs

     total energy              =   -6056.45359411 Ry
     estimated scf accuracy    <       2.08794632 Ry

     total magnetization       =    60.35 Bohr mag/cell
     absolute magnetization    =    69.75 Bohr mag/cell

     iteration #  6     ecut=    50.00 Ry     beta= 0.70
     Davidson diagonalization with overlap
     ethr =  6.23E-04,  avg # of iterations =  2.2

     total cpu time spent up to now is      118.6 secs

     total energy              =   -6056.55608113 Ry
     estimated scf accuracy    <       0.84930242 Ry

     total magnetization       =    59.96 Bohr mag/cell
     absolute magnetization    =    69.04 Bohr mag/cell

     iteration #  7     ecut=    50.00 Ry     beta= 0.70
     Davidson diagonalization with overlap
     ethr =  2.54E-04,  avg # of iterations =  4.1

     total cpu time spent up to now is      140.7 secs

     total energy              =   -6056.58147987 Ry
     estimated scf accuracy    <       0.63476642 Ry

     total magnetization       =    59.96 Bohr mag/cell
     absolute magnetization    =    68.73 Bohr mag/cell

     iteration #  8     ecut=    50.00 Ry     beta= 0.70
     Davidson diagonalization with overlap
     ethr =  1.89E-04,  avg # of iterations =  1.5

     total cpu time spent up to now is      159.0 secs

     total energy              =   -6056.60866072 Ry
     estimated scf accuracy    <       0.16014402 Ry

     total magnetization       =    59.99 Bohr mag/cell
     absolute magnetization    =    68.62 Bohr mag/cell

     iteration #  9     ecut=    50.00 Ry     beta= 0.70
     Davidson diagonalization with overlap
     c_bands:  1 eigenvalues not converged
     c_bands:  1 eigenvalues not converged
     c_bands:  2 eigenvalues not converged
     ethr =  4.78E-05,  avg # of iterations =  8.9

     total cpu time spent up to now is      182.6 secs

     total energy              =   -6056.61666710 Ry
     estimated scf accuracy    <       0.10635450 Ry

     total magnetization       =    60.37 Bohr mag/cell
     absolute magnetization    =    68.59 Bohr mag/cell

     iteration # 10     ecut=    50.00 Ry     beta= 0.70
     Davidson diagonalization with overlap
     c_bands:  1 eigenvalues not converged
     ethr =  3.17E-05,  avg # of iterations =  4.1

     total cpu time spent up to now is      203.2 secs

     total energy              =   -6056.62091420 Ry
     estimated scf accuracy    <       0.14876461 Ry

     total magnetization       =    60.55 Bohr mag/cell
     absolute magnetization    =    68.56 Bohr mag/cell

     iteration # 11     ecut=    50.00 Ry     beta= 0.70
     Davidson diagonalization with overlap
     ethr =  3.17E-05,  avg # of iterations =  1.7

     total cpu time spent up to now is      221.3 secs

     total energy              =   -6056.61669825 Ry
     estimated scf accuracy    <       0.11640954 Ry

     total magnetization       =    60.54 Bohr mag/cell
     absolute magnetization    =    68.48 Bohr mag/cell

     iteration # 12     ecut=    50.00 Ry     beta= 0.70
     Davidson diagonalization with overlap
     ethr =  3.17E-05,  avg # of iterations =  1.8

     total cpu time spent up to now is      236.7 secs

     total energy              =   -6056.61750830 Ry
     estimated scf accuracy    <       0.08358523 Ry

     total magnetization       =    60.43 Bohr mag/cell
     absolute magnetization    =    68.30 Bohr mag/cell

     iteration # 13     ecut=    50.00 Ry     beta= 0.70
     Davidson diagonalization with overlap
     ethr =  2.50E-05,  avg # of iterations =  1.5

     negative rho (up, down):  6.649E-08 0.000E+00

     total cpu time spent up to now is      254.6 secs

     total energy              =   -6056.61652111 Ry
     estimated scf accuracy    <       0.11364426 Ry

     total magnetization       =    60.53 Bohr mag/cell
     absolute magnetization    =    68.32 Bohr mag/cell

     iteration # 14     ecut=    50.00 Ry     beta= 0.70
     Davidson diagonalization with overlap
     ethr =  2.50E-05,  avg # of iterations =  1.2

     negative rho (up, down):  8.397E-03 6.862E-03

     total cpu time spent up to now is      268.0 secs

     total energy              =   -6056.61110544 Ry
     estimated scf accuracy    <       0.08033488 Ry

     total magnetization       =    60.49 Bohr mag/cell
     absolute magnetization    =    68.25 Bohr mag/cell

     iteration # 15     ecut=    50.00 Ry     beta= 0.70
     Davidson diagonalization with overlap
     ethr =  2.40E-05,  avg # of iterations =  1.2

     negative rho (up, down):  1.432E-02 1.271E-02

     total cpu time spent up to now is      285.5 secs

     total energy              =   -6056.60820586 Ry
     estimated scf accuracy    <       0.03532031 Ry

     total magnetization       =    60.41 Bohr mag/cell
     absolute magnetization    =    68.17 Bohr mag/cell

     iteration # 16     ecut=    50.00 Ry     beta= 0.70
     Davidson diagonalization with overlap
     c_bands:  1 eigenvalues not converged
     c_bands:  5 eigenvalues not converged
     c_bands:  2 eigenvalues not converged
     c_bands:  1 eigenvalues not converged
     c_bands:  2 eigenvalues not converged
     ethr =  1.05E-05,  avg # of iterations =  6.4

     negative rho (up, down):  1.952E-02 1.784E-02

     total cpu time spent up to now is      310.0 secs

     total energy              =   -6056.60737062 Ry
     estimated scf accuracy    <       0.05847689 Ry

     total magnetization       =    60.44 Bohr mag/cell
     absolute magnetization    =    68.17 Bohr mag/cell

     iteration # 17     ecut=    50.00 Ry     beta= 0.70
     Davidson diagonalization with overlap
     ethr =  1.05E-05,  avg # of iterations =  2.3

     negative rho (up, down):  2.174E-02 1.996E-02

     total cpu time spent up to now is      324.2 secs

     total energy              =   -6056.60850265 Ry
     estimated scf accuracy    <       0.01982071 Ry

     total magnetization       =    60.57 Bohr mag/cell
     absolute magnetization    =    68.23 Bohr mag/cell

     iteration # 18     ecut=    50.00 Ry     beta= 0.70
     Davidson diagonalization with overlap
     c_bands:  3 eigenvalues not converged
     ethr =  5.92E-06,  avg # of iterations =  2.7

     negative rho (up, down):  7.804E-03 6.609E-03

     total cpu time spent up to now is      343.8 secs

     total energy              =   -6056.60866798 Ry
     estimated scf accuracy    <       0.01775772 Ry

     total magnetization       =    60.62 Bohr mag/cell
     absolute magnetization    =    68.24 Bohr mag/cell

     iteration # 19     ecut=    50.00 Ry     beta= 0.70
     Davidson diagonalization with overlap
     ethr =  5.30E-06,  avg # of iterations =  1.5

     negative rho (up, down):  1.444E-02 1.316E-02

     total cpu time spent up to now is      359.0 secs

     total energy              =   -6056.60711764 Ry
     estimated scf accuracy    <       0.00877369 Ry

     total magnetization       =    60.60 Bohr mag/cell
     absolute magnetization    =    68.25 Bohr mag/cell

     iteration # 20     ecut=    50.00 Ry     beta= 0.70
     Davidson diagonalization with overlap
     c_bands:  1 eigenvalues not converged
     c_bands:  2 eigenvalues not converged
     c_bands:  2 eigenvalues not converged
     ethr =  2.62E-06,  avg # of iterations =  7.8

     negative rho (up, down):  1.305E-02 1.237E-02

     total cpu time spent up to now is      383.3 secs

     total energy              =   -6056.60555120 Ry
     estimated scf accuracy    <       0.01405758 Ry

     total magnetization       =    60.65 Bohr mag/cell
     absolute magnetization    =    68.25 Bohr mag/cell

     iteration # 21     ecut=    50.00 Ry     beta= 0.70
     Davidson diagonalization with overlap
     ethr =  2.62E-06,  avg # of iterations =  2.2

     negative rho (up, down):  1.644E-02 1.576E-02

     total cpu time spent up to now is      402.4 secs

     total energy              =   -6056.60593349 Ry
     estimated scf accuracy    <       0.00561588 Ry

     total magnetization       =    60.69 Bohr mag/cell
     absolute magnetization    =    68.27 Bohr mag/cell

     iteration # 22     ecut=    50.00 Ry     beta= 0.70
     Davidson diagonalization with overlap
     ethr =  1.68E-06,  avg # of iterations =  1.8

     negative rho (up, down):  1.348E-02 1.286E-02

     total cpu time spent up to now is      416.7 secs

     total energy              =   -6056.60611539 Ry
     estimated scf accuracy    <       0.00297476 Ry

     total magnetization       =    60.70 Bohr mag/cell
     absolute magnetization    =    68.28 Bohr mag/cell

     iteration # 23     ecut=    50.00 Ry     beta= 0.70
     Davidson diagonalization with overlap
     ethr =  8.88E-07,  avg # of iterations =  1.5

     negative rho (up, down):  9.875E-03 9.242E-03

     total cpu time spent up to now is      435.8 secs

     total energy              =   -6056.60602516 Ry
     estimated scf accuracy    <       0.00277460 Ry

     total magnetization       =    60.71 Bohr mag/cell
     absolute magnetization    =    68.29 Bohr mag/cell

     iteration # 24     ecut=    50.00 Ry     beta= 0.70
     Davidson diagonalization with overlap
     ethr =  8.28E-07,  avg # of iterations =  1.5

     negative rho (up, down):  8.364E-03 7.556E-03

     total cpu time spent up to now is      449.7 secs

     total energy              =   -6056.60580822 Ry
     estimated scf accuracy    <       0.00370874 Ry

     total magnetization       =    60.69 Bohr mag/cell
     absolute magnetization    =    68.28 Bohr mag/cell

     iteration # 25     ecut=    50.00 Ry     beta= 0.70
     Davidson diagonalization with overlap
     ethr =  8.28E-07,  avg # of iterations =  2.5

     negative rho (up, down):  7.906E-03 7.252E-03

     total cpu time spent up to now is      469.4 secs

     total energy              =   -6056.60605522 Ry
     estimated scf accuracy    <       0.00252091 Ry

     total magnetization       =    60.70 Bohr mag/cell
     absolute magnetization    =    68.29 Bohr mag/cell

     iteration # 26     ecut=    50.00 Ry     beta= 0.70
     Davidson diagonalization with overlap
     ethr =  7.53E-07,  avg # of iterations =  1.4

     negative rho (up, down):  6.820E-03 6.146E-03

     total cpu time spent up to now is      489.0 secs

     total energy              =   -6056.60625258 Ry
     estimated scf accuracy    <       0.00109979 Ry

     total magnetization       =    60.70 Bohr mag/cell
     absolute magnetization    =    68.29 Bohr mag/cell

     iteration # 27     ecut=    50.00 Ry     beta= 0.70
     Davidson diagonalization with overlap
     ethr =  3.28E-07,  avg # of iterations =  2.0

     negative rho (up, down):  5.244E-03 4.510E-03

     total cpu time spent up to now is      503.4 secs

     total energy              =   -6056.60625491 Ry
     estimated scf accuracy    <       0.00060244 Ry

     total magnetization       =    60.71 Bohr mag/cell
     absolute magnetization    =    68.29 Bohr mag/cell

     iteration # 28     ecut=    50.00 Ry     beta= 0.70
     Davidson diagonalization with overlap
     ethr =  1.80E-07,  avg # of iterations =  1.5

     negative rho (up, down):  3.776E-03 2.916E-03

     total cpu time spent up to now is      521.6 secs

     total energy              =   -6056.60628134 Ry
     estimated scf accuracy    <       0.00015149 Ry

     total magnetization       =    60.70 Bohr mag/cell
     absolute magnetization    =    68.29 Bohr mag/cell

     iteration # 29     ecut=    50.00 Ry     beta= 0.70
     Davidson diagonalization with overlap
     c_bands:  1 eigenvalues not converged
     c_bands:  1 eigenvalues not converged
     ethr =  4.52E-08,  avg # of iterations =  8.0

     negative rho (up, down):  3.363E-03 2.364E-03

     total cpu time spent up to now is      548.3 secs

     total energy              =   -6056.60633055 Ry
     estimated scf accuracy    <       0.00020134 Ry

     total magnetization       =    60.70 Bohr mag/cell
     absolute magnetization    =    68.28 Bohr mag/cell

     iteration # 30     ecut=    50.00 Ry     beta= 0.70
     Davidson diagonalization with overlap
     ethr =  4.52E-08,  avg # of iterations =  1.5

     negative rho (up, down):  3.219E-03 2.138E-03

     total cpu time spent up to now is      562.2 secs

     total energy              =   -6056.60634959 Ry
     estimated scf accuracy    <       0.00008623 Ry

     total magnetization       =    60.70 Bohr mag/cell
     absolute magnetization    =    68.28 Bohr mag/cell

     iteration # 31     ecut=    50.00 Ry     beta= 0.70
     Davidson diagonalization with overlap
     ethr =  2.57E-08,  avg # of iterations =  2.2

     negative rho (up, down):  3.082E-03 1.980E-03

     total cpu time spent up to now is      581.0 secs

     total energy              =   -6056.60635145 Ry
     estimated scf accuracy    <       0.00002635 Ry

     total magnetization       =    60.71 Bohr mag/cell
     absolute magnetization    =    68.28 Bohr mag/cell

     iteration # 32     ecut=    50.00 Ry     beta= 0.70
     Davidson diagonalization with overlap
     ethr =  7.87E-09,  avg # of iterations =  4.2

     negative rho (up, down):  3.018E-03 1.910E-03

     total cpu time spent up to now is      597.9 secs

     total energy              =   -6056.60635363 Ry
     estimated scf accuracy    <       0.00004242 Ry

     total magnetization       =    60.70 Bohr mag/cell
     absolute magnetization    =    68.28 Bohr mag/cell

     iteration # 33     ecut=    50.00 Ry     beta= 0.70
     Davidson diagonalization with overlap
     ethr =  7.87E-09,  avg # of iterations =  1.2

     negative rho (up, down):  2.904E-03 1.837E-03

     total cpu time spent up to now is      616.8 secs

     total energy              =   -6056.60635737 Ry
     estimated scf accuracy    <       0.00001621 Ry

     total magnetization       =    60.70 Bohr mag/cell
     absolute magnetization    =    68.28 Bohr mag/cell

     iteration # 34     ecut=    50.00 Ry     beta= 0.70
     Davidson diagonalization with overlap
     ethr =  4.84E-09,  avg # of iterations =  2.6

     negative rho (up, down):  2.933E-03 1.857E-03

     total cpu time spent up to now is      632.6 secs

     total energy              =   -6056.60635707 Ry
     estimated scf accuracy    <       0.00002250 Ry

     total magnetization       =    60.70 Bohr mag/cell
     absolute magnetization    =    68.28 Bohr mag/cell

     iteration # 35     ecut=    50.00 Ry     beta= 0.70
     Davidson diagonalization with overlap
     ethr =  4.84E-09,  avg # of iterations =  1.3

     negative rho (up, down):  2.808E-03 1.757E-03

     total cpu time spent up to now is      650.3 secs

     total energy              =   -6056.60635857 Ry
     estimated scf accuracy    <       0.00000693 Ry

     total magnetization       =    60.70 Bohr mag/cell
     absolute magnetization    =    68.28 Bohr mag/cell

     iteration # 36     ecut=    50.00 Ry     beta= 0.70
     Davidson diagonalization with overlap
     ethr =  2.07E-09,  avg # of iterations =  2.7

     negative rho (up, down):  2.585E-03 1.503E-03

     total cpu time spent up to now is      670.9 secs

     total energy              =   -6056.60635763 Ry
     estimated scf accuracy    <       0.00001060 Ry

     total magnetization       =    60.70 Bohr mag/cell
     absolute magnetization    =    68.28 Bohr mag/cell

     iteration # 37     ecut=    50.00 Ry     beta= 0.70
     Davidson diagonalization with overlap
     ethr =  2.07E-09,  avg # of iterations =  1.8

     negative rho (up, down):  2.615E-03 1.551E-03

     total cpu time spent up to now is      685.2 secs

     total energy              =   -6056.60635797 Ry
     estimated scf accuracy    <       0.00000477 Ry

     total magnetization       =    60.70 Bohr mag/cell
     absolute magnetization    =    68.27 Bohr mag/cell

     iteration # 38     ecut=    50.00 Ry     beta= 0.70
     Davidson diagonalization with overlap
     c_bands:  1 eigenvalues not converged
     ethr =  1.42E-09,  avg # of iterations =  2.8

     negative rho (up, down):  2.514E-03 1.444E-03

     total cpu time spent up to now is      704.7 secs

     total energy              =   -6056.60635784 Ry
     estimated scf accuracy    <       0.00000877 Ry

     total magnetization       =    60.70 Bohr mag/cell
     absolute magnetization    =    68.27 Bohr mag/cell

     iteration # 39     ecut=    50.00 Ry     beta= 0.70
     Davidson diagonalization with overlap
     ethr =  1.42E-09,  avg # of iterations =  1.4

     negative rho (up, down):  2.481E-03 1.409E-03

     total cpu time spent up to now is      718.2 secs

     total energy              =   -6056.60635794 Ry
     estimated scf accuracy    <       0.00000345 Ry

     total magnetization       =    60.70 Bohr mag/cell
     absolute magnetization    =    68.27 Bohr mag/cell

     iteration # 40     ecut=    50.00 Ry     beta= 0.70
     Davidson diagonalization with overlap
     ethr =  1.03E-09,  avg # of iterations =  2.0

     negative rho (up, down):  2.515E-03 1.446E-03

     total cpu time spent up to now is      737.8 secs

     total energy              =   -6056.60635794 Ry
     estimated scf accuracy    <       0.00000426 Ry

     total magnetization       =    60.70 Bohr mag/cell
     absolute magnetization    =    68.27 Bohr mag/cell

     iteration # 41     ecut=    50.00 Ry     beta= 0.70
     Davidson diagonalization with overlap
     ethr =  1.03E-09,  avg # of iterations =  1.3

     negative rho (up, down):  2.427E-03 1.355E-03

     total cpu time spent up to now is      751.4 secs

     total energy              =   -6056.60635786 Ry
     estimated scf accuracy    <       0.00000205 Ry

     total magnetization       =    60.70 Bohr mag/cell
     absolute magnetization    =    68.27 Bohr mag/cell

     iteration # 42     ecut=    50.00 Ry     beta= 0.70
     Davidson diagonalization with overlap
     ethr =  6.12E-10,  avg # of iterations =  2.2

     negative rho (up, down):  2.351E-03 1.271E-03

     total cpu time spent up to now is      770.4 secs

     total energy              =   -6056.60635802 Ry
     estimated scf accuracy    <       0.00000122 Ry

     total magnetization       =    60.70 Bohr mag/cell
     absolute magnetization    =    68.27 Bohr mag/cell

     iteration # 43     ecut=    50.00 Ry     beta= 0.70
     Davidson diagonalization with overlap
     ethr =  3.65E-10,  avg # of iterations =  2.5

     negative rho (up, down):  2.384E-03 1.301E-03

     total cpu time spent up to now is      790.2 secs

     total energy              =   -6056.60635814 Ry
     estimated scf accuracy    <       0.00000126 Ry

     total magnetization       =    60.70 Bohr mag/cell
     absolute magnetization    =    68.27 Bohr mag/cell

     iteration # 44     ecut=    50.00 Ry     beta= 0.70
     Davidson diagonalization with overlap
     ethr =  3.65E-10,  avg # of iterations =  1.5

     negative rho (up, down):  2.337E-03 1.252E-03

     total cpu time spent up to now is      804.4 secs

     total energy              =   -6056.60635816 Ry
     estimated scf accuracy    <       0.00000082 Ry

     total magnetization       =    60.70 Bohr mag/cell
     absolute magnetization    =    68.27 Bohr mag/cell

     iteration # 45     ecut=    50.00 Ry     beta= 0.70
     Davidson diagonalization with overlap
     ethr =  2.43E-10,  avg # of iterations =  1.6

     negative rho (up, down):  2.323E-03 1.235E-03

     total cpu time spent up to now is      822.7 secs

     total energy              =   -6056.60635819 Ry
     estimated scf accuracy    <       0.00000041 Ry

     total magnetization       =    60.70 Bohr mag/cell
     absolute magnetization    =    68.27 Bohr mag/cell

     iteration # 46     ecut=    50.00 Ry     beta= 0.70
     Davidson diagonalization with overlap
     ethr =  1.22E-10,  avg # of iterations =  5.0

     negative rho (up, down):  2.288E-03 1.199E-03

     total cpu time spent up to now is      839.5 secs

     total energy              =   -6056.60635818 Ry
     estimated scf accuracy    <       0.00000098 Ry

     total magnetization       =    60.70 Bohr mag/cell
     absolute magnetization    =    68.27 Bohr mag/cell

     iteration # 47     ecut=    50.00 Ry     beta= 0.70
     Davidson diagonalization with overlap
     ethr =  1.22E-10,  avg # of iterations =  1.4

     negative rho (up, down):  2.278E-03 1.187E-03

     total cpu time spent up to now is      858.4 secs

     total energy              =   -6056.60635819 Ry
     estimated scf accuracy    <       0.00000017 Ry

     total magnetization       =    60.70 Bohr mag/cell
     absolute magnetization    =    68.27 Bohr mag/cell

     iteration # 48     ecut=    50.00 Ry     beta= 0.70
     Davidson diagonalization with overlap
     ethr =  4.93E-11,  avg # of iterations =  2.8

     negative rho (up, down):  2.272E-03 1.181E-03

     total cpu time spent up to now is      878.3 secs

     total energy              =   -6056.60635818 Ry
     estimated scf accuracy    <       0.00000013 Ry

     total magnetization       =    60.70 Bohr mag/cell
     absolute magnetization    =    68.27 Bohr mag/cell

     iteration # 49     ecut=    50.00 Ry     beta= 0.70
     Davidson diagonalization with overlap
     ethr =  3.99E-11,  avg # of iterations =  1.7

     negative rho (up, down):  2.262E-03 1.170E-03

     total cpu time spent up to now is      892.0 secs

     total energy              =   -6056.60635816 Ry
     estimated scf accuracy    <       0.00000003 Ry

     total magnetization       =    60.70 Bohr mag/cell
     absolute magnetization    =    68.27 Bohr mag/cell

     iteration # 50     ecut=    50.00 Ry     beta= 0.70
     Davidson diagonalization with overlap
     ethr =  9.56E-12,  avg # of iterations =  7.0

     negative rho (up, down):  2.252E-03 1.161E-03

     total cpu time spent up to now is      917.9 secs

     total energy              =   -6056.60635815 Ry
     estimated scf accuracy    <       0.00000004 Ry

     total magnetization       =    60.70 Bohr mag/cell
     absolute magnetization    =    68.27 Bohr mag/cell

     iteration # 51     ecut=    50.00 Ry     beta= 0.70
     Davidson diagonalization with overlap
     ethr =  9.56E-12,  avg # of iterations =  1.5

     negative rho (up, down):  2.256E-03 1.166E-03

     Magnetic moment per site  (integrated on atomic sphere of radius R)
     atom   1 (R=0.093)  charge=  5.7806  magn=  1.6774
     atom   2 (R=0.093)  charge=  5.7818  magn=  1.6723
     atom   3 (R=0.093)  charge=  5.7810  magn=  1.6819
     atom   4 (R=0.093)  charge=  5.7818  magn=  1.6877
     atom   5 (R=0.093)  charge=  5.7813  magn=  1.6804
     atom   6 (R=0.093)  charge=  5.7820  magn=  1.6803
     atom   7 (R=0.093)  charge=  5.7802  magn=  1.6805
     atom   8 (R=0.093)  charge=  5.7814  magn=  1.6720
     atom   9 (R=0.093)  charge=  5.7821  magn=  1.6779
     atom  10 (R=0.093)  charge=  5.7771  magn=  1.6146
     atom  11 (R=0.093)  charge=  5.7786  magn=  1.6106
     atom  12 (R=0.093)  charge=  5.7785  magn=  1.6198
     atom  13 (R=0.093)  charge=  5.7777  magn=  1.6228
     atom  14 (R=0.093)  charge=  5.7781  magn=  1.6183
     atom  15 (R=0.093)  charge=  5.7783  magn=  1.6193
     atom  16 (R=0.093)  charge=  5.7779  magn=  1.6128
     atom  17 (R=0.093)  charge=  5.7783  magn=  1.6187
     atom  18 (R=0.093)  charge=  5.7780  magn=  1.6148
     atom  19 (R=0.093)  charge=  5.7778  magn=  1.6012
     atom  20 (R=0.093)  charge=  5.7781  magn=  1.6136
     atom  21 (R=0.093)  charge=  5.7765  magn=  1.6392
     atom  22 (R=0.093)  charge=  5.7777  magn=  1.6133
     atom  23 (R=0.093)  charge=  5.7772  magn=  1.5925
     atom  24 (R=0.093)  charge=  5.7778  magn=  1.6074
     atom  25 (R=0.093)  charge=  5.7768  magn=  1.5816
     atom  26 (R=0.093)  charge=  5.7760  magn=  1.6376
     atom  27 (R=0.093)  charge=  5.7782  magn=  1.6125
     atom  28 (R=0.093)  charge=  5.7919  magn=  1.3238
     atom  29 (R=0.093)  charge=  5.7972  magn=  1.1006
     atom  30 (R=0.093)  charge=  5.7803  magn=  1.5777
     atom  31 (R=0.093)  charge=  5.7822  magn=  1.7192
     atom  32 (R=0.093)  charge=  5.7821  magn=  1.6266
     atom  33 (R=0.093)  charge=  5.7791  magn=  1.7098
     atom  34 (R=0.093)  charge=  5.7785  magn=  1.7182
     atom  35 (R=0.093)  charge=  5.7868  magn=  1.5936
     atom  36 (R=0.093)  charge=  5.7809  magn=  1.7281
     atom  37 (R=0.065)  charge=  1.0434  magn= -0.0202
     atom  38 (R=0.065)  charge=  2.9162  magn= -0.0411
     atom  39 (R=0.093)  charge=  0.8967  magn= -0.0150

     total cpu time spent up to now is      931.4 secs

     End of self-consistent calculation

 ------ SPIN UP ------------


          k = 0.0000 0.0000 0.0000 ( 51087 PWs)   bands (ev):

   -21.9824  -9.1755  -7.6699  -6.5571  -5.8297  -5.6673  -5.3933  -5.2073
    -4.8374  -4.8291  -4.8245  -4.8098  -4.7971  -4.7832  -4.6440  -4.3890
    -4.2954  -4.2951  -4.2692  -4.2613  -4.2419  -4.0981  -3.7798  -3.7789
    -3.7691  -3.7569  -3.7320  -3.6969  -3.6461  -3.6440  -3.6409  -3.6349
    -3.6147  -3.5667  -3.5659  -3.4699  -3.2647  -3.2567  -3.2541  -3.2520
    -3.1967  -3.1924  -3.1884  -3.1849  -3.1804  -3.1744  -3.1652  -3.1066
    -3.0273  -3.0231  -2.9597  -2.9533  -2.9514  -2.9450  -2.9359  -2.9215
    -2.9176  -2.9144  -2.8919  -2.8698  -2.8205  -2.8124  -2.8108  -2.8043
    -2.7443  -2.6008  -2.3207  -2.2829  -2.2791  -2.2775  -2.2741  -2.1717
    -2.1514  -2.1386  -2.1357  -2.1218  -2.1102  -2.1055  -2.0959  -2.0909
    -2.0541  -2.0479  -2.0237  -2.0087  -1.9963  -1.9921  -1.9772  -1.9677
    -1.9649  -1.9569  -1.9519  -1.9441  -1.9348  -1.9235  -1.9196  -1.9089
    -1.9074  -1.9041  -1.9030  -1.8999  -1.8990  -1.8957  -1.8920  -1.8806
    -1.8710  -1.8616  -1.8426  -1.8336  -1.8295  -1.7504  -1.7472  -1.6594
    -1.5384  -1.4624  -1.4568  -1.4537  -1.4526  -1.4414  -1.4259  -1.4132
    -1.4087  -1.4058  -1.3959  -1.3644  -1.3613  -1.2351  -1.2271  -1.2149
    -1.2031  -1.1516  -1.0865  -1.0634  -1.0454  -1.0230  -0.9954  -0.9785
    -0.9764  -0.9688  -0.9617  -0.9461  -0.9105  -0.8943  -0.8475  -0.8291
    -0.7536  -0.7148  -0.7118  -0.7097  -0.6931  -0.6719  -0.6589  -0.6486
    -0.6455  -0.6418  -0.6390  -0.6334  -0.6330  -0.6277  -0.6214  -0.6115
    -0.6085  -0.6017  -0.5919  -0.5794  -0.5761  -0.5699  -0.5586  -0.5533
    -0.5419  -0.5364  -0.5281  -0.5158  -0.5123  -0.5066  -0.5003  -0.4948
    -0.4921  -0.4861  -0.4722  -0.4585  -0.4394  -0.4171  -0.4119  -0.4035
    -0.4024  -0.3943  -0.3903  -0.3841  -0.3772  -0.3381  -0.3260  -0.3167
    -0.3135  -0.3104  -0.2535  -0.2494  -0.2444  -0.2366  -0.2228  -0.2076
     0.5045   0.7153

          k = 0.0000 0.2309 0.0000 ( 51134 PWs)   bands (ev):

   -21.9824  -9.1653  -7.5291  -6.4646  -5.8562  -5.6914  -5.5268  -5.3645
    -5.1905  -5.0466  -5.0244  -4.6475  -4.5015  -4.4832  -4.4713  -4.4159
    -4.3282  -4.2999  -4.2379  -4.1766  -4.1552  -4.0910  -3.8847  -3.7832
    -3.7761  -3.7049  -3.6630  -3.6498  -3.6475  -3.6355  -3.6336  -3.6111
    -3.5959  -3.5397  -3.5212  -3.5011  -3.4986  -3.4340  -3.2788  -3.2732
    -3.2618  -3.2179  -3.2134  -3.2072  -3.1761  -3.1118  -3.0843  -3.0672
    -3.0494  -3.0465  -3.0298  -3.0076  -2.9647  -2.9097  -2.9039  -2.8752
    -2.8437  -2.8334  -2.8076  -2.8025  -2.7789  -2.7423  -2.7356  -2.7251
    -2.7000  -2.6009  -2.4013  -2.3905  -2.3707  -2.3489  -2.3363  -2.2501
    -2.2421  -2.2260  -2.2199  -2.2125  -2.2054  -2.1948  -2.1720  -2.1171
    -2.1094  -2.0946  -2.0760  -2.0412  -2.0335  -2.0277  -2.0206  -2.0107
    -1.9983  -1.9952  -1.9895  -1.9856  -1.9774  -1.9703  -1.9454  -1.8959
    -1.8822  -1.8741  -1.8174  -1.8075  -1.7984  -1.7970  -1.7880  -1.7862
    -1.7736  -1.7663  -1.7581  -1.7514  -1.7479  -1.7244  -1.7139  -1.6950
    -1.6865  -1.6790  -1.6345  -1.5897  -1.5787  -1.4888  -1.4810  -1.4781
    -1.4700  -1.4497  -1.4434  -1.4356  -1.4117  -1.4012  -1.3763  -1.2816
    -1.2602  -1.2008  -1.1938  -1.1752  -1.1629  -1.1067  -1.0924  -1.0854
    -1.0604  -0.9934  -0.9812  -0.9711  -0.9483  -0.9405  -0.9074  -0.9027
    -0.8784  -0.8670  -0.8589  -0.8368  -0.8232  -0.7998  -0.7941  -0.7915
    -0.7280  -0.7188  -0.7126  -0.7070  -0.6929  -0.6677  -0.6506  -0.6374
    -0.6336  -0.6286  -0.6237  -0.6102  -0.5975  -0.5861  -0.5748  -0.5625
    -0.5256  -0.5104  -0.4989  -0.4760  -0.4511  -0.4410  -0.4184  -0.3904
    -0.3869  -0.3721  -0.3689  -0.3574  -0.3388  -0.3318  -0.3249  -0.2921
    -0.2606  -0.2509  -0.2377  -0.2189  -0.2112  -0.1951  -0.1883  -0.1720
    -0.1178  -0.0412   0.1029   0.1370   0.1880   0.2722   0.3941   0.4119
     0.4513   0.7597

          k = 0.0000 0.4619 0.0000 ( 51204 PWs)   bands (ev):

   -21.9824  -9.1492  -7.1149  -6.4863  -6.1895  -5.8302  -5.5882  -5.3793
    -5.2439  -5.1431  -5.1285  -4.9183  -4.3322  -4.3158  -4.2948  -4.2462
    -4.2099  -4.1252  -4.1231  -4.0477  -3.9925  -3.9862  -3.9775  -3.8272
    -3.8100  -3.8066  -3.7966  -3.7949  -3.7317  -3.6931  -3.6870  -3.5640
    -3.5231  -3.5147  -3.4963  -3.4814  -3.4724  -3.4399  -3.3681  -3.3625
    -3.3487  -3.3424  -3.2769  -3.2151  -3.1447  -3.1030  -3.0518  -3.0348
    -3.0102  -2.9846  -2.9652  -2.9474  -2.9420  -2.9312  -2.9131  -2.8616
    -2.8509  -2.8292  -2.7968  -2.7743  -2.6593  -2.6478  -2.6260  -2.6160
    -2.5577  -2.5358  -2.5106  -2.4993  -2.4852  -2.4193  -2.3693  -2.3666
    -2.3616  -2.3507  -2.3470  -2.3233  -2.3122  -2.2933  -2.2789  -2.2612
    -2.2389  -2.2047  -2.1863  -2.1634  -2.1416  -2.1130  -2.0703  -2.0491
    -2.0343  -2.0178  -2.0006  -1.9837  -1.9722  -1.9377  -1.9253  -1.9180
    -1.9066  -1.8949  -1.8780  -1.8573  -1.8517  -1.8434  -1.8413  -1.8158
    -1.7980  -1.7664  -1.7463  -1.7357  -1.6681  -1.6490  -1.6320  -1.6274
    -1.6118  -1.5808  -1.5499  -1.5288  -1.5210  -1.4998  -1.4943  -1.4878
    -1.4855  -1.4751  -1.4637  -1.4541  -1.4507  -1.4433  -1.4304  -1.4208
    -1.4172  -1.3610  -1.2993  -1.2937  -1.2713  -1.2625  -1.2322  -1.2245
    -1.1954  -1.1399  -1.1230  -1.1129  -1.0713  -1.0578  -1.0225  -0.9861
    -0.9782  -0.9652  -0.9347  -0.9196  -0.9051  -0.8892  -0.8648  -0.7861
    -0.7536  -0.7472  -0.7283  -0.7140  -0.7085  -0.7010  -0.6951  -0.6842
    -0.6772  -0.6462  -0.5669  -0.5628  -0.5493  -0.5400  -0.5312  -0.5252
    -0.5145  -0.4968  -0.4781  -0.4687  -0.4655  -0.4361  -0.3831  -0.3642
    -0.3577  -0.3387  -0.3222  -0.2640  -0.2584  -0.2326  -0.2254  -0.1839
    -0.1564  -0.1465  -0.1405  -0.1277  -0.1149  -0.1101  -0.1053  -0.0622
    -0.0119   0.0046   0.4664   0.5779   0.8885   1.0934   1.1243   1.2972
     1.4724   1.4865

          k = 0.2000-0.1155 0.0000 ( 51134 PWs)   bands (ev):

   -21.9824  -9.1639  -7.5302  -6.4656  -5.8739  -5.6917  -5.5224  -5.3524
    -5.1784  -5.0567  -5.0264  -4.6247  -4.5168  -4.4828  -4.4737  -4.4156
    -4.3433  -4.2938  -4.2275  -4.1940  -4.1534  -4.0700  -3.8935  -3.7817
    -3.7718  -3.7035  -3.6661  -3.6517  -3.6470  -3.6415  -3.6308  -3.6100
    -3.5904  -3.5459  -3.5216  -3.5031  -3.4970  -3.4369  -3.2864  -3.2750
    -3.2659  -3.2194  -3.2139  -3.1995  -3.1771  -3.1188  -3.0836  -3.0650
    -3.0495  -3.0423  -3.0358  -3.0023  -2.9613  -2.9120  -2.9027  -2.8792
    -2.8385  -2.8330  -2.8059  -2.8015  -2.7771  -2.7401  -2.7348  -2.7288
    -2.6933  -2.6037  -2.4035  -2.3890  -2.3648  -2.3483  -2.3358  -2.2502
    -2.2438  -2.2295  -2.2235  -2.2108  -2.2054  -2.1902  -2.1691  -2.1148
    -2.1116  -2.0932  -2.0780  -2.0421  -2.0379  -2.0312  -2.0168  -2.0086
    -1.9991  -1.9982  -1.9922  -1.9884  -1.9741  -1.9687  -1.9338  -1.8905
    -1.8851  -1.8678  -1.8209  -1.8115  -1.8038  -1.7945  -1.7866  -1.7862
    -1.7760  -1.7680  -1.7648  -1.7506  -1.7490  -1.7273  -1.7116  -1.6969
    -1.6875  -1.6724  -1.6415  -1.5982  -1.5770  -1.5014  -1.4786  -1.4749
    -1.4608  -1.4560  -1.4454  -1.4396  -1.4214  -1.3907  -1.3345  -1.2893
    -1.2523  -1.2048  -1.1946  -1.1768  -1.1538  -1.1230  -1.0998  -1.0851
    -1.0391  -1.0062  -0.9960  -0.9783  -0.9507  -0.9455  -0.9123  -0.9023
    -0.8838  -0.8628  -0.8484  -0.8277  -0.8201  -0.8041  -0.7966  -0.7845
    -0.7247  -0.7162  -0.7103  -0.7060  -0.6828  -0.6622  -0.6471  -0.6411
    -0.6355  -0.6306  -0.6246  -0.6140  -0.6004  -0.5866  -0.5757  -0.5554
    -0.5177  -0.5034  -0.4937  -0.4774  -0.4574  -0.4466  -0.4111  -0.3923
    -0.3830  -0.3746  -0.3649  -0.3590  -0.3405  -0.3317  -0.3246  -0.2863
    -0.2629  -0.2486  -0.2391  -0.2191  -0.2094  -0.1980  -0.1879  -0.1669
    -0.1185  -0.0511   0.0896   0.1356   0.1722   0.2649   0.3795   0.4121
     0.4498   0.8060

          k = 0.2000 0.1155 0.0000 ( 51134 PWs)   bands (ev):

   -21.9824  -9.1630  -7.5313  -6.4678  -5.9069  -5.6740  -5.4639  -5.4001
    -5.1643  -5.0541  -5.0432  -4.5954  -4.5167  -4.4800  -4.4761  -4.4141
    -4.3438  -4.3154  -4.2288  -4.1951  -4.1583  -4.0541  -3.8957  -3.7877
    -3.7624  -3.6951  -3.6592  -3.6526  -3.6478  -3.6453  -3.6340  -3.6233
    -3.5641  -3.5539  -3.5336  -3.5028  -3.4974  -3.4384  -3.2920  -3.2723
    -3.2699  -3.2186  -3.2173  -3.2042  -3.1707  -3.1184  -3.0879  -3.0604
    -3.0473  -3.0434  -3.0370  -3.0113  -2.9566  -2.9111  -2.9025  -2.8804
    -2.8451  -2.8216  -2.8080  -2.8013  -2.7882  -2.7387  -2.7367  -2.7238
    -2.6764  -2.6073  -2.4018  -2.3863  -2.3643  -2.3494  -2.3380  -2.2500
    -2.2432  -2.2367  -2.2224  -2.2136  -2.2053  -2.1930  -2.1499  -2.1157
    -2.1112  -2.0948  -2.0758  -2.0401  -2.0348  -2.0330  -2.0287  -2.0068
    -2.0010  -1.9971  -1.9926  -1.9887  -1.9756  -1.9638  -1.9425  -1.8938
    -1.8776  -1.8678  -1.8210  -1.8152  -1.8056  -1.7971  -1.7896  -1.7842
    -1.7766  -1.7704  -1.7647  -1.7501  -1.7482  -1.7408  -1.7030  -1.7000
    -1.6854  -1.6795  -1.6408  -1.6014  -1.5829  -1.5135  -1.4815  -1.4732
    -1.4603  -1.4551  -1.4459  -1.4390  -1.4237  -1.3833  -1.3060  -1.2917
    -1.2498  -1.2006  -1.1954  -1.1772  -1.1542  -1.1374  -1.0975  -1.0911
    -1.0358  -1.0001  -0.9928  -0.9712  -0.9516  -0.9471  -0.9125  -0.9068
    -0.8818  -0.8647  -0.8502  -0.8280  -0.8221  -0.8052  -0.8008  -0.7843
    -0.7231  -0.7149  -0.7092  -0.7017  -0.6925  -0.6606  -0.6479  -0.6388
    -0.6377  -0.6299  -0.6228  -0.6046  -0.5984  -0.5873  -0.5773  -0.5653
    -0.5173  -0.4969  -0.4891  -0.4785  -0.4618  -0.4474  -0.4101  -0.3924
    -0.3839  -0.3749  -0.3653  -0.3572  -0.3400  -0.3304  -0.3254  -0.2856
    -0.2567  -0.2499  -0.2380  -0.2179  -0.2112  -0.1922  -0.1719  -0.1633
    -0.1172  -0.0799   0.1035   0.1350   0.1740   0.2556   0.3855   0.4084
     0.4456   0.7371

          k = 0.2000 0.3464 0.0000 ( 51202 PWs)   bands (ev):

   -21.9824  -9.1497  -7.2544  -6.3326  -6.0541  -5.9258  -5.6936  -5.4840
    -5.3650  -5.1482  -4.7509  -4.6375  -4.4919  -4.4768  -4.3355  -4.2700
    -4.2653  -4.1702  -4.1632  -4.0776  -4.0384  -3.9924  -3.8979  -3.8758
    -3.8249  -3.7795  -3.6867  -3.6713  -3.6435  -3.6387  -3.6301  -3.6203
    -3.5894  -3.5805  -3.5406  -3.5192  -3.4783  -3.4459  -3.4370  -3.3912
    -3.2980  -3.2451  -3.2143  -3.1899  -3.1699  -3.1562  -3.1011  -3.0536
    -3.0160  -2.9874  -2.9786  -2.9628  -2.9462  -2.9182  -2.9057  -2.8880
    -2.8753  -2.8468  -2.7589  -2.7214  -2.6903  -2.6688  -2.6562  -2.6375
    -2.6103  -2.5646  -2.5023  -2.4360  -2.4201  -2.3912  -2.3785  -2.3453
    -2.3327  -2.3242  -2.3170  -2.2952  -2.2793  -2.2649  -2.2552  -2.2493
    -2.2387  -2.1877  -2.1628  -2.1258  -2.0710  -2.0655  -2.0417  -2.0278
    -2.0216  -1.9986  -1.9690  -1.9627  -1.9471  -1.9284  -1.9102  -1.9066
    -1.9007  -1.8914  -1.8867  -1.8641  -1.8562  -1.8474  -1.8343  -1.8217
    -1.8058  -1.7922  -1.7644  -1.7269  -1.7182  -1.6810  -1.6757  -1.6700
    -1.6568  -1.6504  -1.6160  -1.5820  -1.5666  -1.5582  -1.5409  -1.5081
    -1.5057  -1.4958  -1.4801  -1.4641  -1.4435  -1.4330  -1.4243  -1.3718
    -1.3608  -1.3349  -1.3184  -1.2415  -1.2214  -1.1947  -1.1774  -1.1005
    -1.0795  -1.0600  -1.0492  -1.0455  -1.0383  -1.0322  -1.0025  -0.9957
    -0.9793  -0.9636  -0.9423  -0.9031  -0.8958  -0.8728  -0.8648  -0.8493
    -0.8217  -0.8062  -0.7937  -0.7790  -0.7698  -0.7511  -0.6319  -0.6108
    -0.6052  -0.5886  -0.5718  -0.5608  -0.5472  -0.5382  -0.5217  -0.5137
    -0.4979  -0.4735  -0.4468  -0.4363  -0.4115  -0.4016  -0.3627  -0.3447
    -0.3347  -0.3332  -0.3279  -0.3040  -0.2949  -0.2880  -0.2819  -0.2691
    -0.2539  -0.1796  -0.1675  -0.1633  -0.1210  -0.1133  -0.1012   0.0340
     0.1418   0.2291   0.2520   0.4131   0.5140   0.6359   0.9822   1.1230
     1.2268   1.4407

          k = 0.2000-0.5774 0.0000 ( 51262 PWs)   bands (ev):

   -21.9824  -9.1426  -6.7588  -6.6824  -6.1810  -6.0349  -5.7530  -5.5154
    -5.2619  -5.2124  -4.9620  -4.6967  -4.4711  -4.2347  -4.1857  -4.0753
    -4.0561  -4.0460  -4.0245  -4.0200  -3.9703  -3.9512  -3.9421  -3.9403
    -3.9182  -3.8560  -3.7945  -3.7875  -3.7666  -3.7637  -3.7130  -3.6185
    -3.6086  -3.6026  -3.5784  -3.5323  -3.4831  -3.4495  -3.3755  -3.3166
    -3.3092  -3.2645  -3.2284  -3.2111  -3.1834  -3.1284  -3.0978  -3.0894
    -3.0554  -3.0285  -2.9973  -2.9360  -2.9052  -2.8742  -2.8602  -2.8233
    -2.8070  -2.7359  -2.7310  -2.7191  -2.7070  -2.6972  -2.6729  -2.6375
    -2.5695  -2.5215  -2.5078  -2.4969  -2.4670  -2.4362  -2.4150  -2.3727
    -2.3684  -2.3293  -2.3189  -2.3118  -2.3036  -2.2843  -2.2602  -2.2590
    -2.2384  -2.2295  -2.2134  -2.1854  -2.1828  -2.1509  -2.1080  -2.0921
    -2.0750  -2.0480  -2.0186  -1.9895  -1.9683  -1.9455  -1.9329  -1.9241
    -1.9060  -1.8969  -1.8917  -1.8809  -1.8684  -1.8435  -1.8397  -1.7887
    -1.7717  -1.7511  -1.7424  -1.7344  -1.7146  -1.7103  -1.7038  -1.6919
    -1.6823  -1.6750  -1.6584  -1.6291  -1.5966  -1.5836  -1.5581  -1.5397
    -1.4911  -1.4860  -1.4641  -1.4415  -1.4290  -1.4149  -1.4051  -1.3852
    -1.3463  -1.3351  -1.3142  -1.2750  -1.2163  -1.1940  -1.1856  -1.1669
    -1.1506  -1.1358  -1.1321  -1.1005  -1.0821  -1.0684  -1.0513  -1.0346
    -0.9890  -0.9783  -0.9579  -0.9511  -0.9360  -0.8864  -0.8790  -0.8630
    -0.8566  -0.8387  -0.8331  -0.8157  -0.7884  -0.7647  -0.7414  -0.5957
    -0.5791  -0.5731  -0.5603  -0.5496  -0.5411  -0.5328  -0.5216  -0.4905
    -0.4786  -0.4652  -0.4578  -0.4483  -0.4054  -0.3540  -0.3368  -0.3301
    -0.3189  -0.3054  -0.2898  -0.2793  -0.2415  -0.2341  -0.2275  -0.2171
    -0.2128  -0.1466  -0.1369  -0.1290  -0.1170  -0.1075  -0.0864  -0.0594
     0.1173   0.2473   0.4799   0.8759   1.0572   1.1686   1.2630   1.5205
     1.6596   1.7162

          k = 0.2000-0.3464 0.0000 ( 51202 PWs)   bands (ev):

   -21.9824  -9.1511  -7.2511  -6.3337  -6.0137  -5.9364  -5.6981  -5.5370
    -5.3453  -5.1360  -4.7138  -4.7027  -4.4860  -4.4754  -4.3313  -4.2715
    -4.2650  -4.1702  -4.1653  -4.0672  -4.0273  -4.0173  -3.9019  -3.8766
    -3.8261  -3.7813  -3.6856  -3.6667  -3.6611  -3.6395  -3.6298  -3.6045
    -3.5899  -3.5833  -3.5420  -3.5201  -3.4809  -3.4370  -3.4274  -3.3988
    -3.3011  -3.2407  -3.2143  -3.1886  -3.1725  -3.1491  -3.0822  -3.0540
    -3.0072  -2.9963  -2.9730  -2.9600  -2.9564  -2.9222  -2.8977  -2.8905
    -2.8687  -2.8481  -2.7578  -2.7305  -2.6941  -2.6769  -2.6530  -2.6328
    -2.6156  -2.5655  -2.5005  -2.4382  -2.4078  -2.3915  -2.3786  -2.3454
    -2.3389  -2.3236  -2.3178  -2.2895  -2.2795  -2.2641  -2.2556  -2.2458
    -2.2366  -2.1959  -2.1601  -2.1422  -2.0727  -2.0667  -2.0406  -2.0268
    -2.0194  -1.9950  -1.9757  -1.9616  -1.9431  -1.9257  -1.9107  -1.9074
    -1.8999  -1.8922  -1.8827  -1.8648  -1.8547  -1.8485  -1.8281  -1.8121
    -1.8082  -1.7996  -1.7742  -1.7243  -1.7200  -1.6840  -1.6737  -1.6661
    -1.6622  -1.6476  -1.5956  -1.5884  -1.5702  -1.5441  -1.5267  -1.5085
    -1.5043  -1.4958  -1.4900  -1.4656  -1.4457  -1.4336  -1.4272  -1.3712
    -1.3610  -1.3265  -1.3135  -1.2547  -1.2195  -1.1895  -1.1638  -1.1075
    -1.0852  -1.0620  -1.0535  -1.0476  -1.0412  -1.0321  -1.0029  -0.9928
    -0.9789  -0.9687  -0.9477  -0.9048  -0.8931  -0.8806  -0.8618  -0.8475
    -0.8234  -0.8106  -0.7864  -0.7764  -0.7662  -0.7510  -0.6309  -0.6192
    -0.5974  -0.5881  -0.5715  -0.5592  -0.5543  -0.5335  -0.5304  -0.5095
    -0.5014  -0.4772  -0.4455  -0.4290  -0.4123  -0.4032  -0.3656  -0.3449
    -0.3356  -0.3315  -0.3282  -0.3054  -0.2960  -0.2879  -0.2802  -0.2687
    -0.2544  -0.1803  -0.1690  -0.1643  -0.1180  -0.1151  -0.1091   0.0495
     0.1169   0.2292   0.2438   0.4491   0.5091   0.6265   1.0002   1.1210
     1.2306   1.3795

          k = 0.4000-0.2309 0.0000 ( 51204 PWs)   bands (ev):

   -21.9824  -9.1454  -7.1197  -6.4899  -6.1943  -5.8709  -5.5491  -5.3811
    -5.2132  -5.1551  -5.1232  -4.9274  -4.3482  -4.3181  -4.2820  -4.2457
    -4.2049  -4.1273  -4.1227  -4.0315  -3.9954  -3.9867  -3.9635  -3.8308
    -3.8099  -3.8017  -3.7971  -3.7954  -3.7253  -3.6957  -3.6866  -3.6054
    -3.5251  -3.5152  -3.4988  -3.4815  -3.4725  -3.4320  -3.3698  -3.3626
    -3.3504  -3.3390  -3.3053  -3.2213  -3.1356  -3.1082  -3.0440  -3.0298
    -3.0072  -2.9851  -2.9657  -2.9515  -2.9389  -2.9306  -2.9158  -2.8660
    -2.8511  -2.8312  -2.7890  -2.7648  -2.6586  -2.6443  -2.6230  -2.6004
    -2.5643  -2.5354  -2.5144  -2.4984  -2.4883  -2.4237  -2.3694  -2.3665
    -2.3637  -2.3513  -2.3427  -2.3219  -2.3097  -2.3008  -2.2741  -2.2517
    -2.2386  -2.2070  -2.1879  -2.1626  -2.1374  -2.1252  -2.0670  -2.0519
    -2.0340  -2.0200  -2.0041  -1.9790  -1.9736  -1.9332  -1.9245  -1.9151
    -1.9062  -1.8903  -1.8800  -1.8586  -1.8541  -1.8484  -1.8414  -1.8106
    -1.7961  -1.7600  -1.7468  -1.7336  -1.6684  -1.6522  -1.6271  -1.6173
    -1.6007  -1.5795  -1.5628  -1.5236  -1.5191  -1.5032  -1.4988  -1.4913
    -1.4815  -1.4747  -1.4685  -1.4581  -1.4526  -1.4424  -1.4250  -1.4154
    -1.3951  -1.3731  -1.3118  -1.2848  -1.2710  -1.2636  -1.2377  -1.2163
    -1.1967  -1.1472  -1.1237  -1.1101  -1.0817  -1.0721  -1.0319  -1.0095
    -0.9894  -0.9595  -0.9358  -0.9265  -0.9015  -0.8752  -0.8471  -0.7993
    -0.7561  -0.7340  -0.7218  -0.7102  -0.7073  -0.7007  -0.6930  -0.6839
    -0.6678  -0.6450  -0.5652  -0.5583  -0.5505  -0.5377  -0.5300  -0.5142
    -0.5078  -0.4908  -0.4818  -0.4740  -0.4622  -0.4389  -0.3743  -0.3617
    -0.3500  -0.3421  -0.3150  -0.2653  -0.2589  -0.2297  -0.2239  -0.1849
    -0.1575  -0.1441  -0.1379  -0.1196  -0.1153  -0.1130  -0.1050  -0.0647
    -0.0114   0.0040   0.3926   0.5979   0.9140   1.0784   1.1184   1.2610
     1.4600   1.5021

          k = 0.4000 0.0000 0.0000 ( 51202 PWs)   bands (ev):

   -21.9824  -9.1474  -7.2571  -6.3310  -6.0775  -5.9226  -5.6928  -5.4670
    -5.3725  -5.1341  -4.7676  -4.6138  -4.4909  -4.4870  -4.3362  -4.2721
    -4.2618  -4.1701  -4.1646  -4.0934  -4.0394  -3.9595  -3.8994  -3.8769
    -3.8207  -3.7814  -3.6891  -3.6757  -3.6489  -3.6395  -3.6328  -3.6134
    -3.5895  -3.5796  -3.5496  -3.5231  -3.4778  -3.4527  -3.4409  -3.3916
    -3.3061  -3.2534  -3.2145  -3.1865  -3.1659  -3.1568  -3.0949  -3.0521
    -3.0219  -2.9826  -2.9777  -2.9671  -2.9435  -2.9164  -2.9028  -2.8887
    -2.8767  -2.8510  -2.7664  -2.7051  -2.6918  -2.6698  -2.6462  -2.6306
    -2.6134  -2.5601  -2.5060  -2.4343  -2.4173  -2.3905  -2.3786  -2.3475
    -2.3354  -2.3255  -2.3189  -2.3007  -2.2775  -2.2663  -2.2605  -2.2479
    -2.2251  -2.1926  -2.1669  -2.1178  -2.0715  -2.0618  -2.0488  -2.0316
    -2.0157  -1.9964  -1.9716  -1.9598  -1.9480  -1.9284  -1.9064  -1.9014
    -1.8973  -1.8934  -1.8873  -1.8659  -1.8615  -1.8460  -1.8285  -1.8205
    -1.8050  -1.7776  -1.7519  -1.7253  -1.7174  -1.6891  -1.6750  -1.6683
    -1.6569  -1.6481  -1.6220  -1.5868  -1.5704  -1.5577  -1.5362  -1.5181
    -1.5068  -1.4973  -1.4841  -1.4749  -1.4541  -1.4393  -1.4208  -1.3707
    -1.3595  -1.3360  -1.3247  -1.2297  -1.2143  -1.1969  -1.1812  -1.1041
    -1.0717  -1.0664  -1.0588  -1.0467  -1.0377  -1.0302  -1.0041  -1.0010
    -0.9824  -0.9581  -0.9419  -0.9007  -0.8842  -0.8690  -0.8661  -0.8475
    -0.8181  -0.8070  -0.7972  -0.7790  -0.7716  -0.7515  -0.6288  -0.6149
    -0.5916  -0.5823  -0.5729  -0.5610  -0.5508  -0.5319  -0.5276  -0.5182
    -0.4990  -0.4760  -0.4480  -0.4341  -0.4128  -0.3966  -0.3552  -0.3415
    -0.3359  -0.3319  -0.3260  -0.3035  -0.2960  -0.2857  -0.2841  -0.2664
    -0.2552  -0.1771  -0.1690  -0.1650  -0.1224  -0.1190  -0.0930   0.0344
     0.1897   0.2260   0.2602   0.3662   0.5178   0.6162   0.9328   1.1238
     1.2174   1.5320

          k = 0.4000 0.2309 0.0000 ( 51204 PWs)   bands (ev):

   -21.9824  -9.1432  -7.1252  -6.4960  -6.2051  -5.9018  -5.4552  -5.4125
    -5.2173  -5.1539  -5.1276  -4.9202  -4.3487  -4.3130  -4.3041  -4.2424
    -4.2002  -4.1278  -4.1234  -4.0145  -3.9938  -3.9877  -3.9250  -3.8400
    -3.8092  -3.7996  -3.7971  -3.7936  -3.7082  -3.6916  -3.6724  -3.6560
    -3.5271  -3.5240  -3.5093  -3.4818  -3.4781  -3.4278  -3.3690  -3.3632
    -3.3490  -3.3409  -3.3059  -3.2233  -3.1413  -3.0982  -3.0478  -3.0233
    -3.0137  -2.9788  -2.9657  -2.9611  -2.9498  -2.9235  -2.9047  -2.8680
    -2.8549  -2.8324  -2.7995  -2.7503  -2.6535  -2.6438  -2.6321  -2.5965
    -2.5693  -2.5329  -2.5100  -2.5075  -2.4925  -2.4231  -2.3696  -2.3668
    -2.3619  -2.3559  -2.3396  -2.3231  -2.3094  -2.3034  -2.2754  -2.2426
    -2.2275  -2.2096  -2.1934  -2.1751  -2.1331  -2.1187  -2.0632  -2.0527
    -2.0313  -2.0223  -2.0058  -1.9943  -1.9670  -1.9316  -1.9255  -1.9169
    -1.9068  -1.8933  -1.8764  -1.8686  -1.8545  -1.8467  -1.8419  -1.8131
    -1.7955  -1.7825  -1.7437  -1.7331  -1.6714  -1.6542  -1.6277  -1.6169
    -1.5931  -1.5799  -1.5550  -1.5210  -1.5204  -1.5042  -1.4999  -1.4943
    -1.4862  -1.4765  -1.4668  -1.4585  -1.4534  -1.4399  -1.4147  -1.4062
    -1.3894  -1.3781  -1.3298  -1.2858  -1.2694  -1.2562  -1.2352  -1.2205
    -1.1927  -1.1453  -1.1256  -1.1079  -1.0853  -1.0622  -1.0458  -1.0055
    -0.9872  -0.9612  -0.9363  -0.9266  -0.8989  -0.8741  -0.8508  -0.8133
    -0.7387  -0.7296  -0.7193  -0.7110  -0.7078  -0.6948  -0.6882  -0.6780
    -0.6716  -0.6642  -0.5646  -0.5590  -0.5515  -0.5386  -0.5299  -0.5109
    -0.4989  -0.4960  -0.4814  -0.4706  -0.4542  -0.4421  -0.3744  -0.3597
    -0.3506  -0.3430  -0.3103  -0.2638  -0.2603  -0.2260  -0.2240  -0.1841
    -0.1665  -0.1425  -0.1397  -0.1175  -0.1163  -0.1094  -0.0891  -0.0729
    -0.0112   0.0048   0.3875   0.6524   0.8580   1.0294   1.1243   1.2010
     1.4667   1.5538

          k = 0.4000-0.6928 0.0000 ( 51262 PWs)   bands (ev):

   -21.9824  -9.1389  -6.7875  -6.6705  -6.1922  -5.9450  -5.9131  -5.4136
    -5.2189  -5.1998  -5.0306  -4.6965  -4.4715  -4.2341  -4.1851  -4.0591
    -4.0544  -4.0300  -4.0238  -3.9983  -3.9661  -3.9479  -3.9434  -3.9394
    -3.9252  -3.8163  -3.8000  -3.7887  -3.7736  -3.7586  -3.7362  -3.6354
    -3.6099  -3.6035  -3.5862  -3.5649  -3.5028  -3.4458  -3.3505  -3.3155
    -3.3134  -3.2863  -3.2193  -3.2092  -3.1818  -3.1350  -3.0979  -3.0958
    -3.0645  -3.0138  -3.0006  -2.9328  -2.9064  -2.8786  -2.8636  -2.8166
    -2.7956  -2.7375  -2.7303  -2.7241  -2.7106  -2.7037  -2.6543  -2.6400
    -2.5629  -2.5160  -2.5105  -2.4930  -2.4832  -2.4446  -2.4245  -2.3700
    -2.3604  -2.3289  -2.3250  -2.3085  -2.3012  -2.2766  -2.2627  -2.2519
    -2.2334  -2.2220  -2.1967  -2.1925  -2.1809  -2.1648  -2.1140  -2.0996
    -2.0863  -2.0517  -2.0179  -1.9817  -1.9669  -1.9464  -1.9310  -1.9221
    -1.9076  -1.8994  -1.8957  -1.8719  -1.8585  -1.8509  -1.8369  -1.7746
    -1.7615  -1.7519  -1.7414  -1.7268  -1.7151  -1.7110  -1.6986  -1.6931
    -1.6894  -1.6734  -1.6580  -1.6505  -1.5981  -1.5799  -1.5725  -1.5304
    -1.5138  -1.4920  -1.4651  -1.4376  -1.4249  -1.4153  -1.4027  -1.3882
    -1.3410  -1.3367  -1.3078  -1.2667  -1.2119  -1.2010  -1.1881  -1.1680
    -1.1479  -1.1342  -1.1275  -1.1006  -1.0952  -1.0738  -1.0543  -1.0255
    -0.9919  -0.9842  -0.9618  -0.9422  -0.9313  -0.8910  -0.8793  -0.8744
    -0.8557  -0.8404  -0.8242  -0.8102  -0.7798  -0.7711  -0.7458  -0.5848
    -0.5754  -0.5691  -0.5610  -0.5513  -0.5458  -0.5298  -0.5254  -0.4863
    -0.4780  -0.4693  -0.4631  -0.4403  -0.3984  -0.3451  -0.3339  -0.3246
    -0.3145  -0.3035  -0.2878  -0.2492  -0.2449  -0.2365  -0.2274  -0.2202
    -0.2110  -0.1985  -0.1366  -0.1312  -0.1163  -0.1099  -0.0845  -0.0566
     0.1426   0.2625   0.5549   0.7404   1.0311   1.1717   1.2223   1.5694
     1.6755   1.7113

          k = 0.4000-0.4619 0.0000 ( 51262 PWs)   bands (ev):

   -21.9824  -9.1402  -6.7731  -6.6748  -6.1888  -6.0137  -5.8062  -5.4725
    -5.2513  -5.2016  -4.9887  -4.6924  -4.4703  -4.2326  -4.1880  -4.0636
    -4.0545  -4.0446  -4.0247  -4.0162  -3.9701  -3.9477  -3.9432  -3.9391
    -3.9217  -3.8466  -3.7949  -3.7902  -3.7681  -3.7650  -3.7133  -3.6232
    -3.6096  -3.6020  -3.5795  -3.5481  -3.5022  -3.4506  -3.3573  -3.3150
    -3.3083  -3.2913  -3.2253  -3.2084  -3.1819  -3.1286  -3.0971  -3.0927
    -3.0524  -3.0260  -2.9966  -2.9323  -2.9071  -2.8812  -2.8592  -2.8219
    -2.7961  -2.7362  -2.7323  -2.7217  -2.7094  -2.6989  -2.6701  -2.6226
    -2.5673  -2.5165  -2.5070  -2.4996  -2.4735  -2.4347  -2.4284  -2.3726
    -2.3636  -2.3296  -2.3188  -2.3091  -2.3030  -2.2813  -2.2624  -2.2557
    -2.2356  -2.2270  -2.2108  -2.1865  -2.1802  -2.1435  -2.1079  -2.1012
    -2.0866  -2.0593  -2.0147  -1.9848  -1.9649  -1.9439  -1.9314  -1.9255
    -1.9057  -1.8967  -1.8889  -1.8815  -1.8627  -1.8427  -1.8349  -1.7784
    -1.7699  -1.7473  -1.7416  -1.7358  -1.7164  -1.7109  -1.7045  -1.6915
    -1.6851  -1.6792  -1.6559  -1.6393  -1.5963  -1.5824  -1.5682  -1.5230
    -1.4988  -1.4972  -1.4730  -1.4371  -1.4245  -1.4120  -1.4058  -1.3843
    -1.3412  -1.3379  -1.3143  -1.2632  -1.2119  -1.2040  -1.1802  -1.1693
    -1.1451  -1.1340  -1.1278  -1.1140  -1.0870  -1.0710  -1.0584  -1.0315
    -0.9901  -0.9877  -0.9622  -0.9447  -0.9294  -0.8910  -0.8779  -0.8664
    -0.8557  -0.8389  -0.8347  -0.8095  -0.7815  -0.7661  -0.7470  -0.5918
    -0.5749  -0.5660  -0.5573  -0.5511  -0.5386  -0.5350  -0.5236  -0.4852
    -0.4813  -0.4735  -0.4592  -0.4436  -0.3990  -0.3493  -0.3350  -0.3288
    -0.3102  -0.3033  -0.2936  -0.2759  -0.2457  -0.2335  -0.2273  -0.2137
    -0.2058  -0.1735  -0.1351  -0.1312  -0.1175  -0.1078  -0.0849  -0.0582
     0.1270   0.2558   0.5016   0.8687   0.9920   1.1714   1.2348   1.5364
     1.6494   1.7234

 ------ SPIN DOWN ----------


          k = 0.0000 0.0000 0.0000 ( 51087 PWs)   bands (ev):

   -22.0717  -9.2557  -7.8020  -6.6207  -5.8174  -5.6573  -5.4324  -5.1245
    -4.6429  -4.6313  -4.6287  -4.6038  -4.5980  -4.5736  -4.2429  -3.7616
    -3.7582  -3.7394  -3.7304  -3.7180  -3.6571  -3.3367  -2.8220  -2.8138
    -2.8013  -2.8002  -2.7206  -2.5959  -2.3579  -2.3461  -2.3395  -2.3366
    -2.3117  -2.2219  -2.1471  -2.1419  -2.0743  -2.0575  -2.0466  -2.0462
    -1.9634  -1.9570  -1.9120  -1.9083  -1.8443  -1.8235  -1.8067  -1.7981
    -1.7608  -1.7229  -1.5606  -1.5513  -1.5408  -1.5316  -1.5262  -1.5235
    -1.5088  -1.5075  -1.4777  -1.4635  -1.4375  -1.4339  -1.4303  -1.4285
    -1.3596  -1.2551  -0.9117  -0.8779  -0.8512  -0.8492  -0.8001  -0.7375
    -0.6550  -0.6417  -0.5479  -0.5415  -0.5305  -0.5234  -0.5121  -0.4925
    -0.4778  -0.4661  -0.4497  -0.4422  -0.4336  -0.4329  -0.3920  -0.3719
    -0.3614  -0.3328  -0.3229  -0.3047  -0.2949  -0.2925  -0.2745  -0.2720
    -0.2644  -0.2576  -0.2473  -0.2439  -0.2427  -0.2355  -0.2135  -0.1544
    -0.1410  -0.1261  -0.1084  -0.0605  -0.0409  -0.0280  -0.0164  -0.0141
    -0.0109  -0.0091  -0.0023   0.0620   0.0656   0.0667   0.1137   0.1415
     0.1511   0.1584   0.1678   0.2049   0.2563   0.3762   0.3868   0.4356
     0.4488   0.4566   0.4659   0.4738   0.6177   0.6776   0.7585   0.7946
     0.8096   0.8555   0.9732   1.0139   1.0183   1.0287   1.0364   1.0416
     1.0824   1.1613   1.1835   1.2001   1.2092   1.2159   1.2225   1.2480
     1.2549   1.2660   1.2766   1.2914   1.3088   1.3203   1.3230   1.3512
     1.3564   1.3654   1.3693   1.3810   1.4015   1.4234   1.4284   1.4367
     1.4505   1.4526   1.4690   1.4808   1.4868   1.4962   1.4994   1.5343
     1.5426   1.5580   1.5600   1.5650   1.5726   1.5789   1.5851   1.6235
     1.6284   1.6306   1.6328   1.6381   1.6406   1.6541   1.6600   1.6672
     1.6690   1.7152   1.7162   1.8574   1.8651   1.8652   1.8707   1.8727
     1.8739   2.0728

          k = 0.0000 0.2309 0.0000 ( 51134 PWs)   bands (ev):

   -22.0717  -9.2454  -7.6604  -6.5201  -5.8701  -5.6926  -5.5506  -5.3936
    -5.1278  -4.9865  -4.9166  -4.4598  -4.1363  -4.0797  -4.0599  -3.9535
    -3.8534  -3.7767  -3.4615  -3.4044  -3.3690  -3.2622  -2.9415  -2.8118
    -2.7730  -2.7279  -2.6814  -2.6154  -2.4437  -2.3776  -2.3747  -2.3601
    -2.3330  -2.2903  -2.2885  -2.2808  -2.2356  -2.2016  -2.1098  -2.1038
    -2.0188  -2.0160  -1.9527  -1.8761  -1.8365  -1.8250  -1.8082  -1.7088
    -1.6830  -1.6537  -1.6103  -1.5824  -1.5566  -1.5389  -1.5319  -1.5227
    -1.5137  -1.5018  -1.4162  -1.4041  -1.3906  -1.3716  -1.3350  -1.2911
    -1.2463  -1.1565  -0.9717  -0.9237  -0.9024  -0.8992  -0.8374  -0.7971
    -0.7422  -0.7151  -0.6873  -0.6468  -0.6281  -0.5813  -0.5608  -0.5475
    -0.5147  -0.5050  -0.4908  -0.4837  -0.4760  -0.4506  -0.4182  -0.3936
    -0.3536  -0.3226  -0.3187  -0.3096  -0.2980  -0.2767  -0.2570  -0.2500
    -0.2416  -0.2395  -0.2312  -0.2248  -0.2205  -0.2187  -0.1836  -0.1663
    -0.1504  -0.1380  -0.1231  -0.1119  -0.0911  -0.0781  -0.0601  -0.0378
    -0.0317  -0.0052   0.0190   0.0480   0.0927   0.1014   0.1237   0.1326
     0.2285   0.2530   0.2862   0.3378   0.3521   0.3577   0.4154   0.4211
     0.4313   0.4397   0.4418   0.4504   0.5891   0.6956   0.7703   0.7759
     0.7850   0.7884   0.8069   0.8164   0.8663   0.8807   0.9325   0.9583
     1.0040   1.0278   1.0521   1.0655   1.0907   1.1116   1.1346   1.1910
     1.2086   1.2238   1.2447   1.2507   1.2710   1.2784   1.3199   1.3278
     1.3454   1.3650   1.4069   1.4168   1.4328   1.4400   1.4644   1.4738
     1.5112   1.5203   1.5246   1.5283   1.5558   1.6083   1.6127   1.6222
     1.6249   1.6524   1.6554   1.6842   1.6913   1.6979   1.7048   1.7104
     1.7325   1.7742   1.7786   1.7917   1.7957   1.8052   1.8172   1.8338
     1.8548   1.8590   1.8620   1.9002   1.9545   1.9660   1.9674   2.0240
     2.0481   2.1115

          k = 0.0000 0.4619 0.0000 ( 51204 PWs)   bands (ev):

   -22.0717  -9.2292  -7.2399  -6.5789  -6.2343  -5.8339  -5.6353  -5.4130
    -5.2607  -5.1582  -5.1010  -4.7847  -4.1133  -4.0329  -3.8468  -3.4669
    -3.4601  -3.4007  -3.3376  -3.1670  -3.0694  -3.0180  -2.9928  -2.8641
    -2.8594  -2.7991  -2.7512  -2.7006  -2.6457  -2.6210  -2.6104  -2.5606
    -2.5453  -2.4032  -2.3376  -2.3170  -2.2479  -2.2252  -2.1318  -2.1229
    -2.1077  -2.0941  -2.0404  -1.8484  -1.8268  -1.8008  -1.7799  -1.7318
    -1.6058  -1.6021  -1.5866  -1.5755  -1.5598  -1.5385  -1.5327  -1.5107
    -1.4881  -1.4248  -1.4138  -1.3980  -1.3739  -1.3579  -1.2134  -1.1835
    -1.0802  -1.0452  -0.9500  -0.9287  -0.9104  -0.8815  -0.8691  -0.8599
    -0.8438  -0.8219  -0.7936  -0.7776  -0.7245  -0.6963  -0.6751  -0.6447
    -0.6269  -0.6018  -0.5846  -0.5763  -0.5424  -0.5082  -0.4688  -0.4126
    -0.3932  -0.3757  -0.3524  -0.3342  -0.3024  -0.2902  -0.2662  -0.2413
    -0.2146  -0.2068  -0.1953  -0.1846  -0.1718  -0.1668  -0.1252  -0.1153
    -0.1051  -0.0884  -0.0767  -0.0662  -0.0582  -0.0449  -0.0327  -0.0100
    -0.0009   0.0182   0.0557   0.0980   0.1412   0.1434   0.1629   0.2019
     0.2076   0.2169   0.2476   0.2673   0.3087   0.3167   0.3306   0.3448
     0.3815   0.4026   0.4128   0.4168   0.4581   0.5294   0.5803   0.5921
     0.6635   0.6682   0.7457   0.7683   0.8257   0.8472   0.8675   0.8853
     0.9103   0.9158   0.9354   0.9758   0.9871   1.0520   1.1672   1.1773
     1.1830   1.2089   1.2341   1.2403   1.2838   1.2994   1.3301   1.3401
     1.3667   1.3783   1.3945   1.4599   1.4693   1.4807   1.5309   1.5374
     1.5471   1.5508   1.5688   1.5855   1.6076   1.6214   1.6317   1.6568
     1.6673   1.7075   1.7398   1.7716   1.7824   1.7978   1.8067   1.8219
     1.8281   1.8572   1.8610   1.8746   1.8897   1.8969   1.9066   1.9090
     1.9540   2.0124   2.0530   2.1163   2.1196   2.1976   2.5473   2.6269
     2.6479   2.7014

          k = 0.2000-0.1155 0.0000 ( 51134 PWs)   bands (ev):

   -22.0717  -9.2441  -7.6613  -6.5215  -5.8906  -5.6888  -5.5349  -5.3939
    -5.1180  -4.9905  -4.9245  -4.4265  -4.1900  -4.0770  -4.0639  -3.9311
    -3.8449  -3.7814  -3.4734  -3.3980  -3.3399  -3.2664  -2.9712  -2.7960
    -2.7759  -2.7406  -2.6823  -2.5975  -2.4556  -2.3761  -2.3731  -2.3635
    -2.3295  -2.2966  -2.2889  -2.2851  -2.2354  -2.1937  -2.1073  -2.1046
    -2.0199  -2.0171  -1.9671  -1.8529  -1.8367  -1.8235  -1.8039  -1.7136
    -1.6801  -1.6512  -1.6130  -1.5775  -1.5610  -1.5396  -1.5293  -1.5275
    -1.5063  -1.4998  -1.4210  -1.4025  -1.3891  -1.3686  -1.3377  -1.2982
    -1.2399  -1.1619  -0.9690  -0.9196  -0.9064  -0.8964  -0.8405  -0.7825
    -0.7670  -0.7217  -0.6853  -0.6482  -0.6260  -0.5871  -0.5581  -0.5464
    -0.5145  -0.5057  -0.4863  -0.4777  -0.4717  -0.4590  -0.4269  -0.3914
    -0.3499  -0.3268  -0.3204  -0.3166  -0.3095  -0.2692  -0.2603  -0.2515
    -0.2440  -0.2334  -0.2298  -0.2236  -0.2196  -0.2170  -0.1875  -0.1681
    -0.1419  -0.1385  -0.1162  -0.1117  -0.1035  -0.0848  -0.0632  -0.0389
    -0.0279  -0.0102   0.0276   0.0625   0.0879   0.1040   0.1133   0.1325
     0.2362   0.2571   0.2915   0.3396   0.3563   0.3662   0.4033   0.4240
     0.4300   0.4386   0.4439   0.4527   0.5874   0.7045   0.7551   0.7745
     0.7874   0.7963   0.8087   0.8251   0.8643   0.8832   0.9316   0.9618
     1.0059   1.0339   1.0548   1.0798   1.0937   1.1153   1.1355   1.1403
     1.2076   1.2306   1.2487   1.2547   1.2689   1.2812   1.3198   1.3275
     1.3425   1.3613   1.4034   1.4207   1.4344   1.4421   1.4656   1.4939
     1.5108   1.5204   1.5253   1.5294   1.5506   1.5998   1.6105   1.6179
     1.6222   1.6480   1.6558   1.6857   1.6947   1.6986   1.7057   1.7130
     1.7306   1.7752   1.7796   1.7944   1.7957   1.8052   1.8134   1.8339
     1.8497   1.8578   1.8619   1.8882   1.9535   1.9645   1.9686   2.0295
     2.0445   2.1041

          k = 0.2000 0.1155 0.0000 ( 51134 PWs)   bands (ev):

   -22.0717  -9.2434  -7.6624  -6.5238  -5.9225  -5.6694  -5.4852  -5.4307
    -5.1000  -4.9897  -4.9510  -4.3644  -4.2171  -4.0817  -4.0629  -3.9736
    -3.8288  -3.7795  -3.4771  -3.4100  -3.3130  -3.2485  -2.9802  -2.8262
    -2.7746  -2.7234  -2.7052  -2.5687  -2.4618  -2.3788  -2.3713  -2.3537
    -2.3400  -2.3033  -2.2906  -2.2868  -2.2504  -2.1728  -2.1056  -2.1042
    -2.0194  -2.0176  -1.9668  -1.8692  -1.8276  -1.8204  -1.7976  -1.7043
    -1.6880  -1.6595  -1.6028  -1.5923  -1.5575  -1.5422  -1.5275  -1.5216
    -1.5205  -1.4731  -1.4417  -1.3967  -1.3885  -1.3683  -1.3375  -1.2952
    -1.2343  -1.1706  -0.9730  -0.9233  -0.9074  -0.8938  -0.8345  -0.8139
    -0.7806  -0.6936  -0.6703  -0.6522  -0.6339  -0.5834  -0.5678  -0.5400
    -0.5200  -0.5047  -0.4873  -0.4779  -0.4710  -0.4522  -0.4443  -0.3739
    -0.3413  -0.3269  -0.3217  -0.3163  -0.3061  -0.2667  -0.2571  -0.2520
    -0.2453  -0.2346  -0.2287  -0.2248  -0.2203  -0.2184  -0.1861  -0.1701
    -0.1494  -0.1363  -0.1182  -0.1130  -0.1072  -0.0837  -0.0597  -0.0492
    -0.0241  -0.0028   0.0353   0.0715   0.0820   0.1029   0.1115   0.1320
     0.2065   0.2797   0.2993   0.3351   0.3508   0.3747   0.4042   0.4189
     0.4304   0.4369   0.4478   0.4533   0.6146   0.6836   0.7549   0.7727
     0.7908   0.7988   0.8116   0.8219   0.8609   0.8822   0.9346   0.9610
     0.9789   1.0431   1.0614   1.0767   1.0939   1.1232   1.1352   1.1428
     1.1996   1.2319   1.2447   1.2603   1.2766   1.2797   1.3176   1.3264
     1.3404   1.3672   1.4075   1.4222   1.4323   1.4418   1.4620   1.4930
     1.5073   1.5214   1.5278   1.5381   1.5433   1.5947   1.6048   1.6164
     1.6264   1.6493   1.6543   1.6850   1.6941   1.7015   1.7046   1.7136
     1.7320   1.7759   1.7797   1.7932   1.7959   1.8053   1.8170   1.8325
     1.8496   1.8557   1.8632   1.8772   1.9529   1.9630   1.9712   2.0240
     2.0506   2.0981

          k = 0.2000 0.3464 0.0000 ( 51202 PWs)   bands (ev):

   -22.0717  -9.2300  -7.3819  -6.3703  -6.1156  -6.0064  -5.7011  -5.5162
    -5.4002  -5.0831  -4.6782  -4.4922  -4.2683  -4.2541  -3.9171  -3.4427
    -3.4309  -3.4268  -3.4160  -3.2841  -3.1599  -3.1287  -3.1127  -2.9166
    -2.7622  -2.6881  -2.6788  -2.6544  -2.5889  -2.5651  -2.5623  -2.4796
    -2.4708  -2.4625  -2.4291  -2.3201  -2.3023  -2.2425  -2.0900  -2.0847
    -2.0639  -2.0021  -1.9665  -1.9508  -1.9216  -1.7980  -1.7433  -1.7378
    -1.6343  -1.6123  -1.5691  -1.5660  -1.5546  -1.5432  -1.5261  -1.5067
    -1.4918  -1.4806  -1.4290  -1.3812  -1.3476  -1.3031  -1.1976  -1.1669
    -1.1080  -1.0758  -0.9934  -0.9433  -0.8999  -0.8693  -0.8493  -0.8325
    -0.8160  -0.7775  -0.7547  -0.7237  -0.7044  -0.6853  -0.6673  -0.6507
    -0.6382  -0.6190  -0.6011  -0.5695  -0.5423  -0.4580  -0.4382  -0.4228
    -0.4120  -0.3807  -0.3493  -0.3354  -0.3196  -0.2971  -0.2900  -0.2787
    -0.2638  -0.2484  -0.2339  -0.2128  -0.2015  -0.1854  -0.1677  -0.1362
    -0.1193  -0.1128  -0.1076  -0.0890  -0.0799  -0.0707  -0.0563  -0.0453
     0.0313   0.0430   0.0483   0.0672   0.1605   0.1634   0.2008   0.2259
     0.2446   0.2757   0.2958   0.3124   0.3389   0.3574   0.3730   0.3787
     0.3851   0.4187   0.4332   0.4725   0.5214   0.5921   0.6627   0.6910
     0.7391   0.7734   0.7975   0.8250   0.8361   0.8442   0.8632   0.8819
     0.8924   0.9033   0.9217   0.9375   0.9779   1.0313   1.0757   1.0943
     1.1138   1.1432   1.1511   1.1795   1.1959   1.2459   1.2609   1.3079
     1.3329   1.3848   1.4528   1.4874   1.5034   1.5131   1.5300   1.5418
     1.5633   1.5691   1.5889   1.5955   1.6546   1.6664   1.6751   1.6784
     1.6927   1.7204   1.7343   1.7455   1.7546   1.7696   1.7769   1.7998
     1.8132   1.8169   1.8275   1.8397   1.8517   1.8646   1.9063   1.9347
     1.9442   1.9873   2.0420   2.0744   2.1777   2.2129   2.3336   2.4835
     2.5284   2.5450

          k = 0.2000-0.5774 0.0000 ( 51262 PWs)   bands (ev):

   -22.0717  -9.2229  -6.8636  -6.8028  -6.2395  -6.0768  -5.7689  -5.5680
    -5.2915  -5.2513  -4.8838  -4.5595  -4.3116  -3.7755  -3.4883  -3.4616
    -3.4589  -3.3794  -3.2140  -3.1363  -3.0530  -3.0421  -3.0381  -2.9082
    -2.9037  -2.8893  -2.8707  -2.8652  -2.7498  -2.6250  -2.5270  -2.5135
    -2.4944  -2.4610  -2.4403  -2.4240  -2.3734  -2.3144  -2.2138  -2.0553
    -1.9792  -1.9680  -1.9585  -1.9236  -1.8804  -1.8005  -1.7366  -1.7236
    -1.6847  -1.6729  -1.6658  -1.5658  -1.5244  -1.5086  -1.4983  -1.4817
    -1.4434  -1.3878  -1.3440  -1.3345  -1.2880  -1.2689  -1.2448  -1.1444
    -1.0972  -0.9988  -0.9614  -0.9500  -0.9394  -0.8784  -0.8716  -0.8222
    -0.8134  -0.8001  -0.7728  -0.7506  -0.7429  -0.6913  -0.6818  -0.6643
    -0.6451  -0.6284  -0.6099  -0.5968  -0.5881  -0.5778  -0.5404  -0.5203
    -0.5109  -0.4759  -0.4452  -0.4293  -0.3803  -0.3575  -0.3366  -0.2839
    -0.2542  -0.2350  -0.2191  -0.2036  -0.1833  -0.1753  -0.1618  -0.1365
    -0.0947  -0.0831  -0.0608  -0.0422  -0.0237  -0.0191   0.0258   0.0718
     0.0968   0.1159   0.1287   0.1325   0.1471   0.1729   0.2218   0.2353
[...]
     atom    8 type  1   force =     0.00134912   -0.00058700   -0.10233587
     atom    9 type  1   force =     0.00165794   -0.00083456   -0.10648381
     atom   10 type  1   force =    -0.00099623    0.00167131   -0.01097174
     atom   11 type  1   force =     0.00127210    0.00049799   -0.00660299
     atom   12 type  1   force =    -0.00005505    0.00013268   -0.00953802
     atom   13 type  1   force =     0.00131695   -0.00139109   -0.01208270
     atom   14 type  1   force =    -0.00117878   -0.00064768   -0.01043568
     atom   15 type  1   force =    -0.00060254   -0.00049368   -0.01378505
     atom   16 type  1   force =    -0.00088268    0.00029540   -0.01695733
     atom   17 type  1   force =     0.00205912   -0.00128943   -0.01063731
     atom   18 type  1   force =    -0.00137212    0.00232658   -0.01370731
     atom   19 type  1   force =     0.00254443    0.00504387    0.00782023
     atom   20 type  1   force =    -0.00300779    0.01010832   -0.00112091
     atom   21 type  1   force =     0.00009140    0.00093392    0.01386963
     atom   22 type  1   force =     0.00043869    0.00013350    0.02067237
     atom   23 type  1   force =    -0.00155703    0.00047749    0.00642552
     atom   24 type  1   force =     0.00067836    0.00073003    0.01268184
     atom   25 type  1   force =    -0.00222533   -0.00496493   -0.00257803
     atom   26 type  1   force =    -0.00247837   -0.00565721    0.00072716
     atom   27 type  1   force =     0.00512795   -0.00661108   -0.00001811
     atom   28 type  1   force =     0.05256355   -0.01398320    0.09104212
     atom   29 type  1   force =    -0.05584764   -0.01605606    0.05865179
     atom   30 type  1   force =     0.00240054    0.00271345    0.08080695
     atom   31 type  1   force =     0.00532098   -0.02314631    0.13730481
     atom   32 type  1   force =     0.00006889   -0.01118913    0.09949684
     atom   33 type  1   force =    -0.00454581   -0.00088785    0.11120138
     atom   34 type  1   force =     0.00093217   -0.00203778    0.11685550
     atom   35 type  1   force =     0.00289561    0.04975046    0.13685963
     atom   36 type  1   force =    -0.00309742    0.00697064    0.12216604
     atom   37 type  2   force =    -0.02981160   -0.07778436    0.42557437
     atom   38 type  3   force =     0.13591267    0.18283684   -2.69929498
     atom   39 type  4   force =    -0.00058995   -0.00191259   -0.02174689
     The ionic contribution  to forces
     atom    1 type  1   force =    -0.00519734    0.00790331 -111.14055201
     atom    2 type  1   force =     0.00327290    0.00871913 -111.14437086
     atom    3 type  1   force =     0.00192443    0.00235002 -111.13406715
     atom    4 type  1   force =    -0.00026004    0.00111633 -111.13045217
     atom    5 type  1   force =    -0.00289568   -0.00449476 -111.13669843
     atom    6 type  1   force =     0.00315572   -0.00652603 -111.13616228
     atom    7 type  1   force =    -0.00645431   -0.00214235 -111.13886336
     atom    8 type  1   force =    -0.00163345   -0.00349920 -111.15514631
     atom    9 type  1   force =     0.00808776   -0.00342648 -111.14215647
     atom   10 type  1   force =    -0.05854035    0.01612876  -40.17152753
     atom   11 type  1   force =     0.04402460    0.01121596  -40.19959271
     atom   12 type  1   force =     0.01451482   -0.00038938  -40.08468471
     atom   13 type  1   force =    -0.01045662    0.06618679  -40.09573513
     atom   14 type  1   force =     0.01842125    0.02253864  -40.07978654
     atom   15 type  1   force =    -0.00796378    0.01192383  -40.05824598
     atom   16 type  1   force =    -0.03408455   -0.02281785  -40.06628115
     atom   17 type  1   force =    -0.00291409   -0.06811078  -40.14147457
     atom   18 type  1   force =     0.03699851   -0.03667475  -40.07235540
     atom   19 type  1   force =    -0.26076926    0.39285483   31.34656289
     atom   20 type  1   force =     0.15129031    0.44974177   31.16471691
     atom   21 type  1   force =     0.10923626    0.11654226   31.61609617
     atom   22 type  1   force =    -0.00916183    0.04836164   31.78836514
     atom   23 type  1   force =    -0.14024164   -0.22283045   31.53500537
     atom   24 type  1   force =     0.14942593   -0.30829299   31.55711399
     atom   25 type  1   force =    -0.32354433   -0.09727682   31.43600863
     atom   26 type  1   force =    -0.07276189   -0.19573432   30.51258501
     atom   27 type  1   force =     0.39633835   -0.18688408   31.26707245
     atom   28 type  1   force =    -4.38048547    1.32673498   99.41943143
     atom   29 type  1   force =     3.21689748    0.77311129   98.52280560
     atom   30 type  1   force =     1.14061290   -0.37835396  103.63888543
     atom   31 type  1   force =    -0.26066884    2.46946377  103.53791689
     atom   32 type  1   force =     0.52174226    1.34119684  103.83782385
     atom   33 type  1   force =    -0.25167250    0.36820626  104.43571652
     atom   34 type  1   force =    -1.15090571   -0.78755382  104.18904487
     atom   35 type  1   force =    -0.04546948   -3.81483866  101.54146079
     atom   36 type  1   force =     1.19460587   -1.14400407  104.14104582
     atom   37 type  2   force =     0.21608503    0.33623171   51.07415186
     atom   38 type  3   force =    -0.62423703   -0.74586265   89.64580861
     atom   39 type  4   force =     0.42368383    0.25918528   15.02053453
     The local contribution  to forces
     atom    1 type  1   force =     0.00322600   -0.00677977  111.24661873
     atom    2 type  1   force =    -0.00173412   -0.01088716  111.25278352
     atom    3 type  1   force =    -0.00126526   -0.00165324  111.23662732
     atom    4 type  1   force =    -0.00110029   -0.00183663  111.23529898
     atom    5 type  1   force =     0.00237194    0.00522759  111.24235658
     atom    6 type  1   force =    -0.00145932    0.00378333  111.24380065
     atom    7 type  1   force =     0.00935060    0.00201152  111.24554893
     atom    8 type  1   force =     0.00022464    0.00492905  111.26191983
     atom    9 type  1   force =    -0.00979491    0.00549238  111.25175693
     atom   10 type  1   force =     0.05767416   -0.01899732   40.16219831
     atom   11 type  1   force =    -0.04360001   -0.01194695   40.18556885
     atom   12 type  1   force =    -0.01387790    0.00024894   40.07378391
     atom   13 type  1   force =     0.00857739   -0.06348571   40.09055291
     atom   14 type  1   force =    -0.01774974   -0.02111695   40.06981383
     atom   15 type  1   force =     0.00939586   -0.01065806   40.05041635
     atom   16 type  1   force =     0.03480290    0.02383742   40.06375387
     atom   17 type  1   force =     0.00025184    0.06845881   40.13416814
     atom   18 type  1   force =    -0.03497283    0.03460033   40.06668268
     atom   19 type  1   force =     0.25965853   -0.39452148  -31.33796045
     atom   20 type  1   force =    -0.15079153   -0.45681750  -31.15036679
     atom   21 type  1   force =    -0.10801048   -0.11747473  -31.60834085
     atom   22 type  1   force =     0.00770820   -0.04946580  -31.78361470
     atom   23 type  1   force =     0.14032409    0.22080908  -31.51954805
     atom   24 type  1   force =    -0.14783417    0.30666796  -31.54924467
     atom   25 type  1   force =     0.32492422    0.10106661  -31.41819409
     atom   26 type  1   force =     0.07611728    0.20197457  -30.49713300
     atom   27 type  1   force =    -0.40209060    0.19119795  -31.25431461
     atom   28 type  1   force =     4.30885714   -1.31072425  -99.50842760
     atom   29 type  1   force =    -3.15766146   -0.76137580  -98.56884381
     atom   30 type  1   force =    -1.12877411    0.37048172 -103.72719268
     atom   31 type  1   force =     0.25014270   -2.43441438 -103.68456713
     atom   32 type  1   force =    -0.52009276   -1.32171720 -103.94219302
     atom   33 type  1   force =     0.25927271   -0.36601670 -104.55685002
     atom   34 type  1   force =     1.14770949    0.78840080 -104.31410038
     atom   35 type  1   force =     0.04123392    3.75592107 -101.68166561
     atom   36 type  1   force =    -1.18755106    1.12875008 -104.27253481
     atom   37 type  2   force =    -0.18639750   -0.26156929  -51.49779544
     atom   38 type  3   force =     0.49081289    0.56278661  -86.96624069
     atom   39 type  4   force =    -0.42100985   -0.25072925  -15.00121506
     The core correction contribution to forces
     atom    1 type  1   force =    -0.00019185   -0.00013785    0.00983809
     atom    2 type  1   force =    -0.00002689   -0.00027087    0.01006939
     atom    3 type  1   force =     0.00024686    0.00001304    0.00985263
     atom    4 type  1   force =     0.00009926   -0.00009897    0.01008044
     atom    5 type  1   force =     0.00014844    0.00005287    0.00997287
     atom    6 type  1   force =    -0.00015216   -0.00010856    0.00982836
     atom    7 type  1   force =     0.00005765   -0.00003083    0.01005595
     atom    8 type  1   force =     0.00006096    0.00038410    0.00951954
     atom    9 type  1   force =    -0.00018704   -0.00005963    0.01016611
     atom   10 type  1   force =    -0.00002854   -0.00001548   -0.00196515
     atom   11 type  1   force =     0.00005632    0.00014872   -0.00179555
     atom   12 type  1   force =    -0.00003385    0.00024601   -0.00186929
     atom   13 type  1   force =    -0.00037518    0.00027417   -0.00170850
     atom   14 type  1   force =     0.00019086   -0.00008764   -0.00193524
     atom   15 type  1   force =     0.00019715    0.00000757   -0.00167159
     atom   16 type  1   force =    -0.00007363    0.00004485   -0.00187054
     atom   17 type  1   force =    -0.00017072    0.00009900   -0.00193132
     atom   18 type  1   force =     0.00012230   -0.00034194   -0.00167947
     atom   19 type  1   force =    -0.00009788    0.00080090    0.00088044
     atom   20 type  1   force =    -0.00023849    0.00089825    0.00036868
     atom   21 type  1   force =     0.00053583    0.00009478    0.00202221
     atom   22 type  1   force =    -0.00001513    0.00012508    0.00195460
     atom   23 type  1   force =    -0.00032910    0.00053923    0.00151436
     atom   24 type  1   force =     0.00050114   -0.00054907    0.00141898
     atom   25 type  1   force =     0.00045316   -0.00048464    0.00151061
     atom   26 type  1   force =    -0.00104383   -0.00090155    0.00120832
     atom   27 type  1   force =     0.00072103   -0.00046769    0.00101012
     atom   28 type  1   force =     0.00999407   -0.00289877   -0.00510604
     atom   29 type  1   force =    -0.00239075    0.00220793    0.00073124
     atom   30 type  1   force =    -0.00970911    0.00462495   -0.00561222
     atom   31 type  1   force =     0.00108450   -0.00512341   -0.00762148
     atom   32 type  1   force =    -0.00020719   -0.01010359   -0.00566956
     atom   33 type  1   force =    -0.00070920   -0.00141671   -0.00990805
     atom   34 type  1   force =     0.00122792    0.00138882   -0.00934641
     atom   35 type  1   force =    -0.00019110    0.00801884   -0.00563958
     atom   36 type  1   force =    -0.00129659    0.00337633   -0.00817933
     atom   37 type  2   force =     0.00026247    0.00142200   -0.00135205
     atom   38 type  3   force =    -0.00100192   -0.00131259    0.01958953
     atom   39 type  4   force =     0.00000000    0.00000000    0.00000000
     The Hubbard contrib.    to forces
     atom    1 type  1   force =     0.00000000    0.00000000    0.00000000
     atom    2 type  1   force =     0.00000000    0.00000000    0.00000000
     atom    3 type  1   force =     0.00000000    0.00000000    0.00000000
     atom    4 type  1   force =     0.00000000    0.00000000    0.00000000
     atom    5 type  1   force =     0.00000000    0.00000000    0.00000000
     atom    6 type  1   force =     0.00000000    0.00000000    0.00000000
     atom    7 type  1   force =     0.00000000    0.00000000    0.00000000
     atom    8 type  1   force =     0.00000000    0.00000000    0.00000000
     atom    9 type  1   force =     0.00000000    0.00000000    0.00000000
     atom   10 type  1   force =     0.00000000    0.00000000    0.00000000
     atom   11 type  1   force =     0.00000000    0.00000000    0.00000000
     atom   12 type  1   force =     0.00000000    0.00000000    0.00000000
     atom   13 type  1   force =     0.00000000    0.00000000    0.00000000
     atom   14 type  1   force =     0.00000000    0.00000000    0.00000000
     atom   15 type  1   force =     0.00000000    0.00000000    0.00000000
     atom   16 type  1   force =     0.00000000    0.00000000    0.00000000
     atom   17 type  1   force =     0.00000000    0.00000000    0.00000000
     atom   18 type  1   force =     0.00000000    0.00000000    0.00000000
     atom   19 type  1   force =     0.00000000    0.00000000    0.00000000
     atom   20 type  1   force =     0.00000000    0.00000000    0.00000000
     atom   21 type  1   force =     0.00000000    0.00000000    0.00000000
     atom   22 type  1   force =     0.00000000    0.00000000    0.00000000
     atom   23 type  1   force =     0.00000000    0.00000000    0.00000000
     atom   24 type  1   force =     0.00000000    0.00000000    0.00000000
     atom   25 type  1   force =     0.00000000    0.00000000    0.00000000
     atom   26 type  1   force =     0.00000000    0.00000000    0.00000000
     atom   27 type  1   force =     0.00000000    0.00000000    0.00000000
     atom   28 type  1   force =     0.00000000    0.00000000    0.00000000
     atom   29 type  1   force =     0.00000000    0.00000000    0.00000000
     atom   30 type  1   force =     0.00000000    0.00000000    0.00000000
     atom   31 type  1   force =     0.00000000    0.00000000    0.00000000
     atom   32 type  1   force =     0.00000000    0.00000000    0.00000000
     atom   33 type  1   force =     0.00000000    0.00000000    0.00000000
     atom   34 type  1   force =     0.00000000    0.00000000    0.00000000
     atom   35 type  1   force =     0.00000000    0.00000000    0.00000000
     atom   36 type  1   force =     0.00000000    0.00000000    0.00000000
     atom   37 type  2   force =     0.00000000    0.00000000    0.00000000
     atom   38 type  3   force =     0.00000000    0.00000000    0.00000000
     atom   39 type  4   force =     0.00000000    0.00000000    0.00000000
     The SCF correction term to forces
     atom    1 type  1   force =     0.00000000   -0.00000000   -0.00000000
     atom    2 type  1   force =    -0.00000000   -0.00000000   -0.00000000
     atom    3 type  1   force =    -0.00000000   -0.00000000   -0.00000000
     atom    4 type  1   force =     0.00000000   -0.00000000   -0.00000000
     atom    5 type  1   force =    -0.00000000   -0.00000000   -0.00000000
     atom    6 type  1   force =     0.00000000    0.00000000   -0.00000000
     atom    7 type  1   force =    -0.00000000    0.00000000   -0.00000000
     atom    8 type  1   force =     0.00000000    0.00000000   -0.00000000
     atom    9 type  1   force =    -0.00000000    0.00000000   -0.00000000
     atom   10 type  1   force =     0.00000000   -0.00000000   -0.00000000
     atom   11 type  1   force =    -0.00000000   -0.00000000   -0.00000000
     atom   12 type  1   force =    -0.00000000   -0.00000000   -0.00000000
     atom   13 type  1   force =     0.00000000   -0.00000000   -0.00000000
     atom   14 type  1   force =    -0.00000000   -0.00000000   -0.00000000
     atom   15 type  1   force =     0.00000000    0.00000000   -0.00000000
     atom   16 type  1   force =     0.00000000    0.00000000   -0.00000000
     atom   17 type  1   force =     0.00000000    0.00000000   -0.00000000
     atom   18 type  1   force =    -0.00000000    0.00000000   -0.00000000
     atom   19 type  1   force =     0.00000000   -0.00000000    0.00000000
     atom   20 type  1   force =    -0.00000000   -0.00000000    0.00000000
     atom   21 type  1   force =     0.00000000    0.00000000    0.00000000
     atom   22 type  1   force =    -0.00000000   -0.00000000    0.00000000
     atom   23 type  1   force =     0.00000000    0.00000000    0.00000000
     atom   24 type  1   force =    -0.00000000    0.00000000    0.00000000
     atom   25 type  1   force =     0.00000000    0.00000000    0.00000000
     atom   26 type  1   force =     0.00000000    0.00000000   -0.00000000
     atom   27 type  1   force =    -0.00000000   -0.00000000   -0.00000000
     atom   28 type  1   force =    -0.00000000    0.00000000    0.00000000
     atom   29 type  1   force =    -0.00000000    0.00000000    0.00000000
     atom   30 type  1   force =     0.00000000    0.00000000    0.00000000
     atom   31 type  1   force =    -0.00000000   -0.00000000    0.00000000
     atom   32 type  1   force =    -0.00000000   -0.00000000    0.00000000
     atom   33 type  1   force =     0.00000000   -0.00000000    0.00000000
     atom   34 type  1   force =     0.00000000   -0.00000000    0.00000000
     atom   35 type  1   force =    -0.00000000   -0.00000000    0.00000000
     atom   36 type  1   force =    -0.00000000   -0.00000000    0.00000000
     atom   37 type  2   force =    -0.00000348    0.00000818    0.00001543
     atom   38 type  3   force =     0.00000077    0.00000527    0.00001049
     atom   39 type  4   force =     0.00000089    0.00000245    0.00000667

     Total force =     0.007803     Total SCF correction =     0.000023

     Writing all to output data dir ./pwscf.save/

     init_run     :     15.47s CPU     15.92s WALL (       1 calls)
     electrons    :    899.07s CPU    915.36s WALL (       1 calls)
     forces       :      4.42s CPU      8.34s WALL (       1 calls)

     Called by init_run:
     wfcinit      :      8.08s CPU      8.39s WALL (       1 calls)
     potinit      :      5.91s CPU      6.01s WALL (       1 calls)
     hinit0       :      1.01s CPU      1.03s WALL (       1 calls)

     Called by electrons:
     c_bands      :    745.05s CPU    758.84s WALL (      51 calls)
     sum_band     :    100.59s CPU    101.93s WALL (      51 calls)
     v_of_rho     :     13.42s CPU     13.90s WALL (      52 calls)
     newd         :      3.06s CPU      3.12s WALL (      52 calls)
     PAW_pot      :     13.02s CPU     13.17s WALL (      52 calls)
     mix_rho      :     25.41s CPU     25.71s WALL (      51 calls)
     vdW_kernel   :      1.09s CPU      1.10s WALL (       1 calls)

     Called by c_bands:
     init_us_2    :      8.73s CPU      8.88s WALL (    2704 calls)
     init_us_2:cp :      8.72s CPU      8.88s WALL (    2704 calls)
     cegterg      :    719.85s CPU    732.96s WALL (    1326 calls)

     Called by *egterg:
     cdiaghg      :    204.16s CPU    207.80s WALL (    4705 calls)
     h_psi        :    343.81s CPU    351.00s WALL (    4731 calls)
     s_psi        :     37.12s CPU     37.61s WALL (    4731 calls)
     g_psi        :      0.92s CPU      0.94s WALL (    3379 calls)

     Called by h_psi:
     h_psi:calbec :     55.89s CPU     56.95s WALL (    4731 calls)
     vloc_psi     :    247.71s CPU    252.86s WALL (    4731 calls)
     add_vuspsi   :     37.89s CPU     38.83s WALL (    4731 calls)

     General routines
     calbec       :     83.62s CPU     87.05s WALL (    6161 calls)
     fft          :     13.24s CPU     13.82s WALL (    4705 calls)
     ffts         :     17.12s CPU     17.33s WALL (   20700 calls)
     fftw         :    291.21s CPU    296.87s WALL ( 1376214 calls)
     interpolate  :      4.37s CPU      4.46s WALL (     104 calls)

     Parallel routines

     PWSCF        :  15m24.15s CPU  15m50.19s WALL


   This run was terminated on:   9:40:16  14Dec2025            

=------------------------------------------------------------------------------=
   JOB DONE.
=------------------------------------------------------------------------------=
