
     Program PWSCF v.7.1 starts on 20Nov2025 at 14:48:40 
        Git branch: heads/qe-7.1
        Last git commit: 48ba0178f8fede6d020eb786884699a9f063f55d-dirty
        Last git commit date: Fri Jan 27 14:22:33 2023 +0000
        Last git commit subject: Merge branch 'fix_hubbard' into 'develop'

     This program is part of the open-source Quantum ESPRESSO suite
     for quantum simulation of materials; please cite
         "P. Giannozzi et al., J. Phys.:Condens. Matter 21 395502 (2009);
         "P. Giannozzi et al., J. Phys.:Condens. Matter 29 465901 (2017);
         "P. Giannozzi et al., J. Chem. Phys. 152 154105 (2020);
          URL http://www.quantum-espresso.org", 
     in publications or presentations arising from this work. More details at
     http://www.quantum-espresso.org/quote

     Parallel version (MPI), running on    96 processors

     MPI processes distributed on     2 nodes
     86750 MiB available memory on the printing compute node when the environment starts

     Reading input from espresso.pwi
Warning: card &CELL ignored
Warning: card / ignored
Warning: card &FCP ignored
Warning: card / ignored
Warning: card &RISM ignored
Warning: card / ignored

     Current dimensions of program PWSCF are:
     Max number of different atomic species (ntypx) = 10
     Max number of k-points (npk) =  40000
     Max angular momentum in pseudopotentials (lmaxx) =  4
     file Co.pbe-n-kjpaw_psl.1.0.0.UPF: wavefunction(s)  4S 3D renormalized
     file C.pbe-n-kjpaw_psl.1.0.0.UPF: wavefunction(s)  2S 2P renormalized
     file O.pbe-nl-kjpaw_psl.1.0.0.UPF: wavefunction(s)  2S 2P renormalized
     file H.pbe-kjpaw_psl.1.0.0.UPF: wavefunction(s)  1S renormalized

     **************************************************************************
     Initializing libbeef V0.1.2 with the BEEF-vdW functional.
     Citation: Wellendorff et al., PRB 85, 235149 (2012).
     **************************************************************************


     IMPORTANT: XC functional enforced from input :
     Exchange-correlation= BEEF-VDW
                           (   1   4  43  14   2   0   0)
     Any further DFT definition will be discarded
     Please, verify this is what you really want


     R & G space division:  proc/nbgrp/npool/nimage =      96
     Subspace diagonalization in iterative solution of the eigenvalue problem:
     one sub-group per band group will be used
     custom distributed-memory algorithm (size of sub-group:  2*  2 procs)


     Parallelization info
     --------------------
     sticks:   dense  smooth     PW     G-vecs:    dense   smooth      PW
     Min          43      23      6                 7829     3049     440
     Max          44      24      7                 7845     3068     465
     Sum        4153    2221    613               752179   293251   42993

     Using Slab Decomposition



     bravais-lattice index     =            0
     lattice parameter (alat)  =      14.1729  a.u.
     unit-cell volume          =    8574.3059 (a.u.)^3
     number of atoms/cell      =           39
     number of atomic types    =            4
     number of electrons       =       335.00
     number of Kohn-Sham states=          202
     kinetic-energy cutoff     =      40.0000  Ry
     charge density cutoff     =     300.0000  Ry
     scf convergence threshold =      1.0E-06
     mixing beta               =       0.7000
     number of iterations used =            8  local-TF  mixing
     Exchange-correlation= BEEF-VDW
                           (   1   4  43  14   2   0   0)

     celldm(1)=  14.172946  celldm(2)=   0.000000  celldm(3)=   0.000000
     celldm(4)=   0.000000  celldm(5)=   0.000000  celldm(6)=   0.000000

     crystal axes: (cart. coord. in units of alat)
               a(1) = (   1.000000   0.000000   0.000000 )  
               a(2) = (   0.500000   0.866025   0.000000 )  
               a(3) = (   0.000000   0.000000   3.477667 )  

     reciprocal axes: (cart. coord. in units 2 pi/alat)
               b(1) = (  1.000000 -0.577350  0.000000 )  
               b(2) = (  0.000000  1.154701  0.000000 )  
               b(3) = (  0.000000  0.000000  0.287549 )  


     PseudoPot. # 1 for Co read from file:
     /users/kbadger1/espresso/pseudo/pslibrary.1.0.0/pbe/PSEUDOPOTENTIALS/Co.pbe-n-kjpaw_psl.1.0.0.UPF
     MD5 check sum: 88af6ec42553d4236c267fdfcb472151
     Pseudo is Projector augmented-wave + core cor, Zval =  9.0
     Generated using 'atomic' code by A. Dal Corso  v.7.0
     Shape of augmentation charge: PSQ
     Using radial grid of 1193 points,  6 beta functions with: 
                l(1) =   0
                l(2) =   0
                l(3) =   1
                l(4) =   1
                l(5) =   2
                l(6) =   2
     Q(r) pseudized with 0 coefficients 


     PseudoPot. # 2 for C  read from file:
     /users/kbadger1/espresso/pseudo/pslibrary.1.0.0/pbe/PSEUDOPOTENTIALS/C.pbe-n-kjpaw_psl.1.0.0.UPF
     MD5 check sum: 6408e75cdba28732cea38a4db8498ce4
     Pseudo is Projector augmented-wave + core cor, Zval =  4.0
     Generated using 'atomic' code by A. Dal Corso  v.7.0
     Shape of augmentation charge: PSQ
     Using radial grid of 1073 points,  4 beta functions with: 
                l(1) =   0
                l(2) =   0
                l(3) =   1
                l(4) =   1
     Q(r) pseudized with 0 coefficients 


     PseudoPot. # 3 for O  read from file:
     /users/kbadger1/espresso/pseudo/pslibrary.1.0.0/pbe/PSEUDOPOTENTIALS/O.pbe-nl-kjpaw_psl.1.0.0.UPF
     MD5 check sum: f0439fab3598ca4e468f064226030408
     Pseudo is Projector augmented-wave + core cor, Zval =  6.0
     Generated using 'atomic' code by A. Dal Corso  v.7.0
     Shape of augmentation charge: PSQ
     Using radial grid of 1095 points,  4 beta functions with: 
                l(1) =   0
                l(2) =   0
                l(3) =   1
                l(4) =   1
     Q(r) pseudized with 0 coefficients 


     PseudoPot. # 4 for H  read from file:
     /users/kbadger1/espresso/pseudo/pslibrary.1.0.0/pbe/PSEUDOPOTENTIALS/H.pbe-kjpaw_psl.1.0.0.UPF
     MD5 check sum: fe4c6fa958fa6d3815bf5d2419cbf1df
     Pseudo is Projector augmented-wave, Zval =  1.0
     Generated using 'atomic' code by A. Dal Corso  v.7.0
     Shape of augmentation charge: PSQ
     Using radial grid of  929 points,  2 beta functions with: 
                l(1) =   0
                l(2) =   0
     Q(r) pseudized with 0 coefficients 


     atomic species   valence    mass     pseudopotential
        Co             9.00    58.93319     Co( 1.00)
        C              4.00    12.00000     C ( 1.00)
        O              6.00    15.99491     O ( 1.00)
        H              1.00     1.00783     H ( 1.00)

     Starting magnetic structure 
     atomic species   magnetization
        Co           1.000
        C            1.000
        O            0.000
        H            0.000

     No symmetry found



   Cartesian axes

     site n.     atom                  positions (alat units)
         1           Co  tau(   1) = (   0.0000000   0.1924501   1.3333333  )
         2           Co  tau(   2) = (   0.3333333   0.1924501   1.3333333  )
         3           Co  tau(   3) = (   0.6666667   0.1924501   1.3333333  )
         4           Co  tau(   4) = (   0.1666667   0.4811252   1.3333333  )
         5           Co  tau(   5) = (   0.5000000   0.4811252   1.3333333  )
         6           Co  tau(   6) = (   0.8333333   0.4811252   1.3333333  )
         7           Co  tau(   7) = (   0.3333333   0.7698004   1.3333333  )
         8           Co  tau(   8) = (   0.6666667   0.7698004   1.3333333  )
         9           Co  tau(   9) = (   1.0000000   0.7698004   1.3333333  )
        10           Co  tau(  10) = (   0.0000000   0.0000000   1.6036667  )
        11           Co  tau(  11) = (   0.3333333   0.0000000   1.6036667  )
        12           Co  tau(  12) = (   0.6666667   0.0000000   1.6036667  )
        13           Co  tau(  13) = (   0.1666667   0.2886751   1.6036667  )
        14           Co  tau(  14) = (   0.5000000   0.2886751   1.6036667  )
        15           Co  tau(  15) = (   0.8333333   0.2886751   1.6036667  )
        16           Co  tau(  16) = (   0.3333333   0.5773503   1.6036667  )
        17           Co  tau(  17) = (   0.6666667   0.5773503   1.6036667  )
        18           Co  tau(  18) = (   1.0000000   0.5773503   1.6036667  )
        19           Co  tau(  19) = (   0.0000000   0.1924501   1.8740000  )
        20           Co  tau(  20) = (   0.3333333   0.1924501   1.8740000  )
        21           Co  tau(  21) = (   0.6666667   0.1924501   1.8740000  )
        22           Co  tau(  22) = (   0.1666667   0.4811252   1.8740000  )
        23           Co  tau(  23) = (   0.5000000   0.4811252   1.8740000  )
        24           Co  tau(  24) = (   0.8333333   0.4811252   1.8740000  )
        25           Co  tau(  25) = (   0.3333333   0.7698004   1.8740000  )
        26           Co  tau(  26) = (   0.6666667   0.7698004   1.8740000  )
        27           Co  tau(  27) = (   1.0000000   0.7698004   1.8740000  )
        28           Co  tau(  28) = (   0.0000000   0.0000000   2.1443333  )
        29           Co  tau(  29) = (   0.3333333   0.0000000   2.1443333  )
        30           Co  tau(  30) = (   0.6666667   0.0000000   2.1443333  )
        31           Co  tau(  31) = (   0.1666667   0.2886751   2.1443333  )
        32           Co  tau(  32) = (   0.5000000   0.2886751   2.1443333  )
        33           Co  tau(  33) = (   0.8333333   0.2886751   2.1443333  )
        34           Co  tau(  34) = (   0.3333333   0.5773503   2.1443333  )
        35           Co  tau(  35) = (   0.6666667   0.5773503   2.1443333  )
        36           Co  tau(  36) = (   1.0000000   0.5773503   2.1443333  )
        37           C   tau(  37) = (   0.3730627   0.2151356   2.3471359  )
        38           O   tau(  38) = (   0.2345240   0.1446738   2.4137649  )
        39           H   tau(  39) = (   0.4780459   0.2689206   2.4396668  )

     number of k points=    13  Marzari-Vanderbilt smearing, width (Ry)=  0.0010
                       cart. coord. in units 2pi/alat
        k(    1) = (   0.0000000   0.0000000   0.0000000), wk =   0.0400000
        k(    2) = (   0.0000000   0.2309401   0.0000000), wk =   0.0800000
        k(    3) = (   0.0000000   0.4618802   0.0000000), wk =   0.0800000
        k(    4) = (   0.2000000  -0.1154701   0.0000000), wk =   0.0800000
        k(    5) = (   0.2000000   0.1154701   0.0000000), wk =   0.0800000
        k(    6) = (   0.2000000   0.3464102   0.0000000), wk =   0.0800000
        k(    7) = (   0.2000000  -0.5773503   0.0000000), wk =   0.0800000
        k(    8) = (   0.2000000  -0.3464102   0.0000000), wk =   0.0800000
        k(    9) = (   0.4000000  -0.2309401   0.0000000), wk =   0.0800000
        k(   10) = (   0.4000000   0.0000000   0.0000000), wk =   0.0800000
        k(   11) = (   0.4000000   0.2309401   0.0000000), wk =   0.0800000
        k(   12) = (   0.4000000  -0.6928203   0.0000000), wk =   0.0800000
        k(   13) = (   0.4000000  -0.4618802   0.0000000), wk =   0.0800000

     Dense  grid:   752179 G-vectors     FFT dimensions: (  80,  80, 288)

     Smooth grid:   293251 G-vectors     FFT dimensions: (  60,  60, 200)

     Estimated max dynamical RAM per process >      84.82 MB

     Estimated total dynamical RAM >       7.95 GB
     Generating pointlists ...
     new r_m :   0.1032 (alat units)  1.4633 (a.u.) for type    1
     new r_m :   0.0618 (alat units)  0.8765 (a.u.) for type    2
     new r_m :   0.0698 (alat units)  0.9887 (a.u.) for type    3
     new r_m :   0.0618 (alat units)  0.8765 (a.u.) for type    4

     Initial potential from superposition of free atoms

     starting charge     334.9897, renormalised to     335.0000

     negative rho (up, down):  3.039E-03 4.716E-04


     %%%%%%%%%%%%%%%%%%%%%%%%%%%%%%%%%%%%%%%%%%%%%%%%%%%%%%%%%%%%%%%%%%%%%%%%
     %                                                                      %
     % You are using vdW-DF, which was implemented by the Thonhauser group. %
     % Please cite the following two papers that made this development      %
     % possible and the two reviews that describe the various versions:     %
     %                                                                      %
     %   T. Thonhauser et al., PRL 115, 136402 (2015).                      %
     %   T. Thonhauser et al., PRB 76, 125112 (2007).                       %
     %   K. Berland et al., Rep. Prog. Phys. 78, 066501 (2015).             %
     %   D.C. Langreth et al., J. Phys.: Condens. Matter 21, 084203 (2009). %
     %                                                                      %
     % If you are calculating stress with vdW-DF, please also cite:         %
     %                                                                      %
     %   R. Sabatini et al., J. Phys.: Condens. Matter 24, 424209 (2012).   %
     %   C.M. Frostenson et al., Electr. Struct. 4, 014001 (2022).          %
     %                                                                      %
     %%%%%%%%%%%%%%%%%%%%%%%%%%%%%%%%%%%%%%%%%%%%%%%%%%%%%%%%%%%%%%%%%%%%%%%%

     %%%%%%%%%%%%%%%%%%%%%%%%%%%%%%%%%%%%%%%%%%%%%%%%%%%%%%%%%%%%%%%%%%%%%%%%
     %                                                                      %
     %  vdW-DF NEWS:                                                        %
     %                                                                      %
     %  * vdW-DF3 is now available. DOI: 10.1021/acs.jctc.0c00471           %
     %    use with input_dft = 'vdW-DF3-opt1' or 'vdW-DF3-opt2'             %
     %                                                                      %
     %  * Unscreened and range-separated hybrid vdW-DF-cx functionals       %
     %    DOI: 10.1063/1.4986522 and 10.1088/1361-648X/ac2ad2               %
     %    use with input_dft = 'vdW-DF-cx0'    and 'vdW-DF-ahcx'            %
     %  * Unscreened and range-separated hybrid vdW-DF2-b86r functionals    %
     %    DOI: 10.1063/1.4986522 and DOI: 10.1103/PhysRevX.12.041003        %
     %    use with input_dft = 'vdW-DF2-br0' and 'vdW-DF2-ahbr'             %
     %                                                                      %
     %%%%%%%%%%%%%%%%%%%%%%%%%%%%%%%%%%%%%%%%%%%%%%%%%%%%%%%%%%%%%%%%%%%%%%%%


     Starting wfcs are  333 randomized atomic wfcs
     Checking if some PAW data can be deallocated... 

     total cpu time spent up to now is       11.2 secs

     per-process dynamical memory:   212.0 Mb

     Self-consistent Calculation

     iteration #  1     ecut=    40.00 Ry     beta= 0.70
     Davidson diagonalization with overlap
     ethr =  1.00E-02,  avg # of iterations =  2.0

     negative rho (up, down):  4.976E-05 8.547E-07

     total cpu time spent up to now is       26.6 secs

     total energy              =   -6052.97764783 Ry
     estimated scf accuracy    <      39.71576914 Ry

     total magnetization       =    69.00 Bohr mag/cell
     absolute magnetization    =    81.28 Bohr mag/cell

     iteration #  2     ecut=    40.00 Ry     beta= 0.70
     Davidson diagonalization with overlap
     ethr =  1.00E-02,  avg # of iterations =  1.0

     negative rho (up, down):  2.006E-05 5.467E-07

     total cpu time spent up to now is       38.3 secs

     total energy              =   -6052.44230957 Ry
     estimated scf accuracy    <      24.51477575 Ry

     total magnetization       =    68.67 Bohr mag/cell
     absolute magnetization    =    76.76 Bohr mag/cell

     iteration #  3     ecut=    40.00 Ry     beta= 0.70
     Davidson diagonalization with overlap
     ethr =  7.32E-03,  avg # of iterations =  1.0

     negative rho (up, down):  1.064E-06 1.517E-06

     total cpu time spent up to now is       50.6 secs

     total energy              =   -6055.03847717 Ry
     estimated scf accuracy    <      86.05156579 Ry

     total magnetization       =    65.98 Bohr mag/cell
     absolute magnetization    =    73.15 Bohr mag/cell

     iteration #  4     ecut=    40.00 Ry     beta= 0.70
     Davidson diagonalization with overlap
     ethr =  7.32E-03,  avg # of iterations =  1.0

     negative rho (up, down):  8.025E-07 2.923E-07

     total cpu time spent up to now is       62.3 secs

     total energy              =   -6056.19522080 Ry
     estimated scf accuracy    <       5.76458573 Ry

     total magnetization       =    60.69 Bohr mag/cell
     absolute magnetization    =    70.55 Bohr mag/cell

     iteration #  5     ecut=    40.00 Ry     beta= 0.70
     Davidson diagonalization with overlap
     ethr =  1.72E-03,  avg # of iterations =  1.4

     negative rho (up, down):  7.919E-07 3.726E-07

     total cpu time spent up to now is       74.5 secs

     total energy              =   -6056.24999274 Ry
     estimated scf accuracy    <       1.90038545 Ry

     total magnetization       =    60.48 Bohr mag/cell
     absolute magnetization    =    69.80 Bohr mag/cell

     iteration #  6     ecut=    40.00 Ry     beta= 0.70
     Davidson diagonalization with overlap
     ethr =  5.67E-04,  avg # of iterations =  1.7

     negative rho (up, down):  7.891E-07 4.161E-07

     total cpu time spent up to now is       87.4 secs

     total energy              =   -6056.35635564 Ry
     estimated scf accuracy    <       0.65328504 Ry

     total magnetization       =    60.21 Bohr mag/cell
     absolute magnetization    =    69.46 Bohr mag/cell

     iteration #  7     ecut=    40.00 Ry     beta= 0.70
     Davidson diagonalization with overlap
     ethr =  1.95E-04,  avg # of iterations =  4.0

     negative rho (up, down):  7.676E-07 4.381E-07

     total cpu time spent up to now is      101.5 secs

     total energy              =   -6056.38950407 Ry
     estimated scf accuracy    <       0.71049358 Ry

     total magnetization       =    60.20 Bohr mag/cell
     absolute magnetization    =    69.16 Bohr mag/cell

     iteration #  8     ecut=    40.00 Ry     beta= 0.70
     Davidson diagonalization with overlap
     ethr =  1.95E-04,  avg # of iterations =  1.7

     negative rho (up, down):  1.314E-07 7.054E-08

     total cpu time spent up to now is      114.4 secs

     total energy              =   -6056.38958887 Ry
     estimated scf accuracy    <       0.14634936 Ry

     total magnetization       =    60.57 Bohr mag/cell
     absolute magnetization    =    69.27 Bohr mag/cell

     iteration #  9     ecut=    40.00 Ry     beta= 0.70
     Davidson diagonalization with overlap
     c_bands:  1 eigenvalues not converged
     ethr =  4.37E-05,  avg # of iterations = 13.0

     negative rho (up, down):  1.663E-07 1.088E-07

     total cpu time spent up to now is      143.5 secs

     total energy              =   -6056.42133150 Ry
     estimated scf accuracy    <       0.23644285 Ry

     total magnetization       =    61.24 Bohr mag/cell
     absolute magnetization    =    69.14 Bohr mag/cell

     iteration # 10     ecut=    40.00 Ry     beta= 0.70
     Davidson diagonalization with overlap
     ethr =  4.37E-05,  avg # of iterations =  1.2

     negative rho (up, down):  9.635E-08 6.933E-08

     total cpu time spent up to now is      154.7 secs

     total energy              =   -6056.42539624 Ry
     estimated scf accuracy    <       0.18214691 Ry

     total magnetization       =    61.24 Bohr mag/cell
     absolute magnetization    =    69.06 Bohr mag/cell

     iteration # 11     ecut=    40.00 Ry     beta= 0.70
     Davidson diagonalization with overlap
     ethr =  4.37E-05,  avg # of iterations =  1.0

     total cpu time spent up to now is      166.8 secs

     total energy              =   -6056.41814961 Ry
     estimated scf accuracy    <       0.09877154 Ry

     total magnetization       =    61.24 Bohr mag/cell
     absolute magnetization    =    68.95 Bohr mag/cell

     iteration # 12     ecut=    40.00 Ry     beta= 0.70
     Davidson diagonalization with overlap
     ethr =  2.95E-05,  avg # of iterations =  2.0

     negative rho (up, down):  4.151E-06 2.301E-07

     total cpu time spent up to now is      179.6 secs

     total energy              =   -6056.41980283 Ry
     estimated scf accuracy    <       0.10315625 Ry

     total magnetization       =    61.26 Bohr mag/cell
     absolute magnetization    =    68.74 Bohr mag/cell

     iteration # 13     ecut=    40.00 Ry     beta= 0.70
     Davidson diagonalization with overlap
     ethr =  2.95E-05,  avg # of iterations =  1.5

     negative rho (up, down):  1.161E-08 4.961E-09

     total cpu time spent up to now is      191.3 secs

     total energy              =   -6056.41758798 Ry
     estimated scf accuracy    <       0.09906686 Ry

     total magnetization       =    61.25 Bohr mag/cell
     absolute magnetization    =    68.67 Bohr mag/cell

     iteration # 14     ecut=    40.00 Ry     beta= 0.70
     Davidson diagonalization with overlap
     ethr =  2.95E-05,  avg # of iterations =  1.3

     negative rho (up, down):  8.368E-07 6.365E-08

     total cpu time spent up to now is      203.6 secs

     total energy              =   -6056.41668708 Ry
     estimated scf accuracy    <       0.08092101 Ry

     total magnetization       =    61.24 Bohr mag/cell
     absolute magnetization    =    68.72 Bohr mag/cell

     iteration # 15     ecut=    40.00 Ry     beta= 0.70
     Davidson diagonalization with overlap
     ethr =  2.42E-05,  avg # of iterations =  1.1

     negative rho (up, down):  1.510E-04 1.622E-05

     total cpu time spent up to now is      214.7 secs

     total energy              =   -6056.41434897 Ry
     estimated scf accuracy    <       0.08306434 Ry

     total magnetization       =    61.24 Bohr mag/cell
     absolute magnetization    =    68.70 Bohr mag/cell

     iteration # 16     ecut=    40.00 Ry     beta= 0.70
     Davidson diagonalization with overlap
     ethr =  2.42E-05,  avg # of iterations =  1.0

     negative rho (up, down):  4.537E-03 3.245E-03

     total cpu time spent up to now is      226.7 secs

     total energy              =   -6056.41134521 Ry
     estimated scf accuracy    <       0.05717236 Ry

     total magnetization       =    61.24 Bohr mag/cell
     absolute magnetization    =    68.71 Bohr mag/cell

     iteration # 17     ecut=    40.00 Ry     beta= 0.70
     Davidson diagonalization with overlap
     ethr =  1.71E-05,  avg # of iterations =  2.3

     negative rho (up, down):  1.370E-02 1.182E-02

     total cpu time spent up to now is      239.5 secs

     total energy              =   -6056.40969362 Ry
     estimated scf accuracy    <       0.03538791 Ry

     total magnetization       =    61.24 Bohr mag/cell
     absolute magnetization    =    68.74 Bohr mag/cell

     iteration # 18     ecut=    40.00 Ry     beta= 0.70
     Davidson diagonalization with overlap
     ethr =  1.06E-05,  avg # of iterations =  1.3

     negative rho (up, down):  3.753E-03 2.680E-03

     total cpu time spent up to now is      251.1 secs

     total energy              =   -6056.41078258 Ry
     estimated scf accuracy    <       0.06358527 Ry

     total magnetization       =    61.24 Bohr mag/cell
     absolute magnetization    =    68.69 Bohr mag/cell

     iteration # 19     ecut=    40.00 Ry     beta= 0.70
     Davidson diagonalization with overlap
     ethr =  1.06E-05,  avg # of iterations =  1.0

     negative rho (up, down):  4.918E-03 3.948E-03

     total cpu time spent up to now is      263.0 secs

     total energy              =   -6056.41046663 Ry
     estimated scf accuracy    <       0.03305392 Ry

     total magnetization       =    61.24 Bohr mag/cell
     absolute magnetization    =    68.70 Bohr mag/cell

     iteration # 20     ecut=    40.00 Ry     beta= 0.70
     Davidson diagonalization with overlap
     ethr =  9.87E-06,  avg # of iterations =  1.0

     negative rho (up, down):  9.274E-03 8.213E-03

     total cpu time spent up to now is      274.1 secs

     total energy              =   -6056.40936533 Ry
     estimated scf accuracy    <       0.03742372 Ry

     total magnetization       =    61.24 Bohr mag/cell
     absolute magnetization    =    68.69 Bohr mag/cell

     iteration # 21     ecut=    40.00 Ry     beta= 0.70
     Davidson diagonalization with overlap
     ethr =  9.87E-06,  avg # of iterations =  1.0

     negative rho (up, down):  7.927E-03 6.970E-03

     total cpu time spent up to now is      286.1 secs

     total energy              =   -6056.40973743 Ry
     estimated scf accuracy    <       0.02189105 Ry

     total magnetization       =    61.24 Bohr mag/cell
     absolute magnetization    =    68.69 Bohr mag/cell

     iteration # 22     ecut=    40.00 Ry     beta= 0.70
     Davidson diagonalization with overlap
     ethr =  6.53E-06,  avg # of iterations =  1.1

     negative rho (up, down):  2.525E-02 2.438E-02

     total cpu time spent up to now is      297.9 secs

     total energy              =   -6056.40932332 Ry
     estimated scf accuracy    <       0.01308985 Ry

     total magnetization       =    61.24 Bohr mag/cell
     absolute magnetization    =    68.70 Bohr mag/cell

     iteration # 23     ecut=    40.00 Ry     beta= 0.70
     Davidson diagonalization with overlap
     ethr =  3.91E-06,  avg # of iterations =  1.7

     negative rho (up, down):  1.258E-02 1.190E-02

     total cpu time spent up to now is      309.8 secs

     total energy              =   -6056.40881218 Ry
     estimated scf accuracy    <       0.00377852 Ry

     total magnetization       =    61.24 Bohr mag/cell
     absolute magnetization    =    68.70 Bohr mag/cell

     iteration # 24     ecut=    40.00 Ry     beta= 0.70
     Davidson diagonalization with overlap
     c_bands:  3 eigenvalues not converged
     ethr =  1.13E-06,  avg # of iterations =  3.5

     negative rho (up, down):  1.222E-02 1.151E-02

     total cpu time spent up to now is      324.1 secs

     total energy              =   -6056.40859709 Ry
     estimated scf accuracy    <       0.01820750 Ry

     total magnetization       =    61.24 Bohr mag/cell
     absolute magnetization    =    68.72 Bohr mag/cell

     iteration # 25     ecut=    40.00 Ry     beta= 0.70
     Davidson diagonalization with overlap
     ethr =  1.13E-06,  avg # of iterations =  1.5

     negative rho (up, down):  1.293E-02 1.225E-02

     total cpu time spent up to now is      335.7 secs

     total energy              =   -6056.40928345 Ry
     estimated scf accuracy    <       0.00417907 Ry

     total magnetization       =    61.24 Bohr mag/cell
     absolute magnetization    =    68.72 Bohr mag/cell

     iteration # 26     ecut=    40.00 Ry     beta= 0.70
     Davidson diagonalization with overlap
     ethr =  1.13E-06,  avg # of iterations =  1.7

     negative rho (up, down):  1.369E-02 1.310E-02

     total cpu time spent up to now is      348.6 secs

     total energy              =   -6056.40958256 Ry
     estimated scf accuracy    <       0.00272506 Ry

     total magnetization       =    61.24 Bohr mag/cell
     absolute magnetization    =    68.72 Bohr mag/cell

     iteration # 27     ecut=    40.00 Ry     beta= 0.70
     Davidson diagonalization with overlap
     ethr =  8.13E-07,  avg # of iterations =  1.2

     negative rho (up, down):  8.533E-03 7.922E-03

     total cpu time spent up to now is      360.4 secs

     total energy              =   -6056.40958587 Ry
     estimated scf accuracy    <       0.00090819 Ry

     total magnetization       =    61.24 Bohr mag/cell
     absolute magnetization    =    68.73 Bohr mag/cell

     iteration # 28     ecut=    40.00 Ry     beta= 0.70
     Davidson diagonalization with overlap
     ethr =  2.71E-07,  avg # of iterations =  2.7

     negative rho (up, down):  6.844E-03 6.191E-03

     total cpu time spent up to now is      373.2 secs

     total energy              =   -6056.40965228 Ry
     estimated scf accuracy    <       0.00078040 Ry

     total magnetization       =    61.24 Bohr mag/cell
     absolute magnetization    =    68.73 Bohr mag/cell

     iteration # 29     ecut=    40.00 Ry     beta= 0.70
     Davidson diagonalization with overlap
     ethr =  2.33E-07,  avg # of iterations =  1.5

     negative rho (up, down):  5.806E-03 5.072E-03

     total cpu time spent up to now is      385.8 secs

     total energy              =   -6056.40969031 Ry
     estimated scf accuracy    <       0.00040713 Ry

     total magnetization       =    61.24 Bohr mag/cell
     absolute magnetization    =    68.73 Bohr mag/cell

     iteration # 30     ecut=    40.00 Ry     beta= 0.70
     Davidson diagonalization with overlap
     ethr =  1.22E-07,  avg # of iterations =  2.5

     negative rho (up, down):  4.755E-03 3.931E-03

     total cpu time spent up to now is      398.5 secs

     total energy              =   -6056.40967116 Ry
     estimated scf accuracy    <       0.00124886 Ry

     total magnetization       =    61.24 Bohr mag/cell
     absolute magnetization    =    68.73 Bohr mag/cell

     iteration # 31     ecut=    40.00 Ry     beta= 0.70
     Davidson diagonalization with overlap
     ethr =  1.22E-07,  avg # of iterations =  1.3

     negative rho (up, down):  5.013E-03 4.214E-03

     total cpu time spent up to now is      410.7 secs

     total energy              =   -6056.40970834 Ry
     estimated scf accuracy    <       0.00015990 Ry

     total magnetization       =    61.24 Bohr mag/cell
     absolute magnetization    =    68.73 Bohr mag/cell

     iteration # 32     ecut=    40.00 Ry     beta= 0.70
     Davidson diagonalization with overlap
     ethr =  4.77E-08,  avg # of iterations =  2.8

     negative rho (up, down):  3.513E-03 2.481E-03

     total cpu time spent up to now is      424.0 secs

     total energy              =   -6056.40971551 Ry
     estimated scf accuracy    <       0.00008396 Ry

     total magnetization       =    61.24 Bohr mag/cell
     absolute magnetization    =    68.73 Bohr mag/cell

     iteration # 33     ecut=    40.00 Ry     beta= 0.70
     Davidson diagonalization with overlap
     ethr =  2.51E-08,  avg # of iterations =  2.9

     negative rho (up, down):  3.133E-03 2.047E-03

     total cpu time spent up to now is      438.0 secs

     total energy              =   -6056.40971414 Ry
     estimated scf accuracy    <       0.00006093 Ry

     total magnetization       =    61.24 Bohr mag/cell
     absolute magnetization    =    68.73 Bohr mag/cell

     iteration # 34     ecut=    40.00 Ry     beta= 0.70
     Davidson diagonalization with overlap
     ethr =  1.82E-08,  avg # of iterations =  2.5

     negative rho (up, down):  3.304E-03 2.261E-03

     total cpu time spent up to now is      450.5 secs

     total energy              =   -6056.40970523 Ry
     estimated scf accuracy    <       0.00010898 Ry

     total magnetization       =    61.24 Bohr mag/cell
     absolute magnetization    =    68.73 Bohr mag/cell

     iteration # 35     ecut=    40.00 Ry     beta= 0.70
     Davidson diagonalization with overlap
     ethr =  1.82E-08,  avg # of iterations =  1.5

     negative rho (up, down):  2.683E-03 1.612E-03

     total cpu time spent up to now is      462.3 secs

     total energy              =   -6056.40971504 Ry
     estimated scf accuracy    <       0.00008249 Ry

     total magnetization       =    61.24 Bohr mag/cell
     absolute magnetization    =    68.73 Bohr mag/cell

     iteration # 36     ecut=    40.00 Ry     beta= 0.70
     Davidson diagonalization with overlap
     ethr =  1.82E-08,  avg # of iterations =  2.0

     negative rho (up, down):  2.789E-03 1.714E-03

     total cpu time spent up to now is      476.0 secs

     total energy              =   -6056.40971668 Ry
     estimated scf accuracy    <       0.00002478 Ry

     total magnetization       =    61.24 Bohr mag/cell
     absolute magnetization    =    68.73 Bohr mag/cell

     iteration # 37     ecut=    40.00 Ry     beta= 0.70
     Davidson diagonalization with overlap
     ethr =  7.40E-09,  avg # of iterations =  3.7

     negative rho (up, down):  2.694E-03 1.670E-03

     total cpu time spent up to now is      489.7 secs

     total energy              =   -6056.40971526 Ry
     estimated scf accuracy    <       0.00007436 Ry

     total magnetization       =    61.24 Bohr mag/cell
     absolute magnetization    =    68.73 Bohr mag/cell

     iteration # 38     ecut=    40.00 Ry     beta= 0.70
     Davidson diagonalization with overlap
     ethr =  7.40E-09,  avg # of iterations =  1.7

     negative rho (up, down):  2.593E-03 1.581E-03

     total cpu time spent up to now is      502.5 secs

     total energy              =   -6056.40971695 Ry
     estimated scf accuracy    <       0.00001149 Ry

     total magnetization       =    61.24 Bohr mag/cell
     absolute magnetization    =    68.73 Bohr mag/cell

     iteration # 39     ecut=    40.00 Ry     beta= 0.70
     Davidson diagonalization with overlap
     ethr =  3.43E-09,  avg # of iterations =  2.7

     negative rho (up, down):  2.593E-03 1.548E-03

     total cpu time spent up to now is      515.2 secs

     total energy              =   -6056.40971778 Ry
     estimated scf accuracy    <       0.00000951 Ry

     total magnetization       =    61.24 Bohr mag/cell
     absolute magnetization    =    68.73 Bohr mag/cell

     iteration # 40     ecut=    40.00 Ry     beta= 0.70
     Davidson diagonalization with overlap
     ethr =  2.84E-09,  avg # of iterations =  1.7

     negative rho (up, down):  2.550E-03 1.515E-03

     total cpu time spent up to now is      528.0 secs

     total energy              =   -6056.40971737 Ry
     estimated scf accuracy    <       0.00000888 Ry

     total magnetization       =    61.24 Bohr mag/cell
     absolute magnetization    =    68.73 Bohr mag/cell

     iteration # 41     ecut=    40.00 Ry     beta= 0.70
     Davidson diagonalization with overlap
     ethr =  2.65E-09,  avg # of iterations =  1.6

     negative rho (up, down):  2.484E-03 1.438E-03

     total cpu time spent up to now is      540.3 secs

     total energy              =   -6056.40971706 Ry
     estimated scf accuracy    <       0.00000264 Ry

     total magnetization       =    61.24 Bohr mag/cell
     absolute magnetization    =    68.73 Bohr mag/cell

     iteration # 42     ecut=    40.00 Ry     beta= 0.70
     Davidson diagonalization with overlap
     ethr =  7.87E-10,  avg # of iterations =  5.6

     negative rho (up, down):  2.453E-03 1.384E-03

     total cpu time spent up to now is      556.5 secs

     total energy              =   -6056.40971768 Ry
     estimated scf accuracy    <       0.00000356 Ry

     total magnetization       =    61.24 Bohr mag/cell
     absolute magnetization    =    68.73 Bohr mag/cell

     iteration # 43     ecut=    40.00 Ry     beta= 0.70
     Davidson diagonalization with overlap
     ethr =  7.87E-10,  avg # of iterations =  1.6

     negative rho (up, down):  2.406E-03 1.326E-03

     total cpu time spent up to now is      568.3 secs

     total energy              =   -6056.40971790 Ry
     estimated scf accuracy    <       0.00000135 Ry

     total magnetization       =    61.24 Bohr mag/cell
     absolute magnetization    =    68.73 Bohr mag/cell

     iteration # 44     ecut=    40.00 Ry     beta= 0.70
     Davidson diagonalization with overlap
     ethr =  4.03E-10,  avg # of iterations =  2.4

     negative rho (up, down):  2.391E-03 1.307E-03

     total cpu time spent up to now is      580.9 secs

     total energy              =   -6056.40971802 Ry
     estimated scf accuracy    <       0.00000154 Ry

     total magnetization       =    61.24 Bohr mag/cell
     absolute magnetization    =    68.73 Bohr mag/cell

     iteration # 45     ecut=    40.00 Ry     beta= 0.70
     Davidson diagonalization with overlap
     ethr =  4.03E-10,  avg # of iterations =  1.6

     negative rho (up, down):  2.356E-03 1.266E-03

     total cpu time spent up to now is      593.4 secs

     total energy              =   -6056.40971808 Ry
     estimated scf accuracy    <       0.00000281 Ry

     total magnetization       =    61.24 Bohr mag/cell
     absolute magnetization    =    68.73 Bohr mag/cell

     iteration # 46     ecut=    40.00 Ry     beta= 0.70
     Davidson diagonalization with overlap
     ethr =  4.03E-10,  avg # of iterations =  1.3

     negative rho (up, down):  2.230E-03 1.130E-03

     Magnetic moment per site  (integrated on atomic sphere of radius R)
     atom   1 (R=0.103)  charge=  6.2528  magn=  1.7695
     atom   2 (R=0.103)  charge=  6.2541  magn=  1.7597
     atom   3 (R=0.103)  charge=  6.2536  magn=  1.7649
     atom   4 (R=0.103)  charge=  6.2535  magn=  1.7655
     atom   5 (R=0.103)  charge=  6.2535  magn=  1.7652
     atom   6 (R=0.103)  charge=  6.2529  magn=  1.7725
     atom   7 (R=0.103)  charge=  6.2533  magn=  1.7731
     atom   8 (R=0.103)  charge=  6.2528  magn=  1.7693
     atom   9 (R=0.103)  charge=  6.2535  magn=  1.7660
     atom  10 (R=0.103)  charge=  6.2597  magn=  1.6911
     atom  11 (R=0.103)  charge=  6.2599  magn=  1.6967
     atom  12 (R=0.103)  charge=  6.2596  magn=  1.6951
     atom  13 (R=0.103)  charge=  6.2599  magn=  1.6972
     atom  14 (R=0.103)  charge=  6.2605  magn=  1.6854
     atom  15 (R=0.103)  charge=  6.2601  magn=  1.6979
     atom  16 (R=0.103)  charge=  6.2594  magn=  1.6952
     atom  17 (R=0.103)  charge=  6.2600  magn=  1.6971
     atom  18 (R=0.103)  charge=  6.2598  magn=  1.6922
     atom  19 (R=0.103)  charge=  6.2573  magn=  1.6996
     atom  20 (R=0.103)  charge=  6.2565  magn=  1.7296
     atom  21 (R=0.103)  charge=  6.2595  magn=  1.6865
     atom  22 (R=0.103)  charge=  6.2606  magn=  1.6880
     atom  23 (R=0.103)  charge=  6.2593  magn=  1.6868
     atom  24 (R=0.103)  charge=  6.2588  magn=  1.7022
     atom  25 (R=0.103)  charge=  6.2593  magn=  1.6984
     atom  26 (R=0.103)  charge=  6.2573  magn=  1.6992
     atom  27 (R=0.103)  charge=  6.2605  magn=  1.6909
     atom  28 (R=0.103)  charge=  6.2584  magn=  1.7877
     atom  29 (R=0.103)  charge=  6.2688  magn=  1.6557
     atom  30 (R=0.103)  charge=  6.2542  magn=  1.7709
     atom  31 (R=0.103)  charge=  6.2679  magn=  1.6620
     atom  32 (R=0.103)  charge=  6.2865  magn=  1.2111
     atom  33 (R=0.103)  charge=  6.2551  magn=  1.7570
     atom  34 (R=0.103)  charge=  6.2539  magn=  1.7729
     atom  35 (R=0.103)  charge=  6.2547  magn=  1.7571
     atom  36 (R=0.103)  charge=  6.2505  magn=  1.7951
     atom  37 (R=0.062)  charge=  0.8878  magn= -0.0212
     atom  38 (R=0.070)  charge=  3.2178  magn=  0.0296
     atom  39 (R=0.062)  charge=  0.5053  magn=  0.0077

     total cpu time spent up to now is      605.3 secs

     End of self-consistent calculation

 ------ SPIN UP ------------


          k = 0.0000 0.0000 0.0000 ( 36693 PWs)   bands (ev):

   -21.5584 -10.4506  -7.5082  -6.9386  -6.2843  -5.6917  -5.4331  -4.5984
    -4.5789  -4.5767  -4.5750  -4.5684  -4.5405  -4.5187  -4.2045  -4.0505
    -4.0425  -4.0377  -4.0294  -3.9898  -3.9868  -3.5430  -3.5217  -3.5159
    -3.5139  -3.4933  -3.4681  -3.3963  -3.3912  -3.3877  -3.3852  -3.3762
    -3.3602  -3.3145  -3.3095  -3.0153  -3.0027  -2.9978  -2.9946  -2.9863
    -2.9628  -2.9375  -2.9304  -2.9268  -2.9214  -2.9197  -2.9172  -2.7712
    -2.7706  -2.7490  -2.7276  -2.6990  -2.6915  -2.6895  -2.6777  -2.6587
    -2.6569  -2.6549  -2.6544  -2.5650  -2.5605  -2.5568  -2.5528  -2.5475
    -2.4929  -2.2838  -2.0442  -2.0212  -2.0210  -2.0159  -2.0156  -1.9329
    -1.9093  -1.8797  -1.8776  -1.8677  -1.8525  -1.8463  -1.8376  -1.8361
    -1.8308  -1.7823  -1.7822  -1.7371  -1.7332  -1.7274  -1.7150  -1.7061
    -1.7003  -1.6942  -1.6917  -1.6887  -1.6728  -1.6627  -1.6593  -1.6535
    -1.6523  -1.6460  -1.6450  -1.6404  -1.6381  -1.6362  -1.6353  -1.6310
    -1.6267  -1.5899  -1.5833  -1.5666  -1.5604  -1.4859  -1.4818  -1.4539
    -1.2757  -1.2390  -1.1914  -1.1897  -1.1833  -1.1800  -1.1735  -1.1647
    -1.1519  -1.1487  -1.1219  -1.1077  -1.1015  -0.9865  -0.9742  -0.9723
    -0.9464  -0.9384  -0.8315  -0.8038  -0.7807  -0.7742  -0.7667  -0.7443
    -0.7043  -0.6948  -0.6937  -0.6926  -0.6921  -0.6675  -0.5818  -0.5772
    -0.4626  -0.4472  -0.4462  -0.4458  -0.4344  -0.4162  -0.3887  -0.3865
    -0.3824  -0.3789  -0.3724  -0.3708  -0.3670  -0.3623  -0.3587  -0.3576
    -0.3522  -0.3479  -0.3399  -0.3273  -0.3101  -0.3074  -0.3019  -0.2944
    -0.2823  -0.2778  -0.2637  -0.2548  -0.2516  -0.2348  -0.2280  -0.2258
    -0.2233  -0.2139  -0.1980  -0.1808  -0.1761  -0.1548  -0.1505  -0.1464
    -0.1411  -0.1383  -0.1338  -0.1314  -0.1243  -0.1156  -0.0632  -0.0627
    -0.0500  -0.0495   0.0108   0.0138   0.0184   0.0224   0.0248   0.0419
     0.4143   1.0963

          k = 0.0000 0.2309 0.0000 ( 36641 PWs)   bands (ev):

   -21.5584 -10.4502  -7.3721  -6.9144  -6.2161  -5.6759  -5.4426  -5.2614
    -4.8266  -4.8170  -4.4470  -4.3120  -4.2341  -4.2324  -4.1651  -4.1110
    -4.0824  -4.0427  -3.9621  -3.9132  -3.8990  -3.6465  -3.5329  -3.5223
    -3.4568  -3.4333  -3.4038  -3.3960  -3.3926  -3.3833  -3.3731  -3.3552
    -3.3249  -3.2811  -3.2739  -3.2448  -3.2421  -3.0729  -3.0270  -3.0163
    -2.9851  -2.9626  -2.9576  -2.9482  -2.8871  -2.8513  -2.8272  -2.8027
    -2.7923  -2.7852  -2.7702  -2.7485  -2.6554  -2.6528  -2.6289  -2.6013
    -2.5834  -2.5728  -2.5488  -2.5380  -2.5254  -2.4971  -2.4809  -2.4718
    -2.4173  -2.3088  -2.1585  -2.1264  -2.1141  -2.0878  -2.0530  -2.0011
    -1.9830  -1.9762  -1.9704  -1.9633  -1.9449  -1.9341  -1.9126  -1.8785
    -1.8473  -1.8395  -1.8228  -1.7855  -1.7769  -1.7719  -1.7614  -1.7486
    -1.7448  -1.7317  -1.7287  -1.7279  -1.7158  -1.7043  -1.6772  -1.6540
    -1.6365  -1.6118  -1.5862  -1.5533  -1.5455  -1.5390  -1.5322  -1.5228
    -1.5097  -1.5045  -1.4979  -1.4877  -1.4857  -1.4624  -1.4482  -1.4353
    -1.4231  -1.4159  -1.3763  -1.3414  -1.3301  -1.2622  -1.2217  -1.2127
    -1.2041  -1.1949  -1.1832  -1.1828  -1.1803  -1.1612  -1.0806  -1.0426
    -1.0113  -0.9971  -0.9317  -0.9254  -0.9011  -0.8559  -0.8313  -0.8289
    -0.7863  -0.7484  -0.7215  -0.7066  -0.6859  -0.6821  -0.6485  -0.6408
    -0.6263  -0.6101  -0.5929  -0.5602  -0.5528  -0.5371  -0.5309  -0.5264
    -0.4684  -0.4546  -0.4492  -0.4415  -0.4259  -0.4044  -0.3841  -0.3780
    -0.3760  -0.3670  -0.3594  -0.3498  -0.3264  -0.3188  -0.3146  -0.2914
    -0.2629  -0.2495  -0.2398  -0.2156  -0.2021  -0.1888  -0.1557  -0.1366
    -0.1261  -0.1212  -0.1114  -0.1053  -0.0929  -0.0795  -0.0690  -0.0650
    -0.0305   0.0075   0.0123   0.0237   0.0474   0.0504   0.0837   0.0896
     0.1031   0.1451   0.3771   0.3907   0.4833   0.5630   0.6302   0.6473
     0.7489   0.8598

          k = 0.0000 0.4619 0.0000 ( 36606 PWs)   bands (ev):

   -21.5584 -10.4495  -7.0750  -6.7728  -6.2284  -6.0174  -5.5404  -5.2825
    -4.9678  -4.9545  -4.8289  -4.1235  -4.0845  -4.0656  -4.0297  -3.9843
    -3.8753  -3.8730  -3.8283  -3.7463  -3.7365  -3.7259  -3.6303  -3.5567
    -3.5512  -3.5470  -3.5419  -3.4891  -3.4618  -3.4323  -3.4264  -3.2807
    -3.2709  -3.2649  -3.2528  -3.2260  -3.2189  -3.1397  -3.1181  -3.1077
    -3.0927  -3.0909  -2.9807  -2.9291  -2.8831  -2.8155  -2.7867  -2.7679
    -2.7486  -2.7122  -2.7059  -2.7013  -2.6975  -2.6669  -2.6222  -2.6059
    -2.5784  -2.5510  -2.5350  -2.4540  -2.4004  -2.3928  -2.3717  -2.3339
    -2.2876  -2.2719  -2.2617  -2.2426  -2.2209  -2.1636  -2.1359  -2.1074
    -2.1041  -2.1008  -2.0882  -2.0739  -2.0631  -2.0518  -2.0094  -1.9992
    -1.9776  -1.9591  -1.9306  -1.9187  -1.8896  -1.8679  -1.8151  -1.7938
    -1.7776  -1.7679  -1.7474  -1.7288  -1.7008  -1.6786  -1.6678  -1.6606
    -1.6520  -1.6394  -1.6245  -1.6020  -1.5980  -1.5817  -1.5715  -1.5497
    -1.5398  -1.5256  -1.4768  -1.4646  -1.4273  -1.3950  -1.3785  -1.3667
    -1.3602  -1.3370  -1.3022  -1.2636  -1.2578  -1.2415  -1.2337  -1.2277
    -1.2179  -1.2133  -1.2004  -1.1985  -1.1886  -1.1847  -1.1745  -1.1590
    -1.1443  -1.1266  -1.0547  -1.0258  -1.0039  -0.9947  -0.9721  -0.9607
    -0.9411  -0.8837  -0.8749  -0.8520  -0.8421  -0.7956  -0.7821  -0.7304
    -0.7218  -0.6874  -0.6670  -0.6504  -0.6388  -0.6256  -0.5982  -0.5409
    -0.4935  -0.4729  -0.4573  -0.4465  -0.4441  -0.4352  -0.4334  -0.4161
    -0.4027  -0.3871  -0.3375  -0.3020  -0.2879  -0.2811  -0.2734  -0.2685
    -0.2599  -0.2411  -0.2295  -0.2210  -0.2073  -0.1901  -0.1208  -0.0998
    -0.0925  -0.0881  -0.0625  -0.0157   0.0007   0.0075   0.0367   0.0549
     0.0755   0.1196   0.1214   0.1437   0.1471   0.1501   0.1609   0.1740
     0.2528   0.2661   0.3427   0.9509   1.1562   1.3006   1.3720   1.4068
     1.5769   1.7398

          k = 0.2000-0.1155 0.0000 ( 36641 PWs)   bands (ev):

   -21.5584 -10.4503  -7.3720  -6.9144  -6.2151  -5.6724  -5.4436  -5.2656
    -4.8263  -4.8150  -4.4486  -4.3146  -4.2341  -4.2319  -4.1656  -4.1110
    -4.0804  -4.0415  -3.9640  -3.9126  -3.8977  -3.6477  -3.5321  -3.5221
    -3.4591  -3.4337  -3.4034  -3.3958  -3.3933  -3.3834  -3.3710  -3.3554
    -3.3246  -3.2813  -3.2735  -3.2447  -3.2419  -3.0731  -3.0289  -3.0159
    -2.9858  -2.9619  -2.9579  -2.9483  -2.8877  -2.8530  -2.8270  -2.8018
    -2.7919  -2.7852  -2.7696  -2.7491  -2.6571  -2.6528  -2.6303  -2.5990
    -2.5842  -2.5722  -2.5482  -2.5374  -2.5232  -2.4965  -2.4802  -2.4711
    -2.4188  -2.3095  -2.1582  -2.1271  -2.1142  -2.0875  -2.0532  -2.0020
    -1.9832  -1.9752  -1.9699  -1.9627  -1.9451  -1.9347  -1.9141  -1.8777
    -1.8466  -1.8388  -1.8221  -1.7849  -1.7756  -1.7714  -1.7612  -1.7488
    -1.7451  -1.7322  -1.7292  -1.7281  -1.7161  -1.7051  -1.6771  -1.6544
    -1.6366  -1.6140  -1.5837  -1.5532  -1.5463  -1.5386  -1.5326  -1.5225
    -1.5110  -1.5039  -1.4968  -1.4876  -1.4858  -1.4629  -1.4487  -1.4347
    -1.4230  -1.4158  -1.3775  -1.3440  -1.3290  -1.2600  -1.2207  -1.2128
    -1.2035  -1.1961  -1.1828  -1.1821  -1.1805  -1.1618  -1.0830  -1.0394
    -1.0080  -0.9963  -0.9320  -0.9256  -0.9012  -0.8569  -0.8314  -0.8279
    -0.7854  -0.7515  -0.7244  -0.7077  -0.6862  -0.6822  -0.6461  -0.6404
    -0.6269  -0.6107  -0.5914  -0.5604  -0.5537  -0.5363  -0.5312  -0.5264
    -0.4683  -0.4536  -0.4490  -0.4412  -0.4263  -0.4079  -0.3830  -0.3775
    -0.3750  -0.3674  -0.3595  -0.3507  -0.3271  -0.3170  -0.3157  -0.2906
    -0.2630  -0.2490  -0.2393  -0.2157  -0.2038  -0.1881  -0.1558  -0.1357
    -0.1262  -0.1205  -0.1130  -0.1061  -0.0935  -0.0793  -0.0690  -0.0649
    -0.0299   0.0076   0.0125   0.0237   0.0475   0.0502   0.0840   0.0903
     0.1034   0.1454   0.3779   0.3912   0.4796   0.5640   0.6266   0.6512
     0.7438   0.8550

          k = 0.2000 0.1155 0.0000 ( 36641 PWs)   bands (ev):

   -21.5584 -10.4508  -7.3714  -6.9148  -6.2072  -5.6505  -5.4389  -5.3131
    -4.8202  -4.8033  -4.4542  -4.3367  -4.2376  -4.2278  -4.1664  -4.1168
    -4.0592  -4.0356  -3.9697  -3.9078  -3.8975  -3.6437  -3.5394  -3.5268
    -3.4470  -3.4294  -3.3998  -3.3979  -3.3937  -3.3876  -3.3655  -3.3597
    -3.3206  -3.2793  -3.2785  -3.2443  -3.2410  -3.0665  -3.0181  -3.0157
    -2.9893  -2.9731  -2.9574  -2.9560  -2.8865  -2.8507  -2.8440  -2.8055
    -2.7915  -2.7869  -2.7674  -2.7591  -2.6564  -2.6544  -2.6459  -2.6100
    -2.5893  -2.5576  -2.5492  -2.5301  -2.5152  -2.4879  -2.4784  -2.4759
    -2.4260  -2.2945  -2.1642  -2.1341  -2.1153  -2.0850  -2.0472  -1.9920
    -1.9859  -1.9795  -1.9696  -1.9607  -1.9514  -1.9299  -1.8978  -1.8817
    -1.8568  -1.8327  -1.8114  -1.7925  -1.7731  -1.7727  -1.7633  -1.7415
    -1.7399  -1.7350  -1.7345  -1.7272  -1.7115  -1.7004  -1.6749  -1.6674
    -1.6283  -1.6042  -1.5767  -1.5511  -1.5433  -1.5363  -1.5302  -1.5215
    -1.5119  -1.5075  -1.5024  -1.4871  -1.4865  -1.4660  -1.4474  -1.4356
    -1.4228  -1.4188  -1.3922  -1.3520  -1.3275  -1.2448  -1.2146  -1.2129
    -1.2104  -1.1988  -1.1936  -1.1843  -1.1783  -1.1766  -1.0623  -1.0301
    -0.9961  -0.9905  -0.9326  -0.9266  -0.8973  -0.8595  -0.8380  -0.8299
    -0.7718  -0.7480  -0.7336  -0.7095  -0.6942  -0.6835  -0.6493  -0.6451
    -0.6210  -0.6135  -0.5934  -0.5533  -0.5452  -0.5373  -0.5310  -0.5203
    -0.4775  -0.4560  -0.4508  -0.4396  -0.4319  -0.3938  -0.3912  -0.3781
    -0.3728  -0.3630  -0.3607  -0.3404  -0.3269  -0.3263  -0.3101  -0.2915
    -0.2580  -0.2477  -0.2266  -0.2243  -0.2067  -0.1910  -0.1486  -0.1401
    -0.1273  -0.1236  -0.1195  -0.1036  -0.0821  -0.0803  -0.0683  -0.0652
    -0.0302   0.0073   0.0140   0.0222   0.0501   0.0504   0.0834   0.0970
     0.1109   0.1396   0.3612   0.3867   0.4394   0.5517   0.6169   0.6479
     0.7256   0.8583

          k = 0.2000 0.3464 0.0000 ( 36608 PWs)   bands (ev):

   -21.5584 -10.4504  -7.1446  -6.8395  -6.1200  -5.7148  -5.6575  -5.4507
    -5.3635  -4.5493  -4.4866  -4.2433  -4.2338  -4.1847  -4.0206  -4.0136
    -3.9212  -3.9182  -3.9021  -3.7864  -3.7674  -3.6472  -3.6340  -3.5713
    -3.5276  -3.4407  -3.4336  -3.4114  -3.4012  -3.3816  -3.3672  -3.3495
    -3.3311  -3.3103  -3.3011  -3.2620  -3.2231  -3.1861  -3.1756  -3.0838
    -3.0549  -2.9747  -2.9554  -2.9248  -2.9086  -2.8998  -2.8145  -2.7946
    -2.7519  -2.7240  -2.7182  -2.7137  -2.6724  -2.6547  -2.6370  -2.6327
    -2.6156  -2.5418  -2.4934  -2.4400  -2.4332  -2.4162  -2.4009  -2.3766
    -2.3609  -2.2628  -2.2290  -2.1790  -2.1680  -2.1293  -2.1091  -2.0939
    -2.0760  -2.0710  -2.0570  -2.0464  -2.0246  -2.0072  -2.0056  -1.9958
    -1.9805  -1.9370  -1.8954  -1.8737  -1.8124  -1.8083  -1.8019  -1.7719
    -1.7636  -1.7352  -1.7262  -1.7007  -1.6886  -1.6673  -1.6563  -1.6479
    -1.6363  -1.6292  -1.6172  -1.6082  -1.5984  -1.5907  -1.5710  -1.5531
    -1.5461  -1.5317  -1.4947  -1.4767  -1.4594  -1.4327  -1.4154  -1.4104
    -1.3943  -1.3859  -1.3620  -1.3370  -1.3115  -1.3072  -1.2825  -1.2511
    -1.2398  -1.2324  -1.2310  -1.2154  -1.1971  -1.1800  -1.1689  -1.1299
    -1.0906  -1.0657  -1.0561  -1.0194  -0.9539  -0.9353  -0.9165  -0.8489
    -0.8105  -0.8054  -0.7940  -0.7842  -0.7736  -0.7640  -0.7482  -0.7379
    -0.7136  -0.6968  -0.6717  -0.6434  -0.6294  -0.6167  -0.6026  -0.5877
    -0.5651  -0.5538  -0.5247  -0.5105  -0.5043  -0.4613  -0.4099  -0.3588
    -0.3428  -0.3195  -0.3116  -0.2914  -0.2877  -0.2760  -0.2701  -0.2617
    -0.2520  -0.2454  -0.1802  -0.1631  -0.1553  -0.1423  -0.1042  -0.0909
    -0.0759  -0.0713  -0.0649  -0.0494  -0.0409  -0.0312  -0.0227  -0.0119
     0.0015   0.0069   0.0870   0.0929   0.1009   0.1461   0.1480   0.1568
     0.4626   0.4874   0.5513   0.6151   0.7957   0.8201   1.0746   1.3084
     1.3883   1.5316

          k = 0.2000-0.5774 0.0000 ( 36660 PWs)   bands (ev):

   -21.5584 -10.4497  -7.0152  -6.4517  -6.4277  -6.0140  -5.7457  -5.4894
    -5.0822  -4.9805  -4.5770  -4.2273  -3.9814  -3.9344  -3.8424  -3.8048
    -3.8012  -3.7762  -3.7680  -3.7421  -3.7048  -3.6928  -3.6891  -3.6811
    -3.6029  -3.5764  -3.5390  -3.5334  -3.5081  -3.5023  -3.4041  -3.3813
    -3.3537  -3.3448  -3.3245  -3.2864  -3.2175  -3.1870  -3.0927  -3.0602
    -3.0547  -3.0071  -2.9758  -2.9524  -2.9270  -2.8500  -2.8430  -2.8345
    -2.7686  -2.7608  -2.6936  -2.6641  -2.6394  -2.6170  -2.5751  -2.5602
    -2.5129  -2.4748  -2.4652  -2.4565  -2.4484  -2.4299  -2.4063  -2.3411
    -2.2976  -2.2638  -2.2485  -2.2386  -2.2314  -2.1778  -2.1563  -2.1311
    -2.1049  -2.0798  -2.0706  -2.0577  -2.0427  -2.0266  -1.9975  -1.9906
    -1.9790  -1.9675  -1.9550  -1.9267  -1.9229  -1.9153  -1.8515  -1.8452
    -1.8187  -1.7894  -1.7612  -1.7456  -1.7091  -1.6971  -1.6831  -1.6586
    -1.6492  -1.6374  -1.6311  -1.6219  -1.6110  -1.5978  -1.5747  -1.5563
    -1.5076  -1.4927  -1.4775  -1.4729  -1.4571  -1.4521  -1.4453  -1.4375
    -1.4308  -1.4217  -1.4041  -1.3792  -1.3517  -1.3263  -1.3131  -1.2898
    -1.2355  -1.2221  -1.1965  -1.1841  -1.1692  -1.1543  -1.1450  -1.1078
    -1.0799  -1.0707  -1.0588  -1.0117  -0.9734  -0.9363  -0.9266  -0.8995
    -0.8922  -0.8813  -0.8677  -0.8455  -0.8197  -0.8109  -0.7855  -0.7527
    -0.7354  -0.7182  -0.7033  -0.6849  -0.6692  -0.6393  -0.6176  -0.6096
    -0.5930  -0.5772  -0.5678  -0.5569  -0.5171  -0.4851  -0.4741  -0.3813
    -0.3101  -0.3061  -0.3002  -0.2908  -0.2846  -0.2745  -0.2723  -0.2474
    -0.2202  -0.2109  -0.2019  -0.1931  -0.1728  -0.1448  -0.0769  -0.0724
    -0.0611  -0.0471  -0.0305  -0.0232   0.0187   0.0313   0.0331   0.0429
     0.0518   0.1222   0.1277   0.1370   0.1496   0.1520   0.1782   0.2028
     0.2665   0.4996   0.5673   0.8338   1.3216   1.4237   1.5369   1.7180
     1.8996   1.9630

          k = 0.2000-0.3464 0.0000 ( 36608 PWs)   bands (ev):

   -21.5584 -10.4496  -7.1437  -6.8440  -6.1288  -5.7385  -5.6604  -5.4545
    -5.3132  -4.5703  -4.4646  -4.2431  -4.2349  -4.1797  -4.0195  -4.0149
    -3.9267  -3.9091  -3.8954  -3.7856  -3.7786  -3.6453  -3.6365  -3.5719
    -3.5293  -3.4593  -3.4334  -3.4164  -3.3914  -3.3790  -3.3693  -3.3627
    -3.3345  -3.3137  -3.3039  -3.2633  -3.2241  -3.1815  -3.1717  -3.0724
    -3.0662  -2.9566  -2.9474  -2.9362  -2.9156  -2.8926  -2.7969  -2.7534
    -2.7462  -2.7313  -2.7206  -2.7098  -2.6699  -2.6597  -2.6381  -2.6289
    -2.6131  -2.5115  -2.4921  -2.4677  -2.4374  -2.4118  -2.3910  -2.3810
    -2.3527  -2.3023  -2.2483  -2.1811  -2.1561  -2.1297  -2.1269  -2.0943
    -2.0822  -2.0670  -2.0559  -2.0407  -2.0226  -2.0169  -2.0040  -1.9972
    -1.9811  -1.9384  -1.8914  -1.8659  -1.8196  -1.8021  -1.7845  -1.7765
    -1.7656  -1.7400  -1.7240  -1.7012  -1.6962  -1.6707  -1.6525  -1.6487
    -1.6389  -1.6302  -1.6269  -1.6066  -1.5982  -1.5902  -1.5690  -1.5604
    -1.5457  -1.5379  -1.5137  -1.4714  -1.4595  -1.4380  -1.4134  -1.4120
    -1.3933  -1.3857  -1.3779  -1.3276  -1.3137  -1.3042  -1.2849  -1.2663
    -1.2353  -1.2327  -1.2292  -1.2092  -1.2008  -1.1839  -1.1682  -1.1231
    -1.0992  -1.0657  -1.0612  -1.0133  -0.9568  -0.9420  -0.9168  -0.8190
    -0.8060  -0.8028  -0.7932  -0.7852  -0.7761  -0.7660  -0.7501  -0.7283
    -0.7128  -0.6902  -0.6759  -0.6478  -0.6402  -0.6124  -0.6069  -0.5903
    -0.5628  -0.5456  -0.5298  -0.5100  -0.5055  -0.4697  -0.3955  -0.3543
    -0.3379  -0.3277  -0.3116  -0.3001  -0.2911  -0.2745  -0.2688  -0.2661
    -0.2506  -0.2439  -0.1725  -0.1646  -0.1518  -0.1459  -0.1037  -0.0845
    -0.0785  -0.0732  -0.0692  -0.0450  -0.0422  -0.0341  -0.0234  -0.0139
     0.0083   0.0192   0.0865   0.0903   0.1016   0.1422   0.1479   0.1658
     0.4435   0.4880   0.5270   0.6526   0.7351   0.8287   1.1755   1.3469
     1.3549   1.5778

          k = 0.4000-0.2309 0.0000 ( 36606 PWs)   bands (ev):

   -21.5584 -10.4498  -7.0751  -6.7720  -6.2252  -6.0165  -5.5350  -5.2919
    -4.9681  -4.9516  -4.8331  -4.1249  -4.0822  -4.0646  -4.0293  -3.9860
    -3.8749  -3.8731  -3.8289  -3.7459  -3.7366  -3.7261  -3.6320  -3.5566
    -3.5499  -3.5478  -3.5417  -3.4897  -3.4643  -3.4326  -3.4263  -3.2786
    -3.2710  -3.2632  -3.2522  -3.2255  -3.2190  -3.1404  -3.1201  -3.1074
    -3.0932  -3.0910  -2.9825  -2.9286  -2.8841  -2.8159  -2.7875  -2.7684
    -2.7485  -2.7138  -2.7064  -2.7004  -2.6969  -2.6678  -2.6203  -2.6057
    -2.5785  -2.5497  -2.5356  -2.4527  -2.3999  -2.3931  -2.3711  -2.3347
    -2.2890  -2.2727  -2.2614  -2.2425  -2.2189  -2.1636  -2.1288  -2.1079
    -2.1041  -2.1005  -2.0872  -2.0745  -2.0628  -2.0521  -2.0106  -1.9986
    -1.9788  -1.9576  -1.9302  -1.9178  -1.8898  -1.8670  -1.8157  -1.7916
    -1.7773  -1.7674  -1.7490  -1.7296  -1.7005  -1.6810  -1.6679  -1.6605
    -1.6527  -1.6396  -1.6252  -1.6030  -1.5978  -1.5817  -1.5719  -1.5490
    -1.5409  -1.5259  -1.4764  -1.4614  -1.4289  -1.3946  -1.3800  -1.3676
    -1.3586  -1.3375  -1.3004  -1.2635  -1.2573  -1.2405  -1.2339  -1.2277
    -1.2172  -1.2116  -1.2013  -1.1990  -1.1887  -1.1867  -1.1740  -1.1591
    -1.1451  -1.1265  -1.0564  -1.0258  -1.0035  -0.9939  -0.9724  -0.9621
    -0.9405  -0.8805  -0.8751  -0.8518  -0.8418  -0.7961  -0.7826  -0.7299
    -0.7208  -0.6893  -0.6663  -0.6516  -0.6399  -0.6254  -0.5988  -0.5410
    -0.4946  -0.4729  -0.4554  -0.4472  -0.4436  -0.4357  -0.4317  -0.4163
    -0.4001  -0.3865  -0.3382  -0.3025  -0.2883  -0.2804  -0.2732  -0.2686
    -0.2586  -0.2413  -0.2302  -0.2209  -0.2072  -0.1922  -0.1207  -0.0997
    -0.0922  -0.0877  -0.0622  -0.0189   0.0011   0.0069   0.0368   0.0536
     0.0756   0.1197   0.1218   0.1437   0.1467   0.1502   0.1623   0.1738
     0.2529   0.2662   0.3356   0.9622   1.1398   1.2981   1.3718   1.4071
     1.5750   1.7425

          k = 0.4000 0.0000 0.0000 ( 36608 PWs)   bands (ev):

   -21.5584 -10.4506  -7.1445  -6.8391  -6.1183  -5.7093  -5.6591  -5.4503
    -5.3693  -4.5466  -4.4908  -4.2430  -4.2327  -4.1856  -4.0207  -4.0140
    -3.9218  -3.9190  -3.9029  -3.7860  -3.7651  -3.6476  -3.6345  -3.5706
    -3.5276  -3.4403  -3.4333  -3.4136  -3.4013  -3.3816  -3.3682  -3.3483
    -3.3308  -3.3105  -3.2991  -3.2625  -3.2228  -3.1872  -3.1754  -3.0852
    -3.0548  -2.9750  -2.9551  -2.9246  -2.9087  -2.9003  -2.8186  -2.7953
    -2.7520  -2.7228  -2.7178  -2.7139  -2.6717  -2.6543  -2.6365  -2.6321
    -2.6161  -2.5406  -2.4934  -2.4395  -2.4312  -2.4169  -2.3990  -2.3761
    -2.3620  -2.2587  -2.2325  -2.1793  -2.1696  -2.1297  -2.1079  -2.0952
    -2.0757  -2.0701  -2.0568  -2.0463  -2.0240  -2.0082  -2.0052  -1.9960
    -1.9802  -1.9364  -1.8955  -1.8756  -1.8122  -1.8060  -1.8011  -1.7720
    -1.7645  -1.7362  -1.7256  -1.7016  -1.6898  -1.6674  -1.6562  -1.6479
    -1.6364  -1.6296  -1.6167  -1.6078  -1.5992  -1.5902  -1.5717  -1.5533
    -1.5463  -1.5310  -1.4935  -1.4762  -1.4592  -1.4331  -1.4159  -1.4103
    -1.3936  -1.3850  -1.3589  -1.3381  -1.3124  -1.3064  -1.2827  -1.2480
    -1.2398  -1.2329  -1.2309  -1.2156  -1.1971  -1.1806  -1.1684  -1.1306
    -1.0905  -1.0649  -1.0562  -1.0171  -0.9556  -0.9365  -0.9162  -0.8484
    -0.8131  -0.8050  -0.7941  -0.7849  -0.7728  -0.7640  -0.7494  -0.7398
    -0.7124  -0.6975  -0.6711  -0.6435  -0.6290  -0.6170  -0.6031  -0.5876
    -0.5658  -0.5541  -0.5247  -0.5105  -0.5030  -0.4608  -0.4099  -0.3590
    -0.3431  -0.3193  -0.3114  -0.2916  -0.2878  -0.2745  -0.2688  -0.2624
    -0.2516  -0.2461  -0.1798  -0.1627  -0.1556  -0.1420  -0.1042  -0.0917
    -0.0759  -0.0715  -0.0661  -0.0514  -0.0410  -0.0313  -0.0239  -0.0088
    -0.0015   0.0086   0.0873   0.0929   0.1004   0.1465   0.1476   0.1565
     0.4631   0.4874   0.5560   0.6037   0.7993   0.8196   1.0761   1.3107
     1.3842   1.5351

          k = 0.4000 0.2309 0.0000 ( 36606 PWs)   bands (ev):

   -21.5584 -10.4511  -7.0793  -6.7647  -6.1918  -6.0210  -5.4518  -5.4199
    -4.9659  -4.9277  -4.8719  -4.1387  -4.0606  -4.0547  -4.0211  -3.9911
    -3.8766  -3.8684  -3.8310  -3.7399  -3.7340  -3.7309  -3.6469  -3.5562
    -3.5538  -3.5422  -3.5392  -3.4916  -3.4555  -3.4312  -3.4186  -3.2787
    -3.2737  -3.2487  -3.2451  -3.2202  -3.2177  -3.1463  -3.1071  -3.1056
    -3.0955  -3.0923  -2.9914  -2.9431  -2.9081  -2.8290  -2.8068  -2.7664
    -2.7561  -2.7130  -2.7119  -2.6992  -2.6961  -2.6800  -2.6117  -2.6088
    -2.5830  -2.5701  -2.5402  -2.4455  -2.3959  -2.3907  -2.3826  -2.3267
    -2.2812  -2.2681  -2.2614  -2.2456  -2.1871  -2.1750  -2.1461  -2.1099
    -2.1020  -2.0968  -2.0868  -2.0740  -2.0563  -2.0557  -2.0259  -1.9819
    -1.9770  -1.9507  -1.9280  -1.8993  -1.8823  -1.8610  -1.8084  -1.8021
    -1.7816  -1.7745  -1.7506  -1.7346  -1.6913  -1.6733  -1.6675  -1.6602
    -1.6480  -1.6274  -1.6224  -1.5969  -1.5959  -1.5839  -1.5594  -1.5453
    -1.5355  -1.5265  -1.4778  -1.4426  -1.4130  -1.3991  -1.3822  -1.3666
    -1.3393  -1.3373  -1.3016  -1.2624  -1.2502  -1.2438  -1.2333  -1.2321
    -1.2187  -1.2171  -1.2038  -1.2010  -1.1996  -1.1910  -1.1702  -1.1574
    -1.1442  -1.1093  -1.0648  -1.0283  -1.0020  -0.9846  -0.9710  -0.9483
    -0.9420  -0.9027  -0.8738  -0.8513  -0.8488  -0.7922  -0.7903  -0.7493
    -0.7240  -0.6860  -0.6611  -0.6477  -0.6380  -0.6204  -0.5817  -0.5734
    -0.4972  -0.4818  -0.4572  -0.4480  -0.4443  -0.4311  -0.4257  -0.4210
    -0.4015  -0.3727  -0.3504  -0.2961  -0.2931  -0.2762  -0.2743  -0.2681
    -0.2629  -0.2273  -0.2247  -0.2153  -0.2114  -0.1987  -0.1142  -0.0991
    -0.0973  -0.0895  -0.0616  -0.0301   0.0008   0.0046   0.0425   0.0455
     0.0748   0.1202   0.1223   0.1457   0.1470   0.1497   0.1736   0.1895
     0.2477   0.2632   0.3116   0.9481   1.1438   1.2396   1.3621   1.3859
     1.6244   1.7418

          k = 0.4000-0.6928 0.0000 ( 36660 PWs)   bands (ev):

   -21.5584 -10.4507  -7.0194  -6.4400  -6.4038  -6.0431  -5.7476  -5.4065
    -5.1871  -5.0012  -4.5352  -4.2233  -3.9828  -3.9376  -3.8593  -3.8073
    -3.7988  -3.7812  -3.7650  -3.7501  -3.6981  -3.6924  -3.6864  -3.6765
    -3.6068  -3.5772  -3.5386  -3.5289  -3.5100  -3.5049  -3.3888  -3.3615
    -3.3511  -3.3429  -3.3134  -3.2823  -3.2391  -3.1811  -3.1107  -3.0559
    -3.0545  -3.0088  -2.9781  -2.9557  -2.9230  -2.8527  -2.8486  -2.8334
    -2.7857  -2.7687  -2.7022  -2.6663  -2.6425  -2.6273  -2.5845  -2.5579
    -2.5084  -2.4754  -2.4694  -2.4572  -2.4500  -2.4361  -2.4120  -2.3330
    -2.2721  -2.2561  -2.2517  -2.2427  -2.2125  -2.1827  -2.1668  -2.1328
    -2.1047  -2.0804  -2.0677  -2.0588  -2.0462  -2.0220  -1.9999  -1.9882
    -1.9828  -1.9651  -1.9608  -1.9252  -1.9236  -1.8768  -1.8493  -1.8446
    -1.8393  -1.8004  -1.7541  -1.7437  -1.7178  -1.6837  -1.6644  -1.6617
    -1.6411  -1.6403  -1.6317  -1.6197  -1.6106  -1.5822  -1.5730  -1.5334
    -1.4945  -1.4891  -1.4804  -1.4650  -1.4556  -1.4503  -1.4447  -1.4377
    -1.4262  -1.4161  -1.3999  -1.3836  -1.3617  -1.3329  -1.3135  -1.3020
    -1.2431  -1.2352  -1.1924  -1.1762  -1.1743  -1.1596  -1.1482  -1.1194
    -1.0814  -1.0725  -1.0623  -1.0033  -0.9583  -0.9384  -0.9234  -0.9113
    -0.8892  -0.8811  -0.8604  -0.8481  -0.8236  -0.8063  -0.7738  -0.7621
    -0.7435  -0.7127  -0.6977  -0.6923  -0.6726  -0.6279  -0.6173  -0.5999
    -0.5943  -0.5870  -0.5665  -0.5593  -0.5121  -0.4914  -0.4722  -0.3910
    -0.3188  -0.3029  -0.3021  -0.2907  -0.2837  -0.2717  -0.2652  -0.2551
    -0.2163  -0.2131  -0.2018  -0.1956  -0.1748  -0.1406  -0.0768  -0.0726
    -0.0676  -0.0453  -0.0263  -0.0208   0.0157   0.0277   0.0378   0.0451
     0.0502   0.1137   0.1269   0.1298   0.1473   0.1549   0.1732   0.1999
     0.2433   0.5184   0.5883   0.8756   1.2391   1.4248   1.5027   1.7750
     1.8520   1.9156

          k = 0.4000-0.4619 0.0000 ( 36660 PWs)   bands (ev):

   -21.5584 -10.4499  -7.0154  -6.4507  -6.4256  -6.0153  -5.7472  -5.4807
    -5.0946  -4.9799  -4.5731  -4.2267  -3.9814  -3.9357  -3.8452  -3.8053
    -3.8011  -3.7761  -3.7675  -3.7422  -3.7038  -3.6928  -3.6893  -3.6811
    -3.6032  -3.5763  -3.5394  -3.5329  -3.5081  -3.5024  -3.4051  -3.3808
    -3.3538  -3.3452  -3.3238  -3.2858  -3.2147  -3.1870  -3.0957  -3.0612
    -3.0549  -3.0067  -2.9751  -2.9530  -2.9270  -2.8506  -2.8431  -2.8340
    -2.7686  -2.7605  -2.6957  -2.6647  -2.6386  -2.6175  -2.5736  -2.5605
    -2.5126  -2.4743  -2.4654  -2.4566  -2.4486  -2.4299  -2.4060  -2.3422
    -2.2959  -2.2644  -2.2491  -2.2390  -2.2311  -2.1776  -2.1552  -2.1276
    -2.1028  -2.0816  -2.0704  -2.0578  -2.0440  -2.0267  -1.9972  -1.9915
    -1.9785  -1.9674  -1.9549  -1.9251  -1.9228  -1.9118  -1.8512  -1.8455
    -1.8182  -1.7909  -1.7610  -1.7479  -1.7096  -1.6977  -1.6824  -1.6593
    -1.6479  -1.6380  -1.6316  -1.6215  -1.6123  -1.5991  -1.5741  -1.5546
    -1.5073  -1.4923  -1.4779  -1.4726  -1.4578  -1.4520  -1.4452  -1.4380
    -1.4306  -1.4220  -1.4046  -1.3788  -1.3525  -1.3262  -1.3134  -1.2885
    -1.2356  -1.2230  -1.1977  -1.1821  -1.1693  -1.1539  -1.1444  -1.1096
    -1.0802  -1.0704  -1.0593  -1.0107  -0.9747  -0.9364  -0.9236  -0.8993
    -0.8922  -0.8816  -0.8681  -0.8452  -0.8200  -0.8107  -0.7860  -0.7535
    -0.7349  -0.7179  -0.7031  -0.6860  -0.6687  -0.6384  -0.6181  -0.6099
    -0.5925  -0.5780  -0.5681  -0.5569  -0.5167  -0.4861  -0.4727  -0.3817
    -0.3097  -0.3054  -0.2994  -0.2885  -0.2869  -0.2749  -0.2703  -0.2496
    -0.2191  -0.2114  -0.2026  -0.1940  -0.1719  -0.1447  -0.0770  -0.0722
    -0.0623  -0.0468  -0.0301  -0.0229   0.0186   0.0311   0.0334   0.0428
     0.0525   0.1213   0.1274   0.1358   0.1494   0.1520   0.1781   0.2026
     0.2596   0.5016   0.5715   0.8310   1.3200   1.4245   1.5316   1.7319
     1.8897   1.9625

 ------ SPIN DOWN ----------


          k = 0.0000 0.0000 0.0000 ( 36693 PWs)   bands (ev):

   -21.5089 -10.4908  -7.6213  -6.8797  -6.3114  -5.6700  -5.4156  -4.4010
    -4.3790  -4.3771  -4.3725  -4.3665  -4.3350  -4.2370  -3.5168  -3.5028
    -3.4992  -3.4892  -3.4690  -3.4414  -3.3320  -2.5966  -2.5515  -2.5507
    -2.5427  -2.5223  -2.4709  -2.1646  -2.0909  -2.0830  -2.0779  -2.0732
    -2.0592  -1.9024  -1.8807  -1.8311  -1.8025  -1.7892  -1.7855  -1.7782
    -1.6973  -1.6955  -1.6464  -1.6446  -1.6295  -1.5524  -1.5332  -1.5315
    -1.5017  -1.4605  -1.3485  -1.2847  -1.2702  -1.2658  -1.2534  -1.2455
    -1.2438  -1.2381  -1.2201  -1.2003  -1.1897  -1.1708  -1.1653  -1.1587
    -1.1390  -1.0422  -0.7759  -0.6084  -0.6071  -0.5868  -0.5835  -0.4479
    -0.3946  -0.3014  -0.2770  -0.2659  -0.2586  -0.2577  -0.2442  -0.2241
    -0.2009  -0.1914  -0.1741  -0.1715  -0.1673  -0.1653  -0.1076  -0.0995
    -0.0896  -0.0651  -0.0591  -0.0501  -0.0288  -0.0145  -0.0111  -0.0054
    -0.0035  -0.0021   0.0217   0.0236   0.0251   0.0279   0.0777   0.0967
     0.1598   0.1801   0.1892   0.2308   0.2373   0.2494   0.2499   0.2554
     0.2575   0.2621   0.2629   0.2927   0.3330   0.3337   0.3960   0.3990
     0.4219   0.4357   0.4400   0.4484   0.6330   0.6400   0.6775   0.6889
     0.7239   0.7354   0.7383   0.7411   0.8287   1.0136   1.0298   1.0764
     1.0798   1.2119   1.2611   1.2815   1.2975   1.3028   1.3079   1.3131
     1.3625   1.4591   1.4624   1.4685   1.4771   1.4788   1.4990   1.5033
     1.5211   1.5349   1.5592   1.5651   1.5896   1.5992   1.6062   1.6244
     1.6263   1.6292   1.6353   1.6469   1.6706   1.6960   1.7118   1.7256
     1.7306   1.7449   1.7499   1.7516   1.7579   1.7615   1.7662   1.7971
     1.8131   1.8309   1.8326   1.8352   1.8478   1.8499   1.8564   1.8645
     1.8905   1.8953   1.9030   1.9040   1.9086   1.9124   1.9198   1.9205
     1.9301   1.9356   1.9822   1.9830   2.1286   2.1319   2.1370   2.1412
     2.1431   2.1444

          k = 0.0000 0.2309 0.0000 ( 36641 PWs)   bands (ev):

   -21.5089 -10.4903  -7.4776  -6.8575  -6.2341  -5.6812  -5.4305  -5.2694
    -4.7609  -4.7478  -4.2303  -4.0887  -3.8287  -3.8219  -3.7394  -3.6945
    -3.5328  -3.2727  -3.1557  -3.1358  -3.0437  -2.7744  -2.5874  -2.5415
    -2.5037  -2.4515  -2.4261  -2.2380  -2.1380  -2.1203  -2.1118  -2.0958
    -2.0673  -2.0312  -2.0236  -2.0062  -1.9807  -1.8856  -1.8425  -1.8023
    -1.7588  -1.7497  -1.7031  -1.5964  -1.5626  -1.5593  -1.5404  -1.4704
    -1.4090  -1.3944  -1.3528  -1.3210  -1.3018  -1.2813  -1.2612  -1.2534
    -1.2430  -1.2314  -1.1736  -1.1339  -1.1230  -1.1006  -1.0838  -1.0519
    -1.0072  -0.9310  -0.8058  -0.6528  -0.6391  -0.6246  -0.6035  -0.5459
    -0.4891  -0.4719  -0.4233  -0.4141  -0.3068  -0.2965  -0.2806  -0.2631
    -0.2456  -0.2353  -0.2198  -0.2096  -0.1991  -0.1867  -0.1516  -0.1014
    -0.0806  -0.0583  -0.0529  -0.0493  -0.0241  -0.0013   0.0075   0.0178
     0.0252   0.0339   0.0408   0.0478   0.0493   0.0521   0.0877   0.1005
     0.1291   0.1368   0.1493   0.1526   0.1793   0.1952   0.2074   0.2233
     0.2555   0.2587   0.3127   0.3238   0.3546   0.3690   0.3720   0.3998
     0.5152   0.5326   0.5937   0.6097   0.6213   0.6534   0.6659   0.6888
     0.6985   0.7155   0.7176   0.7208   0.9370   0.9754   1.0299   1.0441
     1.0524   1.0630   1.0882   1.0919   1.1342   1.1688   1.2062   1.2391
     1.2690   1.3088   1.3289   1.3423   1.3706   1.3828   1.4149   1.4597
     1.4758   1.5025   1.5167   1.5321   1.5423   1.5581   1.5839   1.5910
     1.6177   1.6465   1.6690   1.6797   1.7109   1.7193   1.7342   1.7515
     1.7803   1.7845   1.7960   1.8002   1.8163   1.8293   1.8758   1.8841
     1.8912   1.8968   1.9303   1.9376   1.9481   1.9641   1.9794   1.9856
     1.9998   2.0334   2.0390   2.0423   2.0672   2.0725   2.0771   2.0938
     2.1044   2.1293   2.1313   2.1426   2.2139   2.2313   2.2356   2.2686
     2.3098   2.3323

          k = 0.0000 0.4619 0.0000 ( 36606 PWs)   bands (ev):

   -21.5089 -10.4896  -7.0959  -6.7934  -6.2968  -6.0293  -5.5608  -5.2896
    -4.9749  -4.9559  -4.8121  -3.8907  -3.8654  -3.7525  -3.2604  -3.2069
    -3.2039  -3.0866  -2.9340  -2.8857  -2.7615  -2.7518  -2.6108  -2.6033
    -2.5789  -2.5343  -2.4893  -2.4528  -2.3673  -2.3562  -2.3289  -2.2845
    -2.2757  -2.0914  -2.0660  -2.0142  -1.9815  -1.9222  -1.8736  -1.8630
    -1.8504  -1.8288  -1.7326  -1.5885  -1.5562  -1.5261  -1.5033  -1.4733
    -1.3507  -1.3328  -1.3157  -1.3039  -1.2977  -1.2705  -1.2655  -1.2475
    -1.2188  -1.1606  -1.1455  -1.1374  -1.1104  -1.0893  -0.9825  -0.9160
    -0.8657  -0.8007  -0.7699  -0.6845  -0.6632  -0.6333  -0.6066  -0.5912
    -0.5746  -0.5595  -0.5220  -0.4968  -0.4722  -0.4331  -0.4024  -0.3811
    -0.3577  -0.3327  -0.3105  -0.3030  -0.2736  -0.2588  -0.1989  -0.1492
    -0.1178  -0.1123  -0.0783  -0.0466  -0.0327  -0.0044   0.0031   0.0298
     0.0559   0.0683   0.0838   0.0960   0.1016   0.1074   0.1251   0.1502
     0.1620   0.1893   0.1962   0.2070   0.2123   0.2181   0.2330   0.2586
     0.2670   0.2871   0.3348   0.4030   0.4116   0.4183   0.4529   0.4703
     0.4722   0.4953   0.5058   0.5636   0.5793   0.5845   0.6041   0.6299
     0.6482   0.6680   0.6825   0.6993   0.7254   0.8104   0.8578   0.8871
     0.9026   0.9325   1.0026   1.0656   1.1093   1.1280   1.1495   1.1549
     1.1742   1.2028   1.2216   1.2527   1.2600   1.3511   1.4018   1.4343
     1.4489   1.4781   1.4973   1.5231   1.5527   1.5656   1.5899   1.6068
     1.6344   1.6454   1.6809   1.7193   1.7509   1.7621   1.7755   1.8023
     1.8059   1.8181   1.8397   1.8618   1.8728   1.8896   1.9007   1.9296
     1.9407   1.9752   1.9960   2.0313   2.0521   2.0691   2.0769   2.0873
     2.0930   2.1100   2.1288   2.1326   2.1388   2.1630   2.1671   2.1702
     2.1765   2.2185   2.3064   2.3843   2.4053   2.4979   2.5727   2.8308
     2.8733   2.9429

          k = 0.2000-0.1155 0.0000 ( 36641 PWs)   bands (ev):

   -21.5089 -10.4904  -7.4775  -6.8576  -6.2329  -5.6772  -5.4319  -5.2743
    -4.7601  -4.7459  -4.2330  -4.0914  -3.8286  -3.8216  -3.7374  -3.6917
    -3.5336  -3.2727  -3.1549  -3.1342  -3.0465  -2.7787  -2.5844  -2.5400
    -2.5069  -2.4496  -2.4253  -2.2397  -2.1375  -2.1200  -2.1128  -2.0957
    -2.0676  -2.0302  -2.0237  -2.0064  -1.9796  -1.8855  -1.8431  -1.8047
    -1.7580  -1.7504  -1.7052  -1.5953  -1.5630  -1.5585  -1.5378  -1.4744
    -1.4073  -1.3939  -1.3530  -1.3189  -1.3012  -1.2810  -1.2610  -1.2538
    -1.2439  -1.2285  -1.1722  -1.1336  -1.1216  -1.1018  -1.0842  -1.0519
    -1.0078  -0.9329  -0.8048  -0.6523  -0.6396  -0.6247  -0.6032  -0.5463
    -0.4900  -0.4708  -0.4232  -0.4138  -0.3068  -0.2959  -0.2801  -0.2629
    -0.2452  -0.2358  -0.2202  -0.2104  -0.1986  -0.1861  -0.1518  -0.1014
    -0.0822  -0.0581  -0.0533  -0.0485  -0.0241  -0.0004   0.0074   0.0178
     0.0244   0.0341   0.0409   0.0476   0.0489   0.0526   0.0873   0.1008
     0.1290   0.1369   0.1487   0.1526   0.1797   0.1942   0.2075   0.2240
     0.2559   0.2597   0.3130   0.3269   0.3541   0.3692   0.3720   0.3998
     0.5161   0.5320   0.5881   0.6100   0.6178   0.6547   0.6663   0.6879
     0.6982   0.7156   0.7181   0.7205   0.9382   0.9741   1.0295   1.0428
     1.0522   1.0633   1.0879   1.0924   1.1314   1.1695   1.2071   1.2392
     1.2680   1.3097   1.3288   1.3439   1.3694   1.3834   1.4151   1.4599
     1.4714   1.5059   1.5167   1.5308   1.5420   1.5588   1.5843   1.5907
     1.6197   1.6510   1.6641   1.6820   1.7122   1.7194   1.7341   1.7538
     1.7777   1.7840   1.7968   1.8011   1.8130   1.8312   1.8759   1.8840
     1.8913   1.8960   1.9308   1.9377   1.9478   1.9641   1.9787   1.9853
     1.9993   2.0336   2.0387   2.0423   2.0670   2.0724   2.0768   2.0925
     2.1035   2.1293   2.1325   2.1424   2.2154   2.2312   2.2355   2.2649
     2.3110   2.3330

          k = 0.2000 0.1155 0.0000 ( 36641 PWs)   bands (ev):

   -21.5089 -10.4910  -7.4767  -6.8586  -6.2245  -5.6512  -5.4255  -5.3317
    -4.7456  -4.7367  -4.2411  -4.1234  -3.8287  -3.8248  -3.7061  -3.6799
    -3.5371  -3.2720  -3.1508  -3.1386  -3.0496  -2.7893  -2.5586  -2.5537
    -2.4945  -2.4452  -2.4408  -2.2090  -2.1647  -2.1148  -2.1135  -2.0956
    -2.0764  -2.0309  -2.0235  -1.9992  -1.9877  -1.8835  -1.8410  -1.8228
    -1.7567  -1.7517  -1.6894  -1.6557  -1.5660  -1.5594  -1.4993  -1.4446
    -1.4273  -1.3860  -1.3576  -1.3376  -1.2965  -1.2703  -1.2657  -1.2548
    -1.2483  -1.1970  -1.1893  -1.1396  -1.1229  -1.0940  -1.0804  -1.0528
    -0.9996  -0.9091  -0.8278  -0.6492  -0.6427  -0.6088  -0.5998  -0.5519
    -0.5118  -0.4582  -0.4276  -0.4138  -0.3174  -0.2867  -0.2819  -0.2635
    -0.2348  -0.2334  -0.2231  -0.2050  -0.2015  -0.1839  -0.1571  -0.1090
    -0.0740  -0.0581  -0.0496  -0.0488  -0.0286   0.0043   0.0089   0.0222
     0.0260   0.0335   0.0341   0.0446   0.0469   0.0550   0.0897   0.0962
     0.1334   0.1354   0.1542   0.1550   0.1717   0.2034   0.2102   0.2228
     0.2515   0.2622   0.3171   0.3363   0.3574   0.3604   0.3706   0.4003
     0.5318   0.5384   0.5602   0.6079   0.6142   0.6646   0.6690   0.6845
     0.6890   0.7076   0.7185   0.7228   0.8972   0.9850   1.0214   1.0456
     1.0487   1.0580   1.0840   1.0976   1.1158   1.1854   1.2162   1.2458
     1.2725   1.3089   1.3241   1.3618   1.3742   1.3905   1.4078   1.4157
     1.4766   1.5105   1.5284   1.5383   1.5550   1.5693   1.5851   1.5974
     1.6119   1.6517   1.6600   1.6893   1.6926   1.7292   1.7323   1.7649
     1.7786   1.7829   1.7925   1.8035   1.8125   1.8251   1.8740   1.8780
     1.8893   1.8906   1.9324   1.9359   1.9512   1.9686   1.9731   1.9862
     2.0024   2.0372   2.0411   2.0421   2.0674   2.0683   2.0748   2.0996
     2.1018   2.1303   2.1310   2.1423   2.2190   2.2275   2.2391   2.2706
     2.3089   2.3252

          k = 0.2000 0.3464 0.0000 ( 36608 PWs)   bands (ev):

   -21.5089 -10.4905  -7.2077  -6.8189  -6.1119  -5.7815  -5.7306  -5.4627
    -5.3614  -4.4948  -4.4012  -4.0241  -4.0074  -3.8947  -3.1930  -3.1785
    -3.1740  -3.1633  -3.0596  -2.9769  -2.8788  -2.8648  -2.8357  -2.5037
    -2.4565  -2.4218  -2.4111  -2.3514  -2.3236  -2.3054  -2.2414  -2.2155
    -2.2043  -2.1966  -2.1718  -2.0592  -2.0285  -1.9418  -1.8304  -1.8211
    -1.7828  -1.7644  -1.6973  -1.6863  -1.6207  -1.5323  -1.4988  -1.4692
    -1.3683  -1.3399  -1.3029  -1.2992  -1.2947  -1.2757  -1.2566  -1.2359
    -1.2255  -1.2073  -1.1666  -1.1159  -1.0745  -1.0148  -0.9605  -0.9177
    -0.8602  -0.8256  -0.8036  -0.7192  -0.6242  -0.6039  -0.5893  -0.5566
    -0.5387  -0.5111  -0.5056  -0.4840  -0.4368  -0.4180  -0.3962  -0.3788
    -0.3677  -0.3453  -0.3325  -0.3123  -0.2603  -0.2124  -0.1605  -0.1425
    -0.1324  -0.1129  -0.0775  -0.0587  -0.0419  -0.0278  -0.0185  -0.0069
     0.0108   0.0364   0.0412   0.0570   0.0686   0.0839   0.1130   0.1358
     0.1459   0.1516   0.1682   0.1796   0.1908   0.1959   0.2148   0.2238
     0.2748   0.3136   0.3169   0.3392   0.4365   0.4540   0.4720   0.4894
     0.5112   0.5285   0.5564   0.5960   0.6160   0.6304   0.6467   0.6547
     0.6595   0.6723   0.7255   0.7548   0.7932   0.8430   0.9472   0.9591
     1.0243   1.0529   1.0775   1.0994   1.1107   1.1236   1.1407   1.1475
     1.1700   1.1832   1.1957   1.2155   1.2492   1.3325   1.3408   1.3606
     1.3911   1.4083   1.4270   1.4479   1.4745   1.5079   1.5376   1.5460
     1.6024   1.6603   1.7338   1.7574   1.7682   1.7887   1.8044   1.8110
     1.8245   1.8345   1.8539   1.8582   1.8757   1.9249   1.9381   1.9462
     1.9560   1.9819   1.9968   2.0017   2.0210   2.0402   2.0473   2.0727
     2.0777   2.0891   2.0932   2.1130   2.1208   2.1526   2.1710   2.1869
     2.2118   2.2239   2.3195   2.3439   2.3596   2.4562   2.4925   2.6029
     2.7535   2.8090

          k = 0.2000-0.5774 0.0000 ( 36660 PWs)   bands (ev):

   -21.5089 -10.4898  -6.9584  -6.5597  -6.5033  -6.0103  -5.8135  -5.5066
    -5.1101  -4.9870  -4.5362  -4.0761  -3.5459  -3.4006  -3.2116  -3.2037
    -3.1851  -2.9895  -2.9505  -2.8025  -2.7926  -2.7855  -2.6588  -2.6467
    -2.6427  -2.6131  -2.6044  -2.5865  -2.4331  -2.3145  -2.2636  -2.2441
    -2.2260  -2.2086  -2.1717  -2.1664  -2.0847  -2.0452  -1.8578  -1.8199
    -1.7298  -1.7069  -1.7017  -1.6270  -1.5930  -1.5418  -1.4709  -1.4569
    -1.4238  -1.4101  -1.3990  -1.2941  -1.2437  -1.2406  -1.2251  -1.2111
    -1.1722  -1.1105  -1.0750  -1.0663  -1.0095  -0.9940  -0.9799  -0.9081
    -0.8789  -0.8184  -0.7189  -0.6842  -0.6747  -0.6359  -0.6100  -0.6011
    -0.5585  -0.5368  -0.5159  -0.4859  -0.4427  -0.4342  -0.3973  -0.3834
    -0.3641  -0.3475  -0.3346  -0.3209  -0.3150  -0.3054  -0.2750  -0.2518
    -0.2423  -0.2141  -0.1880  -0.1649  -0.1218  -0.0926  -0.0620  -0.0209
     0.0009   0.0344   0.0489   0.0718   0.0812   0.1036   0.1129   0.1319
     0.1649   0.1941   0.2118   0.2273   0.2409   0.2561   0.3160   0.3424
     0.3681   0.3863   0.3918   0.4043   0.4116   0.4539   0.4767   0.5015
     0.5088   0.5333   0.5717   0.5973   0.6171   0.6256   0.6563   0.6696
     0.6864   0.6932   0.7156   0.7371   0.7546   0.7688   0.7740   0.8159
     0.8773   0.9401   1.0081   1.0420   1.0608   1.0673   1.0974   1.1136
     1.1218   1.1444   1.1548   1.2394   1.2630   1.2939   1.3189   1.3289
     1.3633   1.3705   1.3980   1.4492   1.4610   1.4842   1.5136   1.5691
     1.5914   1.6855   1.7227   1.7459   1.7891   1.8085   1.8313   1.8506
     1.8617   1.8682   1.8855   1.9058   1.9290   1.9434   1.9591   1.9686
     1.9741   2.0149   2.0388   2.0435   2.0511   2.0557   2.0598   2.0668
     2.0738   2.1198   2.1310   2.1510   2.1581   2.1685   2.1773   2.1901
     2.2094   2.2696   2.3552   2.5118   2.6884   2.7670   2.9390   3.0443
     3.0705   3.0969

          k = 0.2000-0.3464 0.0000 ( 36608 PWs)   bands (ev):

   -21.5089 -10.4897  -7.2090  -6.8201  -6.1233  -5.8012  -5.7336  -5.4661
    -5.3118  -4.5188  -4.3768  -4.0195  -4.0125  -3.8875  -3.1914  -3.1795
    -3.1765  -3.1670  -3.0561  -2.9992  -2.8900  -2.8547  -2.8317  -2.5079
    -2.4654  -2.4264  -2.4119  -2.3434  -2.3219  -2.2993  -2.2616  -2.2154
    -2.2116  -2.1956  -2.1760  -2.0571  -2.0111  -1.8665  -1.8306  -1.8152
    -1.7900  -1.7786  -1.7157  -1.6910  -1.6053  -1.5297  -1.5068  -1.4580
    -1.3694  -1.3390  -1.3053  -1.3017  -1.2960  -1.2763  -1.2651  -1.2386
    -1.2340  -1.2021  -1.1556  -1.1211  -1.0911  -1.0355  -0.9719  -0.9322
    -0.8678  -0.8278  -0.7725  -0.7167  -0.6299  -0.6039  -0.5912  -0.5629
    -0.5392  -0.5180  -0.4873  -0.4636  -0.4412  -0.4043  -0.3961  -0.3813
    -0.3696  -0.3434  -0.3272  -0.3056  -0.2649  -0.2199  -0.1809  -0.1578
    -0.1385  -0.1231  -0.0685  -0.0668  -0.0436  -0.0351  -0.0133  -0.0015
     0.0064   0.0337   0.0392   0.0601   0.0773   0.0899   0.1086   0.1315
     0.1388   0.1464   0.1638   0.1870   0.1919   0.2074   0.2084   0.2208
     0.2682   0.3102   0.3261   0.3347   0.4473   0.4612   0.4650   0.5041
     0.5086   0.5557   0.5778   0.6072   0.6253   0.6325   0.6438   0.6527
     0.6566   0.6617   0.6967   0.7660   0.7917   0.8824   0.9226   0.9645
     1.0078   1.0412   1.0944   1.1060   1.1091   1.1245   1.1407   1.1546
     1.1624   1.1876   1.1948   1.2081   1.2460   1.3073   1.3482   1.3707
     1.3944   1.4127   1.4269   1.4387   1.4729   1.5038   1.5332   1.5673
     1.6069   1.6651   1.7150   1.7545   1.7739   1.7776   1.8003   1.8118
     1.8184   1.8330   1.8602   1.8660   1.8747   1.9319   1.9393   1.9416
     1.9560   1.9850   1.9947   1.9998   2.0204   2.0416   2.0514   2.0716
     2.0799   2.0876   2.0937   2.1134   2.1225   2.1316   2.1685   2.2003
[...]
     atom    8 type  1   force =     0.00000207   -0.00409434   -0.10112852
     atom    9 type  1   force =     0.00076340    0.00293425   -0.10529433
     atom   10 type  1   force =     0.00189902    0.00097548   -0.01175311
     atom   11 type  1   force =    -0.00095646   -0.00057284   -0.00866218
     atom   12 type  1   force =    -0.00081288    0.00193429   -0.01047411
     atom   13 type  1   force =    -0.00075761   -0.00057842   -0.00836212
     atom   14 type  1   force =     0.00119791    0.00057109   -0.00980159
     atom   15 type  1   force =    -0.00086639    0.00014023   -0.00970385
     atom   16 type  1   force =     0.00129281   -0.00154590   -0.01061488
     atom   17 type  1   force =    -0.00014566   -0.00054277   -0.00968665
     atom   18 type  1   force =    -0.00053485   -0.00016925   -0.01355372
     atom   19 type  1   force =    -0.00475234   -0.00098215    0.00581272
     atom   20 type  1   force =     0.00048513   -0.00062763    0.00514478
     atom   21 type  1   force =     0.00292554   -0.00469966    0.01079563
     atom   22 type  1   force =     0.00253521    0.00433297    0.00858146
     atom   23 type  1   force =    -0.00283813    0.00454021    0.01124393
     atom   24 type  1   force =     0.00032158   -0.00009956    0.01959862
     atom   25 type  1   force =     0.00167246    0.00094856    0.01905028
     atom   26 type  1   force =    -0.00271134   -0.00316807    0.00645925
     atom   27 type  1   force =     0.00405911    0.00073388    0.01066114
     atom   28 type  1   force =     0.04075989    0.02562874    0.15328313
     atom   29 type  1   force =    -0.04285188    0.07107175    0.18606820
     atom   30 type  1   force =    -0.01069728    0.00490891    0.11559433
     atom   31 type  1   force =     0.04483818   -0.06756668    0.18523278
     atom   32 type  1   force =     0.01221703    0.00213620    0.12713374
     atom   33 type  1   force =    -0.00137610   -0.00133462    0.11758841
     atom   34 type  1   force =    -0.00213919   -0.01133464    0.11546535
     atom   35 type  1   force =    -0.00097321   -0.00089154    0.11508560
     atom   36 type  1   force =     0.00051090   -0.00005368    0.10068963
     atom   37 type  2   force =    -0.29598282   -0.15599884    0.19571879
     atom   38 type  3   force =     1.91218212    0.98388668   -1.35423196
     atom   39 type  4   force =    -0.05068025   -0.02593787   -0.04438426
     The ionic contribution  to forces
     atom    1 type  1   force =    -0.00942853    0.00064024 -111.23240016
     atom    2 type  1   force =     0.00107770    0.00037095 -111.24919486
     atom    3 type  1   force =     0.00835079   -0.00018235 -111.23024729
     atom    4 type  1   force =    -0.00439649    0.00876723 -111.22992464
     atom    5 type  1   force =     0.00423216    0.00744415 -111.23025456
     atom    6 type  1   force =     0.00016435    0.00033957 -111.22153624
     atom    7 type  1   force =    -0.00123718   -0.00071131 -111.22168492
     atom    8 type  1   force =    -0.00394242   -0.00860464 -111.23197313
     atom    9 type  1   force =     0.00517960   -0.00806385 -111.22949300
     atom   10 type  1   force =    -0.05320304   -0.03201105  -40.18556229
     atom   11 type  1   force =     0.00974844   -0.07308009  -40.27375504
     atom   12 type  1   force =     0.04345299   -0.03123693  -40.16623258
     atom   13 type  1   force =    -0.05730093    0.04364136  -40.27735709
     atom   14 type  1   force =     0.06243096    0.03531944  -40.26732256
     atom   15 type  1   force =    -0.00512241    0.01555165  -40.15430644
     atom   16 type  1   force =    -0.00422734    0.05460867  -40.16739835
     atom   17 type  1   force =     0.01152878   -0.01055931  -40.15217108
     atom   18 type  1   force =    -0.00730375   -0.00223111  -40.14382740
     atom   19 type  1   force =    -0.47299107    0.03690026   31.20663078
     atom   20 type  1   force =     0.05494096    0.01756139   30.26261790
     atom   21 type  1   force =     0.41661032   -0.01316109   31.31663568
     atom   22 type  1   force =    -0.21378849    0.42758552   31.33704725
     atom   23 type  1   force =     0.20650305    0.37317899   31.31648731
     atom   24 type  1   force =     0.00784478    0.01572562   31.69232139
     atom   25 type  1   force =    -0.05888011   -0.03426888   31.68578615
     atom   26 type  1   force =    -0.19254630   -0.43217012   31.22923891
     atom   27 type  1   force =     0.25127598   -0.39199997   31.35744713
     atom   28 type  1   force =    -2.21419532   -1.34332048  103.14273177
     atom   29 type  1   force =     0.78380101   -4.70675313   99.32794567
     atom   30 type  1   force =     1.50500432   -1.08383215  104.00922143
     atom   31 type  1   force =    -3.65405507    3.04567849   98.99140966
     atom   32 type  1   force =     4.23808783    2.42384396   98.88609807
     atom   33 type  1   force =    -0.20475754    0.44834332  104.25945632
     atom   34 type  1   force =    -0.14482950    1.89485205  103.99018870
     atom   35 type  1   force =     0.30831971   -0.33068590  104.31110650
     atom   36 type  1   force =    -0.17354637   -0.02900851  104.50216302
     atom   37 type  2   force =     5.01319604    2.51570133   55.76990136
     atom   38 type  3   force =    -7.28007401   -3.76283483   89.04070149
     atom   39 type  4   force =     1.82407607    0.92866152   15.22950514
     The local contribution  to forces
     atom    1 type  1   force =     0.01389609   -0.00215676  111.33530292
     atom    2 type  1   force =    -0.00384148   -0.00171772  111.35237195
     atom    3 type  1   force =    -0.01005031    0.00190417  111.33766242
     atom    4 type  1   force =     0.00143146   -0.00818486  111.33639061
     atom    5 type  1   force =    -0.00362109   -0.00949437  111.33740787
     atom    6 type  1   force =     0.00194594    0.00094332  111.32525464
     atom    7 type  1   force =     0.00065218    0.00031782  111.32692392
     atom    8 type  1   force =     0.00458193    0.01306670  111.33551847
     atom    9 type  1   force =    -0.00609827    0.00509658  111.33635837
     atom   10 type  1   force =     0.05170766    0.03140706   40.17584052
     atom   11 type  1   force =    -0.01018206    0.07394280   40.26217715
     atom   12 type  1   force =    -0.04201133    0.02937880   40.15742339
     atom   13 type  1   force =     0.05743824   -0.04437732   40.26564277
     atom   14 type  1   force =    -0.06248609   -0.03538938   40.25420901
     atom   15 type  1   force =     0.00586266   -0.01617603   40.14323911
     atom   16 type  1   force =     0.00313784   -0.05250592   40.15888224
     atom   17 type  1   force =    -0.01180607    0.01118065   40.14119875
     atom   18 type  1   force =     0.00812813    0.00247885   40.13579114
     atom   19 type  1   force =     0.47710870   -0.03409743  -31.19069989
     atom   20 type  1   force =    -0.05609037   -0.01716518  -30.24935035
     atom   21 type  1   force =    -0.41623402    0.01576542  -31.30877610
     atom   22 type  1   force =     0.21037433   -0.43184341  -31.32557647
     atom   23 type  1   force =    -0.20388527   -0.37440841  -31.30841329
     atom   24 type  1   force =    -0.00688023   -0.01494435  -31.68889462
     atom   25 type  1   force =     0.05734712    0.03355067  -31.67929057
     atom   26 type  1   force =     0.19588726    0.43386455  -31.21410754
     atom   27 type  1   force =    -0.25553756    0.39046789  -31.34745235
     atom   28 type  1   force =     2.16414292    1.31215095 -103.30650697
     atom   29 type  1   force =    -0.73635932    4.61359629  -99.51944518
     atom   30 type  1   force =    -1.48492225    1.07169123 -104.13424897
     atom   31 type  1   force =     3.59062986   -2.96362966  -99.18227060
     atom   32 type  1   force =    -4.23710784   -2.41751622  -99.01764069
     atom   33 type  1   force =     0.20604319   -0.44410066 -104.39094650
     atom   34 type  1   force =     0.14625139   -1.87217706 -104.11476743
     atom   35 type  1   force =    -0.30487393    0.33036798 -104.43940009
     atom   36 type  1   force =     0.17004822    0.02778970 -104.61235396
     atom   37 type  2   force =    -4.71535131   -2.35877289  -55.96052822
     atom   38 type  3   force =     5.38609669    2.78800579  -87.70273338
     atom   39 type  4   force =    -1.78069974   -0.90628650  -15.18374355
     The core correction contribution to forces
     atom    1 type  1   force =     0.00040507   -0.00005171    0.01034291
     atom    2 type  1   force =    -0.00040408   -0.00021790    0.01001520
     atom    3 type  1   force =    -0.00004269    0.00013201    0.01046429
     atom    4 type  1   force =    -0.00022703   -0.00002764    0.01030127
     atom    5 type  1   force =     0.00007320   -0.00009756    0.01050259
     atom    6 type  1   force =    -0.00002740    0.00000380    0.01002243
     atom    7 type  1   force =    -0.00014548   -0.00008747    0.01033345
     atom    8 type  1   force =     0.00012252    0.00034305    0.01032815
     atom    9 type  1   force =    -0.00015606   -0.00018342    0.01025682
     atom   10 type  1   force =    -0.00013055   -0.00009087   -0.00210836
     atom   11 type  1   force =    -0.00012546    0.00012791   -0.00167064
     atom   12 type  1   force =     0.00037631    0.00002737   -0.00198270
     atom   13 type  1   force =     0.00001630   -0.00020390   -0.00164888
     atom   14 type  1   force =     0.00020138    0.00012844   -0.00208585
     atom   15 type  1   force =    -0.00000358    0.00001657   -0.00160752
     atom   16 type  1   force =     0.00021639    0.00032722   -0.00200012
     atom   17 type  1   force =    -0.00000392   -0.00003616   -0.00158330
     atom   18 type  1   force =    -0.00017912   -0.00009422   -0.00183885
     atom   19 type  1   force =    -0.00065481   -0.00034619    0.00139907
     atom   20 type  1   force =     0.00006364    0.00010777    0.00216797
     atom   21 type  1   force =     0.00020618   -0.00021148    0.00116832
     atom   22 type  1   force =    -0.00030677    0.00005055    0.00123694
     atom   23 type  1   force =    -0.00009707    0.00029904    0.00122772
     atom   24 type  1   force =    -0.00003587   -0.00003308    0.00205287
     atom   25 type  1   force =     0.00041972    0.00024109    0.00189230
     atom   26 type  1   force =    -0.00063778   -0.00036244    0.00145493
     atom   27 type  1   force =    -0.00015276   -0.00030047    0.00134020
     atom   28 type  1   force =     0.00243374    0.00136269   -0.00738237
     atom   29 type  1   force =    -0.00014168    0.01324320    0.00111318
     atom   30 type  1   force =    -0.00333332    0.00329831   -0.00897030
     atom   31 type  1   force =     0.01177023   -0.00723587    0.00218321
     atom   32 type  1   force =    -0.01017242   -0.00635232    0.00826747
     atom   33 type  1   force =    -0.00078896   -0.00032043   -0.00963739
     atom   34 type  1   force =     0.00124385   -0.00440582   -0.00901658
     atom   35 type  1   force =    -0.00083297   -0.00061568   -0.00969425
     atom   36 type  1   force =     0.00000124    0.00003211   -0.01078471
     atom   37 type  2   force =     0.00256569    0.00142397   -0.00168765
     atom   38 type  3   force =    -0.01594346   -0.00821427    0.01208556
     atom   39 type  4   force =     0.00000000    0.00000000    0.00000000
     The Hubbard contrib.    to forces
     atom    1 type  1   force =     0.00000000    0.00000000    0.00000000
     atom    2 type  1   force =     0.00000000    0.00000000    0.00000000
     atom    3 type  1   force =     0.00000000    0.00000000    0.00000000
     atom    4 type  1   force =     0.00000000    0.00000000    0.00000000
     atom    5 type  1   force =     0.00000000    0.00000000    0.00000000
     atom    6 type  1   force =     0.00000000    0.00000000    0.00000000
     atom    7 type  1   force =     0.00000000    0.00000000    0.00000000
     atom    8 type  1   force =     0.00000000    0.00000000    0.00000000
     atom    9 type  1   force =     0.00000000    0.00000000    0.00000000
     atom   10 type  1   force =     0.00000000    0.00000000    0.00000000
     atom   11 type  1   force =     0.00000000    0.00000000    0.00000000
     atom   12 type  1   force =     0.00000000    0.00000000    0.00000000
     atom   13 type  1   force =     0.00000000    0.00000000    0.00000000
     atom   14 type  1   force =     0.00000000    0.00000000    0.00000000
     atom   15 type  1   force =     0.00000000    0.00000000    0.00000000
     atom   16 type  1   force =     0.00000000    0.00000000    0.00000000
     atom   17 type  1   force =     0.00000000    0.00000000    0.00000000
     atom   18 type  1   force =     0.00000000    0.00000000    0.00000000
     atom   19 type  1   force =     0.00000000    0.00000000    0.00000000
     atom   20 type  1   force =     0.00000000    0.00000000    0.00000000
     atom   21 type  1   force =     0.00000000    0.00000000    0.00000000
     atom   22 type  1   force =     0.00000000    0.00000000    0.00000000
     atom   23 type  1   force =     0.00000000    0.00000000    0.00000000
     atom   24 type  1   force =     0.00000000    0.00000000    0.00000000
     atom   25 type  1   force =     0.00000000    0.00000000    0.00000000
     atom   26 type  1   force =     0.00000000    0.00000000    0.00000000
     atom   27 type  1   force =     0.00000000    0.00000000    0.00000000
     atom   28 type  1   force =     0.00000000    0.00000000    0.00000000
     atom   29 type  1   force =     0.00000000    0.00000000    0.00000000
     atom   30 type  1   force =     0.00000000    0.00000000    0.00000000
     atom   31 type  1   force =     0.00000000    0.00000000    0.00000000
     atom   32 type  1   force =     0.00000000    0.00000000    0.00000000
     atom   33 type  1   force =     0.00000000    0.00000000    0.00000000
     atom   34 type  1   force =     0.00000000    0.00000000    0.00000000
     atom   35 type  1   force =     0.00000000    0.00000000    0.00000000
     atom   36 type  1   force =     0.00000000    0.00000000    0.00000000
     atom   37 type  2   force =     0.00000000    0.00000000    0.00000000
     atom   38 type  3   force =     0.00000000    0.00000000    0.00000000
     atom   39 type  4   force =     0.00000000    0.00000000    0.00000000
     The SCF correction term to forces
     atom    1 type  1   force =    -0.00000000   -0.00000000    0.00000000
     atom    2 type  1   force =     0.00000000   -0.00000000    0.00000000
     atom    3 type  1   force =    -0.00000000    0.00000000    0.00000000
     atom    4 type  1   force =     0.00000000   -0.00000000    0.00000000
     atom    5 type  1   force =     0.00000000    0.00000000    0.00000000
     atom    6 type  1   force =    -0.00000000   -0.00000000    0.00000000
     atom    7 type  1   force =     0.00000000    0.00000000    0.00000000
     atom    8 type  1   force =    -0.00000000   -0.00000000    0.00000000
     atom    9 type  1   force =    -0.00000000    0.00000000    0.00000000
     atom   10 type  1   force =     0.00000000   -0.00000000    0.00000000
     atom   11 type  1   force =    -0.00000000    0.00000000    0.00000000
     atom   12 type  1   force =    -0.00000000    0.00000000    0.00000000
     atom   13 type  1   force =     0.00000000   -0.00000000    0.00000000
     atom   14 type  1   force =    -0.00000000    0.00000000    0.00000000
     atom   15 type  1   force =    -0.00000000    0.00000000    0.00000000
     atom   16 type  1   force =     0.00000000   -0.00000000    0.00000000
     atom   17 type  1   force =    -0.00000000   -0.00000000    0.00000000
     atom   18 type  1   force =    -0.00000000   -0.00000000    0.00000000
     atom   19 type  1   force =     0.00000000    0.00000000    0.00000000
     atom   20 type  1   force =     0.00000000   -0.00000000    0.00000000
     atom   21 type  1   force =    -0.00000000    0.00000000    0.00000000
     atom   22 type  1   force =     0.00000000   -0.00000000    0.00000000
     atom   23 type  1   force =    -0.00000000   -0.00000000    0.00000000
     atom   24 type  1   force =    -0.00000000    0.00000000    0.00000000
     atom   25 type  1   force =    -0.00000000   -0.00000000    0.00000000
     atom   26 type  1   force =     0.00000000    0.00000000    0.00000000
     atom   27 type  1   force =    -0.00000000    0.00000000    0.00000000
     atom   28 type  1   force =    -0.00000000   -0.00000000    0.00000000
     atom   29 type  1   force =     0.00000000    0.00000000    0.00000000
     atom   30 type  1   force =    -0.00000000    0.00000000    0.00000000
     atom   31 type  1   force =     0.00000000    0.00000000    0.00000000
     atom   32 type  1   force =    -0.00000000   -0.00000000    0.00000000
     atom   33 type  1   force =    -0.00000000   -0.00000000    0.00000000
     atom   34 type  1   force =     0.00000000   -0.00000000    0.00000000
     atom   35 type  1   force =    -0.00000000   -0.00000000    0.00000000
     atom   36 type  1   force =     0.00000000    0.00000000    0.00000000
     atom   37 type  2   force =     0.00005868    0.00003078   -0.00002109
     atom   38 type  3   force =     0.00005152    0.00003968    0.00003256
     atom   39 type  4   force =    -0.00000058   -0.00000193   -0.00002366

     Total force =     0.011329     Total SCF correction =     0.000103

     Writing all to output data dir ./pwscf.save/

     init_run     :     10.50s CPU     10.92s WALL (       1 calls)
     electrons    :    575.36s CPU    594.30s WALL (       1 calls)
     forces       :      3.12s CPU      3.16s WALL (       1 calls)

     Called by init_run:
     wfcinit      :      7.31s CPU      7.60s WALL (       1 calls)
     potinit      :      2.12s CPU      2.20s WALL (       1 calls)
     hinit0       :      0.83s CPU      0.85s WALL (       1 calls)

     Called by electrons:
     c_bands      :    486.12s CPU    501.22s WALL (      46 calls)
     sum_band     :     60.45s CPU     63.71s WALL (      46 calls)
     v_of_rho     :      7.19s CPU      7.34s WALL (      47 calls)
     newd         :      2.47s CPU      2.51s WALL (      47 calls)
     PAW_pot      :     11.70s CPU     11.81s WALL (      47 calls)
     mix_rho      :      8.77s CPU      8.93s WALL (      46 calls)
     vdW_kernel   :      1.07s CPU      1.07s WALL (       1 calls)

     Called by c_bands:
     init_us_2    :      5.76s CPU      6.04s WALL (    2444 calls)
     init_us_2:cp :      5.75s CPU      6.04s WALL (    2444 calls)
     cegterg      :    470.87s CPU    485.18s WALL (    1196 calls)

     Called by *egterg:
     cdiaghg      :    171.55s CPU    176.11s WALL (    3715 calls)
     h_psi        :    212.08s CPU    218.59s WALL (    3741 calls)
     s_psi        :     25.20s CPU     26.04s WALL (    3741 calls)
     g_psi        :      0.51s CPU      0.52s WALL (    2519 calls)

     Called by h_psi:
     h_psi:calbec :     32.88s CPU     33.47s WALL (    3741 calls)
     vloc_psi     :    151.59s CPU    156.80s WALL (    3741 calls)
     add_vuspsi   :     26.33s CPU     27.03s WALL (    3741 calls)

     General routines
     calbec       :     48.99s CPU     50.12s WALL (    5041 calls)
     fft          :      4.13s CPU      4.22s WALL (    4260 calls)
     ffts         :      5.64s CPU      5.74s WALL (   15785 calls)
     fftw         :    171.44s CPU    178.75s WALL ( 1240302 calls)
     interpolate  :      0.51s CPU      0.52s WALL (      94 calls)

     Parallel routines

     PWSCF        :   9m53.10s CPU  10m18.12s WALL


   This run was terminated on:  14:58:58  20Nov2025            

=------------------------------------------------------------------------------=
   JOB DONE.
=------------------------------------------------------------------------------=
