
     Program PWSCF v.7.1 starts on  7Nov2025 at 13: 1: 4 
        Git branch: heads/qe-7.1
        Last git commit: 48ba0178f8fede6d020eb786884699a9f063f55d-dirty
        Last git commit date: Fri Jan 27 14:22:33 2023 +0000
        Last git commit subject: Merge branch 'fix_hubbard' into 'develop'

     This program is part of the open-source Quantum ESPRESSO suite
     for quantum simulation of materials; please cite
         "P. Giannozzi et al., J. Phys.:Condens. Matter 21 395502 (2009);
         "P. Giannozzi et al., J. Phys.:Condens. Matter 29 465901 (2017);
         "P. Giannozzi et al., J. Chem. Phys. 152 154105 (2020);
          URL http://www.quantum-espresso.org", 
     in publications or presentations arising from this work. More details at
     http://www.quantum-espresso.org/quote

     Parallel version (MPI), running on    48 processors

     MPI processes distributed on     1 nodes
     271660 MiB available memory on the printing compute node when the environment starts

     Reading input from espresso.pwi
Warning: card &CELL ignored
Warning: card / ignored
Warning: card &FCP ignored
Warning: card / ignored
Warning: card &RISM ignored
Warning: card / ignored

     Current dimensions of program PWSCF are:
     Max number of different atomic species (ntypx) = 10
     Max number of k-points (npk) =  40000
     Max angular momentum in pseudopotentials (lmaxx) =  4
     file Pt.pbe-n-kjpaw_psl.1.0.0.UPF: wavefunction(s)  6S 5D renormalized
     file C.pbe-n-kjpaw_psl.1.0.0.UPF: wavefunction(s)  2S 2P renormalized
     file H.pbe-kjpaw_psl.1.0.0.UPF: wavefunction(s)  1S renormalized

     **************************************************************************
     Initializing libbeef V0.1.2 with the BEEF-vdW functional.
     Citation: Wellendorff et al., PRB 85, 235149 (2012).
     **************************************************************************


     IMPORTANT: XC functional enforced from input :
     Exchange-correlation= BEEF-VDW
                           (   1   4  43  14   2   0   0)
     Any further DFT definition will be discarded
     Please, verify this is what you really want


     R & G space division:  proc/nbgrp/npool/nimage =      48
     Subspace diagonalization in iterative solution of the eigenvalue problem:
     one sub-group per band group will be used
     custom distributed-memory algorithm (size of sub-group:  2*  2 procs)


     Parallelization info
     --------------------
     sticks:   dense  smooth     PW     G-vecs:    dense   smooth      PW
     Min         151      59     16                29407     7165    1028
     Max         152      60     17                29420     7176    1042
     Sum        7267    2839    769              1411785   344073   49691

     Using Slab Decomposition



     bravais-lattice index     =            0
     lattice parameter (alat)  =      16.0349  a.u.
     unit-cell volume          =   10068.6169 (a.u.)^3
     number of atoms/cell      =           38
     number of atomic types    =            3
     number of electrons       =       365.00
     number of Kohn-Sham states=          220
     kinetic-energy cutoff     =      40.0000  Ry
     charge density cutoff     =     410.0000  Ry
     scf convergence threshold =      1.0E-06
     mixing beta               =       0.7000
     number of iterations used =            8  local-TF  mixing
     Exchange-correlation= BEEF-VDW
                           (   1   4  43  14   2   0   0)

     celldm(1)=  16.034858  celldm(2)=   0.000000  celldm(3)=   0.000000
     celldm(4)=   0.000000  celldm(5)=   0.000000  celldm(6)=   0.000000

     crystal axes: (cart. coord. in units of alat)
               a(1) = (   1.000000   0.000000   0.000000 )  
               a(2) = (   0.500000   0.866025   0.000000 )  
               a(3) = (   0.000000   0.000000   2.819966 )  

     reciprocal axes: (cart. coord. in units 2 pi/alat)
               b(1) = (  1.000000 -0.577350  0.000000 )  
               b(2) = (  0.000000  1.154701  0.000000 )  
               b(3) = (  0.000000  0.000000  0.354614 )  


     PseudoPot. # 1 for Pt read from file:
     /users/kbadger1/espresso/pseudo/pslibrary.1.0.0/pbe/PSEUDOPOTENTIALS/Pt.pbe-n-kjpaw_psl.1.0.0.UPF
     MD5 check sum: 2e24a0b5bf98a4ed1a57fa81bca8c143
     Pseudo is Projector augmented-wave + core cor, Zval = 10.0
     Generated using 'atomic' code by A. Dal Corso  v.7.0
     Shape of augmentation charge: PSQ
     Using radial grid of 1277 points,  6 beta functions with: 
                l(1) =   0
                l(2) =   0
                l(3) =   1
                l(4) =   1
                l(5) =   2
                l(6) =   2
     Q(r) pseudized with 0 coefficients 


     PseudoPot. # 2 for C  read from file:
     /users/kbadger1/espresso/pseudo/pslibrary.1.0.0/pbe/PSEUDOPOTENTIALS/C.pbe-n-kjpaw_psl.1.0.0.UPF
     MD5 check sum: 6408e75cdba28732cea38a4db8498ce4
     Pseudo is Projector augmented-wave + core cor, Zval =  4.0
     Generated using 'atomic' code by A. Dal Corso  v.7.0
     Shape of augmentation charge: PSQ
     Using radial grid of 1073 points,  4 beta functions with: 
                l(1) =   0
                l(2) =   0
                l(3) =   1
                l(4) =   1
     Q(r) pseudized with 0 coefficients 


     PseudoPot. # 3 for H  read from file:
     /users/kbadger1/espresso/pseudo/pslibrary.1.0.0/pbe/PSEUDOPOTENTIALS/H.pbe-kjpaw_psl.1.0.0.UPF
     MD5 check sum: fe4c6fa958fa6d3815bf5d2419cbf1df
     Pseudo is Projector augmented-wave, Zval =  1.0
     Generated using 'atomic' code by A. Dal Corso  v.7.0
     Shape of augmentation charge: PSQ
     Using radial grid of  929 points,  2 beta functions with: 
                l(1) =   0
                l(2) =   0
     Q(r) pseudized with 0 coefficients 


     atomic species   valence    mass     pseudopotential
        Pt            10.00   195.08400     Pt( 1.00)
        C              4.00    12.01100     C ( 1.00)
        H              1.00     1.00800     H ( 1.00)

     No symmetry found



   Cartesian axes

     site n.     atom                  positions (alat units)
         1           Pt  tau(   1) = (   0.0000000   0.0000000   1.0017346  )
         2           Pt  tau(   2) = (   0.3333333   0.0000000   1.0017346  )
         3           Pt  tau(   3) = (   0.6666667   0.0000000   1.0017346  )
         4           Pt  tau(   4) = (   0.1666667   0.2886751   1.0017346  )
         5           Pt  tau(   5) = (   0.5000000   0.2886751   1.0017346  )
         6           Pt  tau(   6) = (   0.8333333   0.2886751   1.0017346  )
         7           Pt  tau(   7) = (   0.3333333   0.5773503   1.0017346  )
         8           Pt  tau(   8) = (   0.6666667   0.5773503   1.0017346  )
         9           Pt  tau(   9) = (   1.0000000   0.5773503   1.0017346  )
        10           Pt  tau(  10) = (   0.1666667   0.0962250   1.2739001  )
        11           Pt  tau(  11) = (   0.5000000   0.0962250   1.2739001  )
        12           Pt  tau(  12) = (   0.8333333   0.0962250   1.2739001  )
        13           Pt  tau(  13) = (   0.3333333   0.3849002   1.2739001  )
        14           Pt  tau(  14) = (   0.6666667   0.3849002   1.2739001  )
        15           Pt  tau(  15) = (   1.0000000   0.3849002   1.2739001  )
        16           Pt  tau(  16) = (   0.5000000   0.6735753   1.2739001  )
        17           Pt  tau(  17) = (   0.8333333   0.6735753   1.2739001  )
        18           Pt  tau(  18) = (   1.1666667   0.6735753   1.2739001  )
        19           Pt  tau(  19) = (   0.0023927   0.1932152   1.5505715  )
        20           Pt  tau(  20) = (   0.3309410   0.1932159   1.5505611  )
        21           Pt  tau(  21) = (   0.6666606   0.1945750   1.5420934  )
        22           Pt  tau(  22) = (   0.1666662   0.4778586   1.5489210  )
        23           Pt  tau(  23) = (   0.4994473   0.4822599   1.5412924  )
        24           Pt  tau(  24) = (   0.8338837   0.4822626   1.5412988  )
        25           Pt  tau(  25) = (   0.3343792   0.7721253   1.5454723  )
        26           Pt  tau(  26) = (   0.6666708   0.7723437   1.5469099  )
        27           Pt  tau(  27) = (   0.9989470   0.7721266   1.5454727  )
        28           Pt  tau(  28) = (  -0.0162588  -0.0078339   1.8319459  )
        29           Pt  tau(  29) = (   0.3495843  -0.0078298   1.8319247  )
        30           Pt  tau(  30) = (   0.6666615   0.0037400   1.8180372  )
        31           Pt  tau(  31) = (   0.1666628   0.3063278   1.8572077  )
        32           Pt  tau(  32) = (   0.5024434   0.2931144   1.8150687  )
        33           Pt  tau(  33) = (   0.8308897   0.2931125   1.8150733  )
        34           Pt  tau(  34) = (   0.3332462   0.5793382   1.8166831  )
        35           Pt  tau(  35) = (   0.6666664   0.5757700   1.8132651  )
        36           Pt  tau(  36) = (   1.0000847   0.5793400   1.8166823  )
        37           C   tau(  37) = (   0.1666660   0.0840132   1.9141453  )
        38           H   tau(  38) = (   0.1666882   0.3097787   2.0409632  )

     number of k points=    13  Marzari-Vanderbilt smearing, width (Ry)=  0.0010
                       cart. coord. in units 2pi/alat
        k(    1) = (   0.0000000   0.0000000   0.0000000), wk =   0.0800000
        k(    2) = (   0.0000000   0.2309401   0.0000000), wk =   0.1600000
        k(    3) = (   0.0000000   0.4618802   0.0000000), wk =   0.1600000
        k(    4) = (   0.2000000  -0.1154701   0.0000000), wk =   0.1600000
        k(    5) = (   0.2000000   0.1154701   0.0000000), wk =   0.1600000
        k(    6) = (   0.2000000   0.3464102   0.0000000), wk =   0.1600000
        k(    7) = (   0.2000000  -0.5773503   0.0000000), wk =   0.1600000
        k(    8) = (   0.2000000  -0.3464102   0.0000000), wk =   0.1600000
        k(    9) = (   0.4000000  -0.2309401   0.0000000), wk =   0.1600000
        k(   10) = (   0.4000000  -0.0000000   0.0000000), wk =   0.1600000
        k(   11) = (   0.4000000   0.2309401   0.0000000), wk =   0.1600000
        k(   12) = (   0.4000000  -0.6928203   0.0000000), wk =   0.1600000
        k(   13) = (   0.4000000  -0.4618802   0.0000000), wk =   0.1600000

     Dense  grid:  1411785 G-vectors     FFT dimensions: ( 108, 108, 300)

     Smooth grid:   344073 G-vectors     FFT dimensions: (  72,  72, 192)

     Estimated max dynamical RAM per process >     206.88 MB

     Estimated total dynamical RAM >       9.70 GB

     Initial potential from superposition of free atoms

     starting charge     364.9938, renormalised to     365.0000

     negative rho (up, down):  3.273E-03 0.000E+00


     %%%%%%%%%%%%%%%%%%%%%%%%%%%%%%%%%%%%%%%%%%%%%%%%%%%%%%%%%%%%%%%%%%%%%%%%
     %                                                                      %
     % You are using vdW-DF, which was implemented by the Thonhauser group. %
     % Please cite the following two papers that made this development      %
     % possible and the two reviews that describe the various versions:     %
     %                                                                      %
     %   T. Thonhauser et al., PRL 115, 136402 (2015).                      %
     %   T. Thonhauser et al., PRB 76, 125112 (2007).                       %
     %   K. Berland et al., Rep. Prog. Phys. 78, 066501 (2015).             %
     %   D.C. Langreth et al., J. Phys.: Condens. Matter 21, 084203 (2009). %
     %                                                                      %
     % If you are calculating stress with vdW-DF, please also cite:         %
     %                                                                      %
     %   R. Sabatini et al., J. Phys.: Condens. Matter 24, 424209 (2012).   %
     %                                                                      %
     %%%%%%%%%%%%%%%%%%%%%%%%%%%%%%%%%%%%%%%%%%%%%%%%%%%%%%%%%%%%%%%%%%%%%%%%

     %%%%%%%%%%%%%%%%%%%%%%%%%%%%%%%%%%%%%%%%%%%%%%%%%%%%%%%%%%%%%%%%%%%%%%%%
     %                                                                      %
     %  vdW-DF NEWS:                                                        %
     %                                                                      %
     %  * vdW-DF3 is now available. DOI: 10.1021/acs.jctc.0c00471           %
     %    use with input_dft = 'vdW-DF3-opt1' or 'vdW-DF3-opt2'             %
     %                                                                      %
     %  * Unscreened and range-separated hybrid vdW-DF-cx functionals       %
     %    DOI: 10.1063/1.4986522 and 10.1088/1361-648X/ac2ad2               %
     %    use with input_dft = 'vdW-DF-cx0'    and 'vdW-DF-ahcx'            %
     %  * Unscreened and range-separated hybrid vdW-DF2-b86r functionals    %
     %    DOI: 10.1063/1.4986522 and DOI: 10.1103/PhysRevX.12.041003        %
     %    use with input_dft = 'vdW-DF2-br0' and 'vdW-DF2-ahbr'             %
     %                                                                      %
     %%%%%%%%%%%%%%%%%%%%%%%%%%%%%%%%%%%%%%%%%%%%%%%%%%%%%%%%%%%%%%%%%%%%%%%%


     Starting wfcs are  329 randomized atomic wfcs
     Checking if some PAW data can be deallocated... 

     total cpu time spent up to now is       16.5 secs

     per-process dynamical memory:   211.8 Mb

     Self-consistent Calculation

     iteration #  1     ecut=    40.00 Ry     beta= 0.70
     Davidson diagonalization with overlap
     ethr =  1.00E-02,  avg # of iterations =  2.0

     Threshold (ethr) on eigenvalues was too large:
     Diagonalizing with lowered threshold

     Davidson diagonalization with overlap
     ethr =  4.99E-04,  avg # of iterations =  4.4

     negative rho (up, down):  1.481E-02 0.000E+00

     total cpu time spent up to now is       56.4 secs

     total energy              =  -27774.06463349 Ry
     estimated scf accuracy    <       2.10665768 Ry

     iteration #  2     ecut=    40.00 Ry     beta= 0.70
     Davidson diagonalization with overlap
     ethr =  5.77E-04,  avg # of iterations =  2.0

     negative rho (up, down):  1.234E-02 0.000E+00

     total cpu time spent up to now is       77.6 secs

     total energy              =  -27774.28459018 Ry
     estimated scf accuracy    <       0.76443475 Ry

     iteration #  3     ecut=    40.00 Ry     beta= 0.70
     Davidson diagonalization with overlap
     ethr =  2.09E-04,  avg # of iterations =  2.0

     negative rho (up, down):  8.405E-03 0.000E+00

     total cpu time spent up to now is       98.5 secs

     total energy              =  -27774.34910041 Ry
     estimated scf accuracy    <       0.17956478 Ry

     iteration #  4     ecut=    40.00 Ry     beta= 0.70
     Davidson diagonalization with overlap
     ethr =  4.92E-05,  avg # of iterations = 10.7

     negative rho (up, down):  4.493E-03 0.000E+00

     total cpu time spent up to now is      136.6 secs

     total energy              =  -27774.39276636 Ry
     estimated scf accuracy    <       0.07195001 Ry

     iteration #  5     ecut=    40.00 Ry     beta= 0.70
     Davidson diagonalization with overlap
     ethr =  1.97E-05,  avg # of iterations =  3.8

     negative rho (up, down):  2.817E-03 0.000E+00

     total cpu time spent up to now is      159.6 secs

     total energy              =  -27774.39924912 Ry
     estimated scf accuracy    <       0.04138318 Ry

     iteration #  6     ecut=    40.00 Ry     beta= 0.70
     Davidson diagonalization with overlap
     ethr =  1.13E-05,  avg # of iterations =  2.0

     negative rho (up, down):  9.786E-04 0.000E+00

     total cpu time spent up to now is      172.7 secs

     total energy              =  -27774.40076513 Ry
     estimated scf accuracy    <       0.00569363 Ry

     iteration #  7     ecut=    40.00 Ry     beta= 0.70
     Davidson diagonalization with overlap
     c_bands:  1 eigenvalues not converged
     c_bands:  1 eigenvalues not converged
     c_bands:  1 eigenvalues not converged
     c_bands:  1 eigenvalues not converged
     ethr =  1.56E-06,  avg # of iterations = 17.3

     negative rho (up, down):  5.590E-04 0.000E+00

     total cpu time spent up to now is      222.7 secs

     total energy              =  -27774.40273002 Ry
     estimated scf accuracy    <       0.00194629 Ry

     iteration #  8     ecut=    40.00 Ry     beta= 0.70
     Davidson diagonalization with overlap
     c_bands:  1 eigenvalues not converged
     c_bands:  1 eigenvalues not converged
     ethr =  5.33E-07,  avg # of iterations =  5.2

     negative rho (up, down):  4.212E-04 0.000E+00

     total cpu time spent up to now is      248.2 secs

     total energy              =  -27774.40298029 Ry
     estimated scf accuracy    <       0.00031858 Ry

     iteration #  9     ecut=    40.00 Ry     beta= 0.70
     Davidson diagonalization with overlap
     ethr =  8.73E-08,  avg # of iterations =  6.2

     negative rho (up, down):  3.563E-04 0.000E+00

     total cpu time spent up to now is      278.0 secs

     total energy              =  -27774.40305806 Ry
     estimated scf accuracy    <       0.00025402 Ry

     iteration # 10     ecut=    40.00 Ry     beta= 0.70
     Davidson diagonalization with overlap
     ethr =  6.96E-08,  avg # of iterations =  1.4

     negative rho (up, down):  3.823E-04 0.000E+00

     total cpu time spent up to now is      289.9 secs

     total energy              =  -27774.40307877 Ry
     estimated scf accuracy    <       0.00017057 Ry

     iteration # 11     ecut=    40.00 Ry     beta= 0.70
     Davidson diagonalization with overlap
     ethr =  4.67E-08,  avg # of iterations =  2.0

     negative rho (up, down):  5.458E-04 0.000E+00

     total cpu time spent up to now is      311.2 secs

     total energy              =  -27774.40310993 Ry
     estimated scf accuracy    <       0.00010079 Ry

     iteration # 12     ecut=    40.00 Ry     beta= 0.70
     Davidson diagonalization with overlap
     ethr =  2.76E-08,  avg # of iterations =  2.0

     negative rho (up, down):  9.443E-04 0.000E+00

     total cpu time spent up to now is      323.1 secs

     total energy              =  -27774.40313801 Ry
     estimated scf accuracy    <       0.00005740 Ry

     iteration # 13     ecut=    40.00 Ry     beta= 0.70
     Davidson diagonalization with overlap
     ethr =  1.57E-08,  avg # of iterations =  2.1

     negative rho (up, down):  1.567E-03 0.000E+00

     total cpu time spent up to now is      344.7 secs

     total energy              =  -27774.40315381 Ry
     estimated scf accuracy    <       0.00002190 Ry

     iteration # 14     ecut=    40.00 Ry     beta= 0.70
     Davidson diagonalization with overlap
     ethr =  6.00E-09,  avg # of iterations =  2.0

     negative rho (up, down):  1.824E-03 0.000E+00

     total cpu time spent up to now is      361.7 secs

     total energy              =  -27774.40316132 Ry
     estimated scf accuracy    <       0.00001164 Ry

     iteration # 15     ecut=    40.00 Ry     beta= 0.70
     Davidson diagonalization with overlap
     ethr =  3.19E-09,  avg # of iterations =  2.0

     negative rho (up, down):  2.618E-03 0.000E+00

     total cpu time spent up to now is      378.6 secs

     total energy              =  -27774.40316010 Ry
     estimated scf accuracy    <       0.00000423 Ry

     iteration # 16     ecut=    40.00 Ry     beta= 0.70
     Davidson diagonalization with overlap
     ethr =  1.16E-09,  avg # of iterations =  3.4

     negative rho (up, down):  2.926E-03 0.000E+00

     total cpu time spent up to now is      404.1 secs

     total energy              =  -27774.40315934 Ry
     estimated scf accuracy    <       0.00000207 Ry

     iteration # 17     ecut=    40.00 Ry     beta= 0.70
     Davidson diagonalization with overlap
     ethr =  5.67E-10,  avg # of iterations =  2.0

     negative rho (up, down):  3.111E-03 0.000E+00

     total cpu time spent up to now is      426.9 secs

     End of self-consistent calculation

          k = 0.0000 0.0000 0.0000 ( 42913 PWs)   bands (ev):

    -9.7150  -6.0917  -4.8110  -4.3257  -4.2911  -3.7738  -3.7490  -3.7224
    -3.7007  -3.6826  -3.6324  -3.6190  -3.5806  -3.3895  -3.1859  -3.1834
    -3.1570  -3.1269  -3.1080  -3.0780  -2.7664  -2.7574  -2.7362  -2.6743
    -2.5537  -2.5477  -2.5354  -2.5077  -2.4833  -2.4529  -2.4428  -2.4191
    -2.3404  -2.3390  -2.2694  -2.2504  -2.2253  -2.2170  -2.2073  -2.1559
    -2.1429  -2.0837  -1.9276  -1.8838  -1.7949  -1.7346  -1.6760  -1.6737
    -1.6356  -1.6319  -1.5943  -1.5158  -1.4920  -1.4749  -1.4045  -1.3790
    -1.3429  -1.2815  -1.0856  -0.9960  -0.9940  -0.8864  -0.8634  -0.8311
    -0.7730  -0.7559  -0.7535  -0.6965  -0.6742  -0.6510  -0.6495  -0.6364
    -0.6232  -0.6093  -0.5839  -0.5679  -0.5507  -0.5332  -0.5308  -0.5224
    -0.4846  -0.4777  -0.4688  -0.4558  -0.4258  -0.4121  -0.3646  -0.3247
    -0.2562  -0.2453  -0.2338  -0.2087  -0.1834  -0.1562  -0.1227  -0.1211
    -0.1020  -0.0903  -0.0314  -0.0039   0.0029   0.0389   0.0429   0.0495
     0.1096   0.1243   0.1792   0.1918   0.2053   0.2468   0.3994   0.4757
     0.4964   0.5296   0.6447   0.6466   0.6837   0.6842   0.7099   0.7296
     0.8217   0.8336   0.8404   0.8908   0.9041   0.9042   0.9187   0.9203
     0.9591   1.0342   1.1422   1.1474   1.1847   1.1869   1.2079   1.2405
     1.2539   1.3240   1.3755   1.3806   1.4356   1.4476   1.4718   1.4957
     1.4976   1.5634   1.6076   1.6596   1.7040   1.7067   1.7185   1.7530
     1.8040   1.8609   1.8619   1.8753   1.8810   1.8917   1.8928   1.9113
     1.9159   1.9260   1.9612   1.9635   1.9777   2.0071   2.0133   2.0347
     2.0796   2.0796   2.0990   2.1072   2.1142   2.1570   2.1649   2.1898
     2.2427   2.2428   2.2483   2.2607   2.2614   2.2949   2.3161   2.3413
     2.3721   2.3733   2.4058   2.4126   2.5401   2.5422   2.6410   2.6617
     2.6629   2.6977   2.6982   2.7266   2.8781   2.9803   3.3481   3.3629
     3.5596   3.5633   3.6153   4.3675   4.6160   4.7982   5.6433   5.7427
     5.8368   5.9272   6.1295   6.2065   6.6054   7.4957   7.5144   7.5193
     7.5258   7.5601   7.7182   7.7473

          k = 0.0000 0.2309 0.0000 ( 42996 PWs)   bands (ev):

    -9.7069  -5.9510  -4.7143  -4.3914  -4.2519  -4.0957  -3.7908  -3.7254
    -3.6126  -3.5752  -3.5075  -3.4728  -3.4189  -3.3725  -3.2385  -3.2003
    -3.1122  -3.0741  -3.0430  -3.0343  -2.7635  -2.7333  -2.6999  -2.6735
    -2.6036  -2.5911  -2.5529  -2.5223  -2.4784  -2.4588  -2.4231  -2.4158
    -2.3697  -2.3566  -2.2972  -2.2758  -2.2557  -2.2350  -2.1355  -2.0456
    -2.0441  -2.0242  -1.8945  -1.8620  -1.8281  -1.8125  -1.7691  -1.7336
    -1.7082  -1.7041  -1.6216  -1.5555  -1.4540  -1.4361  -1.3917  -1.3556
    -1.3292  -1.2905  -1.1475  -1.0754  -1.0602  -1.0155  -1.0060  -0.9400
    -0.9328  -0.8995  -0.8843  -0.8570  -0.7876  -0.7793  -0.7312  -0.7108
    -0.6949  -0.6602  -0.6391  -0.5927  -0.5552  -0.5368  -0.4969  -0.4941
    -0.4606  -0.4525  -0.4300  -0.4097  -0.3822  -0.3734  -0.3325  -0.3112
    -0.2655  -0.2592  -0.2548  -0.2086  -0.2073  -0.1905  -0.1657  -0.1234
    -0.0759  -0.0757  -0.0505  -0.0401  -0.0272  -0.0029   0.0039   0.0737
     0.0770   0.1608   0.1655   0.2085   0.2280   0.2360   0.2766   0.2835
     0.2874   0.3412   0.3837   0.4670   0.5264   0.5887   0.6146   0.6782
     0.7108   0.7181   0.7454   0.7463   0.8745   0.9102   0.9451   0.9459
     1.0155   1.0201   1.0346   1.0501   1.0900   1.1014   1.1484   1.1752
     1.2292   1.3015   1.3133   1.3179   1.3643   1.3874   1.4080   1.4449
     1.4803   1.5257   1.5328   1.5981   1.6248   1.6423   1.6625   1.7071
     1.7082   1.7470   1.7902   1.8429   1.8453   1.8838   1.8928   1.9348
     1.9597   2.0065   2.0308   2.0682   2.0739   2.1042   2.1474   2.1507
     2.2010   2.2351   2.2449   2.2693   2.3202   2.3287   2.3382   2.3526
     2.3702   2.4139   2.4168   2.4578   2.4746   2.5442   2.5579   2.5783
     2.6072   2.6208   2.6408   2.6788   2.6840   2.7062   2.7582   2.7656
     2.8245   2.8251   2.9214   2.9711   3.0102   3.2986   3.3024   3.4698
     3.7685   4.0160   4.2094   4.2398   4.8414   4.9427   5.3702   5.5360
     5.8150   5.9173   6.3469   6.5121   6.5701   6.5999   6.8605   7.3117
     7.5211   7.6623   7.7568   7.8512

          k = 0.0000 0.4619 0.0000 ( 43046 PWs)   bands (ev):

    -9.6938  -5.5507  -4.9524  -4.4673  -4.1860  -4.1249  -3.8251  -3.6987
    -3.6649  -3.4789  -3.4093  -3.3192  -3.2156  -3.1404  -3.1063  -3.1001
    -2.9724  -2.9529  -2.9083  -2.8893  -2.8666  -2.8234  -2.7435  -2.7204
    -2.7023  -2.6838  -2.6623  -2.6393  -2.5746  -2.5421  -2.4258  -2.3895
    -2.3152  -2.3123  -2.2774  -2.2376  -2.2010  -2.1426  -2.1245  -2.0527
    -2.0500  -2.0281  -1.9987  -1.8764  -1.8333  -1.7941  -1.7636  -1.7493
    -1.6491  -1.6359  -1.6019  -1.5800  -1.5530  -1.5402  -1.4796  -1.4434
    -1.4018  -1.3533  -1.2857  -1.2144  -1.1972  -1.1911  -1.1412  -1.1191
    -1.0297  -0.9996  -0.9709  -0.9543  -0.8882  -0.8729  -0.8409  -0.8221
    -0.7597  -0.7104  -0.6936  -0.6832  -0.6268  -0.6149  -0.5484  -0.5425
    -0.5264  -0.4973  -0.4859  -0.4658  -0.4249  -0.4179  -0.3990  -0.3759
    -0.3646  -0.3175  -0.2760  -0.2741  -0.2548  -0.2282  -0.2060  -0.1938
    -0.1290  -0.1069  -0.0987  -0.0738  -0.0252  -0.0221  -0.0019   0.0273
     0.0506   0.0724   0.1516   0.1783   0.2053   0.2480   0.2603   0.3168
     0.3693   0.3744   0.4498   0.4640   0.5068   0.5315   0.5787   0.6048
     0.6258   0.6595   0.6717   0.7354   0.7483   0.7678   0.7720   0.7929
     0.8216   0.9018   0.9041   0.9515   0.9698   0.9868   1.0572   1.0724
     1.1602   1.2268   1.2338   1.2968   1.3059   1.3522   1.3633   1.4069
     1.4792   1.4835   1.5578   1.5606   1.5706   1.5971   1.6167   1.6481
     1.7093   1.7523   1.7784   1.7857   1.8489   1.8547   1.9044   1.9117
     1.9669   2.0104   2.0393   2.0831   2.1311   2.1405   2.2303   2.2414
     2.2618   2.3015   2.3355   2.3577   2.3831   2.3931   2.4518   2.4838
     2.4982   2.5343   2.5524   2.5793   2.5938   2.6412   2.6608   2.7195
     2.7703   2.8337   2.8349   2.8504   2.8958   2.9206   3.0765   3.2451
     3.2946   3.3455   3.5673   3.7745   3.8302   4.0324   4.1120   4.3994
     4.4318   4.6517   4.6783   4.7908   5.1146   5.1357   5.2604   5.3493
     5.4788   5.5011   5.6018   6.0110   6.1449   6.2546   6.5215   6.9109
     6.9531   7.2450   7.4820   7.5799

          k = 0.2000-0.1155 0.0000 ( 42996 PWs)   bands (ev):

    -9.7060  -5.9517  -4.7146  -4.3966  -4.2728  -4.0650  -3.7756  -3.7441
    -3.6111  -3.5636  -3.5223  -3.4489  -3.4358  -3.3750  -3.2373  -3.2025
    -3.1232  -3.0767  -3.0520  -3.0113  -2.8074  -2.7393  -2.6761  -2.6631
    -2.6147  -2.5764  -2.5502  -2.5025  -2.4741  -2.4666  -2.4320  -2.4122
    -2.3784  -2.3587  -2.3059  -2.2885  -2.2577  -2.1913  -2.1825  -2.0892
    -2.0414  -2.0025  -1.8912  -1.8594  -1.8180  -1.7987  -1.7694  -1.7358
    -1.7117  -1.6745  -1.6397  -1.5274  -1.4562  -1.4234  -1.3850  -1.3604
    -1.3237  -1.2928  -1.1685  -1.0809  -1.0434  -1.0091  -1.0046  -0.9641
    -0.9256  -0.8983  -0.8842  -0.8384  -0.8008  -0.7589  -0.7282  -0.7070
    -0.6820  -0.6677  -0.6418  -0.6041  -0.5732  -0.5489  -0.5179  -0.4865
    -0.4545  -0.4387  -0.4127  -0.4040  -0.3957  -0.3670  -0.3430  -0.3116
    -0.2917  -0.2712  -0.2416  -0.2256  -0.2055  -0.1733  -0.1515  -0.1264
    -0.0997  -0.0787  -0.0519  -0.0393  -0.0231  -0.0050   0.0049   0.0567
     0.0733   0.1230   0.1675   0.2148   0.2340   0.2437   0.2757   0.2888
     0.3158   0.3671   0.3920   0.4820   0.5312   0.5530   0.6213   0.6488
     0.6716   0.7177   0.7366   0.7950   0.8705   0.8907   0.9238   0.9668
     1.0018   1.0285   1.0654   1.0816   1.0937   1.1143   1.1192   1.1534
     1.2352   1.2872   1.3035   1.3221   1.3429   1.3926   1.4163   1.4377
     1.4824   1.5215   1.5491   1.5841   1.6339   1.6753   1.6854   1.7041
     1.7177   1.7453   1.8116   1.8448   1.8620   1.8725   1.9117   1.9348
     1.9658   1.9877   2.0300   2.0659   2.0843   2.1180   2.1472   2.1626
     2.2061   2.2174   2.2407   2.2596   2.3091   2.3197   2.3379   2.3595
     2.3725   2.4030   2.4202   2.4469   2.4871   2.5432   2.5536   2.5786
     2.6048   2.6149   2.6408   2.6754   2.6843   2.7048   2.7501   2.7653
     2.8263   2.8863   2.9426   2.9640   3.0029   3.1411   3.3161   3.6232
     3.7919   3.9147   4.2257   4.3656   4.6242   4.9466   5.3415   5.6516
     5.8018   6.0453   6.2669   6.4170   6.5563   6.6747   6.7821   7.3173
     7.4997   7.6309   7.7292   7.8166

          k = 0.2000 0.1155 0.0000 ( 42996 PWs)   bands (ev):

    -9.7060  -5.9517  -4.7146  -4.3966  -4.2729  -4.0650  -3.7756  -3.7440
    -3.6111  -3.5636  -3.5223  -3.4489  -3.4358  -3.3750  -3.2373  -3.2025
    -3.1232  -3.0767  -3.0520  -3.0113  -2.8074  -2.7392  -2.6762  -2.6631
    -2.6147  -2.5764  -2.5502  -2.5025  -2.4740  -2.4666  -2.4320  -2.4122
    -2.3784  -2.3587  -2.3059  -2.2885  -2.2577  -2.1913  -2.1825  -2.0892
    -2.0414  -2.0025  -1.8912  -1.8594  -1.8180  -1.7987  -1.7695  -1.7358
    -1.7117  -1.6744  -1.6397  -1.5274  -1.4562  -1.4234  -1.3850  -1.3604
    -1.3237  -1.2929  -1.1685  -1.0809  -1.0434  -1.0091  -1.0046  -0.9641
    -0.9256  -0.8983  -0.8842  -0.8384  -0.8008  -0.7589  -0.7282  -0.7071
    -0.6820  -0.6677  -0.6418  -0.6041  -0.5732  -0.5489  -0.5179  -0.4865
    -0.4545  -0.4387  -0.4127  -0.4040  -0.3957  -0.3671  -0.3430  -0.3116
    -0.2916  -0.2712  -0.2416  -0.2256  -0.2055  -0.1733  -0.1515  -0.1264
    -0.0997  -0.0787  -0.0519  -0.0393  -0.0231  -0.0050   0.0049   0.0567
     0.0733   0.1230   0.1675   0.2148   0.2340   0.2437   0.2757   0.2888
     0.3158   0.3671   0.3920   0.4820   0.5312   0.5530   0.6213   0.6488
     0.6716   0.7177   0.7366   0.7949   0.8705   0.8907   0.9238   0.9668
     1.0018   1.0285   1.0654   1.0817   1.0937   1.1143   1.1192   1.1534
     1.2352   1.2872   1.3035   1.3221   1.3429   1.3926   1.4163   1.4377
     1.4824   1.5215   1.5491   1.5841   1.6339   1.6752   1.6853   1.7041
     1.7177   1.7454   1.8115   1.8448   1.8620   1.8725   1.9117   1.9348
     1.9658   1.9877   2.0299   2.0659   2.0843   2.1180   2.1472   2.1626
     2.2061   2.2174   2.2407   2.2596   2.3091   2.3197   2.3379   2.3595
     2.3725   2.4031   2.4202   2.4469   2.4871   2.5432   2.5536   2.5786
     2.6048   2.6149   2.6408   2.6754   2.6843   2.7048   2.7501   2.7653
     2.8263   2.8864   2.9426   2.9640   3.0029   3.1411   3.3161   3.6232
     3.7919   3.9148   4.2257   4.3656   4.6242   4.9466   5.3415   5.6517
     5.8018   6.0453   6.2669   6.4170   6.5563   6.6747   6.7821   7.3173
     7.4997   7.6309   7.7292   7.8164

          k = 0.2000 0.3464 0.0000 ( 43046 PWs)   bands (ev):

    -9.6954  -5.6799  -4.6714  -4.5288  -4.3748  -4.0937  -4.0514  -3.5171
    -3.4219  -3.4064  -3.3657  -3.3362  -3.3138  -3.2539  -3.2370  -3.2077
    -3.1412  -3.1134  -2.8702  -2.8473  -2.8160  -2.7745  -2.7602  -2.6894
    -2.6556  -2.6322  -2.5611  -2.5295  -2.4976  -2.4894  -2.4545  -2.4499
    -2.3917  -2.3572  -2.3299  -2.2843  -2.2629  -2.2362  -2.1558  -2.1366
    -2.0185  -1.9370  -1.8833  -1.8589  -1.8214  -1.7866  -1.7505  -1.7286
    -1.6802  -1.6519  -1.5974  -1.5548  -1.5375  -1.4790  -1.4479  -1.3703
    -1.3481  -1.3175  -1.2622  -1.2183  -1.1788  -1.1468  -1.1295  -1.0552
    -1.0253  -0.9734  -0.9528  -0.9411  -0.9118  -0.8700  -0.8148  -0.7857
    -0.7508  -0.7294  -0.7086  -0.6916  -0.6153  -0.5976  -0.5692  -0.5323
    -0.5048  -0.4808  -0.4743  -0.4574  -0.4388  -0.4056  -0.3634  -0.3433
    -0.3121  -0.2922  -0.2810  -0.2595  -0.2218  -0.2094  -0.1834  -0.1458
    -0.1309  -0.0976  -0.0736  -0.0455  -0.0322  -0.0066   0.0047   0.0198
     0.0490   0.0804   0.0905   0.1314   0.1659   0.1909   0.2249   0.2687
     0.2918   0.3367   0.3538   0.4554   0.5009   0.5589   0.5855   0.5988
     0.6497   0.6856   0.7124   0.7364   0.7726   0.7866   0.8058   0.8525
     0.8693   0.8887   0.9316   0.9780   1.0167   1.0894   1.1009   1.1205
     1.1647   1.2376   1.2594   1.2780   1.2949   1.3121   1.3343   1.4331
     1.4531   1.4909   1.5248   1.5463   1.6091   1.6312   1.6371   1.6670
     1.6925   1.7060   1.7337   1.7439   1.7814   1.8127   1.8744   1.9657
     1.9989   2.0432   2.1188   2.1572   2.1906   2.2232   2.2456   2.2805
     2.3251   2.3518   2.3691   2.4051   2.4212   2.4392   2.4531   2.4694
     2.4966   2.5096   2.5367   2.5697   2.5942   2.6230   2.6480   2.6970
     2.7174   2.7506   2.8031   2.8476   2.8954   2.9173   2.9639   2.9954
     3.0815   3.1163   3.4260   3.6026   3.6867   3.8416   3.9068   4.0750
     4.1915   4.3304   4.6603   4.7572   4.9233   5.1289   5.2485   5.2904
     5.4294   5.9350   6.1052   6.2700   6.3883   6.6026   6.6639   6.9655
     7.0817   7.1501   7.2251   7.5073

          k = 0.2000-0.5774 0.0000 ( 43014 PWs)   bands (ev):

    -9.6888  -5.2283  -5.1193  -4.6366  -4.3316  -4.0546  -3.8581  -3.7500
    -3.4434  -3.3776  -3.3207  -3.2494  -3.1866  -3.1088  -3.0659  -3.0273
    -2.9759  -2.9018  -2.8896  -2.8586  -2.8462  -2.8327  -2.7852  -2.7639
    -2.7216  -2.6822  -2.6581  -2.6376  -2.6132  -2.5421  -2.4671  -2.4198
    -2.4005  -2.3621  -2.3435  -2.2775  -2.2377  -2.2144  -2.1983  -2.0953
    -2.0483  -2.0033  -1.8983  -1.8657  -1.8270  -1.7769  -1.7664  -1.7230
    -1.6955  -1.5773  -1.5450  -1.4757  -1.4713  -1.4099  -1.4017  -1.3714
    -1.3512  -1.3371  -1.2980  -1.2825  -1.2380  -1.1928  -1.1688  -1.1542
    -1.1150  -1.0978  -1.0315  -1.0268  -0.9487  -0.9448  -0.8822  -0.8396
    -0.8318  -0.7874  -0.7750  -0.7486  -0.7140  -0.6997  -0.6619  -0.6250
    -0.5853  -0.5393  -0.5309  -0.4979  -0.4745  -0.4491  -0.4001  -0.3691
    -0.3424  -0.3141  -0.2984  -0.2393  -0.1981  -0.1652  -0.1482  -0.1296
    -0.1075  -0.0856  -0.0688  -0.0494  -0.0289   0.0003   0.0231   0.0341
     0.0509   0.0760   0.0947   0.1115   0.1271   0.1485   0.1637   0.2113
     0.2277   0.3043   0.3939   0.4546   0.4854   0.5181   0.5341   0.5869
     0.6124   0.6470   0.6609   0.6748   0.7158   0.7465   0.7686   0.7962
     0.8597   0.8946   0.9217   0.9442   0.9727   1.0194   1.0907   1.1534
     1.1740   1.2363   1.2578   1.2796   1.3079   1.3467   1.3558   1.3643
     1.3949   1.4406   1.4641   1.4955   1.4979   1.5619   1.5853   1.6178
     1.6427   1.6900   1.7569   1.7772   1.8061   1.9084   1.9240   2.0148
     2.0346   2.0761   2.0970   2.1682   2.1762   2.2291   2.2628   2.2900
     2.3556   2.3568   2.4005   2.4221   2.4438   2.4736   2.5093   2.5177
     2.5444   2.5537   2.5799   2.6314   2.6440   2.6763   2.7346   2.7666
     2.8180   2.8557   2.8635   2.8903   2.9067   2.9212   3.0953   3.1853
     3.4059   3.7357   3.9878   4.0168   4.1204   4.2535   4.2729   4.4563
     4.5642   4.5924   4.8618   5.0230   5.0866   5.1676   5.4290   5.5232
     5.5627   5.7302   5.7711   5.9143   6.1481   6.2136   6.2929   6.4215
     6.6803   6.9475   7.0998   7.1453

          k = 0.2000-0.3464 0.0000 ( 43046 PWs)   bands (ev):

    -9.6954  -5.6799  -4.6714  -4.5288  -4.3748  -4.0937  -4.0513  -3.5171
    -3.4219  -3.4064  -3.3657  -3.3362  -3.3138  -3.2539  -3.2370  -3.2077
    -3.1412  -3.1134  -2.8701  -2.8474  -2.8160  -2.7745  -2.7601  -2.6894
    -2.6556  -2.6321  -2.5611  -2.5295  -2.4976  -2.4894  -2.4545  -2.4499
    -2.3917  -2.3572  -2.3299  -2.2843  -2.2628  -2.2362  -2.1558  -2.1367
    -2.0184  -1.9370  -1.8832  -1.8589  -1.8214  -1.7866  -1.7504  -1.7287
    -1.6802  -1.6519  -1.5974  -1.5548  -1.5376  -1.4790  -1.4479  -1.3703
    -1.3481  -1.3175  -1.2622  -1.2183  -1.1788  -1.1468  -1.1295  -1.0552
    -1.0253  -0.9733  -0.9528  -0.9411  -0.9119  -0.8700  -0.8149  -0.7857
    -0.7508  -0.7293  -0.7086  -0.6916  -0.6153  -0.5977  -0.5692  -0.5323
    -0.5048  -0.4808  -0.4743  -0.4574  -0.4388  -0.4056  -0.3634  -0.3433
    -0.3122  -0.2922  -0.2810  -0.2595  -0.2218  -0.2094  -0.1835  -0.1458
    -0.1309  -0.0976  -0.0736  -0.0454  -0.0322  -0.0066   0.0048   0.0198
     0.0490   0.0804   0.0905   0.1314   0.1659   0.1910   0.2249   0.2687
     0.2918   0.3367   0.3538   0.4554   0.5009   0.5589   0.5855   0.5988
     0.6496   0.6856   0.7124   0.7365   0.7726   0.7865   0.8058   0.8525
     0.8693   0.8886   0.9316   0.9780   1.0167   1.0894   1.1010   1.1205
     1.1646   1.2376   1.2594   1.2780   1.2949   1.3121   1.3343   1.4331
     1.4531   1.4909   1.5248   1.5463   1.6091   1.6312   1.6372   1.6670
     1.6925   1.7060   1.7337   1.7439   1.7814   1.8127   1.8744   1.9656
     1.9989   2.0432   2.1188   2.1573   2.1905   2.2232   2.2456   2.2805
     2.3251   2.3518   2.3691   2.4050   2.4212   2.4392   2.4531   2.4694
     2.4966   2.5096   2.5367   2.5697   2.5942   2.6230   2.6480   2.6970
     2.7174   2.7506   2.8031   2.8476   2.8954   2.9173   2.9639   2.9954
     3.0815   3.1163   3.4261   3.6026   3.6867   3.8416   3.9068   4.0750
     4.1915   4.3304   4.6603   4.7572   4.9233   5.1288   5.2485   5.2904
     5.4294   5.9350   6.1052   6.2700   6.3883   6.6026   6.6639   6.9655
     7.0817   7.1501   7.2250   7.5074

          k = 0.4000-0.2309 0.0000 ( 43046 PWs)   bands (ev):

    -9.6914  -5.5536  -4.9627  -4.4597  -4.2048  -4.1084  -3.8104  -3.7160
    -3.6330  -3.5218  -3.3764  -3.2849  -3.2158  -3.1513  -3.1234  -3.1007
    -2.9816  -2.9629  -2.9358  -2.8919  -2.8634  -2.8163  -2.7477  -2.7332
    -2.7057  -2.6947  -2.6602  -2.6217  -2.5542  -2.5275  -2.4638  -2.3821
    -2.3711  -2.3135  -2.2722  -2.2459  -2.2201  -2.1510  -2.1273  -2.0873
    -2.0407  -2.0021  -1.9757  -1.8920  -1.8280  -1.7751  -1.7416  -1.7018
    -1.6420  -1.6338  -1.6039  -1.5659  -1.5448  -1.5364  -1.4761  -1.4239
    -1.3978  -1.3617  -1.2624  -1.2269  -1.2000  -1.1852  -1.1650  -1.0948
    -1.0336  -1.0076  -0.9682  -0.9458  -0.8927  -0.8722  -0.8412  -0.8082
    -0.7848  -0.7098  -0.7047  -0.6555  -0.6298  -0.6082  -0.5895  -0.5403
    -0.5120  -0.4940  -0.4805  -0.4631  -0.4440  -0.4274  -0.3942  -0.3807
    -0.3718  -0.3412  -0.3255  -0.2706  -0.2357  -0.2249  -0.2065  -0.1791
    -0.1565  -0.1153  -0.0832  -0.0583  -0.0501  -0.0118   0.0007   0.0341
     0.0620   0.1111   0.1351   0.1772   0.2136   0.2497   0.2682   0.3151
     0.3540   0.3856   0.4046   0.4720   0.5299   0.5562   0.5780   0.5895
     0.6133   0.6568   0.6858   0.7069   0.7272   0.7612   0.7669   0.7765
     0.8162   0.9002   0.9294   0.9499   0.9672   0.9878   1.0131   1.0729
     1.1426   1.2085   1.2307   1.2652   1.3202   1.3589   1.3697   1.4453
     1.5040   1.5144   1.5373   1.5649   1.5812   1.5921   1.6432   1.6574
     1.7110   1.7604   1.7758   1.8166   1.8430   1.8639   1.8940   1.9174
     1.9808   2.0202   2.0523   2.0886   2.1318   2.1931   2.2243   2.2427
     2.2582   2.2894   2.3259   2.3660   2.3853   2.4015   2.4338   2.4674
     2.5119   2.5358   2.5525   2.5741   2.5942   2.6437   2.6669   2.7203
     2.7732   2.8190   2.8367   2.8634   2.9097   2.9533   3.0744   3.1067
     3.3058   3.4666   3.6118   3.7898   3.8792   4.0304   4.0710   4.3219
     4.4776   4.5485   4.6581   4.8796   5.0248   5.1523   5.2091   5.2861
     5.4903   5.5555   5.6334   5.9905   6.1548   6.2884   6.4117   6.7898
     7.0244   7.1798   7.4847   7.5723

          k = 0.4000-0.0000 0.0000 ( 43046 PWs)   bands (ev):

    -9.6939  -5.6817  -4.6809  -4.5220  -4.3766  -4.0979  -4.0440  -3.5166
    -3.4303  -3.3906  -3.3481  -3.3205  -3.3040  -3.2711  -3.2460  -3.2078
    -3.1658  -3.1220  -2.8831  -2.8401  -2.8254  -2.7909  -2.7252  -2.6802
    -2.6661  -2.6454  -2.5528  -2.5483  -2.5049  -2.4829  -2.4561  -2.4234
    -2.4076  -2.3426  -2.3359  -2.3073  -2.2479  -2.2216  -2.1971  -2.1821
    -1.9973  -1.9292  -1.8712  -1.8381  -1.8298  -1.7924  -1.7438  -1.6939
    -1.6751  -1.6005  -1.5860  -1.5783  -1.5354  -1.4780  -1.4544  -1.3755
    -1.3512  -1.3272  -1.2657  -1.2453  -1.1720  -1.1328  -1.0946  -1.0615
    -1.0450  -0.9811  -0.9590  -0.9191  -0.9084  -0.8772  -0.7978  -0.7697
    -0.7543  -0.7166  -0.7068  -0.6994  -0.6414  -0.5923  -0.5806  -0.5295
    -0.5209  -0.5008  -0.4468  -0.4376  -0.4309  -0.4023  -0.3774  -0.3664
    -0.3263  -0.2964  -0.2588  -0.2353  -0.2249  -0.2021  -0.1896  -0.1668
    -0.1332  -0.0978  -0.0819  -0.0621  -0.0257  -0.0085   0.0076   0.0356
     0.0440   0.0530   0.0820   0.1135   0.1422   0.1926   0.2508   0.2935
     0.3003   0.3174   0.3865   0.4521   0.4851   0.5354   0.5662   0.5816
     0.6291   0.6613   0.7100   0.7380   0.7740   0.8026   0.8362   0.8468
     0.8528   0.9109   0.9233   0.9661   1.0206   1.0910   1.1003   1.1564
     1.1884   1.1987   1.2650   1.2814   1.2946   1.3146   1.3669   1.4119
     1.4207   1.4720   1.5571   1.5801   1.6185   1.6480   1.6565   1.6647
     1.6814   1.7085   1.7325   1.7456   1.7762   1.8456   1.8793   1.9455
     2.0015   2.0318   2.1312   2.1716   2.2090   2.2248   2.2633   2.2832
     2.3257   2.3601   2.3671   2.3837   2.4219   2.4387   2.4562   2.4614
     2.4953   2.4994   2.5367   2.5479   2.5941   2.6093   2.6560   2.7013
     2.7230   2.7937   2.8191   2.8356   2.8904   2.9246   2.9859   3.0169
     3.0829   3.1312   3.3227   3.6243   3.6434   3.8428   3.8905   4.1652
     4.1938   4.3921   4.5871   4.8081   4.9892   5.0040   5.1835   5.3152
     5.3768   5.9591   6.0857   6.2374   6.4427   6.5916   6.6310   6.8979
     7.0959   7.1762   7.2202   7.4877

          k = 0.4000 0.2309 0.0000 ( 43046 PWs)   bands (ev):

    -9.6914  -5.5536  -4.9627  -4.4597  -4.2049  -4.1085  -3.8105  -3.7159
    -3.6330  -3.5218  -3.3764  -3.2849  -3.2158  -3.1513  -3.1234  -3.1007
    -2.9816  -2.9629  -2.9357  -2.8919  -2.8634  -2.8162  -2.7477  -2.7332
    -2.7057  -2.6947  -2.6602  -2.6217  -2.5543  -2.5275  -2.4638  -2.3821
    -2.3711  -2.3136  -2.2722  -2.2459  -2.2201  -2.1510  -2.1273  -2.0873
    -2.0407  -2.0021  -1.9758  -1.8920  -1.8280  -1.7751  -1.7416  -1.7018
    -1.6420  -1.6338  -1.6039  -1.5659  -1.5448  -1.5364  -1.4761  -1.4239
    -1.3978  -1.3617  -1.2624  -1.2270  -1.2000  -1.1852  -1.1650  -1.0948
    -1.0336  -1.0076  -0.9682  -0.9458  -0.8927  -0.8722  -0.8412  -0.8082
    -0.7848  -0.7098  -0.7046  -0.6554  -0.6297  -0.6082  -0.5895  -0.5402
    -0.5120  -0.4940  -0.4805  -0.4631  -0.4440  -0.4274  -0.3942  -0.3807
    -0.3718  -0.3412  -0.3256  -0.2706  -0.2357  -0.2249  -0.2065  -0.1791
    -0.1565  -0.1153  -0.0832  -0.0583  -0.0501  -0.0118   0.0007   0.0341
     0.0620   0.1110   0.1351   0.1772   0.2137   0.2497   0.2682   0.3151
     0.3539   0.3855   0.4046   0.4720   0.5299   0.5562   0.5780   0.5895
     0.6133   0.6568   0.6858   0.7069   0.7272   0.7613   0.7669   0.7765
     0.8162   0.9002   0.9294   0.9499   0.9672   0.9878   1.0132   1.0728
     1.1426   1.2085   1.2307   1.2652   1.3202   1.3589   1.3697   1.4453
     1.5040   1.5144   1.5373   1.5649   1.5812   1.5921   1.6432   1.6573
     1.7110   1.7604   1.7758   1.8166   1.8430   1.8639   1.8940   1.9174
     1.9808   2.0202   2.0522   2.0886   2.1318   2.1931   2.2243   2.2427
     2.2582   2.2894   2.3259   2.3660   2.3853   2.4015   2.4338   2.4674
     2.5119   2.5358   2.5525   2.5741   2.5942   2.6437   2.6669   2.7203
     2.7732   2.8190   2.8367   2.8634   2.9097   2.9533   3.0744   3.1067
     3.3058   3.4666   3.6118   3.7899   3.8793   4.0304   4.0710   4.3219
     4.4776   4.5485   4.6581   4.8796   5.0248   5.1523   5.2091   5.2861
     5.4903   5.5555   5.6334   5.9906   6.1548   6.2884   6.4117   6.7898
     7.0244   7.1798   7.4846   7.5723

          k = 0.4000-0.6928 0.0000 ( 43014 PWs)   bands (ev):

    -9.6873  -5.2302  -5.1274  -4.6302  -4.3231  -4.0644  -3.8762  -3.7249
    -3.4644  -3.3579  -3.3113  -3.2220  -3.1800  -3.1105  -3.0939  -3.0196
    -2.9826  -2.9248  -2.8892  -2.8649  -2.8562  -2.8346  -2.8029  -2.7561
    -2.7058  -2.6697  -2.6525  -2.6446  -2.6080  -2.5418  -2.4996  -2.4294
    -2.4041  -2.3847  -2.3494  -2.2676  -2.2465  -2.2127  -2.1740  -2.0800
    -2.0621  -2.0317  -1.8923  -1.8505  -1.8289  -1.7831  -1.7615  -1.6899
    -1.6540  -1.5682  -1.5488  -1.4997  -1.4638  -1.4328  -1.3862  -1.3701
    -1.3521  -1.3164  -1.2960  -1.2816  -1.2295  -1.1860  -1.1643  -1.1539
    -1.1276  -1.0675  -1.0437  -1.0207  -0.9638  -0.9396  -0.9070  -0.8439
    -0.8315  -0.7927  -0.7713  -0.7600  -0.7284  -0.7124  -0.6405  -0.5968
    -0.5819  -0.5548  -0.5308  -0.5179  -0.4580  -0.4314  -0.3911  -0.3727
    -0.3626  -0.3076  -0.2771  -0.2441  -0.1989  -0.1862  -0.1586  -0.1323
    -0.1102  -0.0871  -0.0647  -0.0581  -0.0434  -0.0155   0.0064   0.0460
     0.0614   0.0664   0.0867   0.1057   0.1306   0.1477   0.1701   0.2227
     0.2924   0.3333   0.3510   0.4300   0.4742   0.5032   0.5448   0.5812
     0.6199   0.6310   0.6529   0.6945   0.7187   0.7358   0.7677   0.7922
     0.8601   0.8893   0.9253   0.9415   0.9538   1.0573   1.0708   1.1285
     1.1383   1.2423   1.2621   1.2751   1.3080   1.3532   1.3671   1.3816
     1.4002   1.4332   1.4764   1.4887   1.5296   1.5642   1.5874   1.6337
     1.6566   1.6877   1.7426   1.7707   1.8341   1.9095   1.9504   1.9690
     2.0332   2.0737   2.0951   2.1772   2.2073   2.2344   2.2624   2.2859
     2.3228   2.3732   2.4061   2.4310   2.4521   2.4768   2.5106   2.5135
     2.5523   2.5681   2.5783   2.6213   2.6427   2.6826   2.7331   2.7696
     2.8047   2.8500   2.8673   2.8848   2.9169   2.9355   3.0826   3.3029
     3.3675   3.6974   3.9519   4.0116   4.1573   4.2143   4.2818   4.4056
     4.5688   4.7421   4.8369   5.0449   5.0967   5.1445   5.2486   5.5192
     5.6008   5.7158   5.8538   5.9203   5.9854   6.1608   6.3569   6.5012
     6.6403   6.8545   7.0998   7.2010

          k = 0.4000-0.4619 0.0000 ( 43014 PWs)   bands (ev):

    -9.6873  -5.2302  -5.1274  -4.6301  -4.3231  -4.0644  -3.8762  -3.7248
    -3.4644  -3.3579  -3.3114  -3.2220  -3.1800  -3.1106  -3.0939  -3.0196
    -2.9826  -2.9249  -2.8892  -2.8649  -2.8562  -2.8346  -2.8030  -2.7561
    -2.7058  -2.6697  -2.6525  -2.6446  -2.6080  -2.5418  -2.4996  -2.4294
    -2.4042  -2.3847  -2.3494  -2.2675  -2.2465  -2.2126  -2.1739  -2.0800
    -2.0621  -2.0318  -1.8923  -1.8505  -1.8289  -1.7831  -1.7615  -1.6899
    -1.6540  -1.5681  -1.5488  -1.4998  -1.4638  -1.4328  -1.3862  -1.3701
    -1.3521  -1.3164  -1.2960  -1.2816  -1.2295  -1.1860  -1.1643  -1.1539
    -1.1276  -1.0675  -1.0437  -1.0206  -0.9638  -0.9396  -0.9070  -0.8439
    -0.8315  -0.7927  -0.7713  -0.7600  -0.7284  -0.7124  -0.6405  -0.5968
    -0.5819  -0.5548  -0.5308  -0.5179  -0.4580  -0.4314  -0.3911  -0.3726
    -0.3626  -0.3076  -0.2771  -0.2441  -0.1990  -0.1862  -0.1586  -0.1322
    -0.1103  -0.0871  -0.0647  -0.0582  -0.0434  -0.0155   0.0064   0.0460
     0.0614   0.0664   0.0868   0.1057   0.1306   0.1477   0.1701   0.2227
     0.2924   0.3333   0.3510   0.4300   0.4742   0.5032   0.5448   0.5812
     0.6199   0.6310   0.6529   0.6945   0.7187   0.7358   0.7677   0.7922
     0.8600   0.8893   0.9253   0.9415   0.9538   1.0574   1.0708   1.1285
     1.1382   1.2424   1.2621   1.2751   1.3080   1.3532   1.3671   1.3816
     1.4002   1.4332   1.4763   1.4887   1.5296   1.5642   1.5874   1.6337
     1.6566   1.6877   1.7426   1.7707   1.8341   1.9095   1.9504   1.9689
     2.0332   2.0737   2.0951   2.1772   2.2073   2.2344   2.2624   2.2859
     2.3228   2.3732   2.4061   2.4310   2.4521   2.4768   2.5106   2.5135
     2.5523   2.5681   2.5783   2.6213   2.6427   2.6826   2.7331   2.7696
     2.8047   2.8500   2.8673   2.8847   2.9169   2.9355   3.0826   3.3030
     3.3675   3.6973   3.9519   4.0116   4.1573   4.2143   4.2818   4.4056
     4.5688   4.7421   4.8369   5.0449   5.0967   5.1445   5.2486   5.5192
     5.6008   5.7158   5.8538   5.9203   5.9854   6.1608   6.3570   6.5013
     6.6404   6.8546   7.0998   7.2011

     the Fermi energy is     2.6298 ev

!    total energy              =  -27774.40315833 Ry
     total all-electron energy =  -1326718.932672 Ry
     estimated scf accuracy    <       0.00000046 Ry
     smearing contrib. (-TS)   =       0.00001091 Ry
     internal energy E=F+TS    =  -27774.40316923 Ry

     The total energy is F=E-TS. E is the sum of the following terms:
     one-electron contribution =  -20724.08527998 Ry
     hartree contribution      =   10671.86836155 Ry
     xc contribution           =    -895.58880916 Ry
     ewald contribution        =    8654.02182070 Ry
     one-center paw contrib.   =  -25480.61926234 Ry

     convergence has been achieved in  17 iterations

     negative rho (up, down):  3.111E-03 0.000E+00

     Forces acting on atoms (cartesian axes, Ry/au):

     atom    1 type  1   force =    -0.00023787   -0.00051796   -0.00431579
     atom    2 type  1   force =     0.00025919   -0.00049857   -0.00431031
     atom    3 type  1   force =    -0.00001640   -0.00262619   -0.00996169
     atom    4 type  1   force =     0.00002390    0.00017137   -0.00356331
     atom    5 type  1   force =    -0.00109979   -0.00133330   -0.00570524
     atom    6 type  1   force =     0.00107611   -0.00132683   -0.00570311
     atom    7 type  1   force =    -0.00122732    0.00125319   -0.00758462
     atom    8 type  1   force =    -0.00000951    0.00078667   -0.00594436
     atom    9 type  1   force =     0.00123690    0.00127796   -0.00758268
     atom   10 type  1   force =     0.00001949    0.00342803    0.02146075
     atom   11 type  1   force =     0.00051284   -0.00153050    0.00500544
     atom   12 type  1   force =    -0.00053345   -0.00152410    0.00501095
     atom   13 type  1   force =    -0.00246606   -0.00046070    0.00796551
     atom   14 type  1   force =    -0.00000143    0.00049004   -0.00219865
     atom   15 type  1   force =     0.00247071   -0.00045319    0.00798989
     atom   16 type  1   force =    -0.00214760    0.00122655    0.00305892
     atom   17 type  1   force =     0.00215601    0.00124281    0.00306554
     atom   18 type  1   force =    -0.00000763   -0.00136370    0.00096809
     atom   19 type  1   force =     0.00028767   -0.00032437    0.00087215
     atom   20 type  1   force =    -0.00028477   -0.00033191    0.00087274
     atom   21 type  1   force =     0.00000783   -0.00021577    0.00000203
     atom   22 type  1   force =    -0.00001117   -0.00055722   -0.00076242
     atom   23 type  1   force =     0.00000861   -0.00047863   -0.00017235
     atom   24 type  1   force =    -0.00000532   -0.00047990   -0.00018624
     atom   25 type  1   force =    -0.00009768   -0.00040048   -0.00042696
     atom   26 type  1   force =    -0.00000280   -0.00037765    0.00019555
     atom   27 type  1   force =     0.00009764   -0.00040559   -0.00044473
     atom   28 type  1   force =    -0.00059011   -0.00198918    0.00007995
     atom   29 type  1   force =     0.00059222   -0.00199713    0.00008459
     atom   30 type  1   force =    -0.00000545   -0.00104309   -0.00053192
     atom   31 type  1   force =     0.00000223   -0.00082615    0.00447102
     atom   32 type  1   force =    -0.00024809   -0.00118512    0.00008283
     atom   33 type  1   force =     0.00024523   -0.00117635    0.00008492
     atom   34 type  1   force =    -0.00023723   -0.00157453   -0.00094927
     atom   35 type  1   force =     0.00000315   -0.00111241   -0.00014364
     atom   36 type  1   force =     0.00023063   -0.00157220   -0.00094642
     atom   37 type  2   force =     0.00000120   -0.00120328   -0.00409428
     atom   38 type  3   force =    -0.00000188    0.01900937    0.00425710
     The non-local contrib.  to forces
     atom    1 type  1   force =     0.00053107    0.00017571   -0.01860124
     atom    2 type  1   force =    -0.00051358    0.00019481   -0.01859391
     atom    3 type  1   force =    -0.00001328   -0.00106320   -0.01758867
     atom    4 type  1   force =     0.00002149    0.00002055   -0.01795746
     atom    5 type  1   force =    -0.00033238    0.00009630   -0.02045171
     atom    6 type  1   force =     0.00030891    0.00010120   -0.02045199
     atom    7 type  1   force =    -0.00120906    0.00053304   -0.02066820
     atom    8 type  1   force =    -0.00001189    0.00075116   -0.02196908
     atom    9 type  1   force =     0.00121781    0.00055388   -0.02066462
     atom   10 type  1   force =     0.00002561    0.00147339    0.00512166
     atom   11 type  1   force =    -0.00330867    0.00356160    0.00072289
     atom   12 type  1   force =     0.00328244    0.00356205    0.00071816
     atom   13 type  1   force =     0.00128829   -0.00332072    0.00158220
     atom   14 type  1   force =    -0.00001013    0.00129127   -0.00481829
     atom   15 type  1   force =    -0.00127791   -0.00330947    0.00159816
     atom   16 type  1   force =     0.00331249    0.00066008   -0.00126741
     atom   17 type  1   force =    -0.00330592    0.00068372   -0.00125380
     atom   18 type  1   force =    -0.00000772   -0.00178016    0.00426349
     atom   19 type  1   force =    -0.01245232   -0.00555335    0.00680130
     atom   20 type  1   force =     0.01246342   -0.00556526    0.00680251
     atom   21 type  1   force =    -0.00000393    0.00292736    0.00734180
     atom   22 type  1   force =    -0.00001005    0.01835751   -0.00660779
     atom   23 type  1   force =     0.00407431   -0.00002458    0.00660197
     atom   24 type  1   force =    -0.00407235   -0.00001233    0.00659629
     atom   25 type  1   force =    -0.00282825   -0.00516261    0.00325207
     atom   26 type  1   force =     0.00000843   -0.00473513    0.01646091
     atom   27 type  1   force =     0.00281469   -0.00515965    0.00324058
     atom   28 type  1   force =     0.08077292    0.04116760   -0.01346251
     atom   29 type  1   force =    -0.08075934    0.04115652   -0.01346957
     atom   30 type  1   force =    -0.00001497   -0.00111347    0.01213671
     atom   31 type  1   force =    -0.00000169   -0.10742276   -0.10794542
     atom   32 type  1   force =    -0.01867953   -0.00899898    0.02317343
     atom   33 type  1   force =     0.01866963   -0.00898239    0.02318166
     atom   34 type  1   force =     0.00159843   -0.00497537    0.01426234
     atom   35 type  1   force =     0.00000757    0.02604187    0.02280824
     atom   36 type  1   force =    -0.00160864   -0.00496860    0.01426212
     atom   37 type  2   force =    -0.00000078    0.09419015   -0.12187334
     atom   38 type  3   force =    -0.00000593   -0.00021890   -0.04205056
     The ionic contribution  to forces
     atom    1 type  1   force =     0.01018111    0.02052358  -93.87684206
     atom    2 type  1   force =    -0.01023261    0.02048315  -93.87695191
     atom    3 type  1   force =     0.00005154   -0.01519506  -93.89926447
     atom    4 type  1   force =    -0.00006231   -0.00997780  -93.85074653
     atom    5 type  1   force =    -0.03553985   -0.01921607  -93.91677516
     atom    6 type  1   force =     0.03560198   -0.01924212  -93.91665089
     atom    7 type  1   force =    -0.02639703   -0.00115809  -93.89396912
     atom    8 type  1   force =     0.00000738    0.02512533  -93.94025980
     atom    9 type  1   force =     0.02638963   -0.00122336  -93.89395348
     atom   10 type  1   force =    -0.00052066    0.13339086  -32.26900259
     atom   11 type  1   force =    -0.22434870   -0.00970812  -32.44591645
     atom   12 type  1   force =     0.22483009   -0.00947578  -32.44510261
     atom   13 type  1   force =    -0.25018028   -0.14972329  -32.41211906
     atom   14 type  1   force =     0.00038159   -0.04570348  -32.81958046
     atom   15 type  1   force =     0.24979693   -0.15009305  -32.41154037
     atom   16 type  1   force =    -0.03720758    0.19725641  -32.57001175
     atom   17 type  1   force =     0.03714294    0.19673750  -32.57037635
     atom   18 type  1   force =     0.00005159   -0.11749677  -32.28458102
     atom   19 type  1   force =     0.43219575    0.00258428   30.72088458
     atom   20 type  1   force =    -0.43323951    0.00336973   30.71911305
     atom   21 type  1   force =     0.00117546   -0.21064174   28.53404153
     atom   22 type  1   force =    -0.00011283   -0.18026052   29.90403418
     atom   23 type  1   force =    -0.24072300    0.01304238   28.37561292
     atom   24 type  1   force =     0.24082679    0.01165465   28.37630799
     atom   25 type  1   force =    -0.10785975   -0.04366962   28.91244616
     atom   26 type  1   force =    -0.00148595    0.39380506   29.77431467
     atom   27 type  1   force =     0.10928406   -0.04441924   28.91191775
     atom   28 type  1   force =    -2.31954316   -1.18517015   90.75291671
     atom   29 type  1   force =     2.31903747   -1.18473189   90.75035524
     atom   30 type  1   force =     0.00044195    0.23262563   91.04464732
     atom   31 type  1   force =     0.00001173    2.44365778   92.48102863
     atom   32 type  1   force =     0.39363809    0.09645413   90.34201105
     atom   33 type  1   force =    -0.39402872    0.09618786   90.34229575
     atom   34 type  1   force =     0.24975973   -0.02808190   90.41967402
     atom   35 type  1   force =    -0.00033491   -0.32361067   90.35718067
     atom   36 type  1   force =    -0.24951389   -0.02819469   90.42012989
     atom   37 type  2   force =     0.00025562   -0.41705956   43.74887265
     atom   38 type  3   force =     0.00026931    0.30715463   12.40585934
     The local contribution  to forces
     atom    1 type  1   force =    -0.01104590   -0.02105703   93.87404688
     atom    2 type  1   force =     0.01104614   -0.02107933   93.87413796
     atom    3 type  1   force =    -0.00000173    0.01362352   93.88964641
     atom    4 type  1   force =    -0.00002631    0.01011180   93.84798155
     atom    5 type  1   force =     0.03483315    0.01753858   93.91464473
     atom    6 type  1   force =    -0.03480478    0.01755812   93.91452984
     atom    7 type  1   force =     0.02624339    0.00191874   93.88981686
     atom    8 type  1   force =     0.00002295   -0.02512081   93.93928967
     atom    9 type  1   force =    -0.02626423    0.00190001   93.88978740
     atom   10 type  1   force =     0.00043596   -0.13103543   32.28547629
     atom   11 type  1   force =     0.22788462    0.00457063   32.45018781
     atom   12 type  1   force =    -0.22828126    0.00434333   32.44938955
     atom   13 type  1   force =     0.24561861    0.15222564   32.41835831
     atom   14 type  1   force =    -0.00032798    0.04450337   32.82066826
     atom   15 type  1   force =    -0.24528779    0.15254358   32.41774265
     atom   16 type  1   force =     0.03133826   -0.19593847   32.57368307
     atom   17 type  1   force =    -0.03129708   -0.19550888   32.57400198
     atom   18 type  1   force =    -0.00002696    0.11780579   32.28198279
     atom   19 type  1   force =    -0.41871184    0.00244926  -30.72371339
     atom   20 type  1   force =     0.41969346    0.00171728  -30.72189305
     atom   21 type  1   force =    -0.00111200    0.20635667  -28.54011057
     atom   22 type  1   force =     0.00011982    0.16174244  -29.89674316
     atom   23 type  1   force =     0.23599655   -0.01339443  -28.38096536
     atom   24 type  1   force =    -0.23610697   -0.01209097  -28.38170552
     atom   25 type  1   force =     0.10969048    0.04830188  -28.91551802
     atom   26 type  1   force =     0.00139966   -0.38841149  -29.78792309
     atom   27 type  1   force =    -0.11102896    0.04901896  -28.91498988
     atom   28 type  1   force =     2.21747476    1.13250567  -90.73561348
     atom   29 type  1   force =    -2.21701658    1.13211841  -90.73299491
     atom   30 type  1   force =    -0.00039382   -0.23228898  -91.04109219
     atom   31 type  1   force =     0.00001393   -2.31678202  -92.38537615
     atom   32 type  1   force =    -0.37650798   -0.08984476  -90.34832453
     atom   33 type  1   force =     0.37688451   -0.08962667  -90.34864986
     atom   34 type  1   force =    -0.25163501    0.03091150  -90.41886012
     atom   35 type  1   force =     0.00028542    0.29832413  -90.36285038
     atom   36 type  1   force =     0.25143932    0.03100170  -90.41930114
     atom   37 type  2   force =    -0.00026007    0.32345476  -43.63345850
     atom   38 type  3   force =    -0.00026378   -0.28791130  -12.35955187
     The core correction contribution to forces
     atom    1 type  1   force =    -0.00004729    0.00001326    0.01708385
     atom    2 type  1   force =     0.00004716    0.00001361    0.01708399
     atom    3 type  1   force =     0.00000015    0.00004397    0.01736749
     atom    4 type  1   force =     0.00000012   -0.00004425    0.01714898
     atom    5 type  1   force =    -0.00008314    0.00001059    0.01689359
     atom    6 type  1   force =     0.00008309    0.00001051    0.01689319
     atom    7 type  1   force =    -0.00003527    0.00008886    0.01718949
     atom    8 type  1   force =    -0.00000028    0.00010953    0.01683225
     atom    9 type  1   force =     0.00003557    0.00008876    0.01718914
     atom   10 type  1   force =     0.00000100   -0.00021433   -0.00028983
     atom   11 type  1   force =     0.00054648   -0.00001273    0.00002028
     atom   12 type  1   force =    -0.00054733   -0.00001392    0.00001848
     atom   13 type  1   force =     0.00064680    0.00026772    0.00017116
     atom   14 type  1   force =    -0.00000111   -0.00003806    0.00154427
     atom   15 type  1   force =    -0.00064550    0.00026838    0.00016900
     atom   16 type  1   force =     0.00008096   -0.00051367    0.00057752
     atom   17 type  1   force =    -0.00008122   -0.00051235    0.00057797
     atom   18 type  1   force =     0.00000047    0.00033773   -0.00062425
     atom   19 type  1   force =    -0.00087904    0.00025868   -0.00318512
     atom   20 type  1   force =     0.00088133    0.00025694   -0.00318697
     atom   21 type  1   force =    -0.00000331    0.00078651   -0.00145779
     atom   22 type  1   force =     0.00000058   -0.00034367   -0.00138037
     atom   23 type  1   force =     0.00036388   -0.00023548   -0.00143322
     atom   24 type  1   force =    -0.00036433   -0.00023167   -0.00143002
     atom   25 type  1   force =     0.00057814    0.00029431   -0.00063549
     atom   26 type  1   force =     0.00000422   -0.00083511   -0.00267430
     atom   27 type  1   force =    -0.00058174    0.00029622   -0.00063329
     atom   28 type  1   force =     0.02027059    0.00942986   -0.00348242
     atom   29 type  1   force =    -0.02026906    0.00942884   -0.00348188
     atom   30 type  1   force =    -0.00000134   -0.00033675   -0.01592660
     atom   31 type  1   force =     0.00000298   -0.01999268    0.01669161
     atom   32 type  1   force =     0.00129294    0.00107496   -0.01636337
     atom   33 type  1   force =    -0.00129140    0.00107559   -0.01636239
     atom   34 type  1   force =    -0.00016945    0.00067389   -0.01566428
     atom   35 type  1   force =     0.00000091   -0.00190980   -0.01669326
     atom   36 type  1   force =     0.00016907    0.00067407   -0.01566540
     atom   37 type  2   force =     0.00000009   -0.00179655    0.00248425
     atom   38 type  3   force =     0.00000000    0.00000000    0.00000000
     The Hubbard contrib.    to forces
     atom    1 type  1   force =     0.00000000    0.00000000    0.00000000
     atom    2 type  1   force =     0.00000000    0.00000000    0.00000000
     atom    3 type  1   force =     0.00000000    0.00000000    0.00000000
     atom    4 type  1   force =     0.00000000    0.00000000    0.00000000
     atom    5 type  1   force =     0.00000000    0.00000000    0.00000000
     atom    6 type  1   force =     0.00000000    0.00000000    0.00000000
     atom    7 type  1   force =     0.00000000    0.00000000    0.00000000
     atom    8 type  1   force =     0.00000000    0.00000000    0.00000000
     atom    9 type  1   force =     0.00000000    0.00000000    0.00000000
     atom   10 type  1   force =     0.00000000    0.00000000    0.00000000
     atom   11 type  1   force =     0.00000000    0.00000000    0.00000000
     atom   12 type  1   force =     0.00000000    0.00000000    0.00000000
     atom   13 type  1   force =     0.00000000    0.00000000    0.00000000
     atom   14 type  1   force =     0.00000000    0.00000000    0.00000000
     atom   15 type  1   force =     0.00000000    0.00000000    0.00000000
     atom   16 type  1   force =     0.00000000    0.00000000    0.00000000
     atom   17 type  1   force =     0.00000000    0.00000000    0.00000000
     atom   18 type  1   force =     0.00000000    0.00000000    0.00000000
     atom   19 type  1   force =     0.00000000    0.00000000    0.00000000
     atom   20 type  1   force =     0.00000000    0.00000000    0.00000000
     atom   21 type  1   force =     0.00000000    0.00000000    0.00000000
     atom   22 type  1   force =     0.00000000    0.00000000    0.00000000
     atom   23 type  1   force =     0.00000000    0.00000000    0.00000000
     atom   24 type  1   force =     0.00000000    0.00000000    0.00000000
     atom   25 type  1   force =     0.00000000    0.00000000    0.00000000
     atom   26 type  1   force =     0.00000000    0.00000000    0.00000000
     atom   27 type  1   force =     0.00000000    0.00000000    0.00000000
     atom   28 type  1   force =     0.00000000    0.00000000    0.00000000
     atom   29 type  1   force =     0.00000000    0.00000000    0.00000000
     atom   30 type  1   force =     0.00000000    0.00000000    0.00000000
     atom   31 type  1   force =     0.00000000    0.00000000    0.00000000
     atom   32 type  1   force =     0.00000000    0.00000000    0.00000000
     atom   33 type  1   force =     0.00000000    0.00000000    0.00000000
     atom   34 type  1   force =     0.00000000    0.00000000    0.00000000
     atom   35 type  1   force =     0.00000000    0.00000000    0.00000000
     atom   36 type  1   force =     0.00000000    0.00000000    0.00000000
     atom   37 type  2   force =     0.00000000    0.00000000    0.00000000
     atom   38 type  3   force =     0.00000000    0.00000000    0.00000000
     The SCF correction term to forces
     atom    1 type  1   force =     0.00000000   -0.00000000   -0.00000000
     atom    2 type  1   force =    -0.00000000   -0.00000000   -0.00000000
     atom    3 type  1   force =    -0.00000000   -0.00000000   -0.00000000
     atom    4 type  1   force =     0.00000000    0.00000000   -0.00000000
     atom    5 type  1   force =     0.00000000    0.00000000   -0.00000000
     atom    6 type  1   force =    -0.00000000    0.00000000   -0.00000000
     atom    7 type  1   force =     0.00000000   -0.00000000    0.00000000
     atom    8 type  1   force =    -0.00000000   -0.00000000    0.00000000
     atom    9 type  1   force =    -0.00000000   -0.00000000    0.00000000
     atom   10 type  1   force =     0.00000000   -0.00000000    0.00000000
     atom   11 type  1   force =    -0.00000000    0.00000000   -0.00000000
     atom   12 type  1   force =     0.00000000    0.00000000   -0.00000000
     atom   13 type  1   force =     0.00000000    0.00000000   -0.00000000
     atom   14 type  1   force =    -0.00000000    0.00000000   -0.00000000
     atom   15 type  1   force =    -0.00000000    0.00000000   -0.00000000
     atom   16 type  1   force =     0.00000000   -0.00000000    0.00000000
     atom   17 type  1   force =    -0.00000000   -0.00000000    0.00000000
     atom   18 type  1   force =    -0.00000000   -0.00000000   -0.00000000
     atom   19 type  1   force =     0.00013477   -0.00006014    0.00005698
     atom   20 type  1   force =    -0.00008382   -0.00010749    0.00000941
     atom   21 type  1   force =    -0.00004874    0.00035854    0.00015927
     atom   22 type  1   force =    -0.00000905   -0.00004987   -0.00009308
     atom   23 type  1   force =     0.00029652    0.00013657   -0.00001647
     atom   24 type  1   force =    -0.00028881    0.00020352    0.00001723
     atom   25 type  1   force =     0.00032134   -0.00016135    0.00000054
     atom   26 type  1   force =     0.00007048   -0.00019789   -0.00001044
     atom   27 type  1   force =    -0.00039076   -0.00013878   -0.00000768
     atom   28 type  1   force =     0.00043442    0.00008094   -0.00030614
     atom   29 type  1   force =    -0.00040063    0.00003409   -0.00035208
     atom   30 type  1   force =    -0.00003762    0.00007359   -0.00032495
     atom   31 type  1   force =    -0.00002508   -0.00028336    0.00004457
     atom   32 type  1   force =     0.00000803    0.00013263   -0.00044155
     atom   33 type  1   force =     0.00001085    0.00017236   -0.00040803
     atom   34 type  1   force =     0.00020872   -0.00009954   -0.00038901
     atom   35 type  1   force =     0.00004382    0.00004516   -0.00061670
     atom   36 type  1   force =    -0.00025556   -0.00008157   -0.00039969
     atom   37 type  2   force =     0.00000599    0.00001103   -0.00014713
     atom   38 type  3   force =    -0.00000184   -0.00001196   -0.00002760

     Total force =     0.021064     Total SCF correction =     0.001677

     Writing all to output data dir ./pwscf.save/

     init_run     :     11.93s CPU     12.26s WALL (       1 calls)
     electrons    :    393.17s CPU    410.75s WALL (       1 calls)
     forces       :      4.24s CPU      4.92s WALL (       1 calls)

     Called by init_run:
     wfcinit      :      5.93s CPU      6.10s WALL (       1 calls)
     potinit      :      3.28s CPU      3.38s WALL (       1 calls)
     hinit0       :      1.88s CPU      1.90s WALL (       1 calls)

     Called by electrons:
     c_bands      :    314.44s CPU    325.31s WALL (      18 calls)
     sum_band     :     52.56s CPU     56.43s WALL (      18 calls)
     v_of_rho     :     15.96s CPU     17.52s WALL (      18 calls)
     newd         :      3.57s CPU      4.29s WALL (      18 calls)
     PAW_pot      :      4.76s CPU      4.96s WALL (      18 calls)
     mix_rho      :      3.68s CPU      3.78s WALL (      18 calls)
     vdW_kernel   :      1.73s CPU      1.74s WALL (       1 calls)

     Called by c_bands:
     init_us_2    :      2.64s CPU      2.87s WALL (     494 calls)
     init_us_2:cp :      2.63s CPU      2.87s WALL (     494 calls)
     cegterg      :    306.63s CPU    316.57s WALL (     234 calls)

     Called by *egterg:
     cdiaghg      :     76.62s CPU     77.34s WALL (    1164 calls)
     h_psi        :    143.88s CPU    151.65s WALL (    1190 calls)
     s_psi        :     14.19s CPU     14.33s WALL (    1190 calls)
     g_psi        :      0.41s CPU      0.42s WALL (     943 calls)

     Called by h_psi:
     h_psi:calbec :     24.75s CPU     25.22s WALL (    1190 calls)
     vloc_psi     :    103.70s CPU    110.50s WALL (    1190 calls)
     add_vuspsi   :     14.37s CPU     14.86s WALL (    1190 calls)

     General routines
     calbec       :     35.18s CPU     35.87s WALL (    1476 calls)
     fft          :     14.96s CPU     16.57s WALL (    1194 calls)
     ffts         :      2.17s CPU      2.21s WALL (    4532 calls)
     fftw         :    119.68s CPU    127.84s WALL (  301270 calls)
     interpolate  :      0.60s CPU      0.64s WALL (      18 calls)

     Parallel routines

     PWSCF        :   6m51.66s CPU   7m16.65s WALL


   This run was terminated on:  13: 8:21   7Nov2025            

=------------------------------------------------------------------------------=
   JOB DONE.
=------------------------------------------------------------------------------=
