
     Program PWSCF v.7.1 starts on 14Dec2025 at 11: 5:26 
        Git branch: heads/qe-7.1
        Last git commit: 48ba0178f8fede6d020eb786884699a9f063f55d-dirty
        Last git commit date: Fri Jan 27 14:22:33 2023 +0000
        Last git commit subject: Merge branch 'fix_hubbard' into 'develop'

     This program is part of the open-source Quantum ESPRESSO suite
     for quantum simulation of materials; please cite
         "P. Giannozzi et al., J. Phys.:Condens. Matter 21 395502 (2009);
         "P. Giannozzi et al., J. Phys.:Condens. Matter 29 465901 (2017);
         "P. Giannozzi et al., J. Chem. Phys. 152 154105 (2020);
          URL http://www.quantum-espresso.org", 
     in publications or presentations arising from this work. More details at
     http://www.quantum-espresso.org/quote

     Parallel version (MPI), running on    96 processors

     MPI processes distributed on     2 nodes
     72618 MiB available memory on the printing compute node when the environment starts

     Reading input from espresso.pwi
Warning: card &CELL ignored
Warning: card / ignored
Warning: card &FCP ignored
Warning: card / ignored
Warning: card &RISM ignored
Warning: card / ignored

     Current dimensions of program PWSCF are:
     Max number of different atomic species (ntypx) = 10
     Max number of k-points (npk) =  40000
     Max angular momentum in pseudopotentials (lmaxx) =  4
     file Co.pbe-n-kjpaw_psl.1.0.0.UPF: wavefunction(s)  4S 3D renormalized
     file C.pbe-n-kjpaw_psl.1.0.0.UPF: wavefunction(s)  2S 2P renormalized
     file O.pbe-nl-kjpaw_psl.1.0.0.UPF: wavefunction(s)  2S 2P renormalized
     file H.pbe-kjpaw_psl.1.0.0.UPF: wavefunction(s)  1S renormalized

     **************************************************************************
     Initializing libbeef V0.1.2 with the BEEF-vdW functional.
     Citation: Wellendorff et al., PRB 85, 235149 (2012).
     **************************************************************************


     IMPORTANT: XC functional enforced from input :
     Exchange-correlation= BEEF-VDW
                           (   1   4  43  14   2   0   0)
     Any further DFT definition will be discarded
     Please, verify this is what you really want


     R & G space division:  proc/nbgrp/npool/nimage =      96
     Subspace diagonalization in iterative solution of the eigenvalue problem:
     one sub-group per band group will be used
     custom distributed-memory algorithm (size of sub-group:  2*  2 procs)


     Parallelization info
     --------------------
     sticks:   dense  smooth     PW     G-vecs:    dense   smooth      PW
     Min          43      28      7                 7829     4248     595
     Max          44      29      8                 7845     4281     630
     Sum        4153    2773    757               752179   409445   59217

     Using Slab Decomposition



     bravais-lattice index     =            0
     lattice parameter (alat)  =      14.1729  a.u.
     unit-cell volume          =    8574.3059 (a.u.)^3
     number of atoms/cell      =           39
     number of atomic types    =            4
     number of electrons       =       335.00
     number of Kohn-Sham states=          202
     kinetic-energy cutoff     =      50.0000  Ry
     charge density cutoff     =     300.0000  Ry
     scf convergence threshold =      1.0E-08
     mixing beta               =       0.7000
     number of iterations used =            8  local-TF  mixing
     Exchange-correlation= BEEF-VDW
                           (   1   4  43  14   2   0   0)

     celldm(1)=  14.172946  celldm(2)=   0.000000  celldm(3)=   0.000000
     celldm(4)=   0.000000  celldm(5)=   0.000000  celldm(6)=   0.000000

     crystal axes: (cart. coord. in units of alat)
               a(1) = (   1.000000   0.000000   0.000000 )  
               a(2) = (   0.500000   0.866025   0.000000 )  
               a(3) = (   0.000000   0.000000   3.477667 )  

     reciprocal axes: (cart. coord. in units 2 pi/alat)
               b(1) = (  1.000000 -0.577350  0.000000 )  
               b(2) = (  0.000000  1.154701  0.000000 )  
               b(3) = (  0.000000  0.000000  0.287549 )  


     PseudoPot. # 1 for Co read from file:
     /users/kbadger1/espresso/pseudo/pslibrary.1.0.0/pbe/PSEUDOPOTENTIALS/Co.pbe-n-kjpaw_psl.1.0.0.UPF
     MD5 check sum: 88af6ec42553d4236c267fdfcb472151
     Pseudo is Projector augmented-wave + core cor, Zval =  9.0
     Generated using 'atomic' code by A. Dal Corso  v.7.0
     Shape of augmentation charge: PSQ
     Using radial grid of 1193 points,  6 beta functions with: 
                l(1) =   0
                l(2) =   0
                l(3) =   1
                l(4) =   1
                l(5) =   2
                l(6) =   2
     Q(r) pseudized with 0 coefficients 


     PseudoPot. # 2 for C  read from file:
     /users/kbadger1/espresso/pseudo/pslibrary.1.0.0/pbe/PSEUDOPOTENTIALS/C.pbe-n-kjpaw_psl.1.0.0.UPF
     MD5 check sum: 6408e75cdba28732cea38a4db8498ce4
     Pseudo is Projector augmented-wave + core cor, Zval =  4.0
     Generated using 'atomic' code by A. Dal Corso  v.7.0
     Shape of augmentation charge: PSQ
     Using radial grid of 1073 points,  4 beta functions with: 
                l(1) =   0
                l(2) =   0
                l(3) =   1
                l(4) =   1
     Q(r) pseudized with 0 coefficients 


     PseudoPot. # 3 for O  read from file:
     /users/kbadger1/espresso/pseudo/pslibrary.1.0.0/pbe/PSEUDOPOTENTIALS/O.pbe-nl-kjpaw_psl.1.0.0.UPF
     MD5 check sum: f0439fab3598ca4e468f064226030408
     Pseudo is Projector augmented-wave + core cor, Zval =  6.0
     Generated using 'atomic' code by A. Dal Corso  v.7.0
     Shape of augmentation charge: PSQ
     Using radial grid of 1095 points,  4 beta functions with: 
                l(1) =   0
                l(2) =   0
                l(3) =   1
                l(4) =   1
     Q(r) pseudized with 0 coefficients 


     PseudoPot. # 4 for H  read from file:
     /users/kbadger1/espresso/pseudo/pslibrary.1.0.0/pbe/PSEUDOPOTENTIALS/H.pbe-kjpaw_psl.1.0.0.UPF
     MD5 check sum: fe4c6fa958fa6d3815bf5d2419cbf1df
     Pseudo is Projector augmented-wave, Zval =  1.0
     Generated using 'atomic' code by A. Dal Corso  v.7.0
     Shape of augmentation charge: PSQ
     Using radial grid of  929 points,  2 beta functions with: 
                l(1) =   0
                l(2) =   0
     Q(r) pseudized with 0 coefficients 


     atomic species   valence    mass     pseudopotential
        Co             9.00    58.93319     Co( 1.00)
        C              4.00    12.00000     C ( 1.00)
        O              6.00    15.99491     O ( 1.00)
        H              1.00     1.00783     H ( 1.00)

     Starting magnetic structure 
     atomic species   magnetization
        Co           1.000
        C            1.000
        O            0.000
        H            0.000

     No symmetry found



   Cartesian axes

     site n.     atom                  positions (alat units)
         1           Co  tau(   1) = (   0.0000000   0.1924501   1.3333333  )
         2           Co  tau(   2) = (   0.3333333   0.1924501   1.3333333  )
         3           Co  tau(   3) = (   0.6666667   0.1924501   1.3333333  )
         4           Co  tau(   4) = (   0.1666667   0.4811252   1.3333333  )
         5           Co  tau(   5) = (   0.5000000   0.4811252   1.3333333  )
         6           Co  tau(   6) = (   0.8333333   0.4811252   1.3333333  )
         7           Co  tau(   7) = (   0.3333333   0.7698004   1.3333333  )
         8           Co  tau(   8) = (   0.6666667   0.7698004   1.3333333  )
         9           Co  tau(   9) = (   1.0000000   0.7698004   1.3333333  )
        10           Co  tau(  10) = (   0.0000000   0.0000000   1.6036667  )
        11           Co  tau(  11) = (   0.3333333   0.0000000   1.6036667  )
        12           Co  tau(  12) = (   0.6666667   0.0000000   1.6036667  )
        13           Co  tau(  13) = (   0.1666667   0.2886751   1.6036667  )
        14           Co  tau(  14) = (   0.5000000   0.2886751   1.6036667  )
        15           Co  tau(  15) = (   0.8333333   0.2886751   1.6036667  )
        16           Co  tau(  16) = (   0.3333333   0.5773503   1.6036667  )
        17           Co  tau(  17) = (   0.6666667   0.5773503   1.6036667  )
        18           Co  tau(  18) = (   1.0000000   0.5773503   1.6036667  )
        19           Co  tau(  19) = (   0.0000000   0.1924501   1.8740000  )
        20           Co  tau(  20) = (   0.3333333   0.1924501   1.8740000  )
        21           Co  tau(  21) = (   0.6666667   0.1924501   1.8740000  )
        22           Co  tau(  22) = (   0.1666667   0.4811252   1.8740000  )
        23           Co  tau(  23) = (   0.5000000   0.4811252   1.8740000  )
        24           Co  tau(  24) = (   0.8333333   0.4811252   1.8740000  )
        25           Co  tau(  25) = (   0.3333333   0.7698004   1.8740000  )
        26           Co  tau(  26) = (   0.6666667   0.7698004   1.8740000  )
        27           Co  tau(  27) = (   1.0000000   0.7698004   1.8740000  )
        28           Co  tau(  28) = (   0.0000000   0.0000000   2.1443333  )
        29           Co  tau(  29) = (   0.3333333   0.0000000   2.1443333  )
        30           Co  tau(  30) = (   0.6666667   0.0000000   2.1443333  )
        31           Co  tau(  31) = (   0.1666667   0.2886751   2.1443333  )
        32           Co  tau(  32) = (   0.5000000   0.2886751   2.1443333  )
        33           Co  tau(  33) = (   0.8333333   0.2886751   2.1443333  )
        34           Co  tau(  34) = (   0.3333333   0.5773503   2.1443333  )
        35           Co  tau(  35) = (   0.6666667   0.5773503   2.1443333  )
        36           Co  tau(  36) = (   1.0000000   0.5773503   2.1443333  )
        37           C   tau(  37) = (   0.3766703   0.2167781   2.3480781  )
        38           O   tau(  38) = (   0.2315713   0.1399822   2.3963530  )
        39           H   tau(  39) = (   0.4662198   0.2640490   2.4551998  )

     number of k points=    13  Marzari-Vanderbilt smearing, width (Ry)=  0.0010
                       cart. coord. in units 2pi/alat
        k(    1) = (   0.0000000   0.0000000   0.0000000), wk =   0.0400000
        k(    2) = (   0.0000000   0.2309401   0.0000000), wk =   0.0800000
        k(    3) = (   0.0000000   0.4618802   0.0000000), wk =   0.0800000
        k(    4) = (   0.2000000  -0.1154701   0.0000000), wk =   0.0800000
        k(    5) = (   0.2000000   0.1154701   0.0000000), wk =   0.0800000
        k(    6) = (   0.2000000   0.3464102   0.0000000), wk =   0.0800000
        k(    7) = (   0.2000000  -0.5773503   0.0000000), wk =   0.0800000
        k(    8) = (   0.2000000  -0.3464102   0.0000000), wk =   0.0800000
        k(    9) = (   0.4000000  -0.2309401   0.0000000), wk =   0.0800000
        k(   10) = (   0.4000000   0.0000000   0.0000000), wk =   0.0800000
        k(   11) = (   0.4000000   0.2309401   0.0000000), wk =   0.0800000
        k(   12) = (   0.4000000  -0.6928203   0.0000000), wk =   0.0800000
        k(   13) = (   0.4000000  -0.4618802   0.0000000), wk =   0.0800000

     Dense  grid:   752179 G-vectors     FFT dimensions: (  80,  80, 288)

     Smooth grid:   409445 G-vectors     FFT dimensions: (  64,  64, 225)

     Estimated max dynamical RAM per process >      99.02 MB

     Estimated total dynamical RAM >       9.28 GB
     Generating pointlists ...
     new r_m :   0.1026 (alat units)  1.4545 (a.u.) for type    1
     new r_m :   0.0608 (alat units)  0.8618 (a.u.) for type    2
     new r_m :   0.0706 (alat units)  1.0004 (a.u.) for type    3
     new r_m :   0.0608 (alat units)  0.8618 (a.u.) for type    4

     Initial potential from superposition of free atoms

     starting charge     334.9897, renormalised to     335.0000

     negative rho (up, down):  3.032E-03 4.708E-04


     %%%%%%%%%%%%%%%%%%%%%%%%%%%%%%%%%%%%%%%%%%%%%%%%%%%%%%%%%%%%%%%%%%%%%%%%
     %                                                                      %
     % You are using vdW-DF, which was implemented by the Thonhauser group. %
     % Please cite the following two papers that made this development      %
     % possible and the two reviews that describe the various versions:     %
     %                                                                      %
     %   T. Thonhauser et al., PRL 115, 136402 (2015).                      %
     %   T. Thonhauser et al., PRB 76, 125112 (2007).                       %
     %   K. Berland et al., Rep. Prog. Phys. 78, 066501 (2015).             %
     %   D.C. Langreth et al., J. Phys.: Condens. Matter 21, 084203 (2009). %
     %                                                                      %
     % If you are calculating stress with vdW-DF, please also cite:         %
     %                                                                      %
     %   R. Sabatini et al., J. Phys.: Condens. Matter 24, 424209 (2012).   %
     %   C.M. Frostenson et al., Electr. Struct. 4, 014001 (2022).          %
     %                                                                      %
     %%%%%%%%%%%%%%%%%%%%%%%%%%%%%%%%%%%%%%%%%%%%%%%%%%%%%%%%%%%%%%%%%%%%%%%%

     %%%%%%%%%%%%%%%%%%%%%%%%%%%%%%%%%%%%%%%%%%%%%%%%%%%%%%%%%%%%%%%%%%%%%%%%
     %                                                                      %
     %  vdW-DF NEWS:                                                        %
     %                                                                      %
     %  * vdW-DF3 is now available. DOI: 10.1021/acs.jctc.0c00471           %
     %    use with input_dft = 'vdW-DF3-opt1' or 'vdW-DF3-opt2'             %
     %                                                                      %
     %  * Unscreened and range-separated hybrid vdW-DF-cx functionals       %
     %    DOI: 10.1063/1.4986522 and 10.1088/1361-648X/ac2ad2               %
     %    use with input_dft = 'vdW-DF-cx0'    and 'vdW-DF-ahcx'            %
     %  * Unscreened and range-separated hybrid vdW-DF2-b86r functionals    %
     %    DOI: 10.1063/1.4986522 and DOI: 10.1103/PhysRevX.12.041003        %
     %    use with input_dft = 'vdW-DF2-br0' and 'vdW-DF2-ahbr'             %
     %                                                                      %
     %%%%%%%%%%%%%%%%%%%%%%%%%%%%%%%%%%%%%%%%%%%%%%%%%%%%%%%%%%%%%%%%%%%%%%%%


     Starting wfcs are  333 randomized atomic wfcs
     Checking if some PAW data can be deallocated... 

     total cpu time spent up to now is       20.3 secs

     per-process dynamical memory:   231.0 Mb

     Self-consistent Calculation

     iteration #  1     ecut=    50.00 Ry     beta= 0.70
     Davidson diagonalization with overlap
     ethr =  1.00E-02,  avg # of iterations =  2.0

     negative rho (up, down):  2.289E-05 6.109E-08

     total cpu time spent up to now is       42.1 secs

     total energy              =   -6053.08984005 Ry
     estimated scf accuracy    <      39.60974060 Ry

     total magnetization       =    69.00 Bohr mag/cell
     absolute magnetization    =    81.16 Bohr mag/cell

     iteration #  2     ecut=    50.00 Ry     beta= 0.70
     Davidson diagonalization with overlap
     ethr =  1.00E-02,  avg # of iterations =  1.0

     negative rho (up, down):  2.595E-06 4.025E-09

     total cpu time spent up to now is       58.3 secs

     total energy              =   -6052.55053673 Ry
     estimated scf accuracy    <      24.45643076 Ry

     total magnetization       =    68.99 Bohr mag/cell
     absolute magnetization    =    76.80 Bohr mag/cell

     iteration #  3     ecut=    50.00 Ry     beta= 0.70
     Davidson diagonalization with overlap
     ethr =  7.30E-03,  avg # of iterations =  1.0

     negative rho (up, down):  2.753E-08 0.000E+00

     total cpu time spent up to now is       76.1 secs

     total energy              =   -6055.15814673 Ry
     estimated scf accuracy    <      85.53213282 Ry

     total magnetization       =    66.28 Bohr mag/cell
     absolute magnetization    =    73.26 Bohr mag/cell

     iteration #  4     ecut=    50.00 Ry     beta= 0.70
     Davidson diagonalization with overlap
     ethr =  7.30E-03,  avg # of iterations =  1.0

     total cpu time spent up to now is       91.5 secs

     total energy              =   -6056.31998012 Ry
     estimated scf accuracy    <       5.92075066 Ry

     total magnetization       =    60.64 Bohr mag/cell
     absolute magnetization    =    70.38 Bohr mag/cell

     iteration #  5     ecut=    50.00 Ry     beta= 0.70
     Davidson diagonalization with overlap
     ethr =  1.77E-03,  avg # of iterations =  1.3

     total cpu time spent up to now is      109.9 secs

     total energy              =   -6056.36052100 Ry
     estimated scf accuracy    <       1.97347720 Ry

     total magnetization       =    60.68 Bohr mag/cell
     absolute magnetization    =    69.83 Bohr mag/cell

     iteration #  6     ecut=    50.00 Ry     beta= 0.70
     Davidson diagonalization with overlap
     ethr =  5.89E-04,  avg # of iterations =  1.7

     total cpu time spent up to now is      129.8 secs

     total energy              =   -6056.47138399 Ry
     estimated scf accuracy    <       0.65090372 Ry

     total magnetization       =    60.25 Bohr mag/cell
     absolute magnetization    =    69.37 Bohr mag/cell

     iteration #  7     ecut=    50.00 Ry     beta= 0.70
     Davidson diagonalization with overlap
     c_bands:  1 eigenvalues not converged
     ethr =  1.94E-04,  avg # of iterations =  4.6

     total cpu time spent up to now is      147.7 secs

     total energy              =   -6056.50734572 Ry
     estimated scf accuracy    <       0.78814396 Ry

     total magnetization       =    60.37 Bohr mag/cell
     absolute magnetization    =    69.14 Bohr mag/cell

     iteration #  8     ecut=    50.00 Ry     beta= 0.70
     Davidson diagonalization with overlap
     ethr =  1.94E-04,  avg # of iterations =  1.7

     total cpu time spent up to now is      167.6 secs

     total energy              =   -6056.51482435 Ry
     estimated scf accuracy    <       0.14066036 Ry

     total magnetization       =    60.82 Bohr mag/cell
     absolute magnetization    =    69.32 Bohr mag/cell

     iteration #  9     ecut=    50.00 Ry     beta= 0.70
     Davidson diagonalization with overlap
     c_bands:  1 eigenvalues not converged
     c_bands:  1 eigenvalues not converged
     c_bands:  2 eigenvalues not converged
     ethr =  4.20E-05,  avg # of iterations = 13.3

     total cpu time spent up to now is      204.6 secs

     total energy              =   -6056.54065019 Ry
     estimated scf accuracy    <       0.22411826 Ry

     total magnetization       =    61.24 Bohr mag/cell
     absolute magnetization    =    69.17 Bohr mag/cell

     iteration # 10     ecut=    50.00 Ry     beta= 0.70
     Davidson diagonalization with overlap
     ethr =  4.20E-05,  avg # of iterations =  1.3

     total cpu time spent up to now is      223.9 secs

     total energy              =   -6056.54440031 Ry
     estimated scf accuracy    <       0.16360234 Ry

     total magnetization       =    61.26 Bohr mag/cell
     absolute magnetization    =    69.10 Bohr mag/cell

     iteration # 11     ecut=    50.00 Ry     beta= 0.70
     Davidson diagonalization with overlap
     ethr =  4.20E-05,  avg # of iterations =  1.1

     total cpu time spent up to now is      238.0 secs

     total energy              =   -6056.53365056 Ry
     estimated scf accuracy    <       0.10097809 Ry

     total magnetization       =    61.24 Bohr mag/cell
     absolute magnetization    =    68.98 Bohr mag/cell

     iteration # 12     ecut=    50.00 Ry     beta= 0.70
     Davidson diagonalization with overlap
     ethr =  3.01E-05,  avg # of iterations =  1.9

     negative rho (up, down):  1.899E-06 0.000E+00

     total cpu time spent up to now is      258.7 secs

     total energy              =   -6056.53468765 Ry
     estimated scf accuracy    <       0.08710199 Ry

     total magnetization       =    61.26 Bohr mag/cell
     absolute magnetization    =    68.79 Bohr mag/cell

     iteration # 13     ecut=    50.00 Ry     beta= 0.70
     Davidson diagonalization with overlap
     ethr =  2.60E-05,  avg # of iterations =  1.3

     total cpu time spent up to now is      271.9 secs

     total energy              =   -6056.53372950 Ry
     estimated scf accuracy    <       0.09146557 Ry

     total magnetization       =    61.24 Bohr mag/cell
     absolute magnetization    =    68.73 Bohr mag/cell

     iteration # 14     ecut=    50.00 Ry     beta= 0.70
     Davidson diagonalization with overlap
     ethr =  2.60E-05,  avg # of iterations =  1.2

     negative rho (up, down):  1.152E-07 0.000E+00

     total cpu time spent up to now is      291.1 secs

     total energy              =   -6056.53077836 Ry
     estimated scf accuracy    <       0.07814630 Ry

     total magnetization       =    61.24 Bohr mag/cell
     absolute magnetization    =    68.79 Bohr mag/cell

     iteration # 15     ecut=    50.00 Ry     beta= 0.70
     Davidson diagonalization with overlap
     ethr =  2.33E-05,  avg # of iterations =  1.0

     negative rho (up, down):  8.274E-04 2.988E-04

     total cpu time spent up to now is      309.2 secs

     total energy              =   -6056.52652007 Ry
     estimated scf accuracy    <       0.10935419 Ry

     total magnetization       =    61.24 Bohr mag/cell
     absolute magnetization    =    68.74 Bohr mag/cell

     iteration # 16     ecut=    50.00 Ry     beta= 0.70
     Davidson diagonalization with overlap
     ethr =  2.33E-05,  avg # of iterations =  1.1

     negative rho (up, down):  4.662E-03 3.734E-03

     total cpu time spent up to now is      324.5 secs

     total energy              =   -6056.52393503 Ry
     estimated scf accuracy    <       0.08110356 Ry

     total magnetization       =    61.24 Bohr mag/cell
     absolute magnetization    =    68.74 Bohr mag/cell

     iteration # 17     ecut=    50.00 Ry     beta= 0.70
     Davidson diagonalization with overlap
     ethr =  2.33E-05,  avg # of iterations =  1.0

     negative rho (up, down):  2.561E-02 2.380E-02

     total cpu time spent up to now is      341.7 secs

     total energy              =   -6056.52079134 Ry
     estimated scf accuracy    <       0.05345248 Ry

     total magnetization       =    61.24 Bohr mag/cell
     absolute magnetization    =    68.77 Bohr mag/cell

     iteration # 18     ecut=    50.00 Ry     beta= 0.70
     Davidson diagonalization with overlap
     ethr =  1.60E-05,  avg # of iterations =  1.5

     negative rho (up, down):  7.270E-03 6.167E-03

     total cpu time spent up to now is      358.0 secs

     total energy              =   -6056.52228082 Ry
     estimated scf accuracy    <       0.05389956 Ry

     total magnetization       =    61.24 Bohr mag/cell
     absolute magnetization    =    68.72 Bohr mag/cell

     iteration # 19     ecut=    50.00 Ry     beta= 0.70
     Davidson diagonalization with overlap
     ethr =  1.60E-05,  avg # of iterations =  1.0

     negative rho (up, down):  1.527E-02 1.398E-02

     total cpu time spent up to now is      375.4 secs

     total energy              =   -6056.52083703 Ry
     estimated scf accuracy    <       0.02550463 Ry

     total magnetization       =    61.24 Bohr mag/cell
     absolute magnetization    =    68.74 Bohr mag/cell

     iteration # 20     ecut=    50.00 Ry     beta= 0.70
     Davidson diagonalization with overlap
     ethr =  7.61E-06,  avg # of iterations =  1.8

     negative rho (up, down):  1.555E-02 1.428E-02

     total cpu time spent up to now is      389.1 secs

     total energy              =   -6056.51974576 Ry
     estimated scf accuracy    <       0.03955595 Ry

     total magnetization       =    61.24 Bohr mag/cell
     absolute magnetization    =    68.74 Bohr mag/cell

     iteration # 21     ecut=    50.00 Ry     beta= 0.70
     Davidson diagonalization with overlap
     ethr =  7.61E-06,  avg # of iterations =  1.0

     negative rho (up, down):  1.513E-02 1.397E-02

     total cpu time spent up to now is      408.3 secs

     total energy              =   -6056.51956982 Ry
     estimated scf accuracy    <       0.01729077 Ry

     total magnetization       =    61.24 Bohr mag/cell
     absolute magnetization    =    68.75 Bohr mag/cell

     iteration # 22     ecut=    50.00 Ry     beta= 0.70
     Davidson diagonalization with overlap
     ethr =  5.16E-06,  avg # of iterations =  1.2

     negative rho (up, down):  2.805E-02 2.696E-02

     total cpu time spent up to now is      422.4 secs

     total energy              =   -6056.51846287 Ry
     estimated scf accuracy    <       0.01342443 Ry

     total magnetization       =    61.24 Bohr mag/cell
     absolute magnetization    =    68.76 Bohr mag/cell

     iteration # 23     ecut=    50.00 Ry     beta= 0.70
     Davidson diagonalization with overlap
     ethr =  4.01E-06,  avg # of iterations =  1.7

     negative rho (up, down):  1.784E-02 1.721E-02

     total cpu time spent up to now is      441.2 secs

     total energy              =   -6056.51765080 Ry
     estimated scf accuracy    <       0.01866449 Ry

     total magnetization       =    61.24 Bohr mag/cell
     absolute magnetization    =    68.77 Bohr mag/cell

     iteration # 24     ecut=    50.00 Ry     beta= 0.70
     Davidson diagonalization with overlap
     ethr =  4.01E-06,  avg # of iterations =  1.0

     negative rho (up, down):  1.507E-02 1.445E-02

     total cpu time spent up to now is      459.9 secs

     total energy              =   -6056.51809542 Ry
     estimated scf accuracy    <       0.00200279 Ry

     total magnetization       =    61.24 Bohr mag/cell
     absolute magnetization    =    68.78 Bohr mag/cell

     iteration # 25     ecut=    50.00 Ry     beta= 0.70
     Davidson diagonalization with overlap
     ethr =  5.98E-07,  avg # of iterations =  2.0

     negative rho (up, down):  9.986E-03 9.404E-03

     total cpu time spent up to now is      474.7 secs

     total energy              =   -6056.51796838 Ry
     estimated scf accuracy    <       0.00162928 Ry

     total magnetization       =    61.24 Bohr mag/cell
     absolute magnetization    =    68.79 Bohr mag/cell

     iteration # 26     ecut=    50.00 Ry     beta= 0.70
     Davidson diagonalization with overlap
     ethr =  4.86E-07,  avg # of iterations =  1.4

     negative rho (up, down):  5.419E-03 4.775E-03

     total cpu time spent up to now is      495.9 secs

     total energy              =   -6056.51812023 Ry
     estimated scf accuracy    <       0.00196846 Ry

     total magnetization       =    61.24 Bohr mag/cell
     absolute magnetization    =    68.79 Bohr mag/cell

     iteration # 27     ecut=    50.00 Ry     beta= 0.70
     Davidson diagonalization with overlap
     ethr =  4.86E-07,  avg # of iterations =  1.7

     negative rho (up, down):  7.700E-03 7.129E-03

     total cpu time spent up to now is      510.0 secs

     total energy              =   -6056.51813153 Ry
     estimated scf accuracy    <       0.00181914 Ry

     total magnetization       =    61.24 Bohr mag/cell
     absolute magnetization    =    68.79 Bohr mag/cell

     iteration # 28     ecut=    50.00 Ry     beta= 0.70
     Davidson diagonalization with overlap
     ethr =  4.86E-07,  avg # of iterations =  1.2

     negative rho (up, down):  7.023E-03 6.414E-03

     total cpu time spent up to now is      529.7 secs

     total energy              =   -6056.51828239 Ry
     estimated scf accuracy    <       0.00125128 Ry

     total magnetization       =    61.24 Bohr mag/cell
     absolute magnetization    =    68.79 Bohr mag/cell

     iteration # 29     ecut=    50.00 Ry     beta= 0.70
     Davidson diagonalization with overlap
     ethr =  3.74E-07,  avg # of iterations =  1.4

     negative rho (up, down):  5.366E-03 4.570E-03

     total cpu time spent up to now is      548.5 secs

     total energy              =   -6056.51832701 Ry
     estimated scf accuracy    <       0.00033422 Ry

     total magnetization       =    61.24 Bohr mag/cell
     absolute magnetization    =    68.80 Bohr mag/cell

     iteration # 30     ecut=    50.00 Ry     beta= 0.70
     Davidson diagonalization with overlap
     ethr =  9.98E-08,  avg # of iterations =  4.0

     negative rho (up, down):  4.299E-03 3.395E-03

     total cpu time spent up to now is      566.8 secs

     total energy              =   -6056.51831355 Ry
     estimated scf accuracy    <       0.00020230 Ry

     total magnetization       =    61.24 Bohr mag/cell
     absolute magnetization    =    68.80 Bohr mag/cell

     iteration # 31     ecut=    50.00 Ry     beta= 0.70
     Davidson diagonalization with overlap
     ethr =  6.04E-08,  avg # of iterations =  1.4

     negative rho (up, down):  4.044E-03 3.109E-03

     total cpu time spent up to now is      584.8 secs

     total energy              =   -6056.51831622 Ry
     estimated scf accuracy    <       0.00006668 Ry

     total magnetization       =    61.24 Bohr mag/cell
     absolute magnetization    =    68.80 Bohr mag/cell

     iteration # 32     ecut=    50.00 Ry     beta= 0.70
     Davidson diagonalization with overlap
     ethr =  1.99E-08,  avg # of iterations =  3.3

     negative rho (up, down):  3.599E-03 2.619E-03

     total cpu time spent up to now is      603.5 secs

     total energy              =   -6056.51830849 Ry
     estimated scf accuracy    <       0.00004464 Ry

     total magnetization       =    61.24 Bohr mag/cell
     absolute magnetization    =    68.80 Bohr mag/cell

     iteration # 33     ecut=    50.00 Ry     beta= 0.70
     Davidson diagonalization with overlap
     ethr =  1.33E-08,  avg # of iterations =  2.0

     negative rho (up, down):  3.012E-03 1.923E-03

     total cpu time spent up to now is      622.4 secs

     total energy              =   -6056.51830326 Ry
     estimated scf accuracy    <       0.00002164 Ry

     total magnetization       =    61.24 Bohr mag/cell
     absolute magnetization    =    68.80 Bohr mag/cell

     iteration # 34     ecut=    50.00 Ry     beta= 0.70
     Davidson diagonalization with overlap
     ethr =  6.46E-09,  avg # of iterations =  5.3

     negative rho (up, down):  2.924E-03 1.846E-03

     total cpu time spent up to now is      646.3 secs

     total energy              =   -6056.51830270 Ry
     estimated scf accuracy    <       0.00006359 Ry

     total magnetization       =    61.24 Bohr mag/cell
     absolute magnetization    =    68.80 Bohr mag/cell

     iteration # 35     ecut=    50.00 Ry     beta= 0.70
     Davidson diagonalization with overlap
     ethr =  6.46E-09,  avg # of iterations =  2.0

     negative rho (up, down):  2.690E-03 1.640E-03

     total cpu time spent up to now is      661.0 secs

     total energy              =   -6056.51830408 Ry
     estimated scf accuracy    <       0.00003900 Ry

     total magnetization       =    61.24 Bohr mag/cell
     absolute magnetization    =    68.80 Bohr mag/cell

     iteration # 36     ecut=    50.00 Ry     beta= 0.70
     Davidson diagonalization with overlap
     ethr =  6.46E-09,  avg # of iterations =  2.0

     negative rho (up, down):  2.737E-03 1.633E-03

     total cpu time spent up to now is      680.9 secs

     total energy              =   -6056.51830253 Ry
     estimated scf accuracy    <       0.00001984 Ry

     total magnetization       =    61.24 Bohr mag/cell
     absolute magnetization    =    68.80 Bohr mag/cell

     iteration # 37     ecut=    50.00 Ry     beta= 0.70
     Davidson diagonalization with overlap
     ethr =  5.92E-09,  avg # of iterations =  1.5

     negative rho (up, down):  2.607E-03 1.535E-03

     total cpu time spent up to now is      700.4 secs

     total energy              =   -6056.51830277 Ry
     estimated scf accuracy    <       0.00004338 Ry

     total magnetization       =    61.24 Bohr mag/cell
     absolute magnetization    =    68.80 Bohr mag/cell

     iteration # 38     ecut=    50.00 Ry     beta= 0.70
     Davidson diagonalization with overlap
