
     Program PWSCF v.7.1 starts on  8Dec2025 at 19:57:12 
        Git branch: heads/qe-7.1
        Last git commit: 48ba0178f8fede6d020eb786884699a9f063f55d-dirty
        Last git commit date: Fri Jan 27 14:22:33 2023 +0000
        Last git commit subject: Merge branch 'fix_hubbard' into 'develop'

     This program is part of the open-source Quantum ESPRESSO suite
     for quantum simulation of materials; please cite
         "P. Giannozzi et al., J. Phys.:Condens. Matter 21 395502 (2009);
         "P. Giannozzi et al., J. Phys.:Condens. Matter 29 465901 (2017);
         "P. Giannozzi et al., J. Chem. Phys. 152 154105 (2020);
          URL http://www.quantum-espresso.org", 
     in publications or presentations arising from this work. More details at
     http://www.quantum-espresso.org/quote

     Parallel version (MPI), running on    96 processors

     MPI processes distributed on     2 nodes
     94113 MiB available memory on the printing compute node when the environment starts

     Reading input from espresso.pwi
Warning: card &CELL ignored
Warning: card / ignored
Warning: card &FCP ignored
Warning: card / ignored
Warning: card &RISM ignored
Warning: card / ignored

     Current dimensions of program PWSCF are:
     Max number of different atomic species (ntypx) = 10
     Max number of k-points (npk) =  40000
     Max angular momentum in pseudopotentials (lmaxx) =  4
     file Co.pbe-n-kjpaw_psl.1.0.0.UPF: wavefunction(s)  4S 3D renormalized
     file C.pbe-n-kjpaw_psl.1.0.0.UPF: wavefunction(s)  2S 2P renormalized
     file O.pbe-nl-kjpaw_psl.1.0.0.UPF: wavefunction(s)  2S 2P renormalized
     file H.pbe-kjpaw_psl.1.0.0.UPF: wavefunction(s)  1S renormalized

     **************************************************************************
     Initializing libbeef V0.1.2 with the BEEF-vdW functional.
     Citation: Wellendorff et al., PRB 85, 235149 (2012).
     **************************************************************************


     IMPORTANT: XC functional enforced from input :
     Exchange-correlation= BEEF-VDW
                           (   1   4  43  14   2   0   0)
     Any further DFT definition will be discarded
     Please, verify this is what you really want


     R & G space division:  proc/nbgrp/npool/nimage =      96
     Subspace diagonalization in iterative solution of the eigenvalue problem:
     one sub-group per band group will be used
     custom distributed-memory algorithm (size of sub-group:  2*  2 procs)


     Parallelization info
     --------------------
     sticks:   dense  smooth     PW     G-vecs:    dense   smooth      PW
     Min          43      28      7                 7829     4248     595
     Max          44      29      8                 7845     4281     630
     Sum        4153    2773    757               752179   409445   59217

     Using Slab Decomposition



     bravais-lattice index     =            0
     lattice parameter (alat)  =      14.1729  a.u.
     unit-cell volume          =    8574.3059 (a.u.)^3
     number of atoms/cell      =           39
     number of atomic types    =            4
     number of electrons       =       335.00
     number of Kohn-Sham states=          202
     kinetic-energy cutoff     =      50.0000  Ry
     charge density cutoff     =     300.0000  Ry
     scf convergence threshold =      1.0E-08
     mixing beta               =       0.7000
     number of iterations used =            8  local-TF  mixing
     Exchange-correlation= BEEF-VDW
                           (   1   4  43  14   2   0   0)

     celldm(1)=  14.172946  celldm(2)=   0.000000  celldm(3)=   0.000000
     celldm(4)=   0.000000  celldm(5)=   0.000000  celldm(6)=   0.000000

     crystal axes: (cart. coord. in units of alat)
               a(1) = (   1.000000   0.000000   0.000000 )  
               a(2) = (   0.500000   0.866025   0.000000 )  
               a(3) = (   0.000000   0.000000   3.477667 )  

     reciprocal axes: (cart. coord. in units 2 pi/alat)
               b(1) = (  1.000000 -0.577350  0.000000 )  
               b(2) = (  0.000000  1.154701  0.000000 )  
               b(3) = (  0.000000  0.000000  0.287549 )  


     PseudoPot. # 1 for Co read from file:
     /users/kbadger1/espresso/pseudo/pslibrary.1.0.0/pbe/PSEUDOPOTENTIALS/Co.pbe-n-kjpaw_psl.1.0.0.UPF
     MD5 check sum: 88af6ec42553d4236c267fdfcb472151
     Pseudo is Projector augmented-wave + core cor, Zval =  9.0
     Generated using 'atomic' code by A. Dal Corso  v.7.0
     Shape of augmentation charge: PSQ
     Using radial grid of 1193 points,  6 beta functions with: 
                l(1) =   0
                l(2) =   0
                l(3) =   1
                l(4) =   1
                l(5) =   2
                l(6) =   2
     Q(r) pseudized with 0 coefficients 


     PseudoPot. # 2 for C  read from file:
     /users/kbadger1/espresso/pseudo/pslibrary.1.0.0/pbe/PSEUDOPOTENTIALS/C.pbe-n-kjpaw_psl.1.0.0.UPF
     MD5 check sum: 6408e75cdba28732cea38a4db8498ce4
     Pseudo is Projector augmented-wave + core cor, Zval =  4.0
     Generated using 'atomic' code by A. Dal Corso  v.7.0
     Shape of augmentation charge: PSQ
     Using radial grid of 1073 points,  4 beta functions with: 
                l(1) =   0
                l(2) =   0
                l(3) =   1
                l(4) =   1
     Q(r) pseudized with 0 coefficients 


     PseudoPot. # 3 for O  read from file:
     /users/kbadger1/espresso/pseudo/pslibrary.1.0.0/pbe/PSEUDOPOTENTIALS/O.pbe-nl-kjpaw_psl.1.0.0.UPF
     MD5 check sum: f0439fab3598ca4e468f064226030408
     Pseudo is Projector augmented-wave + core cor, Zval =  6.0
     Generated using 'atomic' code by A. Dal Corso  v.7.0
     Shape of augmentation charge: PSQ
     Using radial grid of 1095 points,  4 beta functions with: 
                l(1) =   0
                l(2) =   0
                l(3) =   1
                l(4) =   1
     Q(r) pseudized with 0 coefficients 


     PseudoPot. # 4 for H  read from file:
     /users/kbadger1/espresso/pseudo/pslibrary.1.0.0/pbe/PSEUDOPOTENTIALS/H.pbe-kjpaw_psl.1.0.0.UPF
     MD5 check sum: fe4c6fa958fa6d3815bf5d2419cbf1df
     Pseudo is Projector augmented-wave, Zval =  1.0
     Generated using 'atomic' code by A. Dal Corso  v.7.0
     Shape of augmentation charge: PSQ
     Using radial grid of  929 points,  2 beta functions with: 
                l(1) =   0
                l(2) =   0
     Q(r) pseudized with 0 coefficients 


     atomic species   valence    mass     pseudopotential
        Co             9.00    58.93319     Co( 1.00)
        C              4.00    12.00000     C ( 1.00)
        O              6.00    15.99491     O ( 1.00)
        H              1.00     1.00783     H ( 1.00)

     Starting magnetic structure 
     atomic species   magnetization
        Co           1.000
        C            1.000
        O            0.000
        H            0.000

     No symmetry found



   Cartesian axes

     site n.     atom                  positions (alat units)
         1           Co  tau(   1) = (   0.0000000   0.1924501   1.3333333  )
         2           Co  tau(   2) = (   0.3333333   0.1924501   1.3333333  )
         3           Co  tau(   3) = (   0.6666667   0.1924501   1.3333333  )
         4           Co  tau(   4) = (   0.1666667   0.4811252   1.3333333  )
         5           Co  tau(   5) = (   0.5000000   0.4811252   1.3333333  )
         6           Co  tau(   6) = (   0.8333333   0.4811252   1.3333333  )
         7           Co  tau(   7) = (   0.3333333   0.7698004   1.3333333  )
         8           Co  tau(   8) = (   0.6666667   0.7698004   1.3333333  )
         9           Co  tau(   9) = (   1.0000000   0.7698004   1.3333333  )
        10           Co  tau(  10) = (   0.0000000   0.0000000   1.6036667  )
        11           Co  tau(  11) = (   0.3333333   0.0000000   1.6036667  )
        12           Co  tau(  12) = (   0.6666667   0.0000000   1.6036667  )
        13           Co  tau(  13) = (   0.1666667   0.2886751   1.6036667  )
        14           Co  tau(  14) = (   0.5000000   0.2886751   1.6036667  )
        15           Co  tau(  15) = (   0.8333333   0.2886751   1.6036667  )
        16           Co  tau(  16) = (   0.3333333   0.5773503   1.6036667  )
        17           Co  tau(  17) = (   0.6666667   0.5773503   1.6036667  )
        18           Co  tau(  18) = (   1.0000000   0.5773503   1.6036667  )
        19           Co  tau(  19) = (   0.0000000   0.1924501   1.8740000  )
        20           Co  tau(  20) = (   0.3333333   0.1924501   1.8740000  )
        21           Co  tau(  21) = (   0.6666667   0.1924501   1.8740000  )
        22           Co  tau(  22) = (   0.1666667   0.4811252   1.8740000  )
        23           Co  tau(  23) = (   0.5000000   0.4811252   1.8740000  )
        24           Co  tau(  24) = (   0.8333333   0.4811252   1.8740000  )
        25           Co  tau(  25) = (   0.3333333   0.7698004   1.8740000  )
        26           Co  tau(  26) = (   0.6666667   0.7698004   1.8740000  )
        27           Co  tau(  27) = (   1.0000000   0.7698004   1.8740000  )
        28           Co  tau(  28) = (   0.0000000   0.0000000   2.1443333  )
        29           Co  tau(  29) = (   0.3333333   0.0000000   2.1443333  )
        30           Co  tau(  30) = (   0.6666667   0.0000000   2.1443333  )
        31           Co  tau(  31) = (   0.1666667   0.2886751   2.1443333  )
        32           Co  tau(  32) = (   0.5000000   0.2886751   2.1443333  )
        33           Co  tau(  33) = (   0.8333333   0.2886751   2.1443333  )
        34           Co  tau(  34) = (   0.3333333   0.5773503   2.1443333  )
        35           Co  tau(  35) = (   0.6666667   0.5773503   2.1443333  )
        36           Co  tau(  36) = (   1.0000000   0.5773503   2.1443333  )
        37           C   tau(  37) = (   0.3603761   0.2080429   2.3397808  )
        38           O   tau(  38) = (   0.2326257   0.1342887   2.4210638  )
        39           H   tau(  39) = (   0.4699128   0.2712967   2.4217818  )

     number of k points=    13  Marzari-Vanderbilt smearing, width (Ry)=  0.0010
                       cart. coord. in units 2pi/alat
        k(    1) = (   0.0000000   0.0000000   0.0000000), wk =   0.0400000
        k(    2) = (   0.0000000   0.2309401   0.0000000), wk =   0.0800000
        k(    3) = (   0.0000000   0.4618802   0.0000000), wk =   0.0800000
        k(    4) = (   0.2000000  -0.1154701   0.0000000), wk =   0.0800000
        k(    5) = (   0.2000000   0.1154701   0.0000000), wk =   0.0800000
        k(    6) = (   0.2000000   0.3464102   0.0000000), wk =   0.0800000
        k(    7) = (   0.2000000  -0.5773503   0.0000000), wk =   0.0800000
        k(    8) = (   0.2000000  -0.3464102   0.0000000), wk =   0.0800000
        k(    9) = (   0.4000000  -0.2309401   0.0000000), wk =   0.0800000
        k(   10) = (   0.4000000   0.0000000   0.0000000), wk =   0.0800000
        k(   11) = (   0.4000000   0.2309401   0.0000000), wk =   0.0800000
        k(   12) = (   0.4000000  -0.6928203   0.0000000), wk =   0.0800000
        k(   13) = (   0.4000000  -0.4618802   0.0000000), wk =   0.0800000

     Dense  grid:   752179 G-vectors     FFT dimensions: (  80,  80, 288)

     Smooth grid:   409445 G-vectors     FFT dimensions: (  64,  64, 225)

     Estimated max dynamical RAM per process >      99.02 MB

     Estimated total dynamical RAM >       9.28 GB
     Generating pointlists ...
     new r_m :   0.1045 (alat units)  1.4813 (a.u.) for type    1
     new r_m :   0.0622 (alat units)  0.8813 (a.u.) for type    2
     new r_m :   0.0695 (alat units)  0.9847 (a.u.) for type    3
     new r_m :   0.0622 (alat units)  0.8813 (a.u.) for type    4

     Initial potential from superposition of free atoms

     starting charge     334.9897, renormalised to     335.0000

     negative rho (up, down):  3.043E-03 4.730E-04


     %%%%%%%%%%%%%%%%%%%%%%%%%%%%%%%%%%%%%%%%%%%%%%%%%%%%%%%%%%%%%%%%%%%%%%%%
     %                                                                      %
     % You are using vdW-DF, which was implemented by the Thonhauser group. %
     % Please cite the following two papers that made this development      %
     % possible and the two reviews that describe the various versions:     %
     %                                                                      %
     %   T. Thonhauser et al., PRL 115, 136402 (2015).                      %
     %   T. Thonhauser et al., PRB 76, 125112 (2007).                       %
     %   K. Berland et al., Rep. Prog. Phys. 78, 066501 (2015).             %
     %   D.C. Langreth et al., J. Phys.: Condens. Matter 21, 084203 (2009). %
     %                                                                      %
     % If you are calculating stress with vdW-DF, please also cite:         %
     %                                                                      %
     %   R. Sabatini et al., J. Phys.: Condens. Matter 24, 424209 (2012).   %
     %   C.M. Frostenson et al., Electr. Struct. 4, 014001 (2022).          %
     %                                                                      %
     %%%%%%%%%%%%%%%%%%%%%%%%%%%%%%%%%%%%%%%%%%%%%%%%%%%%%%%%%%%%%%%%%%%%%%%%

     %%%%%%%%%%%%%%%%%%%%%%%%%%%%%%%%%%%%%%%%%%%%%%%%%%%%%%%%%%%%%%%%%%%%%%%%
     %                                                                      %
     %  vdW-DF NEWS:                                                        %
     %                                                                      %
     %  * vdW-DF3 is now available. DOI: 10.1021/acs.jctc.0c00471           %
     %    use with input_dft = 'vdW-DF3-opt1' or 'vdW-DF3-opt2'             %
     %                                                                      %
     %  * Unscreened and range-separated hybrid vdW-DF-cx functionals       %
     %    DOI: 10.1063/1.4986522 and 10.1088/1361-648X/ac2ad2               %
     %    use with input_dft = 'vdW-DF-cx0'    and 'vdW-DF-ahcx'            %
     %  * Unscreened and range-separated hybrid vdW-DF2-b86r functionals    %
     %    DOI: 10.1063/1.4986522 and DOI: 10.1103/PhysRevX.12.041003        %
     %    use with input_dft = 'vdW-DF2-br0' and 'vdW-DF2-ahbr'             %
     %                                                                      %
     %%%%%%%%%%%%%%%%%%%%%%%%%%%%%%%%%%%%%%%%%%%%%%%%%%%%%%%%%%%%%%%%%%%%%%%%


     Starting wfcs are  333 randomized atomic wfcs
     Checking if some PAW data can be deallocated... 

     total cpu time spent up to now is       12.4 secs

     per-process dynamical memory:   231.0 Mb

     Self-consistent Calculation

     iteration #  1     ecut=    50.00 Ry     beta= 0.70
     Davidson diagonalization with overlap
     ethr =  1.00E-02,  avg # of iterations =  2.0

     negative rho (up, down):  2.397E-05 7.011E-08

     total cpu time spent up to now is       29.9 secs

     total energy              =   -6053.08723392 Ry
     estimated scf accuracy    <      39.55665604 Ry

     total magnetization       =    69.00 Bohr mag/cell
     absolute magnetization    =    81.26 Bohr mag/cell

     iteration #  2     ecut=    50.00 Ry     beta= 0.70
     Davidson diagonalization with overlap
     ethr =  1.00E-02,  avg # of iterations =  1.0

     negative rho (up, down):  2.611E-06 7.054E-09

     total cpu time spent up to now is       43.7 secs

     total energy              =   -6052.58098512 Ry
     estimated scf accuracy    <      24.19727916 Ry

     total magnetization       =    68.56 Bohr mag/cell
     absolute magnetization    =    76.69 Bohr mag/cell

     iteration #  3     ecut=    50.00 Ry     beta= 0.70
     Davidson diagonalization with overlap
     ethr =  7.22E-03,  avg # of iterations =  1.0

     total cpu time spent up to now is       57.2 secs

     total energy              =   -6055.13696870 Ry
     estimated scf accuracy    <      86.62683452 Ry

     total magnetization       =    65.82 Bohr mag/cell
     absolute magnetization    =    73.06 Bohr mag/cell

     iteration #  4     ecut=    50.00 Ry     beta= 0.70
     Davidson diagonalization with overlap
     ethr =  7.22E-03,  avg # of iterations =  1.0

     total cpu time spent up to now is       70.9 secs

     total energy              =   -6056.32258953 Ry
     estimated scf accuracy    <       5.79316824 Ry

     total magnetization       =    60.65 Bohr mag/cell
     absolute magnetization    =    70.50 Bohr mag/cell

     iteration #  5     ecut=    50.00 Ry     beta= 0.70
     Davidson diagonalization with overlap
     ethr =  1.73E-03,  avg # of iterations =  1.4

     total cpu time spent up to now is       85.2 secs

     total energy              =   -6056.34765699 Ry
     estimated scf accuracy    <       2.09720743 Ry

     total magnetization       =    60.48 Bohr mag/cell
     absolute magnetization    =    69.80 Bohr mag/cell

     iteration #  6     ecut=    50.00 Ry     beta= 0.70
     Davidson diagonalization with overlap
     ethr =  6.26E-04,  avg # of iterations =  1.6

     total cpu time spent up to now is       99.2 secs

     total energy              =   -6056.46316773 Ry
     estimated scf accuracy    <       0.65910394 Ry

     total magnetization       =    60.20 Bohr mag/cell
     absolute magnetization    =    69.44 Bohr mag/cell

     iteration #  7     ecut=    50.00 Ry     beta= 0.70
     Davidson diagonalization with overlap
     ethr =  1.97E-04,  avg # of iterations =  4.3

     total cpu time spent up to now is      117.0 secs

     total energy              =   -6056.49857002 Ry
     estimated scf accuracy    <       0.74083018 Ry

     total magnetization       =    60.20 Bohr mag/cell
     absolute magnetization    =    69.16 Bohr mag/cell

     iteration #  8     ecut=    50.00 Ry     beta= 0.70
     Davidson diagonalization with overlap
     ethr =  1.97E-04,  avg # of iterations =  1.7

     total cpu time spent up to now is      131.0 secs

     total energy              =   -6056.50727961 Ry
     estimated scf accuracy    <       0.14062629 Ry

     total magnetization       =    60.35 Bohr mag/cell
     absolute magnetization    =    69.13 Bohr mag/cell

     iteration #  9     ecut=    50.00 Ry     beta= 0.70
     Davidson diagonalization with overlap
     ethr =  4.20E-05,  avg # of iterations = 12.3

     total cpu time spent up to now is      163.2 secs

     total energy              =   -6056.53504263 Ry
     estimated scf accuracy    <       0.28688457 Ry

     total magnetization       =    61.25 Bohr mag/cell
     absolute magnetization    =    69.12 Bohr mag/cell

     iteration # 10     ecut=    50.00 Ry     beta= 0.70
     Davidson diagonalization with overlap
     ethr =  4.20E-05,  avg # of iterations =  1.7

     total cpu time spent up to now is      177.3 secs

     total energy              =   -6056.54128854 Ry
     estimated scf accuracy    <       0.18414434 Ry

     total magnetization       =    61.24 Bohr mag/cell
     absolute magnetization    =    69.03 Bohr mag/cell

     iteration # 11     ecut=    50.00 Ry     beta= 0.70
     Davidson diagonalization with overlap
     ethr =  4.20E-05,  avg # of iterations =  1.0

     total cpu time spent up to now is      191.2 secs

     total energy              =   -6056.52512355 Ry
     estimated scf accuracy    <       0.09201388 Ry

     total magnetization       =    61.24 Bohr mag/cell
     absolute magnetization    =    68.97 Bohr mag/cell

     iteration # 12     ecut=    50.00 Ry     beta= 0.70
     Davidson diagonalization with overlap
     ethr =  2.75E-05,  avg # of iterations =  2.1

     negative rho (up, down):  4.826E-07 0.000E+00

     total cpu time spent up to now is      206.1 secs

     total energy              =   -6056.53060658 Ry
     estimated scf accuracy    <       0.12397393 Ry

     total magnetization       =    61.19 Bohr mag/cell
     absolute magnetization    =    68.68 Bohr mag/cell

     iteration # 13     ecut=    50.00 Ry     beta= 0.70
     Davidson diagonalization with overlap
     ethr =  2.75E-05,  avg # of iterations =  1.2

     total cpu time spent up to now is      219.5 secs

     total energy              =   -6056.52773674 Ry
     estimated scf accuracy    <       0.10331722 Ry

     total magnetization       =    61.27 Bohr mag/cell
     absolute magnetization    =    68.69 Bohr mag/cell

     iteration # 14     ecut=    50.00 Ry     beta= 0.70
     Davidson diagonalization with overlap
     ethr =  2.75E-05,  avg # of iterations =  1.3

     total cpu time spent up to now is      233.5 secs

     total energy              =   -6056.52672082 Ry
     estimated scf accuracy    <       0.07435662 Ry

     total magnetization       =    61.24 Bohr mag/cell
     absolute magnetization    =    68.71 Bohr mag/cell

     iteration # 15     ecut=    50.00 Ry     beta= 0.70
     Davidson diagonalization with overlap
     ethr =  2.22E-05,  avg # of iterations =  1.0

     negative rho (up, down):  1.956E-05 1.913E-07

     total cpu time spent up to now is      247.4 secs

     total energy              =   -6056.52389440 Ry
     estimated scf accuracy    <       0.10729684 Ry

     total magnetization       =    61.27 Bohr mag/cell
     absolute magnetization    =    68.72 Bohr mag/cell

     iteration # 16     ecut=    50.00 Ry     beta= 0.70
     Davidson diagonalization with overlap
     ethr =  2.22E-05,  avg # of iterations =  1.0

     negative rho (up, down):  1.436E-04 2.257E-05

     total cpu time spent up to now is      260.4 secs

     total energy              =   -6056.52156680 Ry
     estimated scf accuracy    <       0.08434890 Ry

     total magnetization       =    61.24 Bohr mag/cell
     absolute magnetization    =    68.70 Bohr mag/cell

     iteration # 17     ecut=    50.00 Ry     beta= 0.70
     Davidson diagonalization with overlap
     ethr =  2.22E-05,  avg # of iterations =  1.0

     negative rho (up, down):  1.971E-02 1.819E-02

     total cpu time spent up to now is      273.7 secs

     total energy              =   -6056.51630725 Ry
     estimated scf accuracy    <       0.07328164 Ry

     total magnetization       =    61.24 Bohr mag/cell
     absolute magnetization    =    68.72 Bohr mag/cell

     iteration # 18     ecut=    50.00 Ry     beta= 0.70
     Davidson diagonalization with overlap
     ethr =  2.19E-05,  avg # of iterations =  1.3

     negative rho (up, down):  6.514E-03 5.533E-03

     total cpu time spent up to now is      287.1 secs

     total energy              =   -6056.51837415 Ry
     estimated scf accuracy    <       0.05003082 Ry

     total magnetization       =    61.24 Bohr mag/cell
     absolute magnetization    =    68.68 Bohr mag/cell

     iteration # 19     ecut=    50.00 Ry     beta= 0.70
     Davidson diagonalization with overlap
     ethr =  1.49E-05,  avg # of iterations =  1.0

     negative rho (up, down):  9.400E-03 8.336E-03

     total cpu time spent up to now is      301.2 secs

     total energy              =   -6056.51695859 Ry
     estimated scf accuracy    <       0.02555947 Ry

     total magnetization       =    61.24 Bohr mag/cell
     absolute magnetization    =    68.69 Bohr mag/cell

     iteration # 20     ecut=    50.00 Ry     beta= 0.70
     Davidson diagonalization with overlap
     c_bands:  4 eigenvalues not converged
     ethr =  7.63E-06,  avg # of iterations =  1.8

     negative rho (up, down):  9.535E-03 8.503E-03

     total cpu time spent up to now is      315.2 secs

     total energy              =   -6056.51620636 Ry
     estimated scf accuracy    <       0.03738289 Ry

     total magnetization       =    61.24 Bohr mag/cell
     absolute magnetization    =    68.69 Bohr mag/cell

     iteration # 21     ecut=    50.00 Ry     beta= 0.70
     Davidson diagonalization with overlap
     ethr =  7.63E-06,  avg # of iterations =  1.5

     negative rho (up, down):  1.326E-02 1.223E-02

     total cpu time spent up to now is      329.0 secs

     total energy              =   -6056.51579949 Ry
     estimated scf accuracy    <       0.01464725 Ry

     total magnetization       =    61.24 Bohr mag/cell
     absolute magnetization    =    68.70 Bohr mag/cell

     iteration # 22     ecut=    50.00 Ry     beta= 0.70
     Davidson diagonalization with overlap
     ethr =  4.37E-06,  avg # of iterations =  1.2

     negative rho (up, down):  2.310E-02 2.232E-02

     total cpu time spent up to now is      342.6 secs

     total energy              =   -6056.51424495 Ry
     estimated scf accuracy    <       0.00799204 Ry

     total magnetization       =    61.24 Bohr mag/cell
     absolute magnetization    =    68.71 Bohr mag/cell

     iteration # 23     ecut=    50.00 Ry     beta= 0.70
     Davidson diagonalization with overlap
     ethr =  2.39E-06,  avg # of iterations =  2.1

     negative rho (up, down):  1.475E-02 1.419E-02

     total cpu time spent up to now is      358.6 secs

     total energy              =   -6056.51373989 Ry
     estimated scf accuracy    <       0.00654515 Ry

     total magnetization       =    61.24 Bohr mag/cell
     absolute magnetization    =    68.72 Bohr mag/cell

     iteration # 24     ecut=    50.00 Ry     beta= 0.70
     Davidson diagonalization with overlap
     ethr =  1.95E-06,  avg # of iterations =  1.2

     negative rho (up, down):  1.289E-02 1.234E-02

     total cpu time spent up to now is      372.1 secs

     total energy              =   -6056.51390577 Ry
     estimated scf accuracy    <       0.00413059 Ry

     total magnetization       =    61.24 Bohr mag/cell
     absolute magnetization    =    68.73 Bohr mag/cell

     iteration # 25     ecut=    50.00 Ry     beta= 0.70
     Davidson diagonalization with overlap
     ethr =  1.23E-06,  avg # of iterations =  1.5

     negative rho (up, down):  8.091E-03 7.537E-03

     total cpu time spent up to now is      385.9 secs

     total energy              =   -6056.51380949 Ry
     estimated scf accuracy    <       0.00238265 Ry

     total magnetization       =    61.24 Bohr mag/cell
     absolute magnetization    =    68.74 Bohr mag/cell

     iteration # 26     ecut=    50.00 Ry     beta= 0.70
     Davidson diagonalization with overlap
     ethr =  7.11E-07,  avg # of iterations =  1.5

     negative rho (up, down):  7.990E-03 7.454E-03

     total cpu time spent up to now is      399.7 secs

     total energy              =   -6056.51407613 Ry
     estimated scf accuracy    <       0.00372034 Ry

     total magnetization       =    61.24 Bohr mag/cell
     absolute magnetization    =    68.73 Bohr mag/cell

     iteration # 27     ecut=    50.00 Ry     beta= 0.70
     Davidson diagonalization with overlap
     ethr =  7.11E-07,  avg # of iterations =  1.5

     negative rho (up, down):  5.774E-03 5.157E-03

     total cpu time spent up to now is      413.7 secs

     total energy              =   -6056.51411045 Ry
     estimated scf accuracy    <       0.00047442 Ry

     total magnetization       =    61.24 Bohr mag/cell
     absolute magnetization    =    68.74 Bohr mag/cell

     iteration # 28     ecut=    50.00 Ry     beta= 0.70
     Davidson diagonalization with overlap
     ethr =  1.42E-07,  avg # of iterations =  3.8

     negative rho (up, down):  4.768E-03 3.986E-03

     total cpu time spent up to now is      431.2 secs

     total energy              =   -6056.51416616 Ry
     estimated scf accuracy    <       0.00131830 Ry

     total magnetization       =    61.24 Bohr mag/cell
     absolute magnetization    =    68.74 Bohr mag/cell

     iteration # 29     ecut=    50.00 Ry     beta= 0.70
     Davidson diagonalization with overlap
     ethr =  1.42E-07,  avg # of iterations =  1.9

     negative rho (up, down):  3.276E-03 2.287E-03

     total cpu time spent up to now is      445.7 secs

     total energy              =   -6056.51420100 Ry
     estimated scf accuracy    <       0.00018163 Ry

     total magnetization       =    61.24 Bohr mag/cell
     absolute magnetization    =    68.74 Bohr mag/cell

     iteration # 30     ecut=    50.00 Ry     beta= 0.70
     Davidson diagonalization with overlap
     ethr =  5.42E-08,  avg # of iterations =  2.3

     negative rho (up, down):  3.324E-03 2.364E-03

     total cpu time spent up to now is      460.7 secs

     total energy              =   -6056.51419950 Ry
     estimated scf accuracy    <       0.00015625 Ry

     total magnetization       =    61.24 Bohr mag/cell
     absolute magnetization    =    68.74 Bohr mag/cell

     iteration # 31     ecut=    50.00 Ry     beta= 0.70
     Davidson diagonalization with overlap
     ethr =  4.66E-08,  avg # of iterations =  1.8

     negative rho (up, down):  3.407E-03 2.427E-03

     total cpu time spent up to now is      475.3 secs

     total energy              =   -6056.51421061 Ry
     estimated scf accuracy    <       0.00015821 Ry

     total magnetization       =    61.24 Bohr mag/cell
     absolute magnetization    =    68.74 Bohr mag/cell

     iteration # 32     ecut=    50.00 Ry     beta= 0.70
     Davidson diagonalization with overlap
     ethr =  4.66E-08,  avg # of iterations =  1.2

     negative rho (up, down):  2.947E-03 1.957E-03

     total cpu time spent up to now is      490.0 secs

     total energy              =   -6056.51420134 Ry
     estimated scf accuracy    <       0.00007464 Ry

     total magnetization       =    61.24 Bohr mag/cell
     absolute magnetization    =    68.74 Bohr mag/cell

     iteration # 33     ecut=    50.00 Ry     beta= 0.70
     Davidson diagonalization with overlap
     ethr =  2.23E-08,  avg # of iterations =  2.0

     negative rho (up, down):  3.047E-03 1.977E-03

     total cpu time spent up to now is      504.6 secs

     total energy              =   -6056.51422001 Ry
     estimated scf accuracy    <       0.00003074 Ry

     total magnetization       =    61.24 Bohr mag/cell
     absolute magnetization    =    68.74 Bohr mag/cell

     iteration # 34     ecut=    50.00 Ry     beta= 0.70
     Davidson diagonalization with overlap
     ethr =  9.17E-09,  avg # of iterations =  5.1

     negative rho (up, down):  2.853E-03 1.755E-03

     total cpu time spent up to now is      521.9 secs

     total energy              =   -6056.51422253 Ry
     estimated scf accuracy    <       0.00002902 Ry

     total magnetization       =    61.24 Bohr mag/cell
     absolute magnetization    =    68.74 Bohr mag/cell

     iteration # 35     ecut=    50.00 Ry     beta= 0.70
     Davidson diagonalization with overlap
     ethr =  8.66E-09,  avg # of iterations =  2.0

     negative rho (up, down):  2.845E-03 1.750E-03

     total cpu time spent up to now is      536.8 secs

     total energy              =   -6056.51422320 Ry
     estimated scf accuracy    <       0.00001565 Ry

     total magnetization       =    61.24 Bohr mag/cell
     absolute magnetization    =    68.74 Bohr mag/cell

     iteration # 36     ecut=    50.00 Ry     beta= 0.70
     Davidson diagonalization with overlap
     ethr =  4.67E-09,  avg # of iterations =  2.5

     negative rho (up, down):  2.785E-03 1.720E-03

     total cpu time spent up to now is      552.8 secs

     total energy              =   -6056.51422393 Ry
     estimated scf accuracy    <       0.00001638 Ry

     total magnetization       =    61.24 Bohr mag/cell
     absolute magnetization    =    68.74 Bohr mag/cell

     iteration # 37     ecut=    50.00 Ry     beta= 0.70
     Davidson diagonalization with overlap
     ethr =  4.67E-09,  avg # of iterations =  2.0

     negative rho (up, down):  2.745E-03 1.663E-03

     total cpu time spent up to now is      567.4 secs

     total energy              =   -6056.51422406 Ry
     estimated scf accuracy    <       0.00001581 Ry

     total magnetization       =    61.24 Bohr mag/cell
     absolute magnetization    =    68.74 Bohr mag/cell

     iteration # 38     ecut=    50.00 Ry     beta= 0.70
     Davidson diagonalization with overlap
     ethr =  4.67E-09,  avg # of iterations =  1.2

     negative rho (up, down):  2.714E-03 1.641E-03

     total cpu time spent up to now is      581.0 secs

     total energy              =   -6056.51422453 Ry
     estimated scf accuracy    <       0.00000576 Ry

     total magnetization       =    61.24 Bohr mag/cell
     absolute magnetization    =    68.74 Bohr mag/cell

     iteration # 39     ecut=    50.00 Ry     beta= 0.70
     Davidson diagonalization with overlap
     ethr =  1.72E-09,  avg # of iterations =  3.8

     negative rho (up, down):  2.583E-03 1.489E-03

     total cpu time spent up to now is      597.6 secs

     total energy              =   -6056.51422447 Ry
     estimated scf accuracy    <       0.00000273 Ry

     total magnetization       =    61.24 Bohr mag/cell
     absolute magnetization    =    68.74 Bohr mag/cell

     iteration # 40     ecut=    50.00 Ry     beta= 0.70
     Davidson diagonalization with overlap
     ethr =  8.14E-10,  avg # of iterations =  4.8

     negative rho (up, down):  2.437E-03 1.334E-03

     total cpu time spent up to now is      615.4 secs

     total energy              =   -6056.51422435 Ry
     estimated scf accuracy    <       0.00000370 Ry

     total magnetization       =    61.24 Bohr mag/cell
     absolute magnetization    =    68.74 Bohr mag/cell

     iteration # 41     ecut=    50.00 Ry     beta= 0.70
     Davidson diagonalization with overlap
     ethr =  8.14E-10,  avg # of iterations =  1.9

     negative rho (up, down):  2.275E-03 1.168E-03

     total cpu time spent up to now is      629.9 secs

     total energy              =   -6056.51422412 Ry
     estimated scf accuracy    <       0.00000465 Ry

     total magnetization       =    61.24 Bohr mag/cell
     absolute magnetization    =    68.74 Bohr mag/cell

     iteration # 42     ecut=    50.00 Ry     beta= 0.70
     Davidson diagonalization with overlap
     ethr =  8.14E-10,  avg # of iterations =  1.5

     negative rho (up, down):  2.350E-03 1.251E-03

     total cpu time spent up to now is      643.9 secs

     total energy              =   -6056.51422443 Ry
     estimated scf accuracy    <       0.00000100 Ry

     total magnetization       =    61.24 Bohr mag/cell
     absolute magnetization    =    68.74 Bohr mag/cell

     iteration # 43     ecut=    50.00 Ry     beta= 0.70
     Davidson diagonalization with overlap
     ethr =  2.98E-10,  avg # of iterations =  3.0

     negative rho (up, down):  2.299E-03 1.197E-03

     total cpu time spent up to now is      659.9 secs

     total energy              =   -6056.51422439 Ry
     estimated scf accuracy    <       0.00000227 Ry

     total magnetization       =    61.24 Bohr mag/cell
     absolute magnetization    =    68.74 Bohr mag/cell

     iteration # 44     ecut=    50.00 Ry     beta= 0.70
     Davidson diagonalization with overlap
     ethr =  2.98E-10,  avg # of iterations =  1.8

     negative rho (up, down):  2.279E-03 1.176E-03

     total cpu time spent up to now is      675.0 secs

     total energy              =   -6056.51422437 Ry
     estimated scf accuracy    <       0.00000209 Ry

     total magnetization       =    61.24 Bohr mag/cell
     absolute magnetization    =    68.74 Bohr mag/cell

     iteration # 45     ecut=    50.00 Ry     beta= 0.70
     Davidson diagonalization with overlap
     ethr =  2.98E-10,  avg # of iterations =  1.2

     negative rho (up, down):  2.245E-03 1.143E-03

     total cpu time spent up to now is      688.6 secs

     total energy              =   -6056.51422440 Ry
     estimated scf accuracy    <       0.00000058 Ry

     total magnetization       =    61.24 Bohr mag/cell
     absolute magnetization    =    68.74 Bohr mag/cell

     iteration # 46     ecut=    50.00 Ry     beta= 0.70
     Davidson diagonalization with overlap
     ethr =  1.73E-10,  avg # of iterations =  1.8

     negative rho (up, down):  2.254E-03 1.153E-03

     total cpu time spent up to now is      703.5 secs

     total energy              =   -6056.51422444 Ry
     estimated scf accuracy    <       0.00000019 Ry

     total magnetization       =    61.24 Bohr mag/cell
     absolute magnetization    =    68.74 Bohr mag/cell

     iteration # 47     ecut=    50.00 Ry     beta= 0.70
     Davidson diagonalization with overlap
     ethr =  5.77E-11,  avg # of iterations =  5.0

     negative rho (up, down):  2.256E-03 1.156E-03

     total cpu time spent up to now is      721.6 secs

     total energy              =   -6056.51422444 Ry
     estimated scf accuracy    <       0.00000074 Ry

     total magnetization       =    61.24 Bohr mag/cell
     absolute magnetization    =    68.74 Bohr mag/cell

     iteration # 48     ecut=    50.00 Ry     beta= 0.70
     Davidson diagonalization with overlap
     ethr =  5.77E-11,  avg # of iterations =  1.6

     negative rho (up, down):  2.231E-03 1.131E-03

     total cpu time spent up to now is      736.3 secs

     total energy              =   -6056.51422442 Ry
     estimated scf accuracy    <       0.00000014 Ry

     total magnetization       =    61.24 Bohr mag/cell
     absolute magnetization    =    68.74 Bohr mag/cell

     iteration # 49     ecut=    50.00 Ry     beta= 0.70
     Davidson diagonalization with overlap
     ethr =  4.15E-11,  avg # of iterations =  1.4

     negative rho (up, down):  2.236E-03 1.137E-03

     total cpu time spent up to now is      750.1 secs

     total energy              =   -6056.51422444 Ry
     estimated scf accuracy    <       0.00000003 Ry

     total magnetization       =    61.24 Bohr mag/cell
     absolute magnetization    =    68.74 Bohr mag/cell

     iteration # 50     ecut=    50.00 Ry     beta= 0.70
     Davidson diagonalization with overlap
     ethr =  8.64E-12,  avg # of iterations =  8.0

     negative rho (up, down):  2.237E-03 1.137E-03

     total cpu time spent up to now is      771.3 secs

     total energy              =   -6056.51422444 Ry
     estimated scf accuracy    <       0.00000009 Ry

     total magnetization       =    61.24 Bohr mag/cell
     absolute magnetization    =    68.74 Bohr mag/cell

     iteration # 51     ecut=    50.00 Ry     beta= 0.70
     Davidson diagonalization with overlap
     ethr =  8.64E-12,  avg # of iterations =  1.6

     negative rho (up, down):  2.241E-03 1.141E-03

     total cpu time spent up to now is      787.1 secs

     total energy              =   -6056.51422445 Ry
     estimated scf accuracy    <       0.00000002 Ry

     total magnetization       =    61.24 Bohr mag/cell
     absolute magnetization    =    68.74 Bohr mag/cell

     iteration # 52     ecut=    50.00 Ry     beta= 0.70
     Davidson diagonalization with overlap
     ethr =  7.46E-12,  avg # of iterations =  1.3

     negative rho (up, down):  2.234E-03 1.135E-03

     total cpu time spent up to now is      801.0 secs

     total energy              =   -6056.51422444 Ry
     estimated scf accuracy    <       0.00000003 Ry

     total magnetization       =    61.24 Bohr mag/cell
     absolute magnetization    =    68.74 Bohr mag/cell

     iteration # 53     ecut=    50.00 Ry     beta= 0.70
     Davidson diagonalization with overlap
     ethr =  7.46E-12,  avg # of iterations =  1.0

     negative rho (up, down):  2.232E-03 1.134E-03

     total cpu time spent up to now is      814.8 secs

     total energy              =   -6056.51422444 Ry
     estimated scf accuracy    <       0.00000004 Ry

     total magnetization       =    61.24 Bohr mag/cell
     absolute magnetization    =    68.74 Bohr mag/cell

     iteration # 54     ecut=    50.00 Ry     beta= 0.70
     Davidson diagonalization with overlap
     ethr =  7.46E-12,  avg # of iterations =  1.0

     negative rho (up, down):  2.235E-03 1.136E-03

     Magnetic moment per site  (integrated on atomic sphere of radius R)
     atom   1 (R=0.105)  charge=  6.3083  magn=  1.7753
     atom   2 (R=0.105)  charge=  6.3096  magn=  1.7690
     atom   3 (R=0.105)  charge=  6.3089  magn=  1.7742
     atom   4 (R=0.105)  charge=  6.3087  magn=  1.7751
     atom   5 (R=0.105)  charge=  6.3089  magn=  1.7742
     atom   6 (R=0.105)  charge=  6.3085  magn=  1.7808
     atom   7 (R=0.105)  charge=  6.3084  magn=  1.7825
     atom   8 (R=0.105)  charge=  6.3083  magn=  1.7753
     atom   9 (R=0.105)  charge=  6.3087  magn=  1.7751
     atom  10 (R=0.105)  charge=  6.3164  magn=  1.6982
     atom  11 (R=0.105)  charge=  6.3169  magn=  1.7010
     atom  12 (R=0.105)  charge=  6.3165  magn=  1.7006
     atom  13 (R=0.105)  charge=  6.3169  magn=  1.7010
     atom  14 (R=0.105)  charge=  6.3171  magn=  1.6955
     atom  15 (R=0.105)  charge=  6.3168  magn=  1.7058
     atom  16 (R=0.105)  charge=  6.3165  magn=  1.7006
     atom  17 (R=0.105)  charge=  6.3168  magn=  1.7058
     atom  18 (R=0.105)  charge=  6.3161  magn=  1.7022
     atom  19 (R=0.105)  charge=  6.3139  magn=  1.7093
     atom  20 (R=0.105)  charge=  6.3126  magn=  1.7376
     atom  21 (R=0.105)  charge=  6.3149  magn=  1.7033
     atom  22 (R=0.105)  charge=  6.3164  magn=  1.7043
     atom  23 (R=0.105)  charge=  6.3149  magn=  1.7033
     atom  24 (R=0.105)  charge=  6.3151  magn=  1.7087
     atom  25 (R=0.105)  charge=  6.3161  magn=  1.7076
     atom  26 (R=0.105)  charge=  6.3139  magn=  1.7093
     atom  27 (R=0.105)  charge=  6.3164  magn=  1.7043
     atom  28 (R=0.105)  charge=  6.3127  magn=  1.7937
     atom  29 (R=0.105)  charge=  6.3284  magn=  1.6090
     atom  30 (R=0.105)  charge=  6.3101  magn=  1.7838
     atom  31 (R=0.105)  charge=  6.3284  magn=  1.6091
     atom  32 (R=0.105)  charge=  6.3430  magn=  1.2942
     atom  33 (R=0.105)  charge=  6.3111  magn=  1.7600
     atom  34 (R=0.105)  charge=  6.3101  magn=  1.7838
     atom  35 (R=0.105)  charge=  6.3112  magn=  1.7600
     atom  36 (R=0.105)  charge=  6.3059  magn=  1.7973
     atom  37 (R=0.062)  charge=  0.9036  magn= -0.0203
     atom  38 (R=0.069)  charge=  3.1969  magn=  0.0362
     atom  39 (R=0.062)  charge=  0.5068  magn=  0.0104

     total cpu time spent up to now is      827.3 secs

     End of self-consistent calculation

 ------ SPIN UP ------------


          k = 0.0000 0.0000 0.0000 ( 51087 PWs)   bands (ev):

   -21.5766 -10.6546  -7.5209  -7.0139  -6.3000  -5.7135  -5.4732  -4.6164
    -4.5949  -4.5939  -4.5931  -4.5825  -4.5568  -4.5343  -4.2263  -4.0677
    -4.0620  -4.0595  -4.0449  -4.0086  -4.0071  -3.5650  -3.5443  -3.5416
    -3.5351  -3.5190  -3.4927  -3.4237  -3.4199  -3.4146  -3.4121  -3.4027
    -3.3901  -3.3414  -3.3375  -3.0565  -3.0274  -3.0243  -3.0230  -3.0181
    -2.9898  -2.9624  -2.9558  -2.9535  -2.9490  -2.9429  -2.9423  -2.7954
    -2.7942  -2.7823  -2.7546  -2.7242  -2.7201  -2.7192  -2.7038  -2.6923
    -2.6832  -2.6816  -2.6798  -2.5912  -2.5877  -2.5843  -2.5806  -2.5741
    -2.5212  -2.3155  -2.0669  -2.0483  -2.0458  -2.0430  -2.0356  -1.9776
    -1.9399  -1.9081  -1.9024  -1.8919  -1.8807  -1.8765  -1.8677  -1.8667
    -1.8604  -1.8109  -1.8091  -1.7610  -1.7592  -1.7574  -1.7423  -1.7319
    -1.7254  -1.7191  -1.7188  -1.7174  -1.6996  -1.6911  -1.6870  -1.6813
    -1.6795  -1.6746  -1.6734  -1.6700  -1.6695  -1.6643  -1.6624  -1.6601
    -1.6571  -1.6122  -1.6122  -1.5950  -1.5886  -1.5146  -1.5113  -1.4788
    -1.2928  -1.2660  -1.2181  -1.2136  -1.2108  -1.2049  -1.2024  -1.2018
    -1.1803  -1.1778  -1.1478  -1.1363  -1.1290  -1.0237  -1.0049  -1.0014
    -0.9736  -0.9623  -0.8663  -0.8291  -0.8049  -0.8011  -0.7912  -0.7784
    -0.7280  -0.7225  -0.7224  -0.7172  -0.7169  -0.6973  -0.6074  -0.6036
    -0.4873  -0.4862  -0.4750  -0.4742  -0.4475  -0.4445  -0.4179  -0.4144
    -0.4083  -0.4069  -0.3991  -0.3990  -0.3962  -0.3948  -0.3889  -0.3840
    -0.3798  -0.3796  -0.3611  -0.3608  -0.3389  -0.3316  -0.3304  -0.3202
    -0.3170  -0.3084  -0.2887  -0.2843  -0.2804  -0.2561  -0.2537  -0.2519
    -0.2459  -0.2387  -0.2316  -0.2199  -0.2068  -0.1843  -0.1807  -0.1755
    -0.1696  -0.1683  -0.1658  -0.1608  -0.1557  -0.1480  -0.0980  -0.0966
    -0.0803  -0.0794  -0.0184  -0.0165  -0.0115  -0.0076  -0.0047   0.0049
     0.3941   1.1317

          k = 0.0000 0.2309 0.0000 ( 51134 PWs)   bands (ev):

   -21.5766 -10.6540  -7.3887  -6.9886  -6.2301  -5.6973  -5.4770  -5.2802
    -4.8405  -4.8308  -4.4643  -4.3288  -4.2537  -4.2510  -4.1862  -4.1332
    -4.0954  -4.0605  -3.9857  -3.9333  -3.9213  -3.6729  -3.5556  -3.5483
    -3.4826  -3.4552  -3.4271  -3.4231  -3.4206  -3.4081  -3.3979  -3.3813
    -3.3525  -3.3110  -3.3015  -3.2697  -3.2667  -3.1054  -3.0534  -3.0417
    -3.0165  -2.9866  -2.9822  -2.9742  -2.9193  -2.8852  -2.8536  -2.8316
    -2.8182  -2.8117  -2.7952  -2.7769  -2.6833  -2.6814  -2.6585  -2.6308
    -2.6112  -2.5967  -2.5759  -2.5643  -2.5541  -2.5252  -2.5085  -2.4994
    -2.4453  -2.3288  -2.1837  -2.1542  -2.1414  -2.1186  -2.0800  -2.0322
    -2.0106  -2.0029  -1.9991  -1.9902  -1.9729  -1.9641  -1.9418  -1.9081
    -1.8757  -1.8677  -1.8511  -1.8129  -1.8051  -1.8010  -1.7903  -1.7774
    -1.7716  -1.7616  -1.7584  -1.7562  -1.7457  -1.7350  -1.6986  -1.6803
    -1.6622  -1.6452  -1.6047  -1.5814  -1.5732  -1.5688  -1.5581  -1.5496
    -1.5387  -1.5315  -1.5254  -1.5160  -1.5132  -1.4904  -1.4733  -1.4639
    -1.4526  -1.4454  -1.4023  -1.3683  -1.3567  -1.2900  -1.2444  -1.2410
    -1.2326  -1.2225  -1.2132  -1.2102  -1.2078  -1.1964  -1.1117  -1.0689
    -1.0403  -1.0267  -0.9574  -0.9506  -0.9292  -0.8848  -0.8597  -0.8557
    -0.8087  -0.7786  -0.7534  -0.7313  -0.7143  -0.7115  -0.6738  -0.6671
    -0.6507  -0.6374  -0.6188  -0.5881  -0.5818  -0.5648  -0.5589  -0.5519
    -0.5020  -0.4832  -0.4754  -0.4691  -0.4547  -0.4275  -0.4123  -0.4084
    -0.4038  -0.3961  -0.3889  -0.3782  -0.3549  -0.3503  -0.3336  -0.3211
    -0.2906  -0.2756  -0.2649  -0.2484  -0.2273  -0.2207  -0.1835  -0.1695
    -0.1559  -0.1516  -0.1441  -0.1348  -0.1267  -0.1102  -0.0997  -0.0962
    -0.0604  -0.0202  -0.0175  -0.0069   0.0173   0.0184   0.0531   0.0591
     0.0712   0.1140   0.3407   0.3635   0.4503   0.5405   0.6069   0.6314
     0.7216   0.8419

          k = 0.0000 0.4619 0.0000 ( 51204 PWs)   bands (ev):

   -21.5766 -10.6530  -7.1318  -6.8090  -6.2425  -6.0317  -5.5675  -5.3102
    -4.9811  -4.9664  -4.8459  -4.1415  -4.0962  -4.0864  -4.0485  -4.0109
    -3.8971  -3.8942  -3.8524  -3.7714  -3.7622  -3.7521  -3.6486  -3.5845
    -3.5773  -3.5700  -3.5657  -3.5144  -3.4885  -3.4575  -3.4522  -3.3012
    -3.2957  -3.2881  -3.2768  -3.2515  -3.2453  -3.1703  -3.1419  -3.1327
    -3.1209  -3.1190  -3.0097  -2.9623  -2.9082  -2.8481  -2.8131  -2.7960
    -2.7768  -2.7455  -2.7328  -2.7286  -2.7256  -2.6950  -2.6522  -2.6335
    -2.6096  -2.5783  -2.5628  -2.4826  -2.4265  -2.4189  -2.4004  -2.3637
    -2.3130  -2.2959  -2.2876  -2.2723  -2.2392  -2.1856  -2.1634  -2.1357
    -2.1335  -2.1293  -2.1147  -2.1006  -2.0899  -2.0812  -2.0392  -2.0299
    -2.0028  -1.9855  -1.9590  -1.9480  -1.9153  -1.8966  -1.8510  -1.8231
    -1.8061  -1.7999  -1.7760  -1.7582  -1.7279  -1.7068  -1.6971  -1.6886
    -1.6806  -1.6667  -1.6528  -1.6316  -1.6285  -1.6098  -1.5982  -1.5796
    -1.5659  -1.5542  -1.5071  -1.4836  -1.4557  -1.4231  -1.4061  -1.3976
    -1.3839  -1.3657  -1.3305  -1.2906  -1.2870  -1.2698  -1.2606  -1.2547
    -1.2464  -1.2385  -1.2287  -1.2248  -1.2188  -1.2137  -1.2015  -1.1885
    -1.1765  -1.1536  -1.0830  -1.0540  -1.0338  -1.0220  -1.0004  -0.9863
    -0.9688  -0.9078  -0.9028  -0.8789  -0.8679  -0.8216  -0.8066  -0.7557
    -0.7473  -0.7172  -0.6959  -0.6721  -0.6671  -0.6519  -0.6218  -0.5704
    -0.5274  -0.4980  -0.4805  -0.4751  -0.4737  -0.4656  -0.4605  -0.4499
    -0.4272  -0.4111  -0.3718  -0.3284  -0.3142  -0.3104  -0.3017  -0.2997
    -0.2871  -0.2671  -0.2565  -0.2501  -0.2416  -0.2238  -0.1464  -0.1286
    -0.1227  -0.1188  -0.0925  -0.0499  -0.0259  -0.0232   0.0121   0.0210
     0.0433   0.0897   0.0913   0.1133   0.1156   0.1201   0.1291   0.1450
     0.2226   0.2358   0.3142   0.9370   1.1266   1.2597   1.3500   1.3848
     1.5443   1.7182

          k = 0.2000-0.1155 0.0000 ( 51134 PWs)   bands (ev):

   -21.5766 -10.6540  -7.3887  -6.9886  -6.2301  -5.6973  -5.4770  -5.2802
    -4.8405  -4.8308  -4.4643  -4.3288  -4.2537  -4.2510  -4.1862  -4.1332
    -4.0954  -4.0605  -3.9857  -3.9333  -3.9213  -3.6729  -3.5556  -3.5483
    -3.4826  -3.4552  -3.4271  -3.4231  -3.4206  -3.4081  -3.3979  -3.3813
    -3.3525  -3.3110  -3.3015  -3.2697  -3.2667  -3.1054  -3.0534  -3.0417
    -3.0165  -2.9866  -2.9822  -2.9742  -2.9193  -2.8852  -2.8536  -2.8316
    -2.8182  -2.8117  -2.7952  -2.7769  -2.6833  -2.6814  -2.6585  -2.6308
    -2.6112  -2.5967  -2.5759  -2.5643  -2.5541  -2.5252  -2.5085  -2.4994
    -2.4453  -2.3288  -2.1837  -2.1542  -2.1414  -2.1186  -2.0800  -2.0322
    -2.0106  -2.0029  -1.9991  -1.9902  -1.9729  -1.9641  -1.9418  -1.9081
    -1.8757  -1.8677  -1.8511  -1.8129  -1.8051  -1.8010  -1.7903  -1.7774
    -1.7716  -1.7616  -1.7584  -1.7562  -1.7457  -1.7350  -1.6986  -1.6803
    -1.6622  -1.6452  -1.6047  -1.5814  -1.5732  -1.5688  -1.5581  -1.5496
    -1.5387  -1.5315  -1.5254  -1.5160  -1.5132  -1.4904  -1.4733  -1.4639
    -1.4526  -1.4454  -1.4023  -1.3683  -1.3567  -1.2900  -1.2444  -1.2410
    -1.2326  -1.2225  -1.2132  -1.2102  -1.2078  -1.1964  -1.1117  -1.0689
    -1.0403  -1.0267  -0.9574  -0.9506  -0.9292  -0.8848  -0.8597  -0.8557
    -0.8087  -0.7785  -0.7534  -0.7313  -0.7143  -0.7115  -0.6738  -0.6671
    -0.6507  -0.6374  -0.6188  -0.5881  -0.5818  -0.5648  -0.5589  -0.5519
    -0.5020  -0.4832  -0.4754  -0.4691  -0.4547  -0.4275  -0.4123  -0.4084
    -0.4038  -0.3961  -0.3889  -0.3782  -0.3549  -0.3503  -0.3336  -0.3211
    -0.2906  -0.2756  -0.2649  -0.2484  -0.2273  -0.2207  -0.1835  -0.1695
    -0.1559  -0.1516  -0.1441  -0.1348  -0.1267  -0.1102  -0.0997  -0.0962
    -0.0604  -0.0202  -0.0175  -0.0069   0.0173   0.0184   0.0531   0.0591
     0.0712   0.1140   0.3407   0.3635   0.4503   0.5405   0.6069   0.6314
     0.7216   0.8419

          k = 0.2000 0.1155 0.0000 ( 51134 PWs)   bands (ev):

   -21.5766 -10.6544  -7.3892  -6.9886  -6.2218  -5.6695  -5.4787  -5.3265
    -4.8353  -4.8181  -4.4700  -4.3507  -4.2566  -4.2471  -4.1875  -4.1396
    -4.0766  -4.0520  -3.9927  -3.9289  -3.9200  -3.6688  -3.5638  -3.5509
    -3.4711  -3.4482  -3.4260  -3.4241  -3.4195  -3.4168  -3.3916  -3.3857
    -3.3488  -3.3082  -3.3064  -3.2688  -3.2658  -3.0925  -3.0493  -3.0453
    -3.0252  -2.9993  -2.9830  -2.9795  -2.9135  -2.8838  -2.8700  -2.8314
    -2.8168  -2.8141  -2.7943  -2.7868  -2.6903  -2.6827  -2.6740  -2.6364
    -2.6156  -2.5850  -2.5779  -2.5574  -2.5406  -2.5123  -2.5049  -2.5047
    -2.4538  -2.3212  -2.1953  -2.1606  -2.1456  -2.1126  -2.0701  -2.0211
    -2.0151  -2.0081  -1.9955  -1.9882  -1.9803  -1.9576  -1.9291  -1.9081
    -1.8841  -1.8615  -1.8400  -1.8184  -1.8030  -1.8009  -1.7914  -1.7709
    -1.7703  -1.7656  -1.7623  -1.7541  -1.7410  -1.7229  -1.7052  -1.6920
    -1.6572  -1.6312  -1.5949  -1.5739  -1.5728  -1.5659  -1.5581  -1.5466
    -1.5382  -1.5355  -1.5300  -1.5145  -1.5134  -1.4970  -1.4762  -1.4657
    -1.4520  -1.4450  -1.4137  -1.3783  -1.3565  -1.2857  -1.2397  -1.2390
    -1.2375  -1.2271  -1.2199  -1.2125  -1.2073  -1.2068  -1.0841  -1.0577
    -1.0321  -1.0249  -0.9534  -0.9533  -0.9261  -0.8891  -0.8599  -0.8590
    -0.7976  -0.7706  -0.7567  -0.7373  -0.7232  -0.7125  -0.6763  -0.6730
    -0.6464  -0.6371  -0.6205  -0.5853  -0.5746  -0.5658  -0.5613  -0.5507
    -0.5070  -0.4841  -0.4767  -0.4677  -0.4583  -0.4192  -0.4166  -0.4068
    -0.4038  -0.3917  -0.3887  -0.3695  -0.3558  -0.3551  -0.3330  -0.3241
    -0.2837  -0.2742  -0.2484  -0.2480  -0.2363  -0.2221  -0.1804  -0.1770
    -0.1568  -0.1561  -0.1495  -0.1342  -0.1173  -0.1107  -0.0984  -0.0982
    -0.0599  -0.0223  -0.0173  -0.0075   0.0181   0.0191   0.0521   0.0682
     0.0777   0.1096   0.3235   0.3577   0.4066   0.5329   0.5911   0.6312
     0.7185   0.8180

          k = 0.2000 0.3464 0.0000 ( 51202 PWs)   bands (ev):

   -21.5766 -10.6538  -7.1874  -6.8908  -6.1343  -5.7317  -5.6696  -5.4695
    -5.3968  -4.5611  -4.5029  -4.2606  -4.2499  -4.2009  -4.0438  -4.0367
    -3.9456  -3.9443  -3.9262  -3.8073  -3.7850  -3.6725  -3.6623  -3.5984
    -3.5515  -3.4631  -3.4594  -3.4358  -3.4208  -3.4042  -3.3935  -3.3728
    -3.3559  -3.3383  -3.3261  -3.2900  -3.2451  -3.2193  -3.2031  -3.1083
    -3.0799  -3.0054  -2.9812  -2.9496  -2.9383  -2.9271  -2.8535  -2.8256
    -2.7788  -2.7540  -2.7465  -2.7424  -2.6993  -2.6831  -2.6646  -2.6591
    -2.6444  -2.5653  -2.5196  -2.4675  -2.4613  -2.4418  -2.4314  -2.4040
    -2.3901  -2.2866  -2.2551  -2.2102  -2.1955  -2.1560  -2.1357  -2.1204
    -2.1064  -2.0959  -2.0859  -2.0741  -2.0527  -2.0362  -2.0333  -2.0233
    -2.0063  -1.9658  -1.9240  -1.9056  -1.8411  -1.8341  -1.8306  -1.8013
    -1.7910  -1.7651  -1.7541  -1.7284  -1.7152  -1.6971  -1.6837  -1.6783
    -1.6656  -1.6574  -1.6443  -1.6350  -1.6261  -1.6156  -1.6000  -1.5816
    -1.5744  -1.5591  -1.5189  -1.5054  -1.4876  -1.4610  -1.4433  -1.4407
    -1.4207  -1.4119  -1.3911  -1.3630  -1.3388  -1.3367  -1.3110  -1.2752
    -1.2675  -1.2620  -1.2592  -1.2386  -1.2243  -1.2121  -1.1980  -1.1598
    -1.1171  -1.0937  -1.0859  -1.0438  -0.9719  -0.9638  -0.9442  -0.8665
    -0.8376  -0.8299  -0.8226  -0.8132  -0.8018  -0.7940  -0.7764  -0.7690
    -0.7413  -0.7244  -0.6986  -0.6681  -0.6574  -0.6463  -0.6321  -0.6190
    -0.5927  -0.5818  -0.5515  -0.5392  -0.5323  -0.4903  -0.4383  -0.3847
    -0.3737  -0.3472  -0.3382  -0.3222  -0.3093  -0.3015  -0.2960  -0.2920
    -0.2820  -0.2773  -0.2100  -0.1954  -0.1843  -0.1732  -0.1339  -0.1220
    -0.1042  -0.0995  -0.0978  -0.0808  -0.0719  -0.0618  -0.0555  -0.0408
    -0.0319  -0.0207   0.0571   0.0627   0.0679   0.1161   0.1179   0.1249
     0.4391   0.4581   0.5357   0.5832   0.7555   0.7931   1.0467   1.2779
     1.3623   1.5081

          k = 0.2000-0.5774 0.0000 ( 51262 PWs)   bands (ev):

   -21.5766 -10.6530  -7.0906  -6.4696  -6.4423  -6.0301  -5.7604  -5.5176
    -5.1031  -4.9962  -4.5876  -4.2429  -4.0051  -3.9615  -3.8626  -3.8280
    -3.8253  -3.8020  -3.7953  -3.7637  -3.7249  -3.7137  -3.7093  -3.7043
    -3.6287  -3.5993  -3.5633  -3.5559  -3.5350  -3.5301  -3.4259  -3.4012
    -3.3773  -3.3679  -3.3495  -3.3142  -3.2400  -3.2131  -3.1198  -3.0891
    -3.0823  -3.0289  -3.0014  -2.9815  -2.9544  -2.8843  -2.8705  -2.8617
    -2.7971  -2.7896  -2.7345  -2.6939  -2.6671  -2.6450  -2.6099  -2.5872
    -2.5411  -2.5030  -2.4922  -2.4841  -2.4757  -2.4537  -2.4349  -2.3685
    -2.3185  -2.2917  -2.2785  -2.2666  -2.2524  -2.2050  -2.1805  -2.1598
    -2.1315  -2.1100  -2.0972  -2.0869  -2.0746  -2.0542  -2.0270  -2.0188
    -2.0066  -1.9954  -1.9839  -1.9543  -1.9511  -1.9404  -1.8800  -1.8736
    -1.8505  -1.8177  -1.7898  -1.7761  -1.7360  -1.7249  -1.7122  -1.6861
    -1.6789  -1.6629  -1.6598  -1.6513  -1.6396  -1.6242  -1.6042  -1.5825
    -1.5334  -1.5204  -1.5066  -1.5029  -1.4867  -1.4793  -1.4759  -1.4652
    -1.4576  -1.4475  -1.4332  -1.4068  -1.3815  -1.3535  -1.3449  -1.3162
    -1.2640  -1.2488  -1.2256  -1.2094  -1.2007  -1.1840  -1.1743  -1.1305
    -1.1067  -1.0982  -1.0880  -1.0303  -0.9975  -0.9644  -0.9519  -0.9285
    -0.9197  -0.9078  -0.8936  -0.8732  -0.8460  -0.8373  -0.8122  -0.7802
    -0.7627  -0.7485  -0.7324  -0.7117  -0.6977  -0.6660  -0.6454  -0.6351
    -0.6174  -0.6050  -0.6003  -0.5836  -0.5449  -0.5144  -0.5031  -0.4132
    -0.3384  -0.3320  -0.3268  -0.3186  -0.3115  -0.3037  -0.2972  -0.2830
    -0.2486  -0.2414  -0.2320  -0.2222  -0.2035  -0.1738  -0.1073  -0.1026
    -0.0914  -0.0777  -0.0598  -0.0530  -0.0121  -0.0001   0.0038   0.0149
     0.0223   0.0929   0.0979   0.1086   0.1190   0.1221   0.1460   0.1719
     0.2438   0.4721   0.5362   0.7987   1.2928   1.3938   1.5241   1.6868
     1.8732   1.9460

          k = 0.2000-0.3464 0.0000 ( 51202 PWs)   bands (ev):

   -21.5766 -10.6531  -7.1820  -6.8992  -6.1435  -5.7618  -5.6720  -5.4745
    -5.3408  -4.5819  -4.4800  -4.2604  -4.2513  -4.1963  -4.0429  -4.0372
    -3.9510  -3.9349  -3.9181  -3.8080  -3.7946  -3.6730  -3.6625  -3.6008
    -3.5534  -3.4812  -3.4606  -3.4416  -3.4085  -3.4050  -3.3957  -3.3847
    -3.3578  -3.3403  -3.3329  -3.2888  -3.2455  -3.2084  -3.2006  -3.1045
    -3.0909  -2.9824  -2.9715  -2.9625  -2.9420  -2.9239  -2.8280  -2.7797
    -2.7718  -2.7669  -2.7490  -2.7392  -2.6935  -2.6875  -2.6682  -2.6580
    -2.6416  -2.5324  -2.5158  -2.5086  -2.4651  -2.4428  -2.4196  -2.4072
    -2.3835  -2.3139  -2.2730  -2.2106  -2.1832  -2.1593  -2.1499  -2.1227
    -2.1099  -2.0972  -2.0847  -2.0715  -2.0520  -2.0414  -2.0311  -2.0241
    -2.0099  -1.9665  -1.9223  -1.9013  -1.8487  -1.8352  -1.8119  -1.8070
    -1.7952  -1.7646  -1.7528  -1.7291  -1.7253  -1.6986  -1.6813  -1.6785
    -1.6624  -1.6598  -1.6533  -1.6350  -1.6252  -1.6195  -1.5929  -1.5885
    -1.5710  -1.5672  -1.5414  -1.4991  -1.4886  -1.4675  -1.4435  -1.4426
    -1.4210  -1.4119  -1.4065  -1.3550  -1.3408  -1.3344  -1.3123  -1.2946
    -1.2622  -1.2599  -1.2580  -1.2388  -1.2271  -1.2109  -1.1963  -1.1531
    -1.1236  -1.0936  -1.0902  -1.0403  -0.9853  -0.9646  -0.9449  -0.8472
    -0.8354  -0.8270  -0.8190  -0.8134  -0.8027  -0.7974  -0.7759  -0.7548
    -0.7384  -0.7166  -0.7034  -0.6701  -0.6686  -0.6414  -0.6347  -0.6216
    -0.5931  -0.5650  -0.5590  -0.5386  -0.5348  -0.4963  -0.4236  -0.3852
    -0.3683  -0.3455  -0.3402  -0.3300  -0.3205  -0.3043  -0.2962  -0.2933
    -0.2802  -0.2772  -0.2021  -0.1944  -0.1774  -0.1715  -0.1349  -0.1143
    -0.1077  -0.1023  -0.1005  -0.0760  -0.0703  -0.0643  -0.0540  -0.0402
    -0.0285  -0.0141   0.0555   0.0621   0.0691   0.1153   0.1177   0.1313
     0.4136   0.4595   0.5222   0.6045   0.7011   0.8013   1.1703   1.3193
     1.3302   1.5520

          k = 0.4000-0.2309 0.0000 ( 51204 PWs)   bands (ev):

   -21.5766 -10.6530  -7.1318  -6.8090  -6.2425  -6.0317  -5.5675  -5.3102
    -4.9811  -4.9664  -4.8459  -4.1415  -4.0962  -4.0864  -4.0485  -4.0108
    -3.8971  -3.8942  -3.8524  -3.7714  -3.7622  -3.7521  -3.6486  -3.5845
    -3.5773  -3.5700  -3.5657  -3.5144  -3.4885  -3.4575  -3.4522  -3.3012
    -3.2957  -3.2881  -3.2768  -3.2515  -3.2453  -3.1704  -3.1419  -3.1327
    -3.1209  -3.1190  -3.0097  -2.9622  -2.9082  -2.8481  -2.8131  -2.7960
    -2.7768  -2.7455  -2.7328  -2.7286  -2.7256  -2.6950  -2.6522  -2.6335
    -2.6096  -2.5783  -2.5628  -2.4826  -2.4265  -2.4189  -2.4004  -2.3637
    -2.3130  -2.2959  -2.2876  -2.2723  -2.2392  -2.1856  -2.1635  -2.1357
    -2.1335  -2.1293  -2.1147  -2.1006  -2.0899  -2.0812  -2.0392  -2.0299
    -2.0028  -1.9855  -1.9590  -1.9480  -1.9153  -1.8966  -1.8510  -1.8231
    -1.8061  -1.7999  -1.7760  -1.7582  -1.7279  -1.7068  -1.6971  -1.6886
    -1.6806  -1.6667  -1.6528  -1.6316  -1.6285  -1.6098  -1.5983  -1.5796
    -1.5659  -1.5542  -1.5071  -1.4836  -1.4557  -1.4231  -1.4061  -1.3976
    -1.3839  -1.3657  -1.3305  -1.2906  -1.2870  -1.2698  -1.2606  -1.2547
    -1.2465  -1.2385  -1.2287  -1.2248  -1.2188  -1.2137  -1.2015  -1.1885
    -1.1765  -1.1536  -1.0830  -1.0540  -1.0338  -1.0220  -1.0004  -0.9863
    -0.9688  -0.9078  -0.9028  -0.8789  -0.8679  -0.8216  -0.8066  -0.7557
    -0.7473  -0.7172  -0.6959  -0.6721  -0.6671  -0.6519  -0.6218  -0.5704
    -0.5274  -0.4980  -0.4805  -0.4751  -0.4737  -0.4656  -0.4605  -0.4499
    -0.4272  -0.4111  -0.3718  -0.3284  -0.3142  -0.3104  -0.3017  -0.2997
    -0.2871  -0.2671  -0.2565  -0.2501  -0.2416  -0.2238  -0.1464  -0.1286
    -0.1227  -0.1188  -0.0925  -0.0499  -0.0259  -0.0232   0.0121   0.0210
     0.0433   0.0897   0.0913   0.1133   0.1156   0.1201   0.1291   0.1450
     0.2226   0.2358   0.3142   0.9370   1.1266   1.2597   1.3500   1.3848
     1.5443   1.7182

          k = 0.4000 0.0000 0.0000 ( 51202 PWs)   bands (ev):

   -21.5766 -10.6538  -7.1874  -6.8908  -6.1343  -5.7317  -5.6696  -5.4695
    -5.3968  -4.5611  -4.5029  -4.2606  -4.2499  -4.2009  -4.0438  -4.0367
    -3.9456  -3.9443  -3.9262  -3.8073  -3.7850  -3.6725  -3.6623  -3.5984
    -3.5515  -3.4631  -3.4594  -3.4358  -3.4208  -3.4042  -3.3935  -3.3728
    -3.3559  -3.3383  -3.3261  -3.2900  -3.2451  -3.2193  -3.2031  -3.1083
    -3.0799  -3.0053  -2.9812  -2.9496  -2.9383  -2.9271  -2.8535  -2.8256
    -2.7788  -2.7540  -2.7465  -2.7424  -2.6993  -2.6831  -2.6646  -2.6591
    -2.6444  -2.5653  -2.5196  -2.4675  -2.4613  -2.4418  -2.4314  -2.4040
    -2.3901  -2.2866  -2.2551  -2.2102  -2.1955  -2.1560  -2.1357  -2.1204
    -2.1064  -2.0959  -2.0859  -2.0741  -2.0527  -2.0362  -2.0333  -2.0233
    -2.0063  -1.9658  -1.9240  -1.9056  -1.8411  -1.8341  -1.8306  -1.8013
    -1.7910  -1.7651  -1.7541  -1.7284  -1.7152  -1.6971  -1.6837  -1.6783
    -1.6656  -1.6574  -1.6443  -1.6350  -1.6261  -1.6156  -1.6000  -1.5816
    -1.5744  -1.5591  -1.5189  -1.5054  -1.4876  -1.4610  -1.4433  -1.4406
    -1.4207  -1.4119  -1.3911  -1.3630  -1.3388  -1.3367  -1.3110  -1.2752
    -1.2675  -1.2620  -1.2591  -1.2386  -1.2243  -1.2121  -1.1980  -1.1598
    -1.1171  -1.0937  -1.0859  -1.0438  -0.9719  -0.9638  -0.9442  -0.8665
    -0.8376  -0.8299  -0.8226  -0.8132  -0.8018  -0.7940  -0.7764  -0.7690
    -0.7413  -0.7244  -0.6986  -0.6681  -0.6574  -0.6463  -0.6321  -0.6190
    -0.5927  -0.5818  -0.5515  -0.5392  -0.5323  -0.4903  -0.4383  -0.3847
    -0.3737  -0.3472  -0.3382  -0.3222  -0.3093  -0.3015  -0.2960  -0.2920
    -0.2820  -0.2773  -0.2100  -0.1954  -0.1843  -0.1732  -0.1339  -0.1220
    -0.1042  -0.0995  -0.0978  -0.0808  -0.0719  -0.0618  -0.0555  -0.0408
    -0.0319  -0.0207   0.0571   0.0627   0.0679   0.1161   0.1179   0.1249
     0.4391   0.4581   0.5357   0.5832   0.7555   0.7931   1.0468   1.2779
     1.3623   1.5081

          k = 0.4000 0.2309 0.0000 ( 51204 PWs)   bands (ev):

   -21.5766 -10.6541  -7.1419  -6.7973  -6.2057  -6.0351  -5.4884  -5.4356
    -4.9793  -4.9416  -4.8851  -4.1562  -4.0848  -4.0705  -4.0378  -4.0171
    -3.8985  -3.8903  -3.8554  -3.7635  -3.7617  -3.7560  -3.6628  -3.5833
    -3.5797  -3.5669  -3.5626  -3.5175  -3.4732  -3.4549  -3.4457  -3.3128
    -3.2984  -3.2729  -3.2694  -3.2440  -3.2433  -3.1709  -3.1330  -3.1319
    -3.1227  -3.1199  -3.0246  -2.9787  -2.9347  -2.8552  -2.8326  -2.7927
    -2.7842  -2.7453  -2.7382  -2.7268  -2.7268  -2.7081  -2.6416  -2.6374
    -2.6107  -2.5954  -2.5676  -2.4713  -2.4235  -2.4180  -2.4110  -2.3554
    -2.3093  -2.2973  -2.2888  -2.2742  -2.2137  -2.2052  -2.1653  -2.1395
    -2.1296  -2.1258  -2.1130  -2.0985  -2.0855  -2.0831  -2.0525  -2.0115
    -2.0036  -1.9776  -1.9566  -1.9298  -1.9117  -1.8857  -1.8428  -1.8333
    -1.8091  -1.8037  -1.7794  -1.7613  -1.7214  -1.7002  -1.6965  -1.6907
    -1.6752  -1.6560  -1.6491  -1.6271  -1.6236  -1.6133  -1.5882  -1.5692
    -1.5633  -1.5565  -1.5080  -1.4622  -1.4443  -1.4282  -1.4125  -1.3956
    -1.3673  -1.3650  -1.3266  -1.2906  -1.2777  -1.2709  -1.2590  -1.2568
    -1.2464  -1.2422  -1.2322  -1.2267  -1.2256  -1.2204  -1.2005  -1.1852
    -1.1652  -1.1359  -1.0975  -1.0560  -1.0338  -1.0123  -1.0013  -0.9652
    -0.9564  -0.9304  -0.9053  -0.8768  -0.8750  -0.8179  -0.8143  -0.7742
    -0.7518  -0.7154  -0.6920  -0.6750  -0.6647  -0.6479  -0.6138  -0.5936
    -0.5255  -0.5121  -0.4857  -0.4758  -0.4724  -0.4591  -0.4569  -0.4476
    -0.4291  -0.4056  -0.3864  -0.3240  -0.3226  -0.3049  -0.3040  -0.2963
    -0.2880  -0.2551  -0.2534  -0.2472  -0.2432  -0.2247  -0.1454  -0.1265
    -0.1263  -0.1196  -0.0909  -0.0604  -0.0272  -0.0251   0.0105   0.0165
     0.0430   0.0899   0.0921   0.1146   0.1165   0.1191   0.1453   0.1594
     0.2173   0.2331   0.2725   0.9361   1.1013   1.2017   1.3379   1.3618
     1.5839   1.7262

          k = 0.4000-0.6928 0.0000 ( 51262 PWs)   bands (ev):

   -21.5766 -10.6536  -7.0978  -6.4561  -6.4173  -6.0588  -5.7663  -5.4394
    -5.1968  -5.0160  -4.5503  -4.2391  -4.0070  -3.9645  -3.8790  -3.8289
    -3.8232  -3.8070  -3.7915  -3.7702  -3.7180  -3.7147  -3.7099  -3.6979
    -3.6340  -3.5992  -3.5630  -3.5515  -3.5377  -3.5321  -3.4072  -3.3794
    -3.3751  -3.3652  -3.3395  -3.3077  -3.2703  -3.2074  -3.1314  -3.0846
    -3.0828  -3.0374  -3.0050  -2.9844  -2.9529  -2.8801  -2.8786  -2.8617
    -2.8105  -2.7954  -2.7496  -2.6962  -2.6713  -2.6530  -2.6114  -2.5849
    -2.5373  -2.5048  -2.4976  -2.4851  -2.4767  -2.4577  -2.4391  -2.3610
    -2.2976  -2.2883  -2.2800  -2.2700  -2.2408  -2.2098  -2.1919  -2.1609
    -2.1336  -2.1080  -2.0949  -2.0871  -2.0726  -2.0482  -2.0281  -2.0160
    -2.0125  -1.9930  -1.9886  -1.9547  -1.9528  -1.8991  -1.8816  -1.8700
    -1.8663  -1.8356  -1.7854  -1.7693  -1.7418  -1.7138  -1.6934  -1.6893
    -1.6705  -1.6671  -1.6578  -1.6492  -1.6362  -1.6098  -1.6039  -1.5655
    -1.5216  -1.5185  -1.5080  -1.4902  -1.4854  -1.4798  -1.4754  -1.4647
    -1.4538  -1.4475  -1.4312  -1.4087  -1.3869  -1.3582  -1.3427  -1.3304
    -1.2684  -1.2542  -1.2226  -1.2043  -1.2018  -1.1863  -1.1776  -1.1427
    -1.1115  -1.0985  -1.0923  -1.0206  -0.9849  -0.9670  -0.9483  -0.9373
    -0.9178  -0.8970  -0.8907  -0.8754  -0.8505  -0.8380  -0.7983  -0.7885
    -0.7642  -0.7417  -0.7243  -0.7204  -0.7031  -0.6575  -0.6421  -0.6330
    -0.6247  -0.6125  -0.5973  -0.5900  -0.5428  -0.5207  -0.5007  -0.4200
    -0.3454  -0.3315  -0.3230  -0.3191  -0.3134  -0.3021  -0.2945  -0.2892
    -0.2470  -0.2406  -0.2321  -0.2245  -0.2033  -0.1714  -0.1072  -0.1031
    -0.1009  -0.0761  -0.0559  -0.0492  -0.0132  -0.0016   0.0064   0.0128
     0.0192   0.0962   0.0970   0.1076   0.1190   0.1233   0.1418   0.1693
     0.1980   0.4944   0.5600   0.8389   1.2132   1.3949   1.4851   1.7519
     1.8056   1.8894

          k = 0.4000-0.4619 0.0000 ( 51262 PWs)   bands (ev):

   -21.5766 -10.6530  -7.0906  -6.4696  -6.4423  -6.0301  -5.7604  -5.5176
    -5.1031  -4.9962  -4.5876  -4.2429  -4.0051  -3.9615  -3.8626  -3.8280
    -3.8253  -3.8020  -3.7953  -3.7637  -3.7249  -3.7137  -3.7093  -3.7043
    -3.6287  -3.5993  -3.5633  -3.5559  -3.5350  -3.5301  -3.4260  -3.4012
    -3.3773  -3.3679  -3.3495  -3.3142  -3.2400  -3.2131  -3.1199  -3.0891
    -3.0823  -3.0289  -3.0014  -2.9815  -2.9544  -2.8843  -2.8705  -2.8617
    -2.7971  -2.7896  -2.7345  -2.6939  -2.6671  -2.6450  -2.6099  -2.5872
    -2.5411  -2.5030  -2.4922  -2.4841  -2.4757  -2.4537  -2.4349  -2.3685
    -2.3185  -2.2917  -2.2784  -2.2666  -2.2524  -2.2050  -2.1805  -2.1598
    -2.1315  -2.1100  -2.0972  -2.0869  -2.0746  -2.0542  -2.0270  -2.0188
    -2.0066  -1.9954  -1.9839  -1.9543  -1.9511  -1.9404  -1.8800  -1.8736
    -1.8505  -1.8177  -1.7898  -1.7761  -1.7360  -1.7249  -1.7122  -1.6861
    -1.6789  -1.6629  -1.6598  -1.6513  -1.6396  -1.6242  -1.6042  -1.5825
    -1.5334  -1.5204  -1.5066  -1.5029  -1.4867  -1.4793  -1.4759  -1.4652
    -1.4577  -1.4475  -1.4332  -1.4068  -1.3815  -1.3535  -1.3449  -1.3162
    -1.2640  -1.2488  -1.2256  -1.2094  -1.2007  -1.1840  -1.1743  -1.1305
    -1.1067  -1.0982  -1.0880  -1.0303  -0.9975  -0.9644  -0.9519  -0.9285
    -0.9197  -0.9078  -0.8936  -0.8732  -0.8460  -0.8373  -0.8122  -0.7802
    -0.7627  -0.7485  -0.7324  -0.7117  -0.6977  -0.6660  -0.6454  -0.6351
    -0.6174  -0.6050  -0.6003  -0.5836  -0.5449  -0.5144  -0.5031  -0.4132
    -0.3384  -0.3320  -0.3268  -0.3186  -0.3115  -0.3037  -0.2972  -0.2830
    -0.2486  -0.2414  -0.2320  -0.2222  -0.2035  -0.1738  -0.1073  -0.1026
    -0.0914  -0.0777  -0.0598  -0.0530  -0.0121  -0.0001   0.0038   0.0149
     0.0223   0.0929   0.0979   0.1086   0.1190   0.1221   0.1460   0.1719
     0.2438   0.4721   0.5362   0.7987   1.2929   1.3938   1.5241   1.6868
     1.8731   1.9461

 ------ SPIN DOWN ----------


          k = 0.0000 0.0000 0.0000 ( 51087 PWs)   bands (ev):

   -21.5118 -10.6752  -7.6380  -6.9356  -6.3280  -5.6863  -5.4500  -4.4237
    -4.4011  -4.3970  -4.3957  -4.3856  -4.3561  -4.2549  -3.5340  -3.5255
    -3.5228  -3.5051  -3.4935  -3.4641  -3.3489  -2.6175  -2.5763  -2.5750
    -2.5670  -2.5497  -2.4962  -2.2190  -2.1202  -2.1102  -2.1047  -2.1022
    -2.0899  -1.9217  -1.9106  -1.8761  -1.8295  -1.8133  -1.8131  -1.8028
    -1.7280  -1.7252  -1.6733  -1.6733  -1.6549  -1.5805  -1.5614  -1.5606
    -1.5301  -1.4603  -1.3781  -1.3085  -1.2977  -1.2947  -1.2726  -1.2725
    -1.2699  -1.2658  -1.2499  -1.2282  -1.2167  -1.1951  -1.1927  -1.1878
    -1.1677  -1.0696  -0.8347  -0.6358  -0.6318  -0.6153  -0.6138  -0.4688
    -0.4125  -0.3355  -0.3094  -0.2932  -0.2881  -0.2877  -0.2709  -0.2586
    -0.2305  -0.2214  -0.2017  -0.1986  -0.1941  -0.1932  -0.1339  -0.1307
    -0.1225  -0.0932  -0.0884  -0.0801  -0.0540  -0.0433  -0.0399  -0.0320
    -0.0312  -0.0299  -0.0088  -0.0048  -0.0040  -0.0026   0.0514   0.0749
     0.1311   0.1532   0.1576   0.1998   0.2066   0.2182   0.2219   0.2247
     0.2276   0.2327   0.2335   0.2547   0.3039   0.3046   0.3667   0.3741
     0.3963   0.4061   0.4145   0.4209   0.6031   0.6079   0.6492   0.6547
     0.6872   0.7043   0.7095   0.7117   0.8029   0.9906   0.9920   1.0451
     1.0463   1.2052   1.2218   1.2444   1.2703   1.2718   1.2794   1.2873
     1.4127   1.4303   1.4303   1.4388   1.4486   1.4524   1.4616   1.4790
     1.5043   1.5147   1.5330   1.5462   1.5524   1.5697   1.5796   1.5957
     1.5960   1.6006   1.6053   1.6223   1.6336   1.6730   1.6825   1.6933
     1.6996   1.7148   1.7205   1.7223   1.7293   1.7300   1.7391   1.7636
     1.7785   1.8003   1.8006   1.8050   1.8075   1.8187   1.8214   1.8274
     1.8599   1.8663   1.8720   1.8747   1.8789   1.8796   1.8868   1.8901
     1.9041   1.9067   1.9523   1.9536   2.0986   2.1023   2.1074   2.1099
     2.1124   2.1125

          k = 0.0000 0.2309 0.0000 ( 51134 PWs)   bands (ev):

   -21.5118 -10.6745  -7.4950  -6.9159  -6.2464  -5.7000  -5.4612  -5.2930
    -4.7800  -4.7679  -4.2514  -4.1090  -3.8503  -3.8449  -3.7540  -3.7138
    -3.5573  -3.2943  -3.1735  -3.1596  -3.0695  -2.7976  -2.6051  -2.5644
    -2.5340  -2.4761  -2.4543  -2.2787  -2.1701  -2.1444  -2.1395  -2.1286
    -2.0962  -2.0572  -2.0525  -2.0373  -2.0093  -1.9073  -1.8728  -1.8458
    -1.7856  -1.7782  -1.7304  -1.6188  -1.5959  -1.5857  -1.5610  -1.4973
    -1.4358  -1.4101  -1.3800  -1.3456  -1.3246  -1.3074  -1.2877  -1.2791
    -1.2736  -1.2566  -1.2028  -1.1560  -1.1520  -1.1307  -1.1096  -1.0802
    -1.0282  -0.9616  -0.8515  -0.6813  -0.6693  -0.6572  -0.6304  -0.5692
    -0.5162  -0.4997  -0.4556  -0.4393  -0.3374  -0.3274  -0.3089  -0.2907
    -0.2697  -0.2631  -0.2498  -0.2410  -0.2283  -0.2149  -0.1798  -0.1322
    -0.1133  -0.0868  -0.0818  -0.0791  -0.0543  -0.0287  -0.0217  -0.0107
    -0.0044   0.0057   0.0140   0.0199   0.0222   0.0237   0.0559   0.0708
     0.1020   0.1080   0.1196   0.1224   0.1494   0.1666   0.1773   0.1947
     0.2270   0.2317   0.2802   0.2951   0.3239   0.3390   0.3408   0.3706
     0.4900   0.5057   0.5633   0.5793   0.5932   0.6266   0.6370   0.6564
     0.6680   0.6798   0.6874   0.6909   0.9055   0.9634   0.9950   1.0111
     1.0207   1.0351   1.0592   1.0650   1.1073   1.1529   1.1951   1.2103
     1.2387   1.2833   1.2958   1.3269   1.3389   1.3571   1.3849   1.4313
     1.4392   1.4790   1.4906   1.5048   1.5155   1.5328   1.5596   1.5679
     1.5926   1.6176   1.6348   1.6487   1.6787   1.6891   1.7018   1.7240
     1.7429   1.7544   1.7672   1.7712   1.7802   1.7975   1.8470   1.8527
     1.8604   1.8653   1.9010   1.9077   1.9194   1.9369   1.9486   1.9559
     1.9704   2.0035   2.0099   2.0146   2.0393   2.0443   2.0467   2.0664
     2.0730   2.0983   2.1002   2.1115   2.1899   2.2044   2.2065   2.2384
     2.2816   2.3039

          k = 0.0000 0.4619 0.0000 ( 51204 PWs)   bands (ev):

   -21.5118 -10.6736  -7.1241  -6.8435  -6.3166  -6.0380  -5.5859  -5.3186
    -4.9953  -4.9739  -4.8330  -3.9132  -3.8798  -3.7699  -3.2804  -3.2301
    -3.2275  -3.1139  -2.9562  -2.9113  -2.7811  -2.7789  -2.6327  -2.6293
    -2.5984  -2.5574  -2.5229  -2.4754  -2.3942  -2.3826  -2.3611  -2.3110
    -2.3053  -2.1220  -2.0970  -2.0522  -2.0101  -1.9592  -1.9024  -1.8904
    -1.8777  -1.8589  -1.7594  -1.6129  -1.5817  -1.5555  -1.5316  -1.4940
    -1.3702  -1.3603  -1.3436  -1.3299  -1.3246  -1.2984  -1.2912  -1.2772
    -1.2401  -1.1910  -1.1740  -1.1646  -1.1419  -1.1100  -1.0092  -0.9341
    -0.8967  -0.8228  -0.7994  -0.7098  -0.6944  -0.6641  -0.6339  -0.6214
    -0.6017  -0.5894  -0.5532  -0.5253  -0.5038  -0.4624  -0.4317  -0.4128
    -0.3885  -0.3573  -0.3396  -0.3305  -0.3047  -0.2900  -0.2289  -0.1773
    -0.1462  -0.1443  -0.1114  -0.0806  -0.0595  -0.0366  -0.0272   0.0024
     0.0270   0.0386   0.0545   0.0637   0.0728   0.0778   0.0971   0.1199
     0.1331   0.1603   0.1674   0.1783   0.1841   0.1903   0.2068   0.2343
     0.2372   0.2589   0.3027   0.3775   0.3826   0.3892   0.4221   0.4394
     0.4434   0.4660   0.4768   0.5360   0.5470   0.5543   0.5739   0.5983
     0.6191   0.6357   0.6536   0.6685   0.6956   0.7810   0.8306   0.8640
     0.8800   0.9069   0.9647   1.0487   1.0742   1.1023   1.1217   1.1294
     1.1448   1.1867   1.2012   1.2231   1.2320   1.3197   1.3445   1.4044
     1.4200   1.4632   1.4722   1.5021   1.5220   1.5400   1.5594   1.5828
     1.6042   1.6207   1.6487   1.6908   1.7193   1.7311   1.7405   1.7715
     1.7759   1.7879   1.8143   1.8336   1.8439   1.8606   1.8736   1.9019
     1.9110   1.9400   1.9747   1.9970   2.0194   2.0411   2.0487   2.0548
     2.0662   2.0723   2.0986   2.1024   2.1090   2.1333   2.1379   2.1406
     2.1481   2.1899   2.2753   2.3545   2.3956   2.4755   2.5243   2.8044
     2.8533   2.9092

          k = 0.2000-0.1155 0.0000 ( 51134 PWs)   bands (ev):

   -21.5118 -10.6745  -7.4950  -6.9159  -6.2464  -5.7000  -5.4612  -5.2930
    -4.7800  -4.7679  -4.2514  -4.1090  -3.8503  -3.8449  -3.7540  -3.7138
    -3.5573  -3.2943  -3.1735  -3.1596  -3.0695  -2.7976  -2.6051  -2.5644
    -2.5340  -2.4761  -2.4543  -2.2787  -2.1701  -2.1444  -2.1395  -2.1286
    -2.0962  -2.0572  -2.0525  -2.0373  -2.0093  -1.9073  -1.8728  -1.8458
    -1.7856  -1.7782  -1.7303  -1.6189  -1.5960  -1.5857  -1.5610  -1.4973
    -1.4358  -1.4101  -1.3800  -1.3456  -1.3246  -1.3074  -1.2877  -1.2791
    -1.2736  -1.2566  -1.2028  -1.1560  -1.1520  -1.1307  -1.1096  -1.0802
    -1.0282  -0.9616  -0.8515  -0.6813  -0.6693  -0.6572  -0.6304  -0.5692
    -0.5162  -0.4997  -0.4556  -0.4393  -0.3374  -0.3274  -0.3089  -0.2907
    -0.2697  -0.2631  -0.2498  -0.2410  -0.2283  -0.2149  -0.1798  -0.1322
    -0.1133  -0.0868  -0.0818  -0.0791  -0.0543  -0.0287  -0.0217  -0.0107
    -0.0044   0.0057   0.0140   0.0199   0.0222   0.0237   0.0559   0.0708
     0.1020   0.1080   0.1196   0.1224   0.1494   0.1666   0.1774   0.1947
     0.2270   0.2317   0.2802   0.2951   0.3239   0.3390   0.3408   0.3706
     0.4900   0.5057   0.5633   0.5793   0.5932   0.6266   0.6370   0.6564
     0.6680   0.6798   0.6874   0.6909   0.9055   0.9634   0.9951   1.0111
     1.0207   1.0351   1.0592   1.0650   1.1073   1.1529   1.1951   1.2103
     1.2387   1.2833   1.2958   1.3269   1.3389   1.3571   1.3849   1.4313
     1.4392   1.4790   1.4906   1.5048   1.5155   1.5328   1.5596   1.5679
     1.5926   1.6176   1.6348   1.6487   1.6787   1.6891   1.7018   1.7240
     1.7429   1.7544   1.7672   1.7712   1.7802   1.7975   1.8470   1.8527
     1.8604   1.8653   1.9010   1.9077   1.9194   1.9369   1.9486   1.9559
     1.9704   2.0035   2.0099   2.0146   2.0393   2.0443   2.0467   2.0664
     2.0730   2.0983   2.1002   2.1115   2.1899   2.2044   2.2065   2.2384
     2.2816   2.3038

          k = 0.2000 0.1155 0.0000 ( 51134 PWs)   bands (ev):

   -21.5118 -10.6750  -7.4949  -6.9173  -6.2373  -5.6677  -5.4599  -5.3509
    -4.7669  -4.7571  -4.2602  -4.1394  -3.8507  -3.8479  -3.7274  -3.7001
    -3.5596  -3.2936  -3.1703  -3.1630  -3.0722  -2.8083  -2.5822  -2.5806
    -2.5197  -2.4706  -2.4692  -2.2424  -2.2103  -2.1427  -2.1418  -2.1247
    -2.1058  -2.0561  -2.0518  -2.0287  -2.0167  -1.8987  -1.8707  -1.8619
    -1.7844  -1.7724  -1.7230  -1.6822  -1.5888  -1.5878  -1.5264  -1.4711
    -1.4590  -1.4036  -1.3889  -1.3620  -1.3228  -1.2942  -1.2933  -1.2786
    -1.2760  -1.2186  -1.2098  -1.1634  -1.1504  -1.1269  -1.1084  -1.0831
    -1.0225  -0.9363  -0.8777  -0.6748  -0.6723  -0.6385  -0.6281  -0.5727
    -0.5403  -0.4853  -0.4649  -0.4382  -0.3452  -0.3177  -0.3104  -0.2888
    -0.2645  -0.2636  -0.2513  -0.2341  -0.2316  -0.2135  -0.1800  -0.1463
    -0.1030  -0.0845  -0.0788  -0.0780  -0.0568  -0.0268  -0.0210  -0.0070
     0.0009   0.0042   0.0069   0.0157   0.0187   0.0271   0.0610   0.0664
     0.1048   0.1086   0.1235   0.1258   0.1472   0.1767   0.1768   0.1906
     0.2225   0.2356   0.2887   0.2999   0.3245   0.3296   0.3410   0.3714
     0.5131   0.5177   0.5291   0.5754   0.5804   0.6339   0.6415   0.6513
     0.6532   0.6750   0.6883   0.6935   0.8846   0.9771   0.9803   1.0112
     1.0218   1.0270   1.0546   1.0684   1.0893   1.1611   1.1794   1.2138
     1.2351   1.2882   1.2927   1.3400   1.3423   1.3597   1.3848   1.4104
     1.4423   1.4886   1.4995   1.5054   1.5266   1.5387   1.5632   1.5678
     1.5981   1.6205   1.6243   1.6645   1.6645   1.6996   1.7026   1.7399
     1.7409   1.7486   1.7615   1.7745   1.7784   1.7900   1.8419   1.8483
     1.8582   1.8619   1.9052   1.9053   1.9210   1.9418   1.9448   1.9557
     1.9701   2.0094   2.0115   2.0137   2.0371   2.0405   2.0451   2.0700
     2.0705   2.1007   2.1012   2.1121   2.1920   2.1981   2.2096   2.2393
     2.2811   2.2933

          k = 0.2000 0.3464 0.0000 ( 51202 PWs)   bands (ev):

   -21.5118 -10.6743  -7.2317  -6.8750  -6.1201  -5.8031  -5.7502  -5.4821
    -5.3923  -4.5124  -4.4211  -4.0465  -4.0277  -3.9125  -3.2134  -3.2019
    -3.1981  -3.1867  -3.0834  -2.9989  -2.9037  -2.8875  -2.8521  -2.5293
    -2.4922  -2.4497  -2.4422  -2.3743  -2.3473  -2.3326  -2.2775  -2.2419
    -2.2312  -2.2235  -2.2008  -2.0833  -2.0661  -1.9734  -1.8530  -1.8499
    -1.8108  -1.7911  -1.7279  -1.7131  -1.6503  -1.5616  -1.5262  -1.4993
    -1.3865  -1.3664  -1.3304  -1.3272  -1.3216  -1.3020  -1.2855  -1.2631
    -1.2524  -1.2178  -1.1975  -1.1429  -1.0990  -1.0421  -0.9921  -0.9432
    -0.8895  -0.8545  -0.8371  -0.7438  -0.6521  -0.6338  -0.6153  -0.5863
    -0.5673  -0.5397  -0.5366  -0.5104  -0.4663  -0.4456  -0.4282  -0.4077
    -0.3965  -0.3711  -0.3591  -0.3407  -0.2911  -0.2409  -0.1881  -0.1702
    -0.1605  -0.1423  -0.1095  -0.0884  -0.0710  -0.0573  -0.0490  -0.0373
    -0.0205   0.0067   0.0135   0.0299   0.0393   0.0565   0.0852   0.1060
     0.1149   0.1214   0.1397   0.1520   0.1616   0.1669   0.1880   0.1944
     0.2411   0.2826   0.2873   0.3086   0.4106   0.4249   0.4429   0.4626
     0.4815   0.5026   0.5299   0.5556   0.5821   0.6033   0.6172   0.6264
     0.6309   0.6431   0.6966   0.7209   0.7666   0.8202   0.9146   0.9329
     1.0027   1.0184   1.0520   1.0782   1.0821   1.0934   1.1061   1.1180
     1.1397   1.1540   1.1716   1.1895   1.2197   1.2911   1.3135   1.3354
     1.3590   1.3761   1.4111   1.4225   1.4447   1.4695   1.5096   1.5151
     1.5819   1.6405   1.7110   1.7282   1.7380   1.7579   1.7745   1.7816
     1.7893   1.8044   1.8165   1.8305   1.8424   1.8991   1.9100   1.9171
     1.9269   1.9517   1.9661   1.9733   1.9908   2.0126   2.0201   2.0452
     2.0475   2.0595   2.0653   2.0826   2.0911   2.1267   2.1403   2.1535
     2.1824   2.1921   2.2858   2.3149   2.3363   2.4274   2.4630   2.5748
     2.7248   2.7827

          k = 0.2000-0.5774 0.0000 ( 51262 PWs)   bands (ev):

   -21.5118 -10.6735  -7.0097  -6.5823  -6.5299  -6.0216  -5.8311  -5.5323
    -5.1360  -5.0067  -4.5508  -4.0969  -3.5695  -3.4186  -3.2347  -3.2273
    -3.2021  -3.0076  -2.9763  -2.8273  -2.8184  -2.8123  -2.6853  -2.6721
    -2.6610  -2.6390  -2.6287  -2.6067  -2.4734  -2.3472  -2.2931  -2.2722
    -2.2541  -2.2351  -2.1995  -2.1914  -2.1153  -2.0715  -1.8890  -1.8536
    -1.7560  -1.7334  -1.7291  -1.6586  -1.6285  -1.5685  -1.4964  -1.4835
[...]
     atom    9 type  1   force =     0.00080246    0.00152819   -0.10683693
     atom   10 type  1   force =     0.00192244    0.00110898   -0.01011819
     atom   11 type  1   force =    -0.00047895   -0.00101758   -0.00928072
     atom   12 type  1   force =    -0.00138480    0.00158650   -0.01086700
     atom   13 type  1   force =    -0.00111963    0.00009318   -0.00928032
     atom   14 type  1   force =     0.00093852    0.00054260   -0.00918463
     atom   15 type  1   force =    -0.00012422   -0.00009314   -0.00997256
     atom   16 type  1   force =     0.00068321   -0.00199243   -0.01086633
     atom   17 type  1   force =    -0.00014295   -0.00006003   -0.00997127
     atom   18 type  1   force =     0.00008154    0.00004864   -0.01247806
     atom   19 type  1   force =    -0.00472191   -0.00194359    0.00579174
     atom   20 type  1   force =    -0.00010955   -0.00006260    0.00581797
     atom   21 type  1   force =     0.00379598   -0.00467970    0.00955427
     atom   22 type  1   force =     0.00281647    0.00378516    0.01023912
     atom   23 type  1   force =    -0.00215247    0.00562404    0.00954345
     atom   24 type  1   force =    -0.00073911   -0.00042861    0.01945432
     atom   25 type  1   force =     0.00127646    0.00074058    0.01967249
     atom   26 type  1   force =    -0.00404464   -0.00311597    0.00578231
     atom   27 type  1   force =     0.00469066    0.00054818    0.01023887
     atom   28 type  1   force =     0.03928646    0.02268970    0.15343509
     atom   29 type  1   force =    -0.04580334    0.05858482    0.17867385
     atom   30 type  1   force =    -0.01018865    0.00484687    0.11736082
     atom   31 type  1   force =     0.02783508   -0.06896747    0.17868632
     atom   32 type  1   force =    -0.00500693   -0.00290981    0.16803379
     atom   33 type  1   force =     0.00064384   -0.00229251    0.12046688
     atom   34 type  1   force =    -0.00090837   -0.01123303    0.11735381
     atom   35 type  1   force =    -0.00165264    0.00170192    0.12047004
     atom   36 type  1   force =     0.00138176    0.00079705    0.10270753
     atom   37 type  2   force =    -0.23244283   -0.13417029    0.20904487
     atom   38 type  3   force =     1.79670841    1.03726238   -1.49591653
     atom   39 type  4   force =    -0.04974831   -0.02872840   -0.03963249
     The ionic contribution  to forces
     atom    1 type  1   force =    -0.00972608    0.00086991 -111.23381245
     atom    2 type  1   force =     0.00129026    0.00074626 -111.25078804
     atom    3 type  1   force =     0.00843579   -0.00000505 -111.23123734
     atom    4 type  1   force =    -0.00431683    0.00884068 -111.23102839
     atom    5 type  1   force =     0.00421238    0.00730803 -111.23123637
     atom    6 type  1   force =     0.00010447    0.00005956 -111.22268478
     atom    7 type  1   force =    -0.00138769   -0.00080173 -111.22289373
     atom    8 type  1   force =    -0.00411082   -0.00885789 -111.23381378
     atom    9 type  1   force =     0.00549851   -0.00815977 -111.23103067
     atom   10 type  1   force =    -0.05568069   -0.03214467  -40.18883755
     atom   11 type  1   force =     0.01115857   -0.07295377  -40.27943230
     atom   12 type  1   force =     0.04452082   -0.03068688  -40.16675871
     atom   13 type  1   force =    -0.05760244    0.04614832  -40.27941597
     atom   14 type  1   force =     0.06399524    0.03695448  -40.26676137
     atom   15 type  1   force =    -0.00638628    0.01594185  -40.15345563
     atom   16 type  1   force =    -0.00431738    0.05389154  -40.16674762
     atom   17 type  1   force =     0.01060733   -0.01350741  -40.15345964
     atom   18 type  1   force =    -0.00629195   -0.00364160  -40.14487903
     atom   19 type  1   force =    -0.48640433    0.04817497   31.20284752
     atom   20 type  1   force =     0.06658115    0.03851984   30.24115992
     atom   21 type  1   force =     0.41856197   -0.00465264   31.33295169
     atom   22 type  1   force =    -0.21005138    0.43001373   31.34691499
     atom   23 type  1   force =     0.20519511    0.36480076   31.33299940
     atom   24 type  1   force =     0.00531682    0.00303685   31.69707087
     atom   25 type  1   force =    -0.06604088   -0.03815109   31.68769500
     atom   26 type  1   force =    -0.20153874   -0.44532685   31.20278054
     atom   27 type  1   force =     0.26741528   -0.39697146   31.34680759
     atom   28 type  1   force =    -2.31046518   -1.33380811  103.06509449
     atom   29 type  1   force =     0.87269396   -4.82240542   99.07169887
     atom   30 type  1   force =     1.51477211   -1.04135771  104.04942473
     atom   31 type  1   force =    -3.73962422    3.16712993   99.07296644
     atom   32 type  1   force =     4.30157545    2.48404205   99.17666676
     atom   33 type  1   force =    -0.24994466    0.45467683  104.30431965
     atom   34 type  1   force =    -0.14453151    1.83210613  104.04967038
     atom   35 type  1   force =     0.26862083   -0.44402008  104.30423421
     atom   36 type  1   force =    -0.13297200   -0.07705124  104.51001802
     atom   37 type  2   force =     4.64871195    2.68372907   55.27450327
     atom   38 type  3   force =    -6.85942278   -3.96009703   89.35460558
     atom   39 type  4   force =     1.83154782    1.05760961   15.26384346
     The local contribution  to forces
     atom    1 type  1   force =     0.01352691   -0.00136197  111.33951627
     atom    2 type  1   force =    -0.00326131   -0.00187814  111.35436354
     atom    3 type  1   force =    -0.01007266    0.00117580  111.33914234
     atom    4 type  1   force =     0.00243954   -0.00936089  111.33980635
     atom    5 type  1   force =    -0.00402342   -0.00931226  111.33913981
     atom    6 type  1   force =     0.00161613    0.00092885  111.32760532
     atom    7 type  1   force =     0.00066341    0.00038140  111.32977564
     atom    8 type  1   force =     0.00558002    0.01239767  111.33951771
     atom    9 type  1   force =    -0.00688469    0.00678990  111.33981056
     atom   10 type  1   force =     0.05373951    0.03102607   40.17947619
     atom   11 type  1   force =    -0.01126378    0.07452375   40.26872896
     atom   12 type  1   force =    -0.04273003    0.02941056   40.15893889
     atom   13 type  1   force =     0.05890708   -0.04702244   40.26871216
     atom   14 type  1   force =    -0.06470415   -0.03736544   40.25445175
     atom   15 type  1   force =     0.00639078   -0.01637494   40.14372670
     atom   16 type  1   force =     0.00410325   -0.05170304   40.15892438
     atom   17 type  1   force =    -0.01097920    0.01372611   40.14372921
     atom   18 type  1   force =     0.00642737    0.00371610   40.13702086
     atom   19 type  1   force =     0.48907442   -0.04563872  -31.18773487
     atom   20 type  1   force =    -0.06703773   -0.03878250  -30.22993234
     atom   21 type  1   force =    -0.41919507    0.00793213  -31.32155123
     atom   22 type  1   force =     0.20617665   -0.43384559  -31.33595518
     atom   23 type  1   force =    -0.20267590   -0.36698285  -31.32157252
     atom   24 type  1   force =    -0.00336963   -0.00190829  -31.69292709
     atom   25 type  1   force =     0.06506580    0.03757953  -31.68176212
     atom   26 type  1   force =     0.20506866    0.44636575  -31.18765006
     atom   27 type  1   force =    -0.27267854    0.39552700  -31.33585333
     atom   28 type  1   force =     2.26123866    1.30536360 -103.22865652
     atom   29 type  1   force =    -0.81955328    4.74009262  -99.25656104
     atom   30 type  1   force =    -1.49548143    1.02795403 -104.17698404
     atom   31 type  1   force =     3.69492840   -3.07994100  -99.25784132
     atom   32 type  1   force =    -4.27927129   -2.47112537  -99.35199359
     atom   33 type  1   force =     0.25023003   -0.44939952 -104.43927894
     atom   34 type  1   force =     0.14259574   -1.80872154 -104.17721848
     atom   35 type  1   force =    -0.26393348    0.44163776 -104.43919168
     atom   36 type  1   force =     0.12906573    0.07479647 -104.62258776
     atom   37 type  2   force =    -4.41859332   -2.55088548  -55.48216626
     atom   38 type  3   force =     5.07765959    2.93145851  -87.87175977
     atom   39 type  4   force =    -1.78178920   -1.02887865  -15.22418442
     The core correction contribution to forces
     atom    1 type  1   force =     0.00035708    0.00000302    0.01008201
     atom    2 type  1   force =    -0.00032989   -0.00019045    0.00995249
     atom    3 type  1   force =    -0.00003615    0.00008106    0.01022209
     atom    4 type  1   force =    -0.00018372    0.00001639    0.01013870
     atom    5 type  1   force =     0.00005200   -0.00007188    0.01022215
     atom    6 type  1   force =     0.00002316    0.00001336    0.00972546
     atom    7 type  1   force =    -0.00006059   -0.00003500    0.01040590
     atom    8 type  1   force =     0.00018108    0.00030776    0.01008204
     atom    9 type  1   force =    -0.00007764   -0.00016727    0.01013857
     atom   10 type  1   force =    -0.00026757   -0.00015452   -0.00200531
     atom   11 type  1   force =    -0.00007632    0.00008924   -0.00167570
     atom   12 type  1   force =     0.00037541   -0.00009755   -0.00203590
     atom   13 type  1   force =     0.00003906   -0.00011079   -0.00167563
     atom   14 type  1   force =     0.00017335    0.00010008   -0.00196537
     atom   15 type  1   force =    -0.00000318    0.00005479   -0.00170776
     atom   16 type  1   force =     0.00010321    0.00037391   -0.00203593
     atom   17 type  1   force =     0.00004580   -0.00003020   -0.00170774
     atom   18 type  1   force =    -0.00017589   -0.00010156   -0.00166610
     atom   19 type  1   force =    -0.00045333   -0.00038603    0.00144538
     atom   20 type  1   force =     0.00026723    0.00015421    0.00240059
     atom   21 type  1   force =     0.00013337    0.00002014    0.00118753
     atom   22 type  1   force =    -0.00030638   -0.00003634    0.00130557
     atom   23 type  1   force =     0.00008413    0.00010553    0.00118781
     atom   24 type  1   force =    -0.00003296   -0.00001904    0.00212806
     atom   25 type  1   force =     0.00043786    0.00025273    0.00203551
     atom   26 type  1   force =    -0.00056105   -0.00019951    0.00144536
     atom   27 type  1   force =    -0.00018465   -0.00024721    0.00130537
     atom   28 type  1   force =     0.00274791    0.00158589   -0.00704776
     atom   29 type  1   force =    -0.00098732    0.01354207    0.00174453
     atom   30 type  1   force =    -0.00308831    0.00324053   -0.00882911
     atom   31 type  1   force =     0.01123146   -0.00762491    0.00173989
     atom   32 type  1   force =    -0.01490991   -0.00861168    0.01206835
     atom   33 type  1   force =    -0.00075884   -0.00036335   -0.00885978
     atom   34 type  1   force =     0.00126241   -0.00429346   -0.00882976
     atom   35 type  1   force =    -0.00069426   -0.00047520   -0.00885976
     atom   36 type  1   force =    -0.00017560   -0.00010105   -0.01064638
     atom   37 type  2   force =     0.00232155    0.00133913   -0.00135438
     atom   38 type  3   force =    -0.01492615   -0.00861691    0.01308414
     atom   39 type  4   force =     0.00000000    0.00000000    0.00000000
     The Hubbard contrib.    to forces
     atom    1 type  1   force =     0.00000000    0.00000000    0.00000000
     atom    2 type  1   force =     0.00000000    0.00000000    0.00000000
     atom    3 type  1   force =     0.00000000    0.00000000    0.00000000
     atom    4 type  1   force =     0.00000000    0.00000000    0.00000000
     atom    5 type  1   force =     0.00000000    0.00000000    0.00000000
     atom    6 type  1   force =     0.00000000    0.00000000    0.00000000
     atom    7 type  1   force =     0.00000000    0.00000000    0.00000000
     atom    8 type  1   force =     0.00000000    0.00000000    0.00000000
     atom    9 type  1   force =     0.00000000    0.00000000    0.00000000
     atom   10 type  1   force =     0.00000000    0.00000000    0.00000000
     atom   11 type  1   force =     0.00000000    0.00000000    0.00000000
     atom   12 type  1   force =     0.00000000    0.00000000    0.00000000
     atom   13 type  1   force =     0.00000000    0.00000000    0.00000000
     atom   14 type  1   force =     0.00000000    0.00000000    0.00000000
     atom   15 type  1   force =     0.00000000    0.00000000    0.00000000
     atom   16 type  1   force =     0.00000000    0.00000000    0.00000000
     atom   17 type  1   force =     0.00000000    0.00000000    0.00000000
     atom   18 type  1   force =     0.00000000    0.00000000    0.00000000
     atom   19 type  1   force =     0.00000000    0.00000000    0.00000000
     atom   20 type  1   force =     0.00000000    0.00000000    0.00000000
     atom   21 type  1   force =     0.00000000    0.00000000    0.00000000
     atom   22 type  1   force =     0.00000000    0.00000000    0.00000000
     atom   23 type  1   force =     0.00000000    0.00000000    0.00000000
     atom   24 type  1   force =     0.00000000    0.00000000    0.00000000
     atom   25 type  1   force =     0.00000000    0.00000000    0.00000000
     atom   26 type  1   force =     0.00000000    0.00000000    0.00000000
     atom   27 type  1   force =     0.00000000    0.00000000    0.00000000
     atom   28 type  1   force =     0.00000000    0.00000000    0.00000000
     atom   29 type  1   force =     0.00000000    0.00000000    0.00000000
     atom   30 type  1   force =     0.00000000    0.00000000    0.00000000
     atom   31 type  1   force =     0.00000000    0.00000000    0.00000000
     atom   32 type  1   force =     0.00000000    0.00000000    0.00000000
     atom   33 type  1   force =     0.00000000    0.00000000    0.00000000
     atom   34 type  1   force =     0.00000000    0.00000000    0.00000000
     atom   35 type  1   force =     0.00000000    0.00000000    0.00000000
     atom   36 type  1   force =     0.00000000    0.00000000    0.00000000
     atom   37 type  2   force =     0.00000000    0.00000000    0.00000000
     atom   38 type  3   force =     0.00000000    0.00000000    0.00000000
     atom   39 type  4   force =     0.00000000    0.00000000    0.00000000
     The SCF correction term to forces
     atom    1 type  1   force =     0.00000000    0.00000000    0.00000000
     atom    2 type  1   force =    -0.00000000   -0.00000000    0.00000000
     atom    3 type  1   force =    -0.00000000   -0.00000000    0.00000000
     atom    4 type  1   force =    -0.00000000    0.00000000    0.00000000
     atom    5 type  1   force =     0.00000000    0.00000000    0.00000000
     atom    6 type  1   force =     0.00000000    0.00000000    0.00000000
     atom    7 type  1   force =    -0.00000000    0.00000000    0.00000000
     atom    8 type  1   force =     0.00000000    0.00000000    0.00000000
     atom    9 type  1   force =    -0.00000000   -0.00000000    0.00000000
     atom   10 type  1   force =     0.00000000    0.00000000    0.00000000
     atom   11 type  1   force =    -0.00000000    0.00000000    0.00000000
     atom   12 type  1   force =    -0.00000000    0.00000000    0.00000000
     atom   13 type  1   force =     0.00000000   -0.00000000    0.00000000
     atom   14 type  1   force =    -0.00000000   -0.00000000    0.00000000
     atom   15 type  1   force =     0.00000000    0.00000000    0.00000000
     atom   16 type  1   force =    -0.00000000   -0.00000000    0.00000000
     atom   17 type  1   force =     0.00000000    0.00000000    0.00000000
     atom   18 type  1   force =    -0.00000000    0.00000000    0.00000000
     atom   19 type  1   force =     0.00000000    0.00000000    0.00000000
     atom   20 type  1   force =    -0.00000000   -0.00000000    0.00000000
     atom   21 type  1   force =    -0.00000000   -0.00000000    0.00000000
     atom   22 type  1   force =    -0.00000000   -0.00000000    0.00000000
     atom   23 type  1   force =     0.00000000   -0.00000000    0.00000000
     atom   24 type  1   force =     0.00000000   -0.00000000    0.00000000
     atom   25 type  1   force =     0.00000000    0.00000000    0.00000000
     atom   26 type  1   force =     0.00000000    0.00000000    0.00000000
     atom   27 type  1   force =    -0.00000000    0.00000000    0.00000000
     atom   28 type  1   force =    -0.00000000    0.00000000    0.00000000
     atom   29 type  1   force =     0.00000000   -0.00000000    0.00000000
     atom   30 type  1   force =     0.00000000    0.00000000    0.00000000
     atom   31 type  1   force =    -0.00000000   -0.00000000    0.00000000
     atom   32 type  1   force =     0.00000000   -0.00000000    0.00000000
     atom   33 type  1   force =     0.00000000   -0.00000000    0.00000000
     atom   34 type  1   force =    -0.00000000    0.00000000    0.00000000
     atom   35 type  1   force =     0.00000000   -0.00000000    0.00000000
     atom   36 type  1   force =    -0.00000000   -0.00000000    0.00000000
     atom   37 type  2   force =    -0.00000460   -0.00000456    0.00001246
     atom   38 type  3   force =    -0.00000202    0.00000113    0.00000694
     atom   39 type  4   force =    -0.00000019   -0.00000113    0.00000169

     Total force =     0.000024     Total SCF correction =     0.000016
     SCF correction compared to forces is large: reduce conv_thr to get better values

     Writing all to output data dir ./pwscf.save/

     init_run     :     11.67s CPU     12.07s WALL (       1 calls)
     electrons    :    804.75s CPU    815.04s WALL (       1 calls)
     forces       :      3.74s CPU      3.84s WALL (       1 calls)

     Called by init_run:
     wfcinit      :      8.28s CPU      8.56s WALL (       1 calls)
     potinit      :      2.30s CPU      2.39s WALL (       1 calls)
     hinit0       :      0.83s CPU      0.85s WALL (       1 calls)

     Called by electrons:
     c_bands      :    677.68s CPU    685.84s WALL (      54 calls)
     sum_band     :     84.78s CPU     85.95s WALL (      54 calls)
     v_of_rho     :      9.71s CPU     10.12s WALL (      55 calls)
     newd         :      3.01s CPU      3.05s WALL (      55 calls)
     PAW_pot      :     13.86s CPU     14.00s WALL (      55 calls)
     mix_rho      :     17.34s CPU     17.61s WALL (      54 calls)
     vdW_kernel   :      1.44s CPU      1.45s WALL (       1 calls)

     Called by c_bands:
     init_us_2    :      9.36s CPU      9.49s WALL (    2860 calls)
     init_us_2:cp :      9.34s CPU      9.48s WALL (    2860 calls)
     cegterg      :    653.03s CPU    660.58s WALL (    1404 calls)

     Called by *egterg:
     cdiaghg      :    205.86s CPU    207.23s WALL (    4475 calls)
     h_psi        :    298.29s CPU    302.77s WALL (    4501 calls)
     s_psi        :     38.73s CPU     39.12s WALL (    4501 calls)
     g_psi        :      0.94s CPU      0.96s WALL (    3071 calls)

     Called by h_psi:
     h_psi:calbec :     51.37s CPU     52.11s WALL (    4501 calls)
     vloc_psi     :    204.78s CPU    208.06s WALL (    4501 calls)
     add_vuspsi   :     39.68s CPU     40.11s WALL (    4501 calls)

     General routines
     calbec       :     76.00s CPU     77.00s WALL (    6009 calls)
     fft          :      6.11s CPU      6.54s WALL (    4972 calls)
     ffts         :     10.40s CPU     10.58s WALL (   24631 calls)
     fftw         :    233.10s CPU    236.81s WALL ( 1454254 calls)
     interpolate  :      0.39s CPU      0.40s WALL (     110 calls)

     Parallel routines

     PWSCF        :  13m45.62s CPU  14m 1.54s WALL


   This run was terminated on:  20:11:14   8Dec2025            

=------------------------------------------------------------------------------=
   JOB DONE.
=------------------------------------------------------------------------------=
