
     Program PWSCF v.7.1 starts on 21Feb2025 at 19: 7:32 
        Git branch: heads/qe-7.1
        Last git commit: 48ba0178f8fede6d020eb786884699a9f063f55d-dirty
        Last git commit date: Fri Jan 27 14:22:33 2023 +0000
        Last git commit subject: Merge branch 'fix_hubbard' into 'develop'

     This program is part of the open-source Quantum ESPRESSO suite
     for quantum simulation of materials; please cite
         "P. Giannozzi et al., J. Phys.:Condens. Matter 21 395502 (2009);
         "P. Giannozzi et al., J. Phys.:Condens. Matter 29 465901 (2017);
         "P. Giannozzi et al., J. Chem. Phys. 152 154105 (2020);
          URL http://www.quantum-espresso.org", 
     in publications or presentations arising from this work. More details at
     http://www.quantum-espresso.org/quote

     Parallel version (MPI), running on    48 processors

     MPI processes distributed on     1 nodes
     187021 MiB available memory on the printing compute node when the environment starts

     Reading input from espresso.pwi
Warning: card &CELL ignored
Warning: card / ignored
Warning: card &FCP ignored
Warning: card / ignored
Warning: card &RISM ignored
Warning: card / ignored

     Current dimensions of program PWSCF are:
     Max number of different atomic species (ntypx) = 10
     Max number of k-points (npk) =  40000
     Max angular momentum in pseudopotentials (lmaxx) =  4
     file Pt.pbe-n-kjpaw_psl.1.0.0.UPF: wavefunction(s)  6S 5D renormalized
     file H.pbe-kjpaw_psl.1.0.0.UPF: wavefunction(s)  1S renormalized

     **************************************************************************
     Initializing libbeef V0.1.2 with the BEEF-vdW functional.
     Citation: Wellendorff et al., PRB 85, 235149 (2012).
     **************************************************************************


     IMPORTANT: XC functional enforced from input :
     Exchange-correlation= BEEF-VDW
                           (   1   4  43  14   2   0   0)
     Any further DFT definition will be discarded
     Please, verify this is what you really want


     R & G space division:  proc/nbgrp/npool/nimage =      48
     Subspace diagonalization in iterative solution of the eigenvalue problem:
     one sub-group per band group will be used
     custom distributed-memory algorithm (size of sub-group:  2*  2 procs)


     Parallelization info
     --------------------
     sticks:   dense  smooth     PW     G-vecs:    dense   smooth      PW
     Min         151      59     16                29407     7165    1028
     Max         152      60     17                29420     7176    1042
     Sum        7267    2839    769              1411785   344073   49691

     Using Slab Decomposition



     bravais-lattice index     =            0
     lattice parameter (alat)  =      16.0349  a.u.
     unit-cell volume          =   10068.6169 (a.u.)^3
     number of atoms/cell      =           37
     number of atomic types    =            2
     number of electrons       =       361.00
     number of Kohn-Sham states=          217
     kinetic-energy cutoff     =      40.0000  Ry
     charge density cutoff     =     410.0000  Ry
     scf convergence threshold =      1.0E-06
     mixing beta               =       0.7000
     number of iterations used =            8  local-TF  mixing
     Exchange-correlation= BEEF-VDW
                           (   1   4  43  14   2   0   0)

     celldm(1)=  16.034858  celldm(2)=   0.000000  celldm(3)=   0.000000
     celldm(4)=   0.000000  celldm(5)=   0.000000  celldm(6)=   0.000000

     crystal axes: (cart. coord. in units of alat)
               a(1) = (   1.000000   0.000000   0.000000 )  
               a(2) = (   0.500000   0.866025   0.000000 )  
               a(3) = (   0.000000   0.000000   2.819966 )  

     reciprocal axes: (cart. coord. in units 2 pi/alat)
               b(1) = (  1.000000 -0.577350  0.000000 )  
               b(2) = (  0.000000  1.154701  0.000000 )  
               b(3) = (  0.000000  0.000000  0.354614 )  


     PseudoPot. # 1 for Pt read from file:
     /users/kbadger1/espresso/pseudo/pslibrary.1.0.0/pbe/PSEUDOPOTENTIALS/Pt.pbe-n-kjpaw_psl.1.0.0.UPF
     MD5 check sum: 2e24a0b5bf98a4ed1a57fa81bca8c143
     Pseudo is Projector augmented-wave + core cor, Zval = 10.0
     Generated using 'atomic' code by A. Dal Corso  v.7.0
     Shape of augmentation charge: PSQ
     Using radial grid of 1277 points,  6 beta functions with: 
                l(1) =   0
                l(2) =   0
                l(3) =   1
                l(4) =   1
                l(5) =   2
                l(6) =   2
     Q(r) pseudized with 0 coefficients 


     PseudoPot. # 2 for H  read from file:
     /users/kbadger1/espresso/pseudo/pslibrary.1.0.0/pbe/PSEUDOPOTENTIALS/H.pbe-kjpaw_psl.1.0.0.UPF
     MD5 check sum: fe4c6fa958fa6d3815bf5d2419cbf1df
     Pseudo is Projector augmented-wave, Zval =  1.0
     Generated using 'atomic' code by A. Dal Corso  v.7.0
     Shape of augmentation charge: PSQ
     Using radial grid of  929 points,  2 beta functions with: 
                l(1) =   0
                l(2) =   0
     Q(r) pseudized with 0 coefficients 


     atomic species   valence    mass     pseudopotential
        Pt            10.00   195.08400     Pt( 1.00)
        H              1.00     1.00800     H ( 1.00)

     No symmetry found



   Cartesian axes

     site n.     atom                  positions (alat units)
         1           Pt  tau(   1) = (   0.0000000   0.0000000   1.0017346  )
         2           Pt  tau(   2) = (   0.3333333   0.0000000   1.0017346  )
         3           Pt  tau(   3) = (   0.6666667   0.0000000   1.0017346  )
         4           Pt  tau(   4) = (   0.1666667   0.2886751   1.0017346  )
         5           Pt  tau(   5) = (   0.5000000   0.2886751   1.0017346  )
         6           Pt  tau(   6) = (   0.8333333   0.2886751   1.0017346  )
         7           Pt  tau(   7) = (   0.3333333   0.5773503   1.0017346  )
         8           Pt  tau(   8) = (   0.6666667   0.5773503   1.0017346  )
         9           Pt  tau(   9) = (   1.0000000   0.5773503   1.0017346  )
        10           Pt  tau(  10) = (   0.1666667   0.0962250   1.2739001  )
        11           Pt  tau(  11) = (   0.5000000   0.0962250   1.2739001  )
        12           Pt  tau(  12) = (   0.8333333   0.0962250   1.2739001  )
        13           Pt  tau(  13) = (   0.3333333   0.3849002   1.2739001  )
        14           Pt  tau(  14) = (   0.6666667   0.3849002   1.2739001  )
        15           Pt  tau(  15) = (   1.0000000   0.3849002   1.2739001  )
        16           Pt  tau(  16) = (   0.5000000   0.6735753   1.2739001  )
        17           Pt  tau(  17) = (   0.8333333   0.6735753   1.2739001  )
        18           Pt  tau(  18) = (   1.1666667   0.6735753   1.2739001  )
        19           Pt  tau(  19) = (   0.0003783   0.1924795   1.5443039  )
        20           Pt  tau(  20) = (   0.3328871   0.1924835   1.5443097  )
        21           Pt  tau(  21) = (   0.6666331   0.1925535   1.5422407  )
        22           Pt  tau(  22) = (   0.1666320   0.4807200   1.5433372  )
        23           Pt  tau(  23) = (   0.4998392   0.4814553   1.5422324  )
        24           Pt  tau(  24) = (   0.8334309   0.4814556   1.5422280  )
        25           Pt  tau(  25) = (   0.3338769   0.7703870   1.5433339  )
        26           Pt  tau(  26) = (   0.6666290   0.7705353   1.5443056  )
        27           Pt  tau(  27) = (   0.9993782   0.7703893   1.5433343  )
        28           Pt  tau(  28) = (  -0.0041666  -0.0017158   1.8221140  )
        29           Pt  tau(  29) = (   0.3372730  -0.0016984   1.8221101  )
        30           Pt  tau(  30) = (   0.6665598   0.0007687   1.8170751  )
        31           Pt  tau(  31) = (   0.1665738   0.2939804   1.8221492  )
        32           Pt  tau(  32) = (   0.5013720   0.2901418   1.8165325  )
        33           Pt  tau(  33) = (   0.8317837   0.2901477   1.8165255  )
        34           Pt  tau(  34) = (   0.3333925   0.5778692   1.8170874  )
        35           Pt  tau(  35) = (   0.6665843   0.5762842   1.8165329  )
        36           Pt  tau(  36) = (   0.9997652   0.5778857   1.8170923  )
        37           H   tau(  37) = (   0.1663282   0.0972237   1.9208309  )

     number of k points=    13  Marzari-Vanderbilt smearing, width (Ry)=  0.0200
                       cart. coord. in units 2pi/alat
        k(    1) = (   0.0000000   0.0000000   0.0000000), wk =   0.0800000
        k(    2) = (   0.0000000   0.2309401   0.0000000), wk =   0.1600000
        k(    3) = (   0.0000000   0.4618802   0.0000000), wk =   0.1600000
        k(    4) = (   0.2000000  -0.1154701   0.0000000), wk =   0.1600000
        k(    5) = (   0.2000000   0.1154701   0.0000000), wk =   0.1600000
        k(    6) = (   0.2000000   0.3464102   0.0000000), wk =   0.1600000
        k(    7) = (   0.2000000  -0.5773503   0.0000000), wk =   0.1600000
        k(    8) = (   0.2000000  -0.3464102   0.0000000), wk =   0.1600000
        k(    9) = (   0.4000000  -0.2309401   0.0000000), wk =   0.1600000
        k(   10) = (   0.4000000  -0.0000000   0.0000000), wk =   0.1600000
        k(   11) = (   0.4000000   0.2309401   0.0000000), wk =   0.1600000
        k(   12) = (   0.4000000  -0.6928203   0.0000000), wk =   0.1600000
        k(   13) = (   0.4000000  -0.4618802   0.0000000), wk =   0.1600000

     Dense  grid:  1411785 G-vectors     FFT dimensions: ( 108, 108, 300)

     Smooth grid:   344073 G-vectors     FFT dimensions: (  72,  72, 192)

     Estimated max dynamical RAM per process >     203.68 MB

     Estimated total dynamical RAM >       9.55 GB

     Initial potential from superposition of free atoms

     starting charge     360.9939, renormalised to     361.0000

     negative rho (up, down):  3.369E-03 0.000E+00


     %%%%%%%%%%%%%%%%%%%%%%%%%%%%%%%%%%%%%%%%%%%%%%%%%%%%%%%%%%%%%%%%%%%%%%%%
     %                                                                      %
     % You are using vdW-DF, which was implemented by the Thonhauser group. %
     % Please cite the following two papers that made this development      %
     % possible and the two reviews that describe the various versions:     %
     %                                                                      %
     %   T. Thonhauser et al., PRL 115, 136402 (2015).                      %
     %   T. Thonhauser et al., PRB 76, 125112 (2007).                       %
     %   K. Berland et al., Rep. Prog. Phys. 78, 066501 (2015).             %
     %   D.C. Langreth et al., J. Phys.: Condens. Matter 21, 084203 (2009). %
     %                                                                      %
     % If you are calculating stress with vdW-DF, please also cite:         %
     %                                                                      %
     %   R. Sabatini et al., J. Phys.: Condens. Matter 24, 424209 (2012).   %
     %                                                                      %
     %%%%%%%%%%%%%%%%%%%%%%%%%%%%%%%%%%%%%%%%%%%%%%%%%%%%%%%%%%%%%%%%%%%%%%%%

     %%%%%%%%%%%%%%%%%%%%%%%%%%%%%%%%%%%%%%%%%%%%%%%%%%%%%%%%%%%%%%%%%%%%%%%%
     %                                                                      %
     %  vdW-DF NEWS:                                                        %
     %                                                                      %
     %  * vdW-DF3 is now available. DOI: 10.1021/acs.jctc.0c00471           %
     %    use with input_dft = 'vdW-DF3-opt1' or 'vdW-DF3-opt2'             %
     %                                                                      %
     %  * Unscreened and range-separated hybrid vdW-DF-cx functionals       %
     %    DOI: 10.1063/1.4986522 and 10.1088/1361-648X/ac2ad2               %
     %    use with input_dft = 'vdW-DF-cx0'    and 'vdW-DF-ahcx'            %
     %  * Unscreened and range-separated hybrid vdW-DF2-b86r functionals    %
     %    DOI: 10.1063/1.4986522 and DOI: 10.1103/PhysRevX.12.041003        %
     %    use with input_dft = 'vdW-DF2-br0' and 'vdW-DF2-ahbr'             %
     %                                                                      %
     %%%%%%%%%%%%%%%%%%%%%%%%%%%%%%%%%%%%%%%%%%%%%%%%%%%%%%%%%%%%%%%%%%%%%%%%


     Starting wfcs are  325 randomized atomic wfcs
     Checking if some PAW data can be deallocated... 

     total cpu time spent up to now is       10.8 secs

     per-process dynamical memory:   207.7 Mb

     Self-consistent Calculation

     iteration #  1     ecut=    40.00 Ry     beta= 0.70
     Davidson diagonalization with overlap
     ethr =  1.00E-02,  avg # of iterations =  2.0

     Threshold (ethr) on eigenvalues was too large:
     Diagonalizing with lowered threshold

     Davidson diagonalization with overlap
     ethr =  3.67E-04,  avg # of iterations =  4.0

     negative rho (up, down):  1.741E-02 0.000E+00

     total cpu time spent up to now is       42.0 secs

     total energy              =  -27755.28983475 Ry
     estimated scf accuracy    <       1.52743992 Ry

     iteration #  2     ecut=    40.00 Ry     beta= 0.70
     Davidson diagonalization with overlap
     ethr =  4.23E-04,  avg # of iterations =  2.0

     negative rho (up, down):  1.558E-02 0.000E+00

     total cpu time spent up to now is       54.5 secs

     total energy              =  -27755.38776010 Ry
     estimated scf accuracy    <       0.79368184 Ry

     iteration #  3     ecut=    40.00 Ry     beta= 0.70
     Davidson diagonalization with overlap
     ethr =  2.20E-04,  avg # of iterations =  2.0

     negative rho (up, down):  1.021E-02 0.000E+00

     total cpu time spent up to now is       67.6 secs

     total energy              =  -27755.43811930 Ry
     estimated scf accuracy    <       0.08806338 Ry

     iteration #  4     ecut=    40.00 Ry     beta= 0.70
     Davidson diagonalization with overlap
     c_bands:  1 eigenvalues not converged
     c_bands:  1 eigenvalues not converged
     c_bands:  1 eigenvalues not converged
     ethr =  2.44E-05,  avg # of iterations = 14.0

     negative rho (up, down):  7.258E-03 0.000E+00

     total cpu time spent up to now is       99.7 secs

     total energy              =  -27755.48670690 Ry
     estimated scf accuracy    <       0.07218602 Ry

     iteration #  5     ecut=    40.00 Ry     beta= 0.70
     Davidson diagonalization with overlap
     c_bands:  1 eigenvalues not converged
     c_bands:  1 eigenvalues not converged
     c_bands:  1 eigenvalues not converged
     ethr =  2.00E-05,  avg # of iterations =  5.9

     negative rho (up, down):  3.303E-03 0.000E+00

     total cpu time spent up to now is      115.3 secs

     total energy              =  -27755.48669612 Ry
     estimated scf accuracy    <       0.02809629 Ry

     iteration #  6     ecut=    40.00 Ry     beta= 0.70
     Davidson diagonalization with overlap
     ethr =  7.78E-06,  avg # of iterations =  7.1

     negative rho (up, down):  1.635E-03 0.000E+00

     total cpu time spent up to now is      130.4 secs

     total energy              =  -27755.48865472 Ry
     estimated scf accuracy    <       0.00237639 Ry

     iteration #  7     ecut=    40.00 Ry     beta= 0.70
     Davidson diagonalization with overlap
     c_bands:  2 eigenvalues not converged
     c_bands:  1 eigenvalues not converged
     c_bands:  1 eigenvalues not converged
     c_bands:  1 eigenvalues not converged
     ethr =  6.58E-07,  avg # of iterations = 14.5

     negative rho (up, down):  1.281E-03 0.000E+00

     total cpu time spent up to now is      159.8 secs

     total energy              =  -27755.48913890 Ry
     estimated scf accuracy    <       0.00165618 Ry

     iteration #  8     ecut=    40.00 Ry     beta= 0.70
     Davidson diagonalization with overlap
     ethr =  4.59E-07,  avg # of iterations =  3.5

     negative rho (up, down):  1.127E-03 0.000E+00

     total cpu time spent up to now is      173.6 secs

     total energy              =  -27755.48927285 Ry
     estimated scf accuracy    <       0.00020526 Ry

     iteration #  9     ecut=    40.00 Ry     beta= 0.70
     Davidson diagonalization with overlap
     ethr =  5.69E-08,  avg # of iterations =  4.8

     negative rho (up, down):  9.169E-04 0.000E+00

     total cpu time spent up to now is      196.7 secs

     total energy              =  -27755.48935455 Ry
     estimated scf accuracy    <       0.00008701 Ry

     iteration # 10     ecut=    40.00 Ry     beta= 0.70
     Davidson diagonalization with overlap
     ethr =  2.41E-08,  avg # of iterations =  3.9

     negative rho (up, down):  8.949E-04 0.000E+00

     total cpu time spent up to now is      217.2 secs

     total energy              =  -27755.48937475 Ry
     estimated scf accuracy    <       0.00007706 Ry

     iteration # 11     ecut=    40.00 Ry     beta= 0.70
     Davidson diagonalization with overlap
     ethr =  2.13E-08,  avg # of iterations =  1.4

     negative rho (up, down):  9.800E-04 0.000E+00

     total cpu time spent up to now is      229.5 secs

     total energy              =  -27755.48938012 Ry
     estimated scf accuracy    <       0.00005099 Ry

     iteration # 12     ecut=    40.00 Ry     beta= 0.70
     Davidson diagonalization with overlap
     ethr =  1.41E-08,  avg # of iterations =  1.5

     negative rho (up, down):  1.211E-03 0.000E+00

     total cpu time spent up to now is      241.7 secs

     total energy              =  -27755.48938600 Ry
     estimated scf accuracy    <       0.00001987 Ry

     iteration # 13     ecut=    40.00 Ry     beta= 0.70
     Davidson diagonalization with overlap
     ethr =  5.50E-09,  avg # of iterations =  2.3

     negative rho (up, down):  1.673E-03 0.000E+00

     total cpu time spent up to now is      256.1 secs

     total energy              =  -27755.48939096 Ry
     estimated scf accuracy    <       0.00001076 Ry

     iteration # 14     ecut=    40.00 Ry     beta= 0.70
     Davidson diagonalization with overlap
     ethr =  2.98E-09,  avg # of iterations =  2.0

     negative rho (up, down):  1.943E-03 0.000E+00

     total cpu time spent up to now is      270.1 secs

     total energy              =  -27755.48939372 Ry
     estimated scf accuracy    <       0.00000688 Ry

     iteration # 15     ecut=    40.00 Ry     beta= 0.70
     Davidson diagonalization with overlap
     ethr =  1.91E-09,  avg # of iterations =  1.9

     negative rho (up, down):  2.756E-03 0.000E+00

     total cpu time spent up to now is      283.3 secs

     total energy              =  -27755.48939103 Ry
     estimated scf accuracy    <       0.00000584 Ry

     iteration # 16     ecut=    40.00 Ry     beta= 0.70
     Davidson diagonalization with overlap
     ethr =  1.62E-09,  avg # of iterations =  1.7

     negative rho (up, down):  3.155E-03 0.000E+00

     total cpu time spent up to now is      296.7 secs

     End of self-consistent calculation

          k = 0.0000 0.0000 0.0000 ( 42913 PWs)   bands (ev):

    -6.3207  -5.2713  -4.5554  -3.8925  -3.8796  -3.8787  -3.8697  -3.8536
    -3.8530  -3.8518  -3.5366  -3.3217  -3.3214  -3.3124  -3.3103  -3.3101
    -3.2222  -2.8696  -2.8693  -2.8437  -2.8435  -2.8352  -2.7550  -2.6343
    -2.6343  -2.6281  -2.6249  -2.6247  -2.5180  -2.4232  -2.4229  -2.4003
    -2.3999  -2.3894  -2.3857  -2.3791  -2.3695  -2.3694  -2.3424  -2.3424
    -1.9588  -1.7874  -1.7873  -1.7581  -1.7407  -1.7175  -1.7174  -1.6940
    -1.6938  -1.6861  -1.5488  -1.5488  -1.4437  -1.4436  -1.4350  -0.9759
    -0.9751  -0.9659  -0.9551  -0.9544  -0.9004  -0.8562  -0.7883  -0.7881
    -0.7780  -0.7777  -0.7623  -0.7544  -0.7490  -0.7282  -0.7281  -0.7234
    -0.7200  -0.7199  -0.6806  -0.6759  -0.6754  -0.5572  -0.5509  -0.5496
    -0.5425  -0.5407  -0.5400  -0.3802  -0.3652  -0.3635  -0.3582  -0.3568
    -0.3372  -0.3190  -0.3189  -0.2236  -0.2233  -0.1519  -0.1436  -0.1434
    -0.1129  -0.1128  -0.0874  -0.0827  -0.0245   0.0735   0.0757   0.0823
     0.0869   0.0889   0.0908   0.3237   0.5665   0.5670   0.5793   0.5900
     0.5902   0.6029   0.6224   0.6226   0.6365   0.6365   0.6545   0.7295
     0.7295   0.7892   0.8670   0.8671   0.8724   0.8725   0.8928   0.9950
     1.0079   1.0523   1.0553   1.0577   1.0607   1.3027   1.3029   1.3045
     1.3220   1.3221   1.3258   1.3914   1.3931   1.5466   1.5475   1.5649
     1.5686   1.5696   1.5712   1.6968   1.7035   1.7309   1.7311   1.7564
     1.7571   1.7613   1.7738   1.7745   1.7833   1.7839   1.7882   1.8619
     1.8760   1.8763   1.9115   1.9116   1.9344   1.9349   1.9423   1.9841
     2.0063   2.0064   2.0350   2.0356   2.0544   2.0545   2.0640   2.1278
     2.1397   2.1400   2.1512   2.1513   2.1545   2.2236   2.2413   2.2420
     2.2588   2.2596   2.2655   2.2743   2.4622   2.4658   2.5632   2.5639
     2.5672   2.5858   2.5863   2.5888   3.1533   3.4246   3.4384   3.4391
     3.4751   3.4762   3.4826   5.5145   5.7357   5.7369   5.8039   5.8055
     5.8096   7.3047   7.3054   7.3468   7.4006   7.4016   7.4034   7.5450
     7.6337

          k = 0.0000 0.2309 0.0000 ( 42996 PWs)   bands (ev):

    -6.1747  -5.1642  -4.5064  -4.3431  -3.9842  -3.9710  -3.7494  -3.6759
    -3.6339  -3.6307  -3.5194  -3.4055  -3.3582  -3.2523  -3.2460  -3.2377
    -3.1545  -2.9455  -2.8233  -2.8177  -2.7995  -2.7774  -2.7372  -2.7005
    -2.6735  -2.6395  -2.6370  -2.6249  -2.5373  -2.5357  -2.5222  -2.4339
    -2.4266  -2.4039  -2.3929  -2.2467  -2.2038  -2.1959  -2.1886  -2.1513
    -1.9653  -1.9048  -1.9004  -1.8430  -1.8232  -1.8070  -1.7882  -1.6879
    -1.6126  -1.5525  -1.5335  -1.5156  -1.4699  -1.4501  -1.3839  -1.2412
    -1.1468  -1.1419  -1.0817  -1.0725  -1.0366  -0.9907  -0.9628  -0.9529
    -0.9280  -0.9222  -0.8623  -0.8359  -0.7968  -0.7774  -0.7657  -0.7147
    -0.6824  -0.6690  -0.6631  -0.5991  -0.5954  -0.5808  -0.5347  -0.4889
    -0.4826  -0.4747  -0.4724  -0.4090  -0.3849  -0.3697  -0.3645  -0.3613
    -0.3159  -0.3013  -0.2577  -0.2377  -0.2237  -0.1997  -0.1858  -0.1631
    -0.1550  -0.1231  -0.0992  -0.0975  -0.0154   0.0439   0.0491   0.0803
     0.0846   0.0934   0.1071   0.1080   0.1538   0.1634   0.1768   0.1895
     0.3984   0.5007   0.5519   0.5821   0.5966   0.6044   0.6047   0.6357
     0.6427   0.7052   0.7906   0.8072   0.8950   0.9440   0.9458   0.9711
     0.9874   1.0087   1.0498   1.0642   1.0666   1.1520   1.1856   1.1929
     1.2052   1.2062   1.3605   1.3987   1.4104   1.4185   1.4331   1.4361
     1.4594   1.5283   1.5495   1.5736   1.6006   1.6017   1.6589   1.6704
     1.6823   1.6871   1.7699   1.7881   1.8174   1.8212   1.8639   1.9223
     1.9426   1.9699   1.9777   1.9887   2.0204   2.0346   2.1022   2.1080
     2.1625   2.1681   2.1844   2.1980   2.2213   2.2303   2.2318   2.2445
     2.2446   2.3074   2.3107   2.4535   2.4563   2.4727   2.4940   2.5069
     2.5092   2.5378   2.5683   2.5761   2.5898   2.6702   2.6864   2.7160
     2.7705   2.8766   2.8885   2.8990   2.9360   3.2843   3.3235   3.8606
     4.0432   4.0767   4.1853   4.9976   5.4320   5.4947   6.1525   6.2132
     6.2536   6.3360   6.5804   7.0306   7.1739   7.3632   7.5546   7.5695
     7.6417

          k = 0.0000 0.4619 0.0000 ( 43046 PWs)   bands (ev):

    -5.7568  -5.1527  -4.8647  -4.2628  -4.0184  -4.0048  -3.8024  -3.6350
    -3.4939  -3.3651  -3.2919  -3.2891  -3.2294  -3.1228  -3.0817  -3.0701
    -3.0671  -3.0556  -2.9141  -2.9031  -2.8951  -2.8553  -2.8482  -2.8073
    -2.7413  -2.7175  -2.7134  -2.5943  -2.4616  -2.4529  -2.4467  -2.4329
    -2.4319  -2.3265  -2.2068  -2.1954  -2.1759  -2.1458  -2.1438  -2.0386
    -1.9417  -1.8735  -1.8599  -1.8497  -1.8121  -1.7892  -1.7493  -1.7187
    -1.7125  -1.6787  -1.6447  -1.5185  -1.5081  -1.5012  -1.4705  -1.4059
    -1.3406  -1.3100  -1.2815  -1.2737  -1.2551  -1.1211  -1.0684  -1.0576
    -1.0571  -1.0351  -0.9503  -0.9373  -0.9142  -0.8230  -0.8062  -0.8051
    -0.7427  -0.6917  -0.6911  -0.6626  -0.6615  -0.6129  -0.5847  -0.5750
    -0.5637  -0.5574  -0.5440  -0.5380  -0.5318  -0.5044  -0.4086  -0.4028
    -0.3978  -0.3712  -0.3649  -0.3645  -0.3256  -0.2184  -0.2162  -0.1918
    -0.1527  -0.1359  -0.1174  -0.0895  -0.0691  -0.0590   0.0352   0.0480
     0.0845   0.1104   0.1406   0.1487   0.1758   0.3179   0.3454   0.4043
     0.4189   0.4768   0.5065   0.5172   0.5345   0.5364   0.5404   0.5830
     0.6093   0.6416   0.6558   0.6616   0.6873   0.7071   0.7149   0.7442
     0.7546   0.8544   0.8766   0.8947   0.9602   0.9978   1.0782   1.0787
     1.1883   1.1933   1.2410   1.2870   1.3565   1.3627   1.4056   1.4239
     1.4571   1.4601   1.4910   1.5178   1.5599   1.5714   1.6165   1.6678
     1.6709   1.7138   1.7250   1.7374   1.7469   1.8065   1.8880   1.9207
     1.9827   2.0086   2.0118   2.0303   2.0827   2.1271   2.1343   2.2092
     2.2218   2.2249   2.2382   2.2849   2.3235   2.3282   2.3432   2.4613
     2.4616   2.4802   2.4895   2.4937   2.4955   2.5187   2.5218   2.7028
     2.7280   2.7351   2.7400   2.7453   2.9033   2.9560   3.2267   3.3305
     3.3835   3.5776   3.7783   3.7849   4.0710   4.1657   4.2966   4.4801
     4.7888   4.9992   5.0023   5.1055   5.2156   5.2484   5.3688   5.3937
     5.5959   5.6517   6.2087   6.2882   6.7040   6.8134   7.2078   7.2975
     7.8065

          k = 0.2000-0.1155 0.0000 ( 42996 PWs)   bands (ev):

    -6.1747  -5.1643  -4.5071  -4.3431  -3.9836  -3.9707  -3.7495  -3.6773
    -3.6333  -3.6298  -3.5195  -3.4053  -3.3577  -3.2527  -3.2464  -3.2380
    -3.1551  -2.9449  -2.8230  -2.8178  -2.8000  -2.7774  -2.7367  -2.7004
    -2.6733  -2.6402  -2.6373  -2.6254  -2.5369  -2.5349  -2.5221  -2.4351
    -2.4266  -2.4038  -2.3924  -2.2465  -2.2037  -2.1959  -2.1884  -2.1504
    -1.9652  -1.9043  -1.9000  -1.8432  -1.8235  -1.8074  -1.7883  -1.6879
    -1.6121  -1.5525  -1.5333  -1.5155  -1.4699  -1.4504  -1.3836  -1.2397
    -1.1468  -1.1421  -1.0799  -1.0707  -1.0351  -0.9887  -0.9651  -0.9546
    -0.9291  -0.9224  -0.8625  -0.8358  -0.7950  -0.7766  -0.7650  -0.7155
    -0.6830  -0.6732  -0.6666  -0.5988  -0.5943  -0.5800  -0.5351  -0.4867
    -0.4804  -0.4757  -0.4698  -0.4091  -0.3869  -0.3701  -0.3639  -0.3618
    -0.3156  -0.3017  -0.2575  -0.2399  -0.2245  -0.1980  -0.1850  -0.1635
    -0.1556  -0.1232  -0.1002  -0.0977  -0.0154   0.0441   0.0496   0.0792
     0.0827   0.0925   0.1066   0.1085   0.1539   0.1639   0.1769   0.1894
     0.4009   0.5017   0.5511   0.5823   0.5969   0.6028   0.6044   0.6355
     0.6423   0.7047   0.7904   0.8063   0.8939   0.9433   0.9454   0.9747
     0.9841   1.0084   1.0493   1.0637   1.0665   1.1520   1.1854   1.1927
     1.2056   1.2073   1.3610   1.3977   1.4092   1.4192   1.4331   1.4361
     1.4594   1.5285   1.5495   1.5736   1.6004   1.6027   1.6593   1.6704
     1.6827   1.6871   1.7699   1.7883   1.8182   1.8218   1.8634   1.9220
     1.9422   1.9698   1.9776   1.9880   2.0190   2.0349   2.1023   2.1081
     2.1625   2.1681   2.1840   2.1982   2.2216   2.2302   2.2320   2.2442
     2.2451   2.3061   2.3093   2.4522   2.4561   2.4739   2.4944   2.5076
     2.5104   2.5392   2.5692   2.5778   2.5908   2.6702   2.6863   2.7160
     2.7703   2.8765   2.8896   2.8986   2.9348   3.2859   3.3253   3.8601
     4.0426   4.0757   4.1851   4.9951   5.4343   5.4964   6.1523   6.2131
     6.2540   6.3364   6.5789   7.0300   7.1735   7.3600   7.5553   7.5705
     7.6423

          k = 0.2000 0.1155 0.0000 ( 42996 PWs)   bands (ev):

    -6.1747  -5.1643  -4.5068  -4.3433  -3.9837  -3.9707  -3.7495  -3.6771
    -3.6335  -3.6298  -3.5194  -3.4053  -3.3580  -3.2527  -3.2464  -3.2380
    -3.1549  -2.9450  -2.8231  -2.8178  -2.7999  -2.7775  -2.7368  -2.7004
    -2.6733  -2.6402  -2.6371  -2.6252  -2.5370  -2.5350  -2.5222  -2.4349
    -2.4266  -2.4038  -2.3925  -2.2466  -2.2038  -2.1959  -2.1884  -2.1505
    -1.9652  -1.9044  -1.9001  -1.8432  -1.8235  -1.8073  -1.7882  -1.6879
    -1.6122  -1.5525  -1.5334  -1.5155  -1.4699  -1.4503  -1.3837  -1.2400
    -1.1469  -1.1421  -1.0802  -1.0710  -1.0353  -0.9890  -0.9648  -0.9543
    -0.9289  -0.9224  -0.8624  -0.8358  -0.7954  -0.7768  -0.7651  -0.7153
    -0.6829  -0.6726  -0.6660  -0.5988  -0.5945  -0.5801  -0.5350  -0.4871
    -0.4806  -0.4757  -0.4700  -0.4091  -0.3865  -0.3701  -0.3640  -0.3617
    -0.3157  -0.3016  -0.2575  -0.2395  -0.2244  -0.1982  -0.1850  -0.1634
    -0.1555  -0.1231  -0.1003  -0.0975  -0.0154   0.0440   0.0495   0.0794
     0.0831   0.0927   0.1067   0.1085   0.1540   0.1638   0.1768   0.1894
     0.4005   0.5016   0.5513   0.5822   0.5969   0.6029   0.6047   0.6355
     0.6423   0.7050   0.7905   0.8065   0.8940   0.9434   0.9455   0.9740
     0.9848   1.0084   1.0494   1.0638   1.0666   1.1520   1.1853   1.1927
     1.2054   1.2073   1.3606   1.3979   1.4094   1.4189   1.4331   1.4362
     1.4594   1.5284   1.5495   1.5737   1.6004   1.6025   1.6594   1.6704
     1.6826   1.6871   1.7699   1.7883   1.8180   1.8218   1.8634   1.9220
     1.9424   1.9698   1.9776   1.9882   2.0192   2.0348   2.1023   2.1081
     2.1624   2.1682   2.1840   2.1981   2.2216   2.2302   2.2320   2.2442
     2.2451   2.3063   2.3095   2.4523   2.4562   2.4737   2.4943   2.5074
     2.5103   2.5390   2.5691   2.5776   2.5906   2.6701   2.6863   2.7160
     2.7703   2.8765   2.8894   2.8987   2.9350   3.2856   3.3251   3.8601
     4.0428   4.0759   4.1851   4.9957   5.4337   5.4961   6.1524   6.2131
     6.2538   6.3363   6.5793   7.0301   7.1736   7.3606   7.5554   7.5701
     7.6417

          k = 0.2000 0.3464 0.0000 ( 43046 PWs)   bands (ev):

    -5.8918  -5.0172  -4.6350  -4.6205  -4.2780  -3.5518  -3.5471  -3.5443
    -3.5288  -3.4872  -3.4825  -3.4654  -3.3647  -3.3603  -3.1905  -2.9815
    -2.9680  -2.9643  -2.9633  -2.8989  -2.8745  -2.7474  -2.7308  -2.7152
    -2.7113  -2.6472  -2.6196  -2.5768  -2.5648  -2.5558  -2.4985  -2.4810
    -2.4607  -2.4134  -2.3978  -2.3151  -2.1695  -2.0590  -1.9741  -1.9655
    -1.9313  -1.9205  -1.9049  -1.8995  -1.8446  -1.8185  -1.7582  -1.6855
    -1.6697  -1.5872  -1.5520  -1.5395  -1.5002  -1.4886  -1.4123  -1.3935
    -1.3839  -1.2302  -1.2099  -1.1903  -1.1365  -1.1244  -1.0905  -1.0836
    -1.0677  -1.0147  -0.9818  -0.8524  -0.8466  -0.8433  -0.8292  -0.7942
    -0.7761  -0.7269  -0.7029  -0.6892  -0.6285  -0.5718  -0.5617  -0.5345
    -0.5201  -0.5101  -0.5046  -0.4678  -0.4495  -0.4415  -0.3922  -0.3825
    -0.3627  -0.3471  -0.2715  -0.2668  -0.2367  -0.2084  -0.1830  -0.1704
    -0.1521  -0.1242  -0.1065  -0.1003  -0.0951  -0.0893  -0.0748  -0.0580
    -0.0217  -0.0048   0.0850   0.1122   0.1453   0.2131   0.2290   0.2330
     0.2487   0.4229   0.4365   0.4930   0.5583   0.5746   0.6110   0.6198
     0.6407   0.6490   0.6850   0.6982   0.7273   0.7355   0.7551   0.8255
     0.9261   0.9807   1.0007   1.0116   1.0307   1.0590   1.0910   1.1328
     1.2039   1.2415   1.2458   1.2681   1.3206   1.3548   1.3983   1.4454
     1.4492   1.4637   1.5229   1.5380   1.5485   1.5655   1.5663   1.5880
     1.5932   1.6023   1.6146   1.7090   1.7704   1.8024   1.9315   1.9432
     1.9653   2.0970   2.1107   2.1207   2.1268   2.2135   2.2275   2.2480
     2.2625   2.2809   2.2968   2.3134   2.3287   2.3335   2.3446   2.3855
     2.4026   2.4133   2.4870   2.5121   2.5194   2.5448   2.5519   2.5994
     2.7277   2.7542   2.7826   2.8081   2.8582   2.8677   2.8753   2.9707
     3.0175   3.3576   3.5188   3.5548   3.9211   4.0866   4.0926   4.1038
     4.6311   4.7923   4.8168   4.9577   5.0108   5.0630   5.6545   6.1253
     6.2091   6.2319   6.4120   6.7220   6.9273   6.9801   7.0099   7.0200
     7.0518

          k = 0.2000-0.5774 0.0000 ( 43014 PWs)   bands (ev):

    -5.4067  -5.3274  -4.8628  -4.6418  -4.0874  -3.8742  -3.5497  -3.4942
    -3.4126  -3.3786  -3.2656  -3.2610  -3.1625  -3.1571  -3.0629  -3.0353
    -3.0222  -3.0020  -2.9990  -2.9821  -2.8598  -2.8304  -2.8223  -2.7934
    -2.7859  -2.7801  -2.6921  -2.6066  -2.5657  -2.4540  -2.4304  -2.4238
    -2.4157  -2.3935  -2.3469  -2.2941  -2.1833  -2.1767  -2.0642  -1.9961
    -1.9828  -1.9147  -1.8468  -1.8205  -1.7894  -1.7303  -1.6579  -1.6214
    -1.5887  -1.5662  -1.5463  -1.5159  -1.4948  -1.4522  -1.3854  -1.3789
    -1.3581  -1.3534  -1.3426  -1.3313  -1.2737  -1.2688  -1.2546  -1.1433
    -1.1261  -1.0663  -1.0386  -0.9725  -0.9212  -0.9069  -0.8831  -0.8540
    -0.8259  -0.8185  -0.7635  -0.7516  -0.7226  -0.6958  -0.6629  -0.6132
    -0.5933  -0.5314  -0.5093  -0.4958  -0.4844  -0.4809  -0.4018  -0.3463
    -0.3052  -0.3009  -0.2831  -0.2537  -0.2224  -0.2181  -0.2139  -0.1815
    -0.1774  -0.1665  -0.1350  -0.0953  -0.0787  -0.0714  -0.0687  -0.0573
    -0.0524  -0.0328  -0.0012   0.0346   0.0469   0.2430   0.2638   0.3343
     0.3570   0.4440   0.4511   0.4675   0.4836   0.5114   0.5528   0.5669
     0.5697   0.5815   0.6457   0.6865   0.7018   0.7236   0.7662   0.7773
     0.8396   0.8535   0.8938   0.9766   1.0344   1.1035   1.1199   1.1397
     1.1926   1.2015   1.2328   1.2526   1.2658   1.2704   1.2883   1.3034
     1.4019   1.4326   1.4363   1.4830   1.4907   1.5117   1.5136   1.5422
     1.5518   1.6947   1.7324   1.7785   1.8391   1.8688   1.9485   1.9582
     2.0003   2.0689   2.0740   2.0906   2.1770   2.1858   2.2632   2.2760
     2.2948   2.3104   2.3129   2.3423   2.3590   2.3960   2.4686   2.4716
     2.4969   2.5142   2.5150   2.5252   2.5327   2.5998   2.7011   2.7292
     2.7397   2.7423   2.7471   2.8090   2.8524   2.9286   3.0331   3.8101
     3.8944   3.9274   4.0960   4.1474   4.2276   4.2709   4.2960   4.6521
     4.8650   4.9041   5.1070   5.3569   5.3701   5.4543   5.4934   5.6607
     5.7761   5.8478   5.8977   6.1657   6.2679   6.3350   6.8110   6.9592
     6.9877

          k = 0.2000-0.3464 0.0000 ( 43046 PWs)   bands (ev):

    -5.8918  -5.0174  -4.6350  -4.6205  -4.2780  -3.5519  -3.5471  -3.5443
    -3.5288  -3.4871  -3.4825  -3.4652  -3.3648  -3.3603  -3.1904  -2.9818
    -2.9681  -2.9643  -2.9633  -2.8992  -2.8745  -2.7474  -2.7308  -2.7152
    -2.7113  -2.6470  -2.6193  -2.5767  -2.5647  -2.5559  -2.4985  -2.4809
    -2.4608  -2.4134  -2.3978  -2.3154  -2.1688  -2.0589  -1.9741  -1.9655
    -1.9313  -1.9204  -1.9049  -1.8995  -1.8447  -1.8185  -1.7582  -1.6854
    -1.6697  -1.5872  -1.5521  -1.5396  -1.5001  -1.4886  -1.4124  -1.3934
    -1.3838  -1.2301  -1.2098  -1.1901  -1.1361  -1.1241  -1.0906  -1.0836
    -1.0676  -1.0148  -0.9818  -0.8527  -0.8466  -0.8434  -0.8293  -0.7941
    -0.7762  -0.7268  -0.7030  -0.6893  -0.6285  -0.5715  -0.5617  -0.5345
    -0.5201  -0.5100  -0.5047  -0.4678  -0.4499  -0.4413  -0.3926  -0.3825
    -0.3631  -0.3475  -0.2715  -0.2668  -0.2365  -0.2086  -0.1829  -0.1706
    -0.1522  -0.1241  -0.1066  -0.1004  -0.0952  -0.0893  -0.0748  -0.0580
    -0.0217  -0.0049   0.0849   0.1122   0.1454   0.2130   0.2288   0.2329
     0.2487   0.4230   0.4366   0.4927   0.5581   0.5745   0.6108   0.6197
     0.6408   0.6491   0.6852   0.6983   0.7273   0.7356   0.7551   0.8258
     0.9260   0.9806   1.0007   1.0116   1.0307   1.0590   1.0909   1.1327
     1.2038   1.2415   1.2458   1.2683   1.3206   1.3547   1.3984   1.4453
     1.4491   1.4637   1.5230   1.5381   1.5484   1.5656   1.5664   1.5880
     1.5933   1.6022   1.6148   1.7087   1.7704   1.8024   1.9315   1.9431
     1.9653   2.0971   2.1107   2.1207   2.1268   2.2134   2.2275   2.2481
     2.2626   2.2808   2.2968   2.3133   2.3286   2.3333   2.3444   2.3854
     2.4026   2.4136   2.4869   2.5120   2.5194   2.5448   2.5519   2.5993
     2.7279   2.7543   2.7829   2.8084   2.8582   2.8679   2.8753   2.9705
     3.0174   3.3576   3.5189   3.5546   3.9215   4.0867   4.0927   4.1039
     4.6310   4.7922   4.8167   4.9578   5.0109   5.0630   5.6547   6.1259
     6.2091   6.2319   6.4117   6.7215   6.9271   6.9800   7.0097   7.0200
     7.0519

          k = 0.4000-0.2309 0.0000 ( 43046 PWs)   bands (ev):

    -5.7570  -5.1534  -4.8647  -4.2628  -4.0180  -4.0047  -3.8024  -3.6362
    -3.4938  -3.3652  -3.2913  -3.2882  -3.2295  -3.1233  -3.0825  -3.0700
    -3.0677  -3.0562  -2.9144  -2.9026  -2.8950  -2.8558  -2.8486  -2.8076
    -2.7418  -2.7171  -2.7131  -2.5933  -2.4613  -2.4526  -2.4462  -2.4322
    -2.4312  -2.3261  -2.2064  -2.1950  -2.1754  -2.1453  -2.1432  -2.0382
    -1.9419  -1.8735  -1.8599  -1.8496  -1.8124  -1.7892  -1.7485  -1.7179
    -1.7130  -1.6789  -1.6450  -1.5183  -1.5073  -1.5004  -1.4700  -1.4059
    -1.3394  -1.3076  -1.2796  -1.2738  -1.2541  -1.1209  -1.0678  -1.0584
    -1.0572  -1.0359  -0.9515  -0.9347  -0.9155  -0.8237  -0.8106  -0.8078
    -0.7430  -0.6921  -0.6900  -0.6623  -0.6609  -0.6125  -0.5842  -0.5736
    -0.5626  -0.5571  -0.5457  -0.5383  -0.5307  -0.5045  -0.4076  -0.4026
    -0.3975  -0.3711  -0.3636  -0.3621  -0.3276  -0.2208  -0.2163  -0.1937
    -0.1553  -0.1371  -0.1161  -0.0897  -0.0719  -0.0622   0.0340   0.0479
     0.0851   0.1097   0.1400   0.1476   0.1757   0.3173   0.3471   0.4041
     0.4188   0.4764   0.5065   0.5164   0.5348   0.5390   0.5424   0.5826
     0.6094   0.6431   0.6549   0.6613   0.6870   0.7051   0.7127   0.7439
     0.7574   0.8538   0.8748   0.8941   0.9599   0.9971   1.0771   1.0777
     1.1881   1.1934   1.2424   1.2884   1.3563   1.3629   1.4033   1.4222
     1.4579   1.4612   1.4915   1.5180   1.5608   1.5723   1.6164   1.6687
     1.6717   1.7140   1.7256   1.7375   1.7469   1.8041   1.8873   1.9203
     1.9822   2.0082   2.0115   2.0301   2.0826   2.1272   2.1344   2.2090
     2.2210   2.2247   2.2378   2.2857   2.3219   2.3263   2.3433   2.4609
     2.4617   2.4813   2.4892   2.4950   2.4953   2.5207   2.5233   2.7029
     2.7294   2.7365   2.7419   2.7470   2.9029   2.9559   3.2275   3.3326
     3.3821   3.5763   3.7782   3.7849   4.0713   4.1657   4.2952   4.4823
     4.7905   4.9994   5.0022   5.1052   5.2148   5.2477   5.3706   5.3956
     5.5959   5.6517   6.2077   6.2894   6.7029   6.8127   7.2080   7.2972
     7.8082

          k = 0.4000-0.0000 0.0000 ( 43046 PWs)   bands (ev):

    -5.8919  -5.0176  -4.6351  -4.6206  -4.2780  -3.5522  -3.5477  -3.5443
    -3.5288  -3.4861  -3.4826  -3.4643  -3.3647  -3.3603  -3.1905  -2.9830
    -2.9688  -2.9643  -2.9631  -2.9003  -2.8742  -2.7473  -2.7305  -2.7154
    -2.7114  -2.6468  -2.6178  -2.5762  -2.5641  -2.5560  -2.4987  -2.4806
    -2.4614  -2.4133  -2.3975  -2.3170  -2.1682  -2.0587  -1.9737  -1.9649
    -1.9307  -1.9200  -1.9049  -1.8994  -1.8448  -1.8185  -1.7581  -1.6852
    -1.6694  -1.5871  -1.5521  -1.5396  -1.4998  -1.4889  -1.4127  -1.3932
    -1.3836  -1.2294  -1.2092  -1.1893  -1.1343  -1.1226  -1.0903  -1.0837
    -1.0668  -1.0148  -0.9817  -0.8530  -0.8479  -0.8438  -0.8303  -0.7939
    -0.7771  -0.7265  -0.7030  -0.6901  -0.6289  -0.5700  -0.5616  -0.5342
    -0.5200  -0.5095  -0.5051  -0.4683  -0.4509  -0.4404  -0.3940  -0.3833
    -0.3644  -0.3487  -0.2713  -0.2669  -0.2361  -0.2094  -0.1827  -0.1716
    -0.1531  -0.1232  -0.1068  -0.1002  -0.0952  -0.0889  -0.0748  -0.0580
    -0.0218  -0.0052   0.0849   0.1123   0.1457   0.2124   0.2280   0.2324
     0.2484   0.4234   0.4370   0.4923   0.5565   0.5747   0.6101   0.6188
     0.6412   0.6494   0.6858   0.6990   0.7275   0.7355   0.7548   0.8278
     0.9245   0.9801   1.0006   1.0114   1.0306   1.0590   1.0903   1.1324
     1.2038   1.2411   1.2457   1.2683   1.3204   1.3543   1.3982   1.4456
     1.4492   1.4635   1.5233   1.5386   1.5483   1.5663   1.5671   1.5879
     1.5937   1.6022   1.6158   1.7078   1.7705   1.8026   1.9311   1.9428
     1.9653   2.0972   2.1107   2.1209   2.1269   2.2130   2.2274   2.2487
     2.2632   2.2808   2.2966   2.3129   2.3281   2.3325   2.3435   2.3849
     2.4022   2.4155   2.4860   2.5118   2.5187   2.5449   2.5520   2.5989
     2.7296   2.7556   2.7844   2.8094   2.8583   2.8687   2.8753   2.9702
     3.0171   3.3567   3.5184   3.5541   3.9224   4.0877   4.0935   4.1046
     4.6309   4.7920   4.8163   4.9577   5.0111   5.0631   5.6551   6.1271
     6.2096   6.2330   6.4110   6.7205   6.9265   6.9797   7.0090   7.0198
     7.0523

          k = 0.4000 0.2309 0.0000 ( 43046 PWs)   bands (ev):

    -5.7569  -5.1532  -4.8647  -4.2628  -4.0180  -4.0047  -3.8024  -3.6361
    -3.4938  -3.3652  -3.2915  -3.2883  -3.2296  -3.1232  -3.0823  -3.0700
    -3.0676  -3.0561  -2.9144  -2.9026  -2.8950  -2.8558  -2.8485  -2.8075
    -2.7417  -2.7171  -2.7131  -2.5939  -2.4613  -2.4526  -2.4463  -2.4323
    -2.4313  -2.3263  -2.2065  -2.1951  -2.1755  -2.1454  -2.1433  -2.0383
    -1.9418  -1.8735  -1.8599  -1.8496  -1.8123  -1.7892  -1.7486  -1.7181
    -1.7129  -1.6789  -1.6450  -1.5183  -1.5074  -1.5005  -1.4701  -1.4058
    -1.3396  -1.3080  -1.2799  -1.2738  -1.2542  -1.1210  -1.0679  -1.0583
    -1.0572  -1.0358  -0.9513  -0.9352  -0.9152  -0.8236  -0.8103  -0.8071
    -0.7429  -0.6920  -0.6902  -0.6624  -0.6609  -0.6125  -0.5842  -0.5738
    -0.5628  -0.5572  -0.5454  -0.5383  -0.5309  -0.5046  -0.4080  -0.4025
    -0.3975  -0.3711  -0.3641  -0.3623  -0.3272  -0.2205  -0.2162  -0.1931
    -0.1549  -0.1370  -0.1163  -0.0897  -0.0713  -0.0617   0.0343   0.0479
     0.0850   0.1100   0.1400   0.1478   0.1757   0.3175   0.3468   0.4043
     0.4188   0.4766   0.5065   0.5166   0.5348   0.5385   0.5421   0.5827
     0.6094   0.6428   0.6550   0.6613   0.6871   0.7054   0.7131   0.7439
     0.7569   0.8539   0.8751   0.8942   0.9600   0.9971   1.0772   1.0779
     1.1881   1.1933   1.2421   1.2881   1.3564   1.3628   1.4037   1.4225
     1.4577   1.4611   1.4914   1.5180   1.5607   1.5721   1.6165   1.6685
     1.6716   1.7140   1.7255   1.7374   1.7469   1.8045   1.8875   1.9204
     1.9824   2.0083   2.0116   2.0300   2.0825   2.1272   2.1344   2.2089
     2.2212   2.2246   2.2379   2.2855   2.3221   2.3267   2.3432   2.4608
     2.4618   2.4812   2.4893   2.4948   2.4953   2.5204   2.5231   2.7028
     2.7291   2.7363   2.7416   2.7468   2.9030   2.9559   3.2273   3.3323
     3.3822   3.5766   3.7782   3.7849   4.0712   4.1657   4.2955   4.4818
     4.7900   4.9994   5.0023   5.1054   5.2149   5.2479   5.3702   5.3954
     5.5959   5.6517   6.2079   6.2891   6.7032   6.8129   7.2079   7.2973
     7.8078

          k = 0.4000-0.6928 0.0000 ( 43014 PWs)   bands (ev):

    -5.4070  -5.3275  -4.8626  -4.6418  -4.0875  -3.8742  -3.5505  -3.4945
    -3.4124  -3.3785  -3.2652  -3.2606  -3.1629  -3.1574  -3.0633  -3.0352
    -3.0222  -3.0017  -2.9991  -2.9816  -2.8606  -2.8307  -2.8222  -2.7938
    -2.7862  -2.7801  -2.6919  -2.6064  -2.5653  -2.4535  -2.4302  -2.4239
    -2.4157  -2.3925  -2.3466  -2.2939  -2.1827  -2.1761  -2.0639  -1.9970
    -1.9823  -1.9148  -1.8468  -1.8204  -1.7894  -1.7308  -1.6589  -1.6218
    -1.5890  -1.5658  -1.5456  -1.5139  -1.4941  -1.4518  -1.3850  -1.3789
    -1.3579  -1.3528  -1.3421  -1.3312  -1.2742  -1.2687  -1.2545  -1.1428
    -1.1262  -1.0661  -1.0381  -0.9727  -0.9190  -0.9080  -0.8842  -0.8538
    -0.8278  -0.8206  -0.7631  -0.7519  -0.7228  -0.6955  -0.6630  -0.6127
    -0.5924  -0.5329  -0.5081  -0.4947  -0.4844  -0.4803  -0.4020  -0.3486
    -0.3056  -0.2997  -0.2821  -0.2529  -0.2231  -0.2185  -0.2146  -0.1842
    -0.1781  -0.1676  -0.1362  -0.0909  -0.0793  -0.0722  -0.0705  -0.0574
    -0.0523  -0.0312  -0.0025   0.0339   0.0468   0.2422   0.2622   0.3344
     0.3572   0.4442   0.4510   0.4666   0.4846   0.5123   0.5526   0.5669
     0.5694   0.5832   0.6460   0.6870   0.7011   0.7232   0.7659   0.7782
     0.8395   0.8530   0.8920   0.9762   1.0343   1.1036   1.1206   1.1404
     1.1925   1.2013   1.2328   1.2526   1.2654   1.2705   1.2885   1.3037
     1.4023   1.4332   1.4369   1.4829   1.4907   1.5120   1.5136   1.5416
     1.5508   1.6950   1.7309   1.7776   1.8391   1.8690   1.9491   1.9588
     2.0008   2.0689   2.0741   2.0910   2.1767   2.1856   2.2631   2.2750
     2.2944   2.3097   2.3122   2.3424   2.3595   2.3968   2.4687   2.4719
     2.4954   2.5142   2.5151   2.5250   2.5327   2.5997   2.7008   2.7301
     2.7408   2.7432   2.7485   2.8091   2.8537   2.9286   3.0327   3.8100
     3.8944   3.9272   4.0951   4.1481   4.2274   4.2707   4.2946   4.6537
     4.8653   4.9044   5.1076   5.3565   5.3702   5.4541   5.4933   5.6658
     5.7762   5.8473   5.8965   6.1663   6.2673   6.3342   6.8123   6.9573
     6.9858

          k = 0.4000-0.4619 0.0000 ( 43014 PWs)   bands (ev):

    -5.4071  -5.3276  -4.8624  -4.6421  -4.0874  -3.8740  -3.5507  -3.4946
    -3.4124  -3.3785  -3.2652  -3.2605  -3.1629  -3.1575  -3.0633  -3.0352
    -3.0222  -3.0017  -2.9991  -2.9815  -2.8606  -2.8308  -2.8221  -2.7939
    -2.7862  -2.7802  -2.6918  -2.6064  -2.5653  -2.4535  -2.4302  -2.4239
    -2.4157  -2.3923  -2.3465  -2.2938  -2.1826  -2.1761  -2.0638  -1.9971
    -1.9822  -1.9149  -1.8468  -1.8203  -1.7894  -1.7309  -1.6590  -1.6219
    -1.5891  -1.5657  -1.5455  -1.5135  -1.4940  -1.4516  -1.3850  -1.3790
    -1.3579  -1.3527  -1.3420  -1.3312  -1.2744  -1.2685  -1.2545  -1.1426
    -1.1262  -1.0661  -1.0381  -0.9727  -0.9186  -0.9081  -0.8844  -0.8538
    -0.8282  -0.8211  -0.7631  -0.7519  -0.7228  -0.6954  -0.6630  -0.6126
    -0.5922  -0.5332  -0.5079  -0.4944  -0.4843  -0.4802  -0.4022  -0.3491
    -0.3054  -0.2998  -0.2819  -0.2528  -0.2231  -0.2185  -0.2147  -0.1843
    -0.1786  -0.1679  -0.1364  -0.0901  -0.0795  -0.0724  -0.0708  -0.0574
    -0.0523  -0.0309  -0.0029   0.0339   0.0467   0.2420   0.2618   0.3344
     0.3572   0.4444   0.4511   0.4662   0.4849   0.5124   0.5526   0.5669
     0.5694   0.5835   0.6462   0.6870   0.7010   0.7231   0.7659   0.7784
     0.8395   0.8529   0.8915   0.9760   1.0343   1.1036   1.1206   1.1406
     1.1926   1.2012   1.2327   1.2526   1.2653   1.2705   1.2885   1.3038
     1.4024   1.4333   1.4370   1.4829   1.4907   1.5120   1.5136   1.5414
     1.5506   1.6952   1.7306   1.7775   1.8391   1.8691   1.9492   1.9589
     2.0010   2.0690   2.0741   2.0911   2.1766   2.1856   2.2630   2.2749
     2.2942   2.3096   2.3121   2.3424   2.3596   2.3969   2.4687   2.4718
     2.4952   2.5143   2.5151   2.5249   2.5328   2.5997   2.7008   2.7303
     2.7410   2.7434   2.7486   2.8091   2.8540   2.9286   3.0324   3.8102
     3.8944   3.9271   4.0950   4.1482   4.2276   4.2706   4.2945   4.6541
     4.8653   4.9044   5.1080   5.3565   5.3702   5.4540   5.4934   5.6669
     5.7762   5.8471   5.8963   6.1665   6.2670   6.3341   6.8126   6.9568
     6.9856

     the Fermi energy is     2.5135 ev

!    total energy              =  -27755.48938904 Ry
     total all-electron energy =  -1326642.254806 Ry
     estimated scf accuracy    <       0.00000088 Ry
     smearing contrib. (-TS)   =       0.00312089 Ry
     internal energy E=F+TS    =  -27755.49250993 Ry

     The total energy is F=E-TS. E is the sum of the following terms:
     one-electron contribution =  -20694.93798201 Ry
     hartree contribution      =   10654.60627568 Ry
     xc contribution           =    -890.73996009 Ry
     ewald contribution        =    8649.56323154 Ry
     one-center paw contrib.   =  -25473.98407504 Ry

     convergence has been achieved in  16 iterations

     negative rho (up, down):  3.155E-03 0.000E+00

     Forces acting on atoms (cartesian axes, Ry/au):

     atom    1 type  1   force =    -0.00019829   -0.00014888   -0.00301333
     atom    2 type  1   force =     0.00018884   -0.00014705   -0.00301948
     atom    3 type  1   force =     0.00001781    0.00057650   -0.00334041
     atom    4 type  1   force =     0.00000437    0.00018999   -0.00300746
     atom    5 type  1   force =    -0.00006041   -0.00007124   -0.00346757
     atom    6 type  1   force =     0.00008636   -0.00007771   -0.00345983
     atom    7 type  1   force =     0.00052869   -0.00035944   -0.00334189
     atom    8 type  1   force =     0.00001293    0.00002778   -0.00346223
     atom    9 type  1   force =    -0.00052971   -0.00036884   -0.00333439
     atom   10 type  1   force =    -0.00001386    0.00009524    0.00623937
     atom   11 type  1   force =    -0.00050541   -0.00071744    0.00328661
     atom   12 type  1   force =     0.00048598   -0.00070157    0.00328638
     atom   13 type  1   force =    -0.00097771    0.00006495    0.00327751
     atom   14 type  1   force =     0.00001290    0.00008881    0.00195312
     atom   15 type  1   force =     0.00093903    0.00005994    0.00328397
     atom   16 type  1   force =    -0.00045645    0.00092452    0.00328238
     atom   17 type  1   force =     0.00044118    0.00091046    0.00329089
     atom   18 type  1   force =    -0.00002981    0.00009367    0.00002732
     atom   19 type  1   force =    -0.00008602    0.00004811    0.00003302
     atom   20 type  1   force =     0.00005970    0.00003624    0.00001793
     atom   21 type  1   force =     0.00001123    0.00002299   -0.00002040
     atom   22 type  1   force =    -0.00002646   -0.00003833    0.00007532
     atom   23 type  1   force =     0.00002555    0.00000541    0.00000290
     atom   24 type  1   force =    -0.00001820   -0.00000523    0.00000528
     atom   25 type  1   force =     0.00002830    0.00002893    0.00006814
     atom   26 type  1   force =    -0.00000806   -0.00009320    0.00001032
     atom   27 type  1   force =    -0.00003654    0.00000764    0.00004984
     atom   28 type  1   force =    -0.00025851   -0.00020762    0.00004662
     atom   29 type  1   force =     0.00027265   -0.00021445    0.00006304
     atom   30 type  1   force =     0.00001329   -0.00009683    0.00019168
     atom   31 type  1   force =    -0.00000282    0.00035030    0.00001272
     atom   32 type  1   force =     0.00018379    0.00003929    0.00016711
     atom   33 type  1   force =    -0.00019307    0.00004783    0.00014821
     atom   34 type  1   force =    -0.00006360    0.00003431    0.00015877
     atom   35 type  1   force =     0.00000111   -0.00022044    0.00015774
     atom   36 type  1   force =     0.00005653    0.00000778    0.00015180
     atom   37 type  2   force =     0.00009469   -0.00019241    0.00017900
     The non-local contrib.  to forces
     atom    1 type  1   force =     0.00056894    0.00035001   -0.01803731
     atom    2 type  1   force =    -0.00058926    0.00035377   -0.01804299
     atom    3 type  1   force =     0.00000721   -0.00059833   -0.01859746
     atom    4 type  1   force =     0.00000026   -0.00066381   -0.01803570
     atom    5 type  1   force =     0.00008487    0.00006781   -0.01801123
     atom    6 type  1   force =    -0.00007277    0.00005906   -0.01800145
     atom    7 type  1   force =    -0.00051499    0.00030241   -0.01862259
     atom    8 type  1   force =     0.00000247   -0.00010156   -0.01800878
     atom    9 type  1   force =     0.00051055    0.00029956   -0.01860923
     atom   10 type  1   force =    -0.00001976    0.00011783    0.00001348
     atom   11 type  1   force =    -0.00068903    0.00072372    0.00007257
     atom   12 type  1   force =     0.00066566    0.00073822    0.00007417
     atom   13 type  1   force =     0.00016611   -0.00076363    0.00006194
     atom   14 type  1   force =     0.00000689    0.00012491   -0.00105913
     atom   15 type  1   force =    -0.00021119   -0.00077387    0.00007091
     atom   16 type  1   force =     0.00084891    0.00038705    0.00006017
     atom   17 type  1   force =    -0.00087635    0.00037311    0.00007206
     atom   18 type  1   force =    -0.00002188    0.00008657   -0.00030661
     atom   19 type  1   force =    -0.00141773    0.00082015    0.00275144
     atom   20 type  1   force =     0.00139835    0.00081308    0.00271754
     atom   21 type  1   force =     0.00000398    0.00107907    0.00245108
     atom   22 type  1   force =    -0.00003002    0.00204123    0.00035846
     atom   23 type  1   force =     0.00092107   -0.00049551    0.00246974
     atom   24 type  1   force =    -0.00092061   -0.00049759    0.00246708
     atom   25 type  1   force =    -0.00178545   -0.00098800    0.00036296
     atom   26 type  1   force =    -0.00000755   -0.00161737    0.00266935
     atom   27 type  1   force =     0.00177006   -0.00101013    0.00036654
     atom   28 type  1   force =     0.04114021    0.02367202    0.01388056
     atom   29 type  1   force =    -0.04123527    0.02369594    0.01413159
     atom   30 type  1   force =     0.00004014   -0.00045035    0.01533592
     atom   31 type  1   force =    -0.00003453   -0.04744754    0.01361457
     atom   32 type  1   force =    -0.00349818   -0.00221073    0.01804416
     atom   33 type  1   force =     0.00356693   -0.00224187    0.01804924
     atom   34 type  1   force =    -0.00024897    0.00005567    0.01532808
     atom   35 type  1   force =     0.00000452    0.00388454    0.01801889
     atom   36 type  1   force =     0.00028435    0.00002321    0.01531391
     atom   37 type  2   force =    -0.00007269    0.00013291   -0.01786422
     The ionic contribution  to forces
     atom    1 type  1   force =     0.00512187    0.00298863  -93.42606007
     atom    2 type  1   force =    -0.00511603    0.00301060  -93.42604417
     atom    3 type  1   force =    -0.00000768   -0.00366796  -93.43596159
     atom    4 type  1   force =     0.00002173   -0.00595799  -93.42607328
     atom    5 type  1   force =    -0.00798279   -0.00465602  -93.44072782
     atom    6 type  1   force =     0.00795981   -0.00466029  -93.44076861
     atom    7 type  1   force =    -0.00321467    0.00186456  -93.43604800
     atom    8 type  1   force =    -0.00001527    0.00922601  -93.44082071
     atom    9 type  1   force =     0.00322908    0.00188139  -93.43607511
     atom   10 type  1   force =     0.00002341    0.00114719  -31.48116640
     atom   11 type  1   force =    -0.06305298   -0.01253798  -31.55403322
     atom   12 type  1   force =     0.06261830   -0.01264716  -31.55415719
     atom   13 type  1   force =    -0.04361215   -0.04671620  -31.55451263
     atom   14 type  1   force =    -0.00029385    0.00072768  -31.63158729
     atom   15 type  1   force =     0.04346298   -0.04668996  -31.55476338
     atom   16 type  1   force =     0.01936661    0.06284819  -31.55467838
     atom   17 type  1   force =    -0.01976321    0.06300582  -31.55482546
     atom   18 type  1   force =    -0.00017433    0.00148332  -31.51497445
     atom   19 type  1   force =     0.11513954   -0.06687077   31.35662449
     atom   20 type  1   force =    -0.11517405   -0.06681883   31.35731335
     atom   21 type  1   force =    -0.00014051   -0.04634617   30.77069260
     atom   22 type  1   force =    -0.00008887    0.01006448   30.97306292
     atom   23 type  1   force =    -0.03979440    0.02371876   30.76896824
     atom   24 type  1   force =     0.03957262    0.02376663   30.76836217
     atom   25 type  1   force =    -0.00888697   -0.00426034   30.97201128
     atom   26 type  1   force =    -0.00014428    0.13337369   31.35661302
     atom   27 type  1   force =     0.00874219   -0.00419108   30.97222047
     atom   28 type  1   force =    -0.40993606   -0.24210971   92.72709589
     atom   29 type  1   force =     0.40845531   -0.23972222   92.72988190
     atom   30 type  1   force =     0.00015088    0.01388422   92.67718101
     atom   31 type  1   force =     0.00112390    0.47724559   92.72848572
     atom   32 type  1   force =    -0.06651397   -0.04222877   92.58996050
     atom   33 type  1   force =     0.06653130   -0.04214479   92.58834960
     atom   34 type  1   force =     0.01330882   -0.00637058   92.67825786
     atom   35 type  1   force =    -0.00003285    0.07945993   92.59022169
     atom   36 type  1   force =    -0.01321288   -0.00646720   92.67904591
     atom   37 type  2   force =     0.00232945   -0.00463271   11.57892915
     The local contribution  to forces
     atom    1 type  1   force =    -0.00589639   -0.00351226   93.42390649
     atom    2 type  1   force =     0.00593002   -0.00351346   93.42388210
     atom    3 type  1   force =    -0.00000670    0.00483588   93.43402569
     atom    4 type  1   force =     0.00001032    0.00680149   93.42390619
     atom    5 type  1   force =     0.00786680    0.00449730   93.43811311
     atom    6 type  1   force =    -0.00786114    0.00451812   93.43813478
     atom    7 type  1   force =     0.00425307   -0.00250243   93.43412900
     atom    8 type  1   force =     0.00001887   -0.00911413   93.43819388
     atom    9 type  1   force =    -0.00425457   -0.00249913   93.43411696
     atom   10 type  1   force =     0.00002191   -0.00118777   31.48719254
     atom   11 type  1   force =     0.06320524    0.01110547   31.55673267
     atom   12 type  1   force =    -0.06280499    0.01115884   31.55684789
     atom   13 type  1   force =     0.04247970    0.04750088   31.55724157
     atom   14 type  1   force =     0.00024024   -0.00079858   31.63384298
     atom   15 type  1   force =    -0.04226524    0.04749060   31.55743075
     atom   16 type  1   force =    -0.02068240   -0.06226127   31.55739195
     atom   17 type  1   force =     0.02105552   -0.06236735   31.55749010
     atom   18 type  1   force =     0.00019929   -0.00142210   31.51509367
     atom   19 type  1   force =    -0.11367028    0.06597820  -31.35614781
     atom   20 type  1   force =     0.11375892    0.06596851  -31.35683160
     atom   21 type  1   force =     0.00008774    0.04524535  -30.77046015
     atom   22 type  1   force =     0.00018041   -0.01192123  -30.97064075
     atom   23 type  1   force =     0.03884169   -0.02322342  -30.76872823
     atom   24 type  1   force =    -0.03870096   -0.02326154  -30.76808077
     atom   25 type  1   force =     0.01050643    0.00516048  -30.96962752
     atom   26 type  1   force =     0.00013274   -0.13167499  -31.35607719
     atom   27 type  1   force =    -0.01034400    0.00519016  -30.96983862
     atom   28 type  1   force =     0.36375391    0.21542083  -92.72846811
     atom   29 type  1   force =    -0.36218930    0.21305732  -92.73146740
     atom   30 type  1   force =    -0.00018815   -0.01342285  -92.67569537
     atom   31 type  1   force =    -0.00105946   -0.42386404  -92.72965391
     atom   32 type  1   force =     0.06951330    0.04405029  -92.59135149
     atom   33 type  1   force =    -0.06963202    0.04401935  -92.58969540
     atom   34 type  1   force =    -0.01303215    0.00630748  -92.67679699
     atom   35 type  1   force =     0.00002509   -0.08275652  -92.59154944
     atom   36 type  1   force =     0.01289679    0.00642336  -92.67752381
     atom   37 type  2   force =    -0.00215680    0.00430229  -11.56102281
     The core correction contribution to forces
     atom    1 type  1   force =    -0.00003210   -0.00001769    0.01727504
     atom    2 type  1   force =     0.00003177   -0.00001762    0.01727484
     atom    3 type  1   force =     0.00000010    0.00002096    0.01733960
     atom    4 type  1   force =    -0.00000027    0.00003860    0.01727515
     atom    5 type  1   force =     0.00000172    0.00000152    0.01728731
     atom    6 type  1   force =    -0.00000207    0.00000163    0.01728791
     atom    7 type  1   force =     0.00001765   -0.00000892    0.01733695
     atom    8 type  1   force =    -0.00000011   -0.00000093    0.01728719
     atom    9 type  1   force =    -0.00001737   -0.00000882    0.01733805
     atom   10 type  1   force =     0.00000005   -0.00000445    0.00095344
     atom   11 type  1   force =     0.00010011    0.00001141    0.00125240
     atom   12 type  1   force =    -0.00009875    0.00001203    0.00125230
     atom   13 type  1   force =     0.00006499    0.00007382    0.00125292
     atom   14 type  1   force =     0.00000059   -0.00000312    0.00148746
     atom   15 type  1   force =    -0.00006431    0.00007338    0.00125435
     atom   16 type  1   force =    -0.00003573   -0.00009938    0.00125435
     atom   17 type  1   force =     0.00003671   -0.00009929    0.00125605
     atom   18 type  1   force =     0.00000125   -0.00000663    0.00093204
     atom   19 type  1   force =    -0.00019158    0.00010891   -0.00246778
     atom   20 type  1   force =     0.00019317    0.00010876   -0.00246511
     atom   21 type  1   force =     0.00000077    0.00003740   -0.00194783
     atom   22 type  1   force =     0.00000104   -0.00019155   -0.00195108
     atom   23 type  1   force =     0.00003656   -0.00002683   -0.00194879
     atom   24 type  1   force =    -0.00003462   -0.00002686   -0.00195036
     atom   25 type  1   force =     0.00016623    0.00009042   -0.00194538
     atom   26 type  1   force =     0.00000148   -0.00022609   -0.00246358
     atom   27 type  1   force =    -0.00016589    0.00009103   -0.00194348
     atom   28 type  1   force =     0.00464622    0.00270904   -0.01243540
     atom   29 type  1   force =    -0.00460815    0.00267648   -0.01246481
     atom   30 type  1   force =    -0.00000220   -0.00008821   -0.01654761
     atom   31 type  1   force =    -0.00000847   -0.00542747   -0.01240631
     atom   32 type  1   force =     0.00079482    0.00046945   -0.01641530
     atom   33 type  1   force =    -0.00079543    0.00047057   -0.01641408
     atom   34 type  1   force =    -0.00007795    0.00004370   -0.01654527
     atom   35 type  1   force =     0.00000101   -0.00092280   -0.01641535
     atom   36 type  1   force =     0.00007775    0.00004609   -0.01654504
     atom   37 type  2   force =     0.00000000    0.00000000    0.00000000
     The Hubbard contrib.    to forces
     atom    1 type  1   force =     0.00000000    0.00000000    0.00000000
     atom    2 type  1   force =     0.00000000    0.00000000    0.00000000
     atom    3 type  1   force =     0.00000000    0.00000000    0.00000000
     atom    4 type  1   force =     0.00000000    0.00000000    0.00000000
     atom    5 type  1   force =     0.00000000    0.00000000    0.00000000
     atom    6 type  1   force =     0.00000000    0.00000000    0.00000000
     atom    7 type  1   force =     0.00000000    0.00000000    0.00000000
     atom    8 type  1   force =     0.00000000    0.00000000    0.00000000
     atom    9 type  1   force =     0.00000000    0.00000000    0.00000000
     atom   10 type  1   force =     0.00000000    0.00000000    0.00000000
     atom   11 type  1   force =     0.00000000    0.00000000    0.00000000
     atom   12 type  1   force =     0.00000000    0.00000000    0.00000000
     atom   13 type  1   force =     0.00000000    0.00000000    0.00000000
     atom   14 type  1   force =     0.00000000    0.00000000    0.00000000
     atom   15 type  1   force =     0.00000000    0.00000000    0.00000000
     atom   16 type  1   force =     0.00000000    0.00000000    0.00000000
     atom   17 type  1   force =     0.00000000    0.00000000    0.00000000
     atom   18 type  1   force =     0.00000000    0.00000000    0.00000000
     atom   19 type  1   force =     0.00000000    0.00000000    0.00000000
     atom   20 type  1   force =     0.00000000    0.00000000    0.00000000
     atom   21 type  1   force =     0.00000000    0.00000000    0.00000000
     atom   22 type  1   force =     0.00000000    0.00000000    0.00000000
     atom   23 type  1   force =     0.00000000    0.00000000    0.00000000
     atom   24 type  1   force =     0.00000000    0.00000000    0.00000000
     atom   25 type  1   force =     0.00000000    0.00000000    0.00000000
     atom   26 type  1   force =     0.00000000    0.00000000    0.00000000
     atom   27 type  1   force =     0.00000000    0.00000000    0.00000000
     atom   28 type  1   force =     0.00000000    0.00000000    0.00000000
     atom   29 type  1   force =     0.00000000    0.00000000    0.00000000
     atom   30 type  1   force =     0.00000000    0.00000000    0.00000000
     atom   31 type  1   force =     0.00000000    0.00000000    0.00000000
     atom   32 type  1   force =     0.00000000    0.00000000    0.00000000
     atom   33 type  1   force =     0.00000000    0.00000000    0.00000000
     atom   34 type  1   force =     0.00000000    0.00000000    0.00000000
     atom   35 type  1   force =     0.00000000    0.00000000    0.00000000
     atom   36 type  1   force =     0.00000000    0.00000000    0.00000000
     atom   37 type  2   force =     0.00000000    0.00000000    0.00000000
     The SCF correction term to forces
     atom    1 type  1   force =     0.00000000    0.00000000   -0.00000000
     atom    2 type  1   force =    -0.00000000    0.00000000   -0.00000000
     atom    3 type  1   force =     0.00000000   -0.00000000   -0.00000000
     atom    4 type  1   force =    -0.00000000   -0.00000000   -0.00000000
     atom    5 type  1   force =    -0.00000000    0.00000000   -0.00000000
     atom    6 type  1   force =     0.00000000    0.00000000   -0.00000000
     atom    7 type  1   force =    -0.00000000   -0.00000000   -0.00000000
     atom    8 type  1   force =     0.00000000    0.00000000   -0.00000000
     atom    9 type  1   force =     0.00000000   -0.00000000   -0.00000000
     atom   10 type  1   force =    -0.00000000    0.00000000   -0.00000000
     atom   11 type  1   force =    -0.00000000   -0.00000000   -0.00000000
     atom   12 type  1   force =     0.00000000    0.00000000   -0.00000000
     atom   13 type  1   force =    -0.00000000   -0.00000000   -0.00000000
     atom   14 type  1   force =     0.00000000    0.00000000   -0.00000000
     atom   15 type  1   force =     0.00000000   -0.00000000   -0.00000000
     atom   16 type  1   force =     0.00000000    0.00000000   -0.00000000
     atom   17 type  1   force =    -0.00000000   -0.00000000   -0.00000000
     atom   18 type  1   force =    -0.00000000   -0.00000000   -0.00000000
     atom   19 type  1   force =     0.00005445    0.00001108   -0.00086284
     atom   20 type  1   force =    -0.00011629   -0.00003583   -0.00085178
     atom   21 type  1   force =     0.00005966    0.00000679   -0.00089164
     atom   22 type  1   force =    -0.00008862   -0.00003182   -0.00088976
     atom   23 type  1   force =     0.00002104    0.00003186   -0.00089360
     atom   24 type  1   force =     0.00006578    0.00001358   -0.00092836
     atom   25 type  1   force =     0.00002848    0.00002581   -0.00086874
     atom   26 type  1   force =     0.00000996    0.00005101   -0.00086682
     atom   27 type  1   force =    -0.00003848   -0.00007289   -0.00089061
     atom   28 type  1   force =     0.00013762    0.00009964   -0.00016185
     atom   29 type  1   force =    -0.00014954    0.00007748   -0.00015378
     atom   30 type  1   force =     0.00001304   -0.00002018   -0.00021780
     atom   31 type  1   force =    -0.00002385   -0.00015681   -0.00016288
     atom   32 type  1   force =    -0.00011177   -0.00004150   -0.00020629
     atom   33 type  1   force =     0.00013655   -0.00005599   -0.00027668
     atom   34 type  1   force =    -0.00001293   -0.00000251   -0.00022045
     atom   35 type  1   force =     0.00000376    0.00011387   -0.00025358
     atom   36 type  1   force =     0.00001094   -0.00001823   -0.00027470
     atom   37 type  2   force =    -0.00000486    0.00000455    0.00000135

     Total force =     0.000885     Total SCF correction =     0.002762
     SCF correction compared to forces is large: reduce conv_thr to get better values

     Writing all to output data dir ./pwscf.save/

     init_run     :     10.23s CPU     10.57s WALL (       1 calls)
     electrons    :    274.34s CPU    286.14s WALL (       1 calls)
     forces       :      3.48s CPU      4.16s WALL (       1 calls)

     Called by init_run:
     wfcinit      :      5.74s CPU      5.93s WALL (       1 calls)
     potinit      :      3.09s CPU      3.18s WALL (       1 calls)
     hinit0       :      0.80s CPU      0.82s WALL (       1 calls)

     Called by electrons:
     c_bands      :    233.35s CPU    240.85s WALL (      17 calls)
     sum_band     :     25.70s CPU     26.72s WALL (      17 calls)
     v_of_rho     :      7.91s CPU      9.96s WALL (      17 calls)
     newd         :      2.61s CPU      3.41s WALL (      17 calls)
     PAW_pot      :      3.82s CPU      4.05s WALL (      17 calls)
     mix_rho      :      3.10s CPU      3.17s WALL (      17 calls)
     vdW_kernel   :      1.74s CPU      1.75s WALL (       1 calls)

     Called by c_bands:
     init_us_2    :      2.55s CPU      2.60s WALL (     468 calls)
     init_us_2:cp :      2.55s CPU      2.60s WALL (     468 calls)
     cegterg      :    227.19s CPU    234.49s WALL (     221 calls)

     Called by *egterg:
     cdiaghg      :     61.94s CPU     63.42s WALL (    1177 calls)
     h_psi        :    104.18s CPU    108.06s WALL (    1203 calls)
     s_psi        :     13.97s CPU     14.30s WALL (    1203 calls)
     g_psi        :      0.42s CPU      0.43s WALL (     969 calls)

     Called by h_psi:
     h_psi:calbec :     16.72s CPU     17.69s WALL (    1203 calls)
     vloc_psi     :     72.04s CPU     74.59s WALL (    1203 calls)
     add_vuspsi   :     14.35s CPU     14.70s WALL (    1203 calls)

     General routines
     calbec       :     23.36s CPU     24.53s WALL (    1476 calls)
     fft          :      4.56s CPU      6.79s WALL (    1131 calls)
     ffts         :      1.92s CPU      1.95s WALL (    3903 calls)
     fftw         :     67.74s CPU     70.04s WALL (  289835 calls)
     interpolate  :      0.59s CPU      0.62s WALL (      17 calls)

     Parallel routines

     PWSCF        :   4m50.00s CPU   5m 5.62s WALL


   This run was terminated on:  19:12:37  21Feb2025            

=------------------------------------------------------------------------------=
   JOB DONE.
=------------------------------------------------------------------------------=
