
     Program PWSCF v.7.1 starts on 31Oct2025 at 20:20:41 
        Git branch: heads/qe-7.1
        Last git commit: 48ba0178f8fede6d020eb786884699a9f063f55d-dirty
        Last git commit date: Fri Jan 27 14:22:33 2023 +0000
        Last git commit subject: Merge branch 'fix_hubbard' into 'develop'

     This program is part of the open-source Quantum ESPRESSO suite
     for quantum simulation of materials; please cite
         "P. Giannozzi et al., J. Phys.:Condens. Matter 21 395502 (2009);
         "P. Giannozzi et al., J. Phys.:Condens. Matter 29 465901 (2017);
         "P. Giannozzi et al., J. Chem. Phys. 152 154105 (2020);
          URL http://www.quantum-espresso.org", 
     in publications or presentations arising from this work. More details at
     http://www.quantum-espresso.org/quote

     Parallel version (MPI), running on    48 processors

     MPI processes distributed on     1 nodes
     171904 MiB available memory on the printing compute node when the environment starts

     Reading input from espresso.pwi
Warning: card &CELL ignored
Warning: card / ignored
Warning: card &FCP ignored
Warning: card / ignored
Warning: card &RISM ignored
Warning: card / ignored

     Current dimensions of program PWSCF are:
     Max number of different atomic species (ntypx) = 10
     Max number of k-points (npk) =  40000
     Max angular momentum in pseudopotentials (lmaxx) =  4
     file Pt.pbe-n-kjpaw_psl.1.0.0.UPF: wavefunction(s)  6S 5D renormalized
     file H.pbe-kjpaw_psl.1.0.0.UPF: wavefunction(s)  1S renormalized

     **************************************************************************
     Initializing libbeef V0.1.2 with the BEEF-vdW functional.
     Citation: Wellendorff et al., PRB 85, 235149 (2012).
     **************************************************************************


     IMPORTANT: XC functional enforced from input :
     Exchange-correlation= BEEF-VDW
                           (   1   4  43  14   2   0   0)
     Any further DFT definition will be discarded
     Please, verify this is what you really want


     R & G space division:  proc/nbgrp/npool/nimage =      48
     Subspace diagonalization in iterative solution of the eigenvalue problem:
     one sub-group per band group will be used
     custom distributed-memory algorithm (size of sub-group:  2*  2 procs)


     Parallelization info
     --------------------
     sticks:   dense  smooth     PW     G-vecs:    dense   smooth      PW
     Min         151      59     16                29407     7165    1028
     Max         152      60     17                29420     7176    1042
     Sum        7267    2839    769              1411785   344073   49691

     Using Slab Decomposition



     bravais-lattice index     =            0
     lattice parameter (alat)  =      16.0349  a.u.
     unit-cell volume          =   10068.6169 (a.u.)^3
     number of atoms/cell      =           37
     number of atomic types    =            2
     number of electrons       =       361.00
     number of Kohn-Sham states=          217
     kinetic-energy cutoff     =      40.0000  Ry
     charge density cutoff     =     410.0000  Ry
     scf convergence threshold =      1.0E-06
     mixing beta               =       0.7000
     number of iterations used =            8  local-TF  mixing
     Exchange-correlation= BEEF-VDW
                           (   1   4  43  14   2   0   0)

     celldm(1)=  16.034858  celldm(2)=   0.000000  celldm(3)=   0.000000
     celldm(4)=   0.000000  celldm(5)=   0.000000  celldm(6)=   0.000000

     crystal axes: (cart. coord. in units of alat)
               a(1) = (   1.000000   0.000000   0.000000 )  
               a(2) = (   0.500000   0.866025   0.000000 )  
               a(3) = (   0.000000   0.000000   2.819966 )  

     reciprocal axes: (cart. coord. in units 2 pi/alat)
               b(1) = (  1.000000 -0.577350  0.000000 )  
               b(2) = (  0.000000  1.154701  0.000000 )  
               b(3) = (  0.000000  0.000000  0.354614 )  


     PseudoPot. # 1 for Pt read from file:
     /users/kbadger1/espresso/pseudo/pslibrary.1.0.0/pbe/PSEUDOPOTENTIALS/Pt.pbe-n-kjpaw_psl.1.0.0.UPF
     MD5 check sum: 2e24a0b5bf98a4ed1a57fa81bca8c143
     Pseudo is Projector augmented-wave + core cor, Zval = 10.0
     Generated using 'atomic' code by A. Dal Corso  v.7.0
     Shape of augmentation charge: PSQ
     Using radial grid of 1277 points,  6 beta functions with: 
                l(1) =   0
                l(2) =   0
                l(3) =   1
                l(4) =   1
                l(5) =   2
                l(6) =   2
     Q(r) pseudized with 0 coefficients 


     PseudoPot. # 2 for H  read from file:
     /users/kbadger1/espresso/pseudo/pslibrary.1.0.0/pbe/PSEUDOPOTENTIALS/H.pbe-kjpaw_psl.1.0.0.UPF
     MD5 check sum: fe4c6fa958fa6d3815bf5d2419cbf1df
     Pseudo is Projector augmented-wave, Zval =  1.0
     Generated using 'atomic' code by A. Dal Corso  v.7.0
     Shape of augmentation charge: PSQ
     Using radial grid of  929 points,  2 beta functions with: 
                l(1) =   0
                l(2) =   0
     Q(r) pseudized with 0 coefficients 


     atomic species   valence    mass     pseudopotential
        Pt            10.00   195.08400     Pt( 1.00)
        H              1.00     1.00800     H ( 1.00)

     No symmetry found



   Cartesian axes

     site n.     atom                  positions (alat units)
         1           Pt  tau(   1) = (   0.0000000   0.0000000   1.0017346  )
         2           Pt  tau(   2) = (   0.3333333   0.0000000   1.0017346  )
         3           Pt  tau(   3) = (   0.6666667   0.0000000   1.0017346  )
         4           Pt  tau(   4) = (   0.1666667   0.2886751   1.0017346  )
         5           Pt  tau(   5) = (   0.5000000   0.2886751   1.0017346  )
         6           Pt  tau(   6) = (   0.8333333   0.2886751   1.0017346  )
         7           Pt  tau(   7) = (   0.3333333   0.5773503   1.0017346  )
         8           Pt  tau(   8) = (   0.6666667   0.5773503   1.0017346  )
         9           Pt  tau(   9) = (   1.0000000   0.5773503   1.0017346  )
        10           Pt  tau(  10) = (   0.1666667   0.0962250   1.2739001  )
        11           Pt  tau(  11) = (   0.5000000   0.0962250   1.2739001  )
        12           Pt  tau(  12) = (   0.8333333   0.0962250   1.2739001  )
        13           Pt  tau(  13) = (   0.3333333   0.3849002   1.2739001  )
        14           Pt  tau(  14) = (   0.6666667   0.3849002   1.2739001  )
        15           Pt  tau(  15) = (   1.0000000   0.3849002   1.2739001  )
        16           Pt  tau(  16) = (   0.5000000   0.6735753   1.2739001  )
        17           Pt  tau(  17) = (   0.8333333   0.6735753   1.2739001  )
        18           Pt  tau(  18) = (   1.1666667   0.6735753   1.2739001  )
        19           Pt  tau(  19) = (   0.0002980   0.1926267   1.5462878  )
        20           Pt  tau(  20) = (   0.3329019   0.1926212   1.5462837  )
        21           Pt  tau(  21) = (   0.6666049   0.1925814   1.5433996  )
        22           Pt  tau(  22) = (   0.1665999   0.4808092   1.5448379  )
        23           Pt  tau(  23) = (   0.4997604   0.4815984   1.5434046  )
        24           Pt  tau(  24) = (   0.8334539   0.4816034   1.5434085  )
        25           Pt  tau(  25) = (   0.3338697   0.7705193   1.5448406  )
        26           Pt  tau(  26) = (   0.6665992   0.7705821   1.5462584  )
        27           Pt  tau(  27) = (   0.9993332   0.7705113   1.5448454  )
        28           Pt  tau(  28) = (  -0.0043700  -0.0018213   1.8247176  )
        29           Pt  tau(  29) = (   0.3374850  -0.0018275   1.8247158  )
        30           Pt  tau(  30) = (   0.6665563   0.0008180   1.8195288  )
        31           Pt  tau(  31) = (   0.1665531   0.2942473   1.8247611  )
        32           Pt  tau(  32) = (   0.5015655   0.2902972   1.8185244  )
        33           Pt  tau(  33) = (   0.8315475   0.2902969   1.8185199  )
        34           Pt  tau(  34) = (   0.3333709   0.5779077   1.8194876  )
        35           Pt  tau(  35) = (   0.6665569   0.5760754   1.8185347  )
        36           Pt  tau(  36) = (   0.9997365   0.5779035   1.8195090  )
        37           H   tau(  37) = (   0.1665625   0.0967894   1.9230925  )

     number of k points=    13  Marzari-Vanderbilt smearing, width (Ry)=  0.0010
                       cart. coord. in units 2pi/alat
        k(    1) = (   0.0000000   0.0000000   0.0000000), wk =   0.0800000
        k(    2) = (   0.0000000   0.2309401   0.0000000), wk =   0.1600000
        k(    3) = (   0.0000000   0.4618802   0.0000000), wk =   0.1600000
        k(    4) = (   0.2000000  -0.1154701   0.0000000), wk =   0.1600000
        k(    5) = (   0.2000000   0.1154701   0.0000000), wk =   0.1600000
        k(    6) = (   0.2000000   0.3464102   0.0000000), wk =   0.1600000
        k(    7) = (   0.2000000  -0.5773503   0.0000000), wk =   0.1600000
        k(    8) = (   0.2000000  -0.3464102   0.0000000), wk =   0.1600000
        k(    9) = (   0.4000000  -0.2309401   0.0000000), wk =   0.1600000
        k(   10) = (   0.4000000  -0.0000000   0.0000000), wk =   0.1600000
        k(   11) = (   0.4000000   0.2309401   0.0000000), wk =   0.1600000
        k(   12) = (   0.4000000  -0.6928203   0.0000000), wk =   0.1600000
        k(   13) = (   0.4000000  -0.4618802   0.0000000), wk =   0.1600000

     Dense  grid:  1411785 G-vectors     FFT dimensions: ( 108, 108, 300)

     Smooth grid:   344073 G-vectors     FFT dimensions: (  72,  72, 192)

     Estimated max dynamical RAM per process >     203.68 MB

     Estimated total dynamical RAM >       9.55 GB

     Initial potential from superposition of free atoms

     starting charge     360.9939, renormalised to     361.0000

     negative rho (up, down):  3.364E-03 0.000E+00


     %%%%%%%%%%%%%%%%%%%%%%%%%%%%%%%%%%%%%%%%%%%%%%%%%%%%%%%%%%%%%%%%%%%%%%%%
     %                                                                      %
     % You are using vdW-DF, which was implemented by the Thonhauser group. %
     % Please cite the following two papers that made this development      %
     % possible and the two reviews that describe the various versions:     %
     %                                                                      %
     %   T. Thonhauser et al., PRL 115, 136402 (2015).                      %
     %   T. Thonhauser et al., PRB 76, 125112 (2007).                       %
     %   K. Berland et al., Rep. Prog. Phys. 78, 066501 (2015).             %
     %   D.C. Langreth et al., J. Phys.: Condens. Matter 21, 084203 (2009). %
     %                                                                      %
     % If you are calculating stress with vdW-DF, please also cite:         %
     %                                                                      %
     %   R. Sabatini et al., J. Phys.: Condens. Matter 24, 424209 (2012).   %
     %                                                                      %
     %%%%%%%%%%%%%%%%%%%%%%%%%%%%%%%%%%%%%%%%%%%%%%%%%%%%%%%%%%%%%%%%%%%%%%%%

     %%%%%%%%%%%%%%%%%%%%%%%%%%%%%%%%%%%%%%%%%%%%%%%%%%%%%%%%%%%%%%%%%%%%%%%%
     %                                                                      %
     %  vdW-DF NEWS:                                                        %
     %                                                                      %
     %  * vdW-DF3 is now available. DOI: 10.1021/acs.jctc.0c00471           %
     %    use with input_dft = 'vdW-DF3-opt1' or 'vdW-DF3-opt2'             %
     %                                                                      %
     %  * Unscreened and range-separated hybrid vdW-DF-cx functionals       %
     %    DOI: 10.1063/1.4986522 and 10.1088/1361-648X/ac2ad2               %
     %    use with input_dft = 'vdW-DF-cx0'    and 'vdW-DF-ahcx'            %
     %  * Unscreened and range-separated hybrid vdW-DF2-b86r functionals    %
     %    DOI: 10.1063/1.4986522 and DOI: 10.1103/PhysRevX.12.041003        %
     %    use with input_dft = 'vdW-DF2-br0' and 'vdW-DF2-ahbr'             %
     %                                                                      %
     %%%%%%%%%%%%%%%%%%%%%%%%%%%%%%%%%%%%%%%%%%%%%%%%%%%%%%%%%%%%%%%%%%%%%%%%


     Starting wfcs are  325 randomized atomic wfcs
     Checking if some PAW data can be deallocated... 

     total cpu time spent up to now is       10.7 secs

     per-process dynamical memory:   207.6 Mb

     Self-consistent Calculation

     iteration #  1     ecut=    40.00 Ry     beta= 0.70
     Davidson diagonalization with overlap
     ethr =  1.00E-02,  avg # of iterations =  2.0

     Threshold (ethr) on eigenvalues was too large:
     Diagonalizing with lowered threshold

     Davidson diagonalization with overlap
     ethr =  3.41E-04,  avg # of iterations =  3.6

     negative rho (up, down):  1.671E-02 0.000E+00

     total cpu time spent up to now is       41.3 secs

     total energy              =  -27755.30248616 Ry
     estimated scf accuracy    <       1.42259924 Ry

     iteration #  2     ecut=    40.00 Ry     beta= 0.70
     Davidson diagonalization with overlap
     ethr =  3.94E-04,  avg # of iterations =  2.0

     negative rho (up, down):  1.498E-02 0.000E+00

     total cpu time spent up to now is       53.8 secs

     total energy              =  -27755.38738678 Ry
     estimated scf accuracy    <       0.71625121 Ry

     iteration #  3     ecut=    40.00 Ry     beta= 0.70
     Davidson diagonalization with overlap
     ethr =  1.98E-04,  avg # of iterations =  2.0

     negative rho (up, down):  1.019E-02 0.000E+00

     total cpu time spent up to now is       66.4 secs

     total energy              =  -27755.43274852 Ry
     estimated scf accuracy    <       0.13126712 Ry

     iteration #  4     ecut=    40.00 Ry     beta= 0.70
     Davidson diagonalization with overlap
     c_bands:  1 eigenvalues not converged
     c_bands:  1 eigenvalues not converged
     c_bands:  1 eigenvalues not converged
     ethr =  3.64E-05,  avg # of iterations = 12.0

     negative rho (up, down):  7.687E-03 0.000E+00

     total cpu time spent up to now is       96.4 secs

     total energy              =  -27755.47875776 Ry
     estimated scf accuracy    <       0.14231743 Ry

     iteration #  5     ecut=    40.00 Ry     beta= 0.70
     Davidson diagonalization with overlap
     ethr =  3.64E-05,  avg # of iterations =  2.7

     negative rho (up, down):  2.897E-03 0.000E+00

     total cpu time spent up to now is      109.6 secs

     total energy              =  -27755.48048670 Ry
     estimated scf accuracy    <       0.03897182 Ry

     iteration #  6     ecut=    40.00 Ry     beta= 0.70
     Davidson diagonalization with overlap
     c_bands:  1 eigenvalues not converged
     c_bands:  1 eigenvalues not converged
     c_bands:  1 eigenvalues not converged
     ethr =  1.08E-05,  avg # of iterations =  6.5

     negative rho (up, down):  1.822E-03 0.000E+00

     total cpu time spent up to now is      124.2 secs

     total energy              =  -27755.48423182 Ry
     estimated scf accuracy    <       0.00498642 Ry

     iteration #  7     ecut=    40.00 Ry     beta= 0.70
     Davidson diagonalization with overlap
     c_bands:  2 eigenvalues not converged
     c_bands:  2 eigenvalues not converged
     c_bands:  1 eigenvalues not converged
     c_bands:  1 eigenvalues not converged
     c_bands:  1 eigenvalues not converged
     ethr =  1.38E-06,  avg # of iterations = 17.2

     negative rho (up, down):  1.373E-03 0.000E+00

     total cpu time spent up to now is      154.2 secs

     total energy              =  -27755.48566222 Ry
     estimated scf accuracy    <       0.00236880 Ry

     iteration #  8     ecut=    40.00 Ry     beta= 0.70
     Davidson diagonalization with overlap
     ethr =  6.56E-07,  avg # of iterations =  3.2

     negative rho (up, down):  1.190E-03 0.000E+00

     total cpu time spent up to now is      167.4 secs

     total energy              =  -27755.48593623 Ry
     estimated scf accuracy    <       0.00041608 Ry

     iteration #  9     ecut=    40.00 Ry     beta= 0.70
     Davidson diagonalization with overlap
     ethr =  1.15E-07,  avg # of iterations =  4.0

     negative rho (up, down):  9.066E-04 0.000E+00

     total cpu time spent up to now is      187.3 secs

     total energy              =  -27755.48602204 Ry
     estimated scf accuracy    <       0.00036734 Ry

     iteration # 10     ecut=    40.00 Ry     beta= 0.70
     Davidson diagonalization with overlap
     ethr =  1.02E-07,  avg # of iterations =  2.4

     negative rho (up, down):  9.435E-04 0.000E+00

     total cpu time spent up to now is      202.0 secs

     total energy              =  -27755.48605575 Ry
     estimated scf accuracy    <       0.00005295 Ry

     iteration # 11     ecut=    40.00 Ry     beta= 0.70
     Davidson diagonalization with overlap
     ethr =  1.47E-08,  avg # of iterations =  4.0

     negative rho (up, down):  9.684E-04 0.000E+00

     total cpu time spent up to now is      220.2 secs

     total energy              =  -27755.48607348 Ry
     estimated scf accuracy    <       0.00007134 Ry

     iteration # 12     ecut=    40.00 Ry     beta= 0.70
     Davidson diagonalization with overlap
     ethr =  1.47E-08,  avg # of iterations =  1.3

     negative rho (up, down):  1.071E-03 0.000E+00

     total cpu time spent up to now is      232.6 secs

     total energy              =  -27755.48607915 Ry
     estimated scf accuracy    <       0.00002983 Ry

     iteration # 13     ecut=    40.00 Ry     beta= 0.70
     Davidson diagonalization with overlap
     ethr =  8.26E-09,  avg # of iterations =  1.0

     negative rho (up, down):  1.540E-03 0.000E+00

     total cpu time spent up to now is      243.4 secs

     total energy              =  -27755.48608605 Ry
     estimated scf accuracy    <       0.00002504 Ry

     iteration # 14     ecut=    40.00 Ry     beta= 0.70
     Davidson diagonalization with overlap
     ethr =  6.94E-09,  avg # of iterations =  1.5

     negative rho (up, down):  2.016E-03 0.000E+00

     total cpu time spent up to now is      257.3 secs

     total energy              =  -27755.48608613 Ry
     estimated scf accuracy    <       0.00001341 Ry

     iteration # 15     ecut=    40.00 Ry     beta= 0.70
     Davidson diagonalization with overlap
     ethr =  3.71E-09,  avg # of iterations =  2.2

     negative rho (up, down):  2.255E-03 0.000E+00

     total cpu time spent up to now is      269.5 secs

     total energy              =  -27755.48608571 Ry
     estimated scf accuracy    <       0.00000502 Ry

     iteration # 16     ecut=    40.00 Ry     beta= 0.70
     Davidson diagonalization with overlap
     ethr =  1.39E-09,  avg # of iterations =  2.0

     negative rho (up, down):  2.489E-03 0.000E+00

     total cpu time spent up to now is      281.9 secs

     total energy              =  -27755.48608526 Ry
     estimated scf accuracy    <       0.00000350 Ry

     iteration # 17     ecut=    40.00 Ry     beta= 0.70
     Davidson diagonalization with overlap
     ethr =  9.71E-10,  avg # of iterations =  1.0

     negative rho (up, down):  3.156E-03 0.000E+00

     total cpu time spent up to now is      293.8 secs

     End of self-consistent calculation

          k = 0.0000 0.0000 0.0000 ( 42913 PWs)   bands (ev):

    -6.2948  -5.2706  -4.5499  -3.8893  -3.8534  -3.8522  -3.8464  -3.8240
    -3.8233  -3.8214  -3.5301  -3.3046  -3.3042  -3.2938  -3.2931  -3.2929
    -3.2083  -2.8584  -2.8583  -2.8327  -2.8326  -2.8231  -2.7345  -2.6157
    -2.6156  -2.6085  -2.6054  -2.6052  -2.5098  -2.4229  -2.4229  -2.4039
    -2.4038  -2.3911  -2.3534  -2.3417  -2.3349  -2.3348  -2.2961  -2.2960
    -1.9499  -1.7812  -1.7811  -1.7392  -1.7223  -1.7105  -1.7104  -1.6865
    -1.6865  -1.6784  -1.5371  -1.5370  -1.4321  -1.4289  -1.4286  -0.9773
    -0.9766  -0.9646  -0.9543  -0.9538  -0.9012  -0.8585  -0.7805  -0.7804
    -0.7729  -0.7728  -0.7618  -0.7485  -0.7380  -0.7093  -0.7090  -0.7057
    -0.6994  -0.6990  -0.6660  -0.6574  -0.6569  -0.5538  -0.5494  -0.5485
    -0.5381  -0.5371  -0.5366  -0.3423  -0.3385  -0.3377  -0.3220  -0.3201
    -0.3061  -0.3048  -0.2920  -0.2356  -0.2356  -0.1617  -0.1536  -0.1535
    -0.1223  -0.1222  -0.0979  -0.0917  -0.0272   0.0789   0.0811   0.0852
     0.0917   0.0956   0.0975   0.3210   0.5767   0.5772   0.5884   0.5985
     0.5987   0.6139   0.6162   0.6165   0.6330   0.6333   0.6477   0.7152
     0.7153   0.7832   0.8591   0.8595   0.8660   0.8664   0.8848   0.9891
     1.0009   1.0551   1.0553   1.0672   1.0740   1.3096   1.3098   1.3105
     1.3297   1.3298   1.3315   1.4000   1.4000   1.5429   1.5442   1.5615
     1.5655   1.5664   1.5687   1.6960   1.6991   1.7282   1.7286   1.7534
     1.7540   1.7585   1.7738   1.7746   1.7821   1.7830   1.7861   1.8533
     1.8734   1.8734   1.9138   1.9139   1.9316   1.9319   1.9412   1.9753
     1.9956   1.9956   2.0347   2.0348   2.0423   2.0423   2.0533   2.1191
     2.1312   2.1315   2.1430   2.1432   2.1459   2.2224   2.2381   2.2386
     2.2611   2.2618   2.2671   2.2756   2.4581   2.4618   2.5548   2.5556
     2.5572   2.5756   2.5761   2.5796   3.1486   3.4157   3.4291   3.4303
     3.4658   3.4671   3.4736   5.4907   5.7085   5.7098   5.7797   5.7810
     5.7845   7.3052   7.3057   7.3484   7.4004   7.4037   7.4048   7.5383
     7.6304

          k = 0.0000 0.2309 0.0000 ( 42996 PWs)   bands (ev):

    -6.1486  -5.1626  -4.4970  -4.3188  -3.9555  -3.9424  -3.7474  -3.6508
    -3.6066  -3.6024  -3.5114  -3.3850  -3.3469  -3.2322  -3.2251  -3.2221
    -3.1422  -2.9158  -2.8038  -2.8014  -2.7938  -2.7601  -2.7231  -2.6895
    -2.6656  -2.6266  -2.5998  -2.5964  -2.5269  -2.5007  -2.4939  -2.4253
    -2.4092  -2.3970  -2.3967  -2.2428  -2.2007  -2.1661  -2.1586  -2.1364
    -1.9561  -1.8928  -1.8883  -1.8354  -1.8071  -1.7907  -1.7808  -1.6816
    -1.6051  -1.5450  -1.5221  -1.5060  -1.4611  -1.4422  -1.3764  -1.2218
    -1.1287  -1.1226  -1.0760  -1.0669  -1.0347  -0.9767  -0.9583  -0.9499
    -0.9210  -0.9194  -0.8539  -0.8338  -0.7961  -0.7727  -0.7592  -0.7113
    -0.6724  -0.6625  -0.6585  -0.5784  -0.5739  -0.5610  -0.5277  -0.4872
    -0.4748  -0.4673  -0.4336  -0.4149  -0.3651  -0.3520  -0.3393  -0.3385
    -0.3161  -0.3082  -0.2605  -0.2357  -0.1950  -0.1915  -0.1753  -0.1681
    -0.1578  -0.1339  -0.0969  -0.0921  -0.0157   0.0345   0.0425   0.0772
     0.0861   0.0952   0.1037   0.1063   0.1483   0.1614   0.1690   0.1797
     0.4105   0.5132   0.5598   0.5846   0.5944   0.5981   0.6033   0.6440
     0.6519   0.7004   0.7857   0.8117   0.8903   0.9400   0.9421   0.9838
     1.0009   1.0031   1.0476   1.0603   1.0618   1.1461   1.1903   1.1944
     1.2032   1.2044   1.3621   1.3901   1.4116   1.4208   1.4366   1.4404
     1.4619   1.5305   1.5525   1.5788   1.5917   1.6042   1.6536   1.6651
     1.6785   1.6823   1.7715   1.7892   1.8195   1.8229   1.8626   1.9154
     1.9333   1.9691   1.9733   1.9881   2.0191   2.0360   2.0947   2.1005
     2.1623   2.1683   2.1853   2.1963   2.2193   2.2265   2.2283   2.2414
     2.2426   2.3075   2.3107   2.4463   2.4498   2.4669   2.4867   2.5057
     2.5074   2.5306   2.5569   2.5676   2.5792   2.6627   2.6769   2.7039
     2.7651   2.8670   2.8809   2.8926   2.9293   3.2757   3.3143   3.8520
     4.0326   4.0675   4.1764   4.9781   5.4098   5.4711   6.1449   6.2154
     6.2384   6.3096   6.5545   7.0193   7.1634   7.3533   7.5558   7.5713
     7.6340

          k = 0.0000 0.4619 0.0000 ( 43046 PWs)   bands (ev):

    -5.7305  -5.1301  -4.8561  -4.2583  -3.9886  -3.9768  -3.7960  -3.6099
    -3.4711  -3.3610  -3.2667  -3.2593  -3.2182  -3.1093  -3.0670  -3.0415
    -3.0383  -3.0279  -2.9028  -2.8679  -2.8638  -2.8217  -2.8168  -2.8094
    -2.7423  -2.6917  -2.6892  -2.5901  -2.4572  -2.4405  -2.4288  -2.4142
    -2.4131  -2.3146  -2.1899  -2.1819  -2.1745  -2.1377  -2.1351  -2.0306
    -1.9360  -1.8721  -1.8554  -1.8442  -1.8051  -1.7834  -1.7377  -1.7040
    -1.7019  -1.6729  -1.6416  -1.5103  -1.4856  -1.4806  -1.4667  -1.3978
    -1.3296  -1.2926  -1.2641  -1.2595  -1.2375  -1.1101  -1.0624  -1.0576
    -1.0522  -1.0315  -0.9409  -0.9388  -0.9074  -0.8270  -0.7950  -0.7917
    -0.7446  -0.6970  -0.6948  -0.6480  -0.6470  -0.6168  -0.5835  -0.5626
    -0.5583  -0.5448  -0.5325  -0.5212  -0.5035  -0.5006  -0.3976  -0.3892
    -0.3804  -0.3635  -0.3633  -0.3528  -0.3221  -0.2244  -0.1936  -0.1828
    -0.1536  -0.1368  -0.1184  -0.0927  -0.0654  -0.0512   0.0402   0.0419
     0.0961   0.1225   0.1394   0.1505   0.1682   0.3111   0.3432   0.3982
     0.4179   0.4680   0.5020   0.5207   0.5371   0.5413   0.5448   0.5806
     0.6013   0.6505   0.6513   0.6591   0.6829   0.7110   0.7210   0.7414
     0.7585   0.8501   0.8825   0.8908   0.9551   0.9984   1.0866   1.0880
     1.1891   1.1950   1.2481   1.2914   1.3603   1.3669   1.4052   1.4197
     1.4541   1.4567   1.4936   1.5194   1.5538   1.5652   1.6206   1.6699
     1.6727   1.7145   1.7252   1.7347   1.7436   1.8034   1.8857   1.9195
     1.9831   2.0027   2.0056   2.0322   2.0827   2.1189   2.1263   2.2069
     2.2177   2.2208   2.2346   2.2833   2.3169   2.3205   2.3400   2.4582
     2.4585   2.4759   2.4861   2.4896   2.4921   2.5132   2.5247   2.6980
     2.7252   2.7317   2.7364   2.7413   2.8907   2.9404   3.2206   3.3213
     3.3810   3.5711   3.7768   3.7836   4.0617   4.1562   4.2853   4.4725
     4.7811   5.0002   5.0039   5.0971   5.2051   5.2369   5.3494   5.3721
     5.5853   5.6422   6.1982   6.2811   6.6939   6.8029   7.1857   7.2727
     7.7963

          k = 0.2000-0.1155 0.0000 ( 42996 PWs)   bands (ev):

    -6.1487  -5.1626  -4.4972  -4.3196  -3.9549  -3.9417  -3.7474  -3.6524
    -3.6060  -3.6013  -3.5111  -3.3846  -3.3472  -3.2326  -3.2257  -3.2226
    -3.1424  -2.9148  -2.8040  -2.8014  -2.7945  -2.7604  -2.7228  -2.6893
    -2.6652  -2.6265  -2.6007  -2.5965  -2.5272  -2.4998  -2.4932  -2.4267
    -2.4092  -2.3969  -2.3965  -2.2428  -2.2008  -2.1659  -2.1588  -2.1349
    -1.9561  -1.8922  -1.8878  -1.8354  -1.8074  -1.7909  -1.7811  -1.6815
    -1.6046  -1.5449  -1.5221  -1.5058  -1.4613  -1.4424  -1.3764  -1.2200
    -1.1289  -1.1230  -1.0739  -1.0650  -1.0336  -0.9740  -0.9610  -0.9516
    -0.9212  -0.9208  -0.8541  -0.8337  -0.7945  -0.7722  -0.7586  -0.7118
    -0.6736  -0.6663  -0.6621  -0.5783  -0.5727  -0.5602  -0.5282  -0.4860
    -0.4714  -0.4644  -0.4363  -0.4149  -0.3659  -0.3526  -0.3391  -0.3384
    -0.3158  -0.3085  -0.2599  -0.2359  -0.1955  -0.1914  -0.1744  -0.1685
    -0.1578  -0.1340  -0.0984  -0.0930  -0.0157   0.0347   0.0427   0.0774
     0.0854   0.0945   0.1041   0.1053   0.1486   0.1618   0.1692   0.1796
     0.4124   0.5151   0.5595   0.5839   0.5930   0.5976   0.6035   0.6434
     0.6515   0.7005   0.7855   0.8105   0.8887   0.9392   0.9416   0.9877
     0.9972   1.0030   1.0471   1.0599   1.0612   1.1463   1.1898   1.1943
     1.2036   1.2052   1.3617   1.3901   1.4108   1.4208   1.4372   1.4409
     1.4628   1.5307   1.5528   1.5790   1.5919   1.6055   1.6542   1.6654
     1.6788   1.6825   1.7712   1.7890   1.8200   1.8237   1.8615   1.9151
     1.9332   1.9687   1.9729   1.9874   2.0173   2.0357   2.0947   2.1005
     2.1624   2.1686   2.1850   2.1963   2.2196   2.2263   2.2286   2.2411
     2.2435   2.3063   2.3093   2.4447   2.4494   2.4687   2.4869   2.5064
     2.5086   2.5319   2.5577   2.5695   2.5805   2.6625   2.6767   2.7038
     2.7649   2.8668   2.8822   2.8922   2.9275   3.2776   3.3165   3.8514
     4.0322   4.0668   4.1756   4.9761   5.4113   5.4728   6.1449   6.2153
     6.2384   6.3099   6.5536   7.0187   7.1631   7.3501   7.5564   7.5722
     7.6345

          k = 0.2000 0.1155 0.0000 ( 42996 PWs)   bands (ev):

    -6.1487  -5.1626  -4.4971  -4.3194  -3.9550  -3.9418  -3.7474  -3.6521
    -3.6062  -3.6015  -3.5111  -3.3847  -3.3472  -3.2325  -3.2256  -3.2225
    -3.1424  -2.9150  -2.8040  -2.8014  -2.7944  -2.7603  -2.7228  -2.6893
    -2.6653  -2.6265  -2.6007  -2.5963  -2.5272  -2.5000  -2.4933  -2.4264
    -2.4092  -2.3970  -2.3965  -2.2428  -2.2008  -2.1660  -2.1587  -2.1352
    -1.9561  -1.8923  -1.8879  -1.8354  -1.8074  -1.7909  -1.7811  -1.6815
    -1.6047  -1.5449  -1.5221  -1.5058  -1.4613  -1.4423  -1.3764  -1.2204
    -1.1289  -1.1229  -1.0743  -1.0653  -1.0338  -0.9745  -0.9605  -0.9512
    -0.9212  -0.9206  -0.8541  -0.8337  -0.7948  -0.7723  -0.7587  -0.7117
    -0.6733  -0.6657  -0.6615  -0.5783  -0.5729  -0.5603  -0.5281  -0.4863
    -0.4721  -0.4648  -0.4358  -0.4150  -0.3658  -0.3525  -0.3391  -0.3384
    -0.3159  -0.3084  -0.2600  -0.2359  -0.1953  -0.1915  -0.1746  -0.1684
    -0.1578  -0.1340  -0.0982  -0.0927  -0.0157   0.0347   0.0427   0.0774
     0.0855   0.0946   0.1040   0.1055   0.1485   0.1617   0.1692   0.1796
     0.4121   0.5147   0.5596   0.5840   0.5932   0.5978   0.6034   0.6435
     0.6516   0.7005   0.7856   0.8107   0.8890   0.9392   0.9418   0.9868
     0.9981   1.0031   1.0472   1.0600   1.0613   1.1463   1.1899   1.1944
     1.2034   1.2052   1.3618   1.3901   1.4109   1.4208   1.4371   1.4409
     1.4626   1.5307   1.5528   1.5790   1.5919   1.6052   1.6541   1.6654
     1.6787   1.6825   1.7712   1.7891   1.8198   1.8236   1.8617   1.9152
     1.9332   1.9688   1.9730   1.9875   2.0176   2.0358   2.0947   2.1005
     2.1624   2.1686   2.1851   2.1963   2.2195   2.2263   2.2286   2.2412
     2.2433   2.3065   2.3095   2.4450   2.4495   2.4683   2.4869   2.5062
     2.5085   2.5316   2.5576   2.5692   2.5802   2.6625   2.6767   2.7038
     2.7649   2.8668   2.8820   2.8923   2.9278   3.2772   3.3161   3.8515
     4.0323   4.0669   4.1758   4.9765   5.4110   5.4725   6.1449   6.2153
     6.2384   6.3098   6.5537   7.0188   7.1631   7.3507   7.5564   7.5720
     7.6342

          k = 0.2000 0.3464 0.0000 ( 43046 PWs)   bands (ev):

    -5.8656  -5.0114  -4.6080  -4.5966  -4.2705  -3.5397  -3.5297  -3.5207
    -3.5194  -3.4764  -3.4572  -3.4332  -3.3409  -3.3368  -3.1828  -2.9585
    -2.9444  -2.9347  -2.9322  -2.8618  -2.8426  -2.7354  -2.7150  -2.7131
    -2.6890  -2.6443  -2.5890  -2.5641  -2.5588  -2.5458  -2.4945  -2.4596
    -2.4540  -2.3973  -2.3815  -2.2875  -2.1598  -2.0572  -1.9750  -1.9689
    -1.9206  -1.9068  -1.8958  -1.8875  -1.8366  -1.8040  -1.7488  -1.6803
    -1.6661  -1.5658  -1.5345  -1.5249  -1.4877  -1.4807  -1.3996  -1.3803
    -1.3765  -1.2233  -1.1965  -1.1761  -1.1253  -1.1138  -1.0741  -1.0638
    -1.0581  -1.0064  -0.9785  -0.8527  -0.8439  -0.8370  -0.8228  -0.7973
    -0.7768  -0.7321  -0.6925  -0.6676  -0.6242  -0.5673  -0.5618  -0.5343
    -0.5109  -0.4857  -0.4749  -0.4641  -0.4398  -0.4256  -0.3928  -0.3816
    -0.3615  -0.3447  -0.2493  -0.2400  -0.2378  -0.2110  -0.1878  -0.1725
    -0.1535  -0.1268  -0.1061  -0.0968  -0.0862  -0.0801  -0.0775  -0.0629
    -0.0305  -0.0135   0.0749   0.1131   0.1456   0.2195   0.2329   0.2423
     0.2602   0.4345   0.4502   0.4912   0.5559   0.5634   0.6085   0.6170
     0.6427   0.6513   0.6899   0.7049   0.7294   0.7382   0.7503   0.8392
     0.9308   0.9793   0.9997   1.0087   1.0255   1.0520   1.0887   1.1351
     1.1970   1.2377   1.2431   1.2692   1.3261   1.3580   1.3983   1.4474
     1.4500   1.4639   1.5247   1.5427   1.5480   1.5673   1.5692   1.5821
     1.5917   1.6007   1.6111   1.7098   1.7672   1.7983   1.9325   1.9453
     1.9653   2.0946   2.1117   2.1215   2.1269   2.2107   2.2265   2.2442
     2.2573   2.2767   2.2922   2.3089   2.3237   2.3291   2.3405   2.3792
     2.3974   2.4085   2.4855   2.5077   2.5138   2.5380   2.5455   2.5984
     2.7249   2.7463   2.7735   2.8013   2.8529   2.8617   2.8700   2.9603
     3.0074   3.3524   3.5154   3.5518   3.9126   4.0784   4.0828   4.0935
     4.6200   4.7757   4.8024   4.9489   5.0119   5.0542   5.6444   6.1072
     6.2022   6.2116   6.4117   6.7095   6.9154   6.9673   7.0005   7.0099
     7.0376

          k = 0.2000-0.5774 0.0000 ( 43014 PWs)   bands (ev):

    -5.3807  -5.3013  -4.8484  -4.6211  -4.0853  -3.8691  -3.5301  -3.4821
    -3.3882  -3.3449  -3.2382  -3.2321  -3.1331  -3.1268  -3.0537  -3.0229
    -3.0008  -2.9926  -2.9651  -2.9450  -2.8410  -2.8041  -2.7960  -2.7829
    -2.7546  -2.7484  -2.6983  -2.6064  -2.5529  -2.4505  -2.4317  -2.4038
    -2.3974  -2.3748  -2.3458  -2.2991  -2.1701  -2.1641  -2.0538  -1.9805
    -1.9655  -1.9073  -1.8398  -1.8158  -1.7848  -1.7218  -1.6469  -1.6078
    -1.5842  -1.5609  -1.5367  -1.4976  -1.4824  -1.4418  -1.3795  -1.3753
    -1.3455  -1.3326  -1.3213  -1.3144  -1.2636  -1.2566  -1.2412  -1.1315
    -1.1218  -1.0513  -1.0306  -0.9770  -0.9235  -0.8941  -0.8709  -0.8320
    -0.8231  -0.8167  -0.7726  -0.7536  -0.7256  -0.7004  -0.6720  -0.6153
    -0.5940  -0.5013  -0.5001  -0.4887  -0.4757  -0.4707  -0.4010  -0.3365
    -0.2963  -0.2910  -0.2846  -0.2549  -0.2233  -0.2108  -0.1990  -0.1786
    -0.1676  -0.1613  -0.1415  -0.0863  -0.0709  -0.0681  -0.0638  -0.0481
    -0.0418  -0.0347  -0.0037   0.0322   0.0633   0.2489   0.2672   0.3283
     0.3530   0.4397   0.4510   0.4727   0.4882   0.5136   0.5482   0.5663
     0.5665   0.5823   0.6505   0.6891   0.7065   0.7267   0.7634   0.7827
     0.8397   0.8551   0.8971   0.9765   1.0269   1.0997   1.1191   1.1381
     1.1903   1.1973   1.2364   1.2539   1.2707   1.2726   1.2887   1.2971
     1.4063   1.4352   1.4409   1.4837   1.4907   1.5104   1.5172   1.5424
     1.5522   1.6923   1.7293   1.7806   1.8412   1.8711   1.9466   1.9550
     1.9977   2.0670   2.0701   2.0859   2.1731   2.1829   2.2603   2.2716
     2.2902   2.3055   2.3074   2.3373   2.3555   2.3969   2.4620   2.4656
     2.4945   2.5102   2.5125   2.5212   2.5294   2.5942   2.6906   2.7259
     2.7363   2.7382   2.7439   2.8007   2.8463   2.9244   3.0216   3.8049
     3.8937   3.9236   4.0851   4.1363   4.2184   4.2610   4.2930   4.6383
     4.8632   4.9051   5.0992   5.3456   5.3621   5.4470   5.4871   5.6534
     5.7713   5.8397   5.8876   6.1454   6.2562   6.3285   6.8000   6.9555
     6.9865

          k = 0.2000-0.3464 0.0000 ( 43046 PWs)   bands (ev):

    -5.8656  -5.0114  -4.6080  -4.5967  -4.2706  -3.5397  -3.5298  -3.5209
    -3.5194  -3.4764  -3.4570  -3.4329  -3.3410  -3.3368  -3.1829  -2.9588
    -2.9447  -2.9347  -2.9320  -2.8621  -2.8425  -2.7354  -2.7151  -2.7130
    -2.6888  -2.6443  -2.5886  -2.5640  -2.5587  -2.5457  -2.4946  -2.4596
    -2.4541  -2.3973  -2.3814  -2.2880  -2.1598  -2.0571  -1.9749  -1.9689
    -1.9205  -1.9067  -1.8958  -1.8873  -1.8366  -1.8040  -1.7488  -1.6803
    -1.6661  -1.5657  -1.5345  -1.5249  -1.4876  -1.4807  -1.3996  -1.3803
    -1.3765  -1.2231  -1.1963  -1.1759  -1.1250  -1.1134  -1.0741  -1.0638
    -1.0578  -1.0064  -0.9785  -0.8531  -0.8439  -0.8371  -0.8231  -0.7973
    -0.7770  -0.7322  -0.6926  -0.6678  -0.6244  -0.5673  -0.5615  -0.5341
    -0.5107  -0.4859  -0.4750  -0.4642  -0.4401  -0.4253  -0.3930  -0.3817
    -0.3618  -0.3450  -0.2495  -0.2400  -0.2378  -0.2110  -0.1878  -0.1727
    -0.1537  -0.1265  -0.1060  -0.0966  -0.0862  -0.0802  -0.0774  -0.0629
    -0.0305  -0.0135   0.0749   0.1131   0.1456   0.2193   0.2327   0.2422
     0.2601   0.4346   0.4503   0.4912   0.5554   0.5635   0.6082   0.6168
     0.6428   0.6514   0.6900   0.7050   0.7294   0.7381   0.7502   0.8398
     0.9304   0.9792   0.9996   1.0087   1.0255   1.0520   1.0885   1.1350
     1.1971   1.2377   1.2430   1.2691   1.3261   1.3579   1.3983   1.4476
     1.4501   1.4639   1.5248   1.5429   1.5480   1.5674   1.5693   1.5821
     1.5918   1.6009   1.6114   1.7095   1.7672   1.7984   1.9323   1.9452
     1.9652   2.0946   2.1117   2.1215   2.1269   2.2106   2.2264   2.2443
     2.2575   2.2767   2.2921   2.3089   2.3235   2.3289   2.3403   2.3791
     2.3973   2.4088   2.4853   2.5075   2.5139   2.5380   2.5455   2.5983
     2.7253   2.7466   2.7738   2.8015   2.8529   2.8619   2.8700   2.9602
     3.0073   3.3522   3.5152   3.5517   3.9128   4.0786   4.0830   4.0937
     4.6200   4.7756   4.8023   4.9488   5.0119   5.0542   5.6445   6.1074
     6.2024   6.2117   6.4115   6.7094   6.9153   6.9671   7.0004   7.0098
     7.0377

          k = 0.4000-0.2309 0.0000 ( 43046 PWs)   bands (ev):

    -5.7306  -5.1303  -4.8562  -4.2584  -3.9882  -3.9763  -3.7962  -3.6114
    -3.4711  -3.3612  -3.2662  -3.2583  -3.2185  -3.1099  -3.0678  -3.0411
    -3.0391  -3.0282  -2.9033  -2.8671  -2.8630  -2.8224  -2.8174  -2.8098
    -2.7428  -2.6914  -2.6889  -2.5901  -2.4568  -2.4400  -2.4281  -2.4135
    -2.4124  -2.3144  -2.1896  -2.1816  -2.1743  -2.1369  -2.1343  -2.0303
    -1.9358  -1.8723  -1.8555  -1.8444  -1.8056  -1.7839  -1.7371  -1.7028
    -1.7026  -1.6732  -1.6423  -1.5099  -1.4846  -1.4795  -1.4665  -1.3976
    -1.3282  -1.2894  -1.2617  -1.2598  -1.2360  -1.1098  -1.0624  -1.0587
    -1.0530  -1.0324  -0.9423  -0.9361  -0.9087  -0.8280  -0.7995  -0.7960
    -0.7451  -0.6961  -0.6953  -0.6480  -0.6466  -0.6161  -0.5828  -0.5607
    -0.5568  -0.5444  -0.5315  -0.5211  -0.5040  -0.5033  -0.3972  -0.3887
    -0.3805  -0.3619  -0.3609  -0.3528  -0.3243  -0.2244  -0.1943  -0.1855
    -0.1558  -0.1376  -0.1166  -0.0927  -0.0672  -0.0536   0.0398   0.0417
     0.0971   0.1233   0.1390   0.1501   0.1680   0.3108   0.3447   0.3985
     0.4178   0.4677   0.5017   0.5204   0.5369   0.5432   0.5471   0.5801
     0.6013   0.6489   0.6511   0.6593   0.6823   0.7086   0.7186   0.7405
     0.7613   0.8493   0.8810   0.8897   0.9551   0.9974   1.0849   1.0862
     1.1890   1.1949   1.2500   1.2933   1.3609   1.3676   1.4040   1.4185
     1.4551   1.4580   1.4941   1.5202   1.5549   1.5663   1.6205   1.6705
     1.6735   1.7146   1.7254   1.7349   1.7439   1.8017   1.8851   1.9190
     1.9825   2.0021   2.0051   2.0314   2.0819   2.1189   2.1263   2.2064
     2.2172   2.2204   2.2343   2.2833   2.3153   2.3190   2.3406   2.4577
     2.4587   2.4771   2.4856   2.4909   2.4914   2.5154   2.5264   2.6975
     2.7266   2.7331   2.7382   2.7430   2.8904   2.9402   3.2215   3.3236
     3.3798   3.5701   3.7766   3.7834   4.0616   4.1561   4.2841   4.4746
     4.7821   5.0003   5.0038   5.0968   5.2045   5.2362   5.3510   5.3741
     5.5853   5.6421   6.1972   6.2823   6.6933   6.8020   7.1855   7.2723
     7.7979

          k = 0.4000-0.0000 0.0000 ( 43046 PWs)   bands (ev):

    -5.8656  -5.0114  -4.6082  -4.5968  -4.2707  -3.5397  -3.5299  -3.5209
    -3.5203  -3.4766  -3.4559  -3.4318  -3.3409  -3.3367  -3.1832  -2.9603
    -2.9458  -2.9343  -2.9316  -2.8633  -2.8421  -2.7355  -2.7152  -2.7130
    -2.6879  -2.6443  -2.5869  -2.5637  -2.5584  -2.5452  -2.4950  -2.4596
    -2.4547  -2.3974  -2.3811  -2.2903  -2.1597  -2.0567  -1.9745  -1.9685
    -1.9200  -1.9062  -1.8957  -1.8869  -1.8367  -1.8041  -1.7485  -1.6802
    -1.6661  -1.5655  -1.5344  -1.5250  -1.4872  -1.4808  -1.3998  -1.3803
    -1.3767  -1.2224  -1.1955  -1.1752  -1.1233  -1.1120  -1.0736  -1.0637
    -1.0568  -1.0065  -0.9782  -0.8537  -0.8454  -0.8373  -0.8246  -0.7972
    -0.7777  -0.7322  -0.6929  -0.6689  -0.6251  -0.5672  -0.5602  -0.5335
    -0.5101  -0.4862  -0.4760  -0.4642  -0.4411  -0.4242  -0.3937  -0.3822
    -0.3636  -0.3462  -0.2499  -0.2399  -0.2376  -0.2110  -0.1877  -0.1737
    -0.1546  -0.1250  -0.1056  -0.0953  -0.0858  -0.0802  -0.0772  -0.0625
    -0.0306  -0.0136   0.0748   0.1133   0.1460   0.2183   0.2318   0.2417
     0.2596   0.4349   0.4506   0.4912   0.5531   0.5640   0.6074   0.6159
     0.6429   0.6514   0.6903   0.7058   0.7293   0.7378   0.7498   0.8427
     0.9285   0.9787   0.9996   1.0084   1.0253   1.0520   1.0878   1.1348
     1.1971   1.2378   1.2425   1.2687   1.3260   1.3575   1.3980   1.4484
     1.4507   1.4637   1.5252   1.5435   1.5485   1.5678   1.5700   1.5821
     1.5922   1.6017   1.6127   1.7085   1.7671   1.7986   1.9317   1.9445
     1.9649   2.0946   2.1119   2.1216   2.1270   2.2100   2.2261   2.2451
     2.2584   2.2769   2.2919   2.3088   2.3230   2.3281   2.3395   2.3785
     2.3968   2.4107   2.4842   2.5075   2.5133   2.5378   2.5454   2.5979
     2.7271   2.7479   2.7752   2.8024   2.8530   2.8627   2.8700   2.9599
     3.0070   3.3513   3.5146   3.5512   3.9134   4.0797   4.0839   4.0947
     4.6199   4.7755   4.8017   4.9484   5.0120   5.0542   5.6447   6.1084
     6.2034   6.2124   6.4107   6.7089   6.9149   6.9669   6.9999   7.0098
     7.0381

          k = 0.4000 0.2309 0.0000 ( 43046 PWs)   bands (ev):

    -5.7306  -5.1303  -4.8562  -4.2584  -3.9882  -3.9764  -3.7961  -3.6111
    -3.4711  -3.3612  -3.2663  -3.2585  -3.2184  -3.1098  -3.0676  -3.0412
    -3.0389  -3.0282  -2.9032  -2.8672  -2.8632  -2.8223  -2.8172  -2.8097
    -2.7427  -2.6915  -2.6889  -2.5901  -2.4568  -2.4401  -2.4282  -2.4136
    -2.4125  -2.3144  -2.1897  -2.1817  -2.1744  -2.1371  -2.1344  -2.0304
    -1.9358  -1.8723  -1.8554  -1.8444  -1.8055  -1.7838  -1.7372  -1.7030
    -1.7025  -1.6732  -1.6422  -1.5100  -1.4848  -1.4797  -1.4666  -1.3976
    -1.3285  -1.2900  -1.2622  -1.2598  -1.2363  -1.1099  -1.0624  -1.0585
    -1.0529  -1.0322  -0.9420  -0.9366  -0.9084  -0.8278  -0.7990  -0.7949
    -0.7450  -0.6963  -0.6952  -0.6481  -0.6466  -0.6162  -0.5830  -0.5610
    -0.5570  -0.5445  -0.5318  -0.5212  -0.5039  -0.5028  -0.3973  -0.3887
    -0.3805  -0.3624  -0.3612  -0.3528  -0.3238  -0.2244  -0.1942  -0.1849
    -0.1554  -0.1375  -0.1169  -0.0926  -0.0669  -0.0532   0.0399   0.0418
     0.0969   0.1232   0.1391   0.1502   0.1680   0.3109   0.3444   0.3985
     0.4178   0.4677   0.5018   0.5205   0.5370   0.5429   0.5467   0.5802
     0.6013   0.6491   0.6512   0.6592   0.6824   0.7090   0.7190   0.7407
     0.7608   0.8495   0.8813   0.8899   0.9551   0.9975   1.0852   1.0866
     1.1890   1.1950   1.2496   1.2930   1.3608   1.3675   1.4042   1.4187
     1.4548   1.4579   1.4940   1.5201   1.5547   1.5661   1.6205   1.6704
     1.6735   1.7146   1.7254   1.7349   1.7439   1.8020   1.8852   1.9191
     1.9827   2.0022   2.0052   2.0315   2.0820   2.1189   2.1263   2.2064
     2.2173   2.2205   2.2344   2.2833   2.3156   2.3193   2.3405   2.4576
     2.4588   2.4769   2.4857   2.4907   2.4915   2.5150   2.5261   2.6976
     2.7263   2.7329   2.7379   2.7428   2.8904   2.9402   3.2213   3.3232
     3.3800   3.5703   3.7767   3.7834   4.0616   4.1562   4.2843   4.4742
     4.7819   5.0003   5.0039   5.0968   5.2046   5.2363   5.3507   5.3738
     5.5853   5.6421   6.1974   6.2821   6.6934   6.8021   7.1855   7.2724
     7.7976

          k = 0.4000-0.6928 0.0000 ( 43014 PWs)   bands (ev):

    -5.3809  -5.3014  -4.8484  -4.6209  -4.0853  -3.8694  -3.5309  -3.4825
    -3.3881  -3.3446  -3.2377  -3.2316  -3.1334  -3.1272  -3.0540  -3.0231
    -3.0006  -2.9927  -2.9642  -2.9443  -2.8421  -2.8047  -2.7960  -2.7833
    -2.7551  -2.7485  -2.6983  -2.6061  -2.5524  -2.4500  -2.4315  -2.4039
    -2.3975  -2.3737  -2.3453  -2.2991  -2.1693  -2.1634  -2.0535  -1.9819
    -1.9649  -1.9072  -1.8400  -1.8160  -1.7849  -1.7224  -1.6483  -1.6082
    -1.5846  -1.5606  -1.5358  -1.4951  -1.4816  -1.4411  -1.3792  -1.3749
    -1.3454  -1.3317  -1.3209  -1.3136  -1.2641  -1.2565  -1.2414  -1.1318
    -1.1221  -1.0507  -1.0299  -0.9773  -0.9211  -0.8957  -0.8723  -0.8324
    -0.8249  -0.8191  -0.7722  -0.7539  -0.7259  -0.6999  -0.6721  -0.6148
    -0.5933  -0.5023  -0.5001  -0.4893  -0.4746  -0.4689  -0.4010  -0.3391
    -0.2965  -0.2896  -0.2835  -0.2538  -0.2236  -0.2117  -0.1999  -0.1798
    -0.1707  -0.1623  -0.1426  -0.0810  -0.0712  -0.0699  -0.0639  -0.0480
    -0.0415  -0.0327  -0.0048   0.0313   0.0641   0.2477   0.2661   0.3286
     0.3533   0.4397   0.4508   0.4721   0.4883   0.5143   0.5478   0.5657
     0.5664   0.5840   0.6505   0.6895   0.7054   0.7260   0.7628   0.7836
     0.8397   0.8549   0.8951   0.9762   1.0268   1.0996   1.1195   1.1384
     1.1901   1.1975   1.2373   1.2544   1.2703   1.2725   1.2889   1.2972
     1.4066   1.4357   1.4411   1.4838   1.4909   1.5111   1.5171   1.5422
     1.5518   1.6929   1.7284   1.7793   1.8411   1.8707   1.9471   1.9554
     1.9976   2.0667   2.0703   2.0861   2.1731   2.1827   2.2604   2.2705
     2.2901   2.3050   2.3071   2.3372   2.3558   2.3978   2.4621   2.4660
     2.4930   2.5102   2.5126   2.5209   2.5294   2.5937   2.6901   2.7268
     2.7374   2.7391   2.7453   2.8010   2.8479   2.9245   3.0214   3.8046
     3.8936   3.9234   4.0842   4.1371   4.2181   4.2610   4.2915   4.6396
     4.8635   4.9053   5.0993   5.3452   5.3624   5.4470   5.4868   5.6582
     5.7715   5.8391   5.8863   6.1463   6.2559   6.3277   6.8013   6.9539
     6.9848

          k = 0.4000-0.4619 0.0000 ( 43014 PWs)   bands (ev):

    -5.3809  -5.3015  -4.8484  -4.6208  -4.0853  -3.8694  -3.5311  -3.4826
    -3.3881  -3.3446  -3.2376  -3.2315  -3.1334  -3.1272  -3.0541  -3.0232
    -3.0006  -2.9928  -2.9640  -2.9442  -2.8423  -2.8048  -2.7960  -2.7833
    -2.7551  -2.7486  -2.6983  -2.6060  -2.5523  -2.4499  -2.4314  -2.4039
    -2.3976  -2.3734  -2.3452  -2.2991  -2.1691  -2.1633  -2.0535  -1.9823
    -1.9648  -1.9072  -1.8400  -1.8160  -1.7849  -1.7226  -1.6486  -1.6084
    -1.5847  -1.5605  -1.5357  -1.4946  -1.4814  -1.4409  -1.3791  -1.3748
    -1.3453  -1.3315  -1.3208  -1.3134  -1.2643  -1.2565  -1.2415  -1.1318
    -1.1221  -1.0506  -1.0298  -0.9773  -0.9206  -0.8961  -0.8727  -0.8325
    -0.8254  -0.8196  -0.7721  -0.7540  -0.7259  -0.6998  -0.6721  -0.6146
    -0.5932  -0.5027  -0.5000  -0.4895  -0.4744  -0.4685  -0.4010  -0.3396
    -0.2962  -0.2896  -0.2833  -0.2535  -0.2236  -0.2118  -0.2001  -0.1799
    -0.1710  -0.1630  -0.1428  -0.0800  -0.0712  -0.0702  -0.0639  -0.0480
    -0.0414  -0.0322  -0.0050   0.0311   0.0643   0.2474   0.2659   0.3285
     0.3534   0.4396   0.4507   0.4720   0.4884   0.5145   0.5477   0.5655
     0.5665   0.5843   0.6505   0.6896   0.7052   0.7259   0.7627   0.7838
     0.8397   0.8548   0.8947   0.9762   1.0268   1.0996   1.1196   1.1385
     1.1901   1.1976   1.2375   1.2545   1.2702   1.2725   1.2889   1.2972
     1.4067   1.4359   1.4411   1.4838   1.4909   1.5112   1.5171   1.5422
     1.5517   1.6930   1.7282   1.7790   1.8411   1.8707   1.9472   1.9554
     1.9976   2.0667   2.0703   2.0862   2.1730   2.1827   2.2604   2.2703
     2.2901   2.3049   2.3070   2.3372   2.3558   2.3980   2.4621   2.4661
     2.4927   2.5103   2.5126   2.5208   2.5294   2.5935   2.6900   2.7270
     2.7376   2.7394   2.7455   2.8010   2.8483   2.9245   3.0213   3.8046
     3.8936   3.9234   4.0840   4.1373   4.2180   4.2610   4.2912   4.6399
     4.8635   4.9053   5.0994   5.3451   5.3625   5.4471   5.4868   5.6592
     5.7715   5.8390   5.8860   6.1466   6.2559   6.3275   6.8016   6.9536
     6.9845

     the Fermi energy is     2.5006 ev

!    total energy              =  -27755.48608160 Ry
     total all-electron energy =  -1326642.251498 Ry
     estimated scf accuracy    <       0.00000084 Ry
     smearing contrib. (-TS)   =      -0.00000994 Ry
     internal energy E=F+TS    =  -27755.48607166 Ry

     The total energy is F=E-TS. E is the sum of the following terms:
     one-electron contribution =  -20617.82685935 Ry
     hartree contribution      =   10616.08636940 Ry
     xc contribution           =    -890.68273073 Ry
     ewald contribution        =    8610.90567324 Ry
     one-center paw contrib.   =  -25473.96852422 Ry

     convergence has been achieved in  17 iterations

     negative rho (up, down):  3.156E-03 0.000E+00

     Forces acting on atoms (cartesian axes, Ry/au):

     atom    1 type  1   force =    -0.00036027   -0.00029000   -0.00432017
     atom    2 type  1   force =     0.00040199   -0.00027278   -0.00430914
     atom    3 type  1   force =     0.00001558    0.00046275   -0.00570774
     atom    4 type  1   force =     0.00002973    0.00032331   -0.00432446
     atom    5 type  1   force =    -0.00003943   -0.00011734   -0.00560792
     atom    6 type  1   force =     0.00005187   -0.00012957   -0.00559182
     atom    7 type  1   force =     0.00047309   -0.00034926   -0.00566023
     atom    8 type  1   force =    -0.00000083   -0.00005266   -0.00563210
     atom    9 type  1   force =    -0.00043353   -0.00033229   -0.00565520
     atom   10 type  1   force =    -0.00001421    0.00009011    0.01054408
     atom   11 type  1   force =    -0.00050563   -0.00065065    0.00527390
     atom   12 type  1   force =     0.00048435   -0.00064295    0.00527965
     atom   13 type  1   force =    -0.00086585   -0.00000559    0.00523056
     atom   14 type  1   force =    -0.00001914    0.00008674    0.00289200
     atom   15 type  1   force =     0.00085502   -0.00000934    0.00527427
     atom   16 type  1   force =    -0.00037407    0.00083313    0.00521830
     atom   17 type  1   force =     0.00035763    0.00084718    0.00525571
     atom   18 type  1   force =    -0.00001794    0.00009468    0.00184344
     atom   19 type  1   force =     0.00001120    0.00000026    0.00001196
     atom   20 type  1   force =    -0.00000745    0.00000211    0.00000798
     atom   21 type  1   force =    -0.00001090   -0.00000851   -0.00001399
     atom   22 type  1   force =    -0.00000264    0.00000414   -0.00000016
     atom   23 type  1   force =    -0.00001366    0.00000331   -0.00001928
     atom   24 type  1   force =     0.00001024    0.00001384   -0.00001694
     atom   25 type  1   force =    -0.00000628    0.00000692   -0.00000835
     atom   26 type  1   force =     0.00000276    0.00001857    0.00001255
     atom   27 type  1   force =     0.00000088    0.00001236   -0.00000681
     atom   28 type  1   force =    -0.00001425    0.00000371   -0.00000541
     atom   29 type  1   force =     0.00001004   -0.00000123   -0.00000832
     atom   30 type  1   force =    -0.00000296   -0.00002154    0.00000449
     atom   31 type  1   force =    -0.00000850    0.00001872   -0.00000285
     atom   32 type  1   force =    -0.00001824   -0.00000176    0.00001048
     atom   33 type  1   force =     0.00001343    0.00000488    0.00000888
     atom   34 type  1   force =    -0.00002743    0.00002219    0.00000583
     atom   35 type  1   force =     0.00000265    0.00002428    0.00001602
     atom   36 type  1   force =     0.00001827    0.00001525    0.00000094
     atom   37 type  2   force =     0.00000448   -0.00000298   -0.00000016
     The non-local contrib.  to forces
     atom    1 type  1   force =     0.00043494    0.00029166   -0.01789957
     atom    2 type  1   force =    -0.00043843    0.00031016   -0.01789721
     atom    3 type  1   force =    -0.00000538   -0.00049451   -0.02009394
     atom    4 type  1   force =     0.00000720   -0.00048264   -0.01786876
     atom    5 type  1   force =    -0.00002711    0.00000953   -0.01914752
     atom    6 type  1   force =    -0.00000017   -0.00000175   -0.01912544
     atom    7 type  1   force =    -0.00048375    0.00031233   -0.02005739
     atom    8 type  1   force =    -0.00002051    0.00003178   -0.01916721
     atom    9 type  1   force =     0.00047912    0.00033083   -0.02004558
     atom   10 type  1   force =    -0.00001958    0.00011038    0.00127100
     atom   11 type  1   force =    -0.00054035    0.00089570   -0.00002227
     atom   12 type  1   force =     0.00050325    0.00090676   -0.00001720
     atom   13 type  1   force =     0.00042671   -0.00073760   -0.00004874
     atom   14 type  1   force =    -0.00002473    0.00012420   -0.00151612
     atom   15 type  1   force =    -0.00045479   -0.00074260   -0.00001215
     atom   16 type  1   force =     0.00093979    0.00015017   -0.00003333
     atom   17 type  1   force =    -0.00097184    0.00016411   -0.00000175
     atom   18 type  1   force =    -0.00001968    0.00010665   -0.00034461
     atom   19 type  1   force =    -0.00165139    0.00091945    0.00379648
     atom   20 type  1   force =     0.00165387    0.00091343    0.00379281
     atom   21 type  1   force =    -0.00000312    0.00125269    0.00397818
     atom   22 type  1   force =    -0.00000657    0.00216439    0.00172446
     atom   23 type  1   force =     0.00107318   -0.00060819    0.00396853
     atom   24 type  1   force =    -0.00107217   -0.00060263    0.00397737
     atom   25 type  1   force =    -0.00188920   -0.00109720    0.00170319
     atom   26 type  1   force =     0.00000933   -0.00190356    0.00381408
     atom   27 type  1   force =     0.00188957   -0.00109976    0.00170556
     atom   28 type  1   force =     0.04092063    0.02344986    0.01488341
     atom   29 type  1   force =    -0.04088137    0.02344910    0.01487646
     atom   30 type  1   force =     0.00002306   -0.00056559    0.01562347
     atom   31 type  1   force =     0.00001788   -0.04736348    0.01497906
     atom   32 type  1   force =    -0.00394534   -0.00245045    0.01755511
     atom   33 type  1   force =     0.00399782   -0.00244346    0.01754099
     atom   34 type  1   force =    -0.00027869    0.00007464    0.01562020
     atom   35 type  1   force =     0.00003218    0.00443770    0.01753410
     atom   36 type  1   force =     0.00032719    0.00007133    0.01562151
     atom   37 type  2   force =     0.00000060   -0.00002330   -0.01779546
     The ionic contribution  to forces
     atom    1 type  1   force =     0.00784448    0.00464331  -93.28132246
     atom    2 type  1   force =    -0.00783510    0.00465153  -93.28130628
     atom    3 type  1   force =    -0.00001186   -0.00415130  -93.29662835
     atom    4 type  1   force =     0.00001134   -0.00909440  -93.28119007
     atom    5 type  1   force =    -0.01105249   -0.00639209  -93.30174311
     atom    6 type  1   force =     0.01103872   -0.00638981  -93.30176462
     atom    7 type  1   force =    -0.00367298    0.00204895  -93.29665760
     atom    8 type  1   force =    -0.00000562    0.01266042  -93.30195283
     atom    9 type  1   force =     0.00367647    0.00206341  -93.29667397
     atom   10 type  1   force =    -0.00028933    0.00243418  -31.31546417
     atom   11 type  1   force =    -0.09004700   -0.01567622  -31.42820296
     atom   12 type  1   force =     0.08950345   -0.01556290  -31.42850504
     atom   13 type  1   force =    -0.06014059   -0.06752413  -31.42799646
     atom   14 type  1   force =    -0.00026520    0.00106779  -31.52987335
     atom   15 type  1   force =     0.05959258   -0.06760101  -31.42830243
     atom   16 type  1   force =     0.02854553    0.08779336  -31.42932325
     atom   17 type  1   force =    -0.02915338    0.08793404  -31.42940179
     atom   18 type  1   force =    -0.00026803    0.00178616  -31.39182145
     atom   19 type  1   force =     0.14918847   -0.08688878   31.35118753
     atom   20 type  1   force =    -0.14819394   -0.08631369   31.35084397
     atom   21 type  1   force =    -0.00066057   -0.05858158   30.62858637
     atom   22 type  1   force =     0.00087647    0.00305144   30.89661926
     atom   23 type  1   force =    -0.05176583    0.02777871   30.62822489
     atom   24 type  1   force =     0.05095686    0.02790077   30.62872836
     atom   25 type  1   force =    -0.00421191   -0.00272580   30.89685261
     atom   26 type  1   force =     0.00007719    0.17264111   31.34460011
     atom   27 type  1   force =     0.00463851   -0.00167575   30.89774152
     atom   28 type  1   force =    -0.38216985   -0.21967002   92.58076281
     atom   29 type  1   force =     0.38239162   -0.21851846   92.58009916
     atom   30 type  1   force =     0.00019281    0.01929256   92.49096433
     atom   31 type  1   force =     0.00108839    0.43738174   92.58818532
     atom   32 type  1   force =    -0.09421565   -0.05697558   92.35290296
     atom   33 type  1   force =     0.09361223   -0.05726237   92.35251279
     atom   34 type  1   force =     0.01690479   -0.01085472   92.48443869
     atom   35 type  1   force =    -0.00061009    0.10648045   92.35528287
     atom   36 type  1   force =    -0.01560445   -0.01040672   92.48793644
     atom   37 type  2   force =     0.00003395    0.00065540   11.55166017
     The local contribution  to forces
     atom    1 type  1   force =    -0.00853387   -0.00516963   93.27718724
     atom    2 type  1   force =     0.00856356   -0.00524545   93.27716447
     atom    3 type  1   force =     0.00004294    0.00505911   93.29331918
     atom    4 type  1   force =    -0.00005380    0.00977949   93.27699314
     atom    5 type  1   force =     0.01108660    0.00625253   93.29771282
     atom    6 type  1   force =    -0.01096344    0.00629375   93.29772100
     atom    7 type  1   force =     0.00459083   -0.00266277   93.29334754
     atom    8 type  1   force =     0.00009145   -0.01273912   93.29790815
     atom    9 type  1   force =    -0.00461158   -0.00273358   93.29331940
     atom   10 type  1   force =     0.00027647   -0.00246619   31.32464493
     atom   11 type  1   force =     0.08989176    0.01420109   31.43308145
     atom   12 type  1   force =    -0.08932070    0.01407725   31.43336943
     atom   13 type  1   force =     0.05878937    0.06803008   31.43284606
     atom   14 type  1   force =     0.00030357   -0.00112000   31.53354482
     atom   15 type  1   force =    -0.05826552    0.06812592   31.43308990
     atom   16 type  1   force =    -0.02969931   -0.08689592   31.43411299
     atom   17 type  1   force =     0.03031076   -0.08709277   31.43413902
     atom   18 type  1   force =     0.00027216   -0.00174517   31.39379036
     atom   19 type  1   force =    -0.14708521    0.08565486  -31.35255554
     atom   20 type  1   force =     0.14612400    0.08512235  -31.35214766
     atom   21 type  1   force =     0.00062381    0.05727494  -30.63040404
     atom   22 type  1   force =    -0.00083463   -0.00519646  -30.89609075
     atom   23 type  1   force =     0.05066167   -0.02721939  -30.63005628
     atom   24 type  1   force =    -0.04989097   -0.02733707  -30.63061621
     atom   25 type  1   force =     0.00604354    0.00385539  -30.89634016
     atom   26 type  1   force =    -0.00010670   -0.17014794  -31.34599956
     atom   27 type  1   force =    -0.00644709    0.00285906  -30.89722182
     atom   28 type  1   force =     0.33686212    0.19375881  -92.58326818
     atom   29 type  1   force =    -0.33713569    0.19268069  -92.58261295
     atom   30 type  1   force =    -0.00021341   -0.01858086  -92.49011774
     atom   31 type  1   force =    -0.00104841   -0.38504845  -92.59076407
     atom   32 type  1   force =     0.09711301    0.05877137  -92.35400976
     atom   33 type  1   force =    -0.09663889    0.05905128  -92.35357457
     atom   34 type  1   force =    -0.01657862    0.01073944  -92.48355814
     atom   35 type  1   force =     0.00054003   -0.10975138  -92.35632358
     atom   36 type  1   force =     0.01525941    0.01030368  -92.48704747
     atom   37 type  2   force =    -0.00002867   -0.00062918  -11.53389634
     The core correction contribution to forces
     atom    1 type  1   force =    -0.00004463   -0.00001912    0.01722637
     atom    2 type  1   force =     0.00004202   -0.00001937    0.01722627
     atom    3 type  1   force =    -0.00000105    0.00002125    0.01716543
     atom    4 type  1   force =    -0.00000097    0.00005661    0.01722586
     atom    5 type  1   force =    -0.00000784    0.00000093    0.01712048
     atom    6 type  1   force =     0.00000624    0.00000101    0.01712026
     atom    7 type  1   force =     0.00001118    0.00000055    0.01716838
     atom    8 type  1   force =    -0.00000043    0.00001234    0.01711779
     atom    9 type  1   force =    -0.00001393    0.00000024    0.01716680
     atom   10 type  1   force =     0.00000205   -0.00001310    0.00040166
     atom   11 type  1   force =     0.00015543    0.00002210    0.00069667
     atom   12 type  1   force =    -0.00015154    0.00002214    0.00069719
     atom   13 type  1   force =     0.00010682    0.00010036    0.00069244
     atom   14 type  1   force =     0.00000140   -0.00000935    0.00096203
     atom   15 type  1   force =    -0.00010324    0.00010109    0.00069349
     atom   16 type  1   force =    -0.00004149   -0.00015694    0.00069999
     atom   17 type  1   force =     0.00004615   -0.00015778    0.00070054
     atom   18 type  1   force =     0.00000223   -0.00001342    0.00037940
     atom   19 type  1   force =    -0.00029754    0.00017943   -0.00192172
     atom   20 type  1   force =     0.00029278    0.00017725   -0.00192361
     atom   21 type  1   force =     0.00000131    0.00004916   -0.00175109
     atom   22 type  1   force =    -0.00000411   -0.00019901   -0.00170181
     atom   23 type  1   force =     0.00004663   -0.00001829   -0.00174350
     atom   24 type  1   force =    -0.00004444   -0.00001764   -0.00174320
     atom   25 type  1   force =     0.00017544    0.00011256   -0.00169862
     atom   26 type  1   force =    -0.00000085   -0.00033969   -0.00192389
     atom   27 type  1   force =    -0.00017876    0.00010819   -0.00169792
     atom   28 type  1   force =     0.00447121    0.00256875   -0.01213421
     atom   29 type  1   force =    -0.00447130    0.00256735   -0.01213348
     atom   30 type  1   force =    -0.00000005   -0.00013831   -0.01614257
     atom   31 type  1   force =    -0.00000105   -0.00513547   -0.01214529
     atom   32 type  1   force =     0.00089540    0.00051894   -0.01619255
     atom   33 type  1   force =    -0.00089240    0.00051913   -0.01619384
     atom   34 type  1   force =    -0.00011482    0.00006645   -0.01614453
     atom   35 type  1   force =     0.00000188   -0.00103024   -0.01619188
     atom   36 type  1   force =     0.00011336    0.00006593   -0.01614516
     atom   37 type  2   force =     0.00000000    0.00000000    0.00000000
     The Hubbard contrib.    to forces
     atom    1 type  1   force =     0.00000000    0.00000000    0.00000000
     atom    2 type  1   force =     0.00000000    0.00000000    0.00000000
     atom    3 type  1   force =     0.00000000    0.00000000    0.00000000
     atom    4 type  1   force =     0.00000000    0.00000000    0.00000000
     atom    5 type  1   force =     0.00000000    0.00000000    0.00000000
     atom    6 type  1   force =     0.00000000    0.00000000    0.00000000
     atom    7 type  1   force =     0.00000000    0.00000000    0.00000000
     atom    8 type  1   force =     0.00000000    0.00000000    0.00000000
     atom    9 type  1   force =     0.00000000    0.00000000    0.00000000
     atom   10 type  1   force =     0.00000000    0.00000000    0.00000000
     atom   11 type  1   force =     0.00000000    0.00000000    0.00000000
     atom   12 type  1   force =     0.00000000    0.00000000    0.00000000
     atom   13 type  1   force =     0.00000000    0.00000000    0.00000000
     atom   14 type  1   force =     0.00000000    0.00000000    0.00000000
     atom   15 type  1   force =     0.00000000    0.00000000    0.00000000
     atom   16 type  1   force =     0.00000000    0.00000000    0.00000000
     atom   17 type  1   force =     0.00000000    0.00000000    0.00000000
     atom   18 type  1   force =     0.00000000    0.00000000    0.00000000
     atom   19 type  1   force =     0.00000000    0.00000000    0.00000000
     atom   20 type  1   force =     0.00000000    0.00000000    0.00000000
     atom   21 type  1   force =     0.00000000    0.00000000    0.00000000
     atom   22 type  1   force =     0.00000000    0.00000000    0.00000000
     atom   23 type  1   force =     0.00000000    0.00000000    0.00000000
     atom   24 type  1   force =     0.00000000    0.00000000    0.00000000
     atom   25 type  1   force =     0.00000000    0.00000000    0.00000000
     atom   26 type  1   force =     0.00000000    0.00000000    0.00000000
     atom   27 type  1   force =     0.00000000    0.00000000    0.00000000
     atom   28 type  1   force =     0.00000000    0.00000000    0.00000000
     atom   29 type  1   force =     0.00000000    0.00000000    0.00000000
     atom   30 type  1   force =     0.00000000    0.00000000    0.00000000
     atom   31 type  1   force =     0.00000000    0.00000000    0.00000000
     atom   32 type  1   force =     0.00000000    0.00000000    0.00000000
     atom   33 type  1   force =     0.00000000    0.00000000    0.00000000
     atom   34 type  1   force =     0.00000000    0.00000000    0.00000000
     atom   35 type  1   force =     0.00000000    0.00000000    0.00000000
     atom   36 type  1   force =     0.00000000    0.00000000    0.00000000
     atom   37 type  2   force =     0.00000000    0.00000000    0.00000000
     The SCF correction term to forces
     atom    1 type  1   force =    -0.00000000   -0.00000000    0.00000000
     atom    2 type  1   force =     0.00000000    0.00000000    0.00000000
     atom    3 type  1   force =    -0.00000000    0.00000000    0.00000000
     atom    4 type  1   force =     0.00000000    0.00000000    0.00000000
     atom    5 type  1   force =    -0.00000000    0.00000000    0.00000000
     atom    6 type  1   force =    -0.00000000   -0.00000000    0.00000000
     atom    7 type  1   force =     0.00000000   -0.00000000    0.00000000
     atom    8 type  1   force =    -0.00000000   -0.00000000    0.00000000
     atom    9 type  1   force =     0.00000000    0.00000000    0.00000000
     atom   10 type  1   force =     0.00000000    0.00000000   -0.00000000
     atom   11 type  1   force =     0.00000000   -0.00000000   -0.00000000
     atom   12 type  1   force =    -0.00000000   -0.00000000   -0.00000000
     atom   13 type  1   force =    -0.00000000    0.00000000   -0.00000000
     atom   14 type  1   force =    -0.00000000    0.00000000   -0.00000000
     atom   15 type  1   force =     0.00000000    0.00000000   -0.00000000
     atom   16 type  1   force =    -0.00000000   -0.00000000   -0.00000000
     atom   17 type  1   force =     0.00000000   -0.00000000   -0.00000000
     atom   18 type  1   force =    -0.00000000   -0.00000000   -0.00000000
     atom   19 type  1   force =    -0.00014331    0.00013455   -0.00053732
     atom   20 type  1   force =     0.00011566    0.00010201   -0.00060007
     atom   21 type  1   force =     0.00002749   -0.00000448   -0.00046594
     atom   22 type  1   force =    -0.00003397    0.00018304   -0.00059386
     atom   23 type  1   force =    -0.00002947    0.00006973   -0.00045545
     atom   24 type  1   force =     0.00006080    0.00006966   -0.00040580
     atom   25 type  1   force =    -0.00012432   -0.00013879   -0.00056789
     atom   26 type  1   force =     0.00002361   -0.00023211   -0.00052072
     atom   27 type  1   force =     0.00009849   -0.00018013   -0.00057668
     atom   28 type  1   force =    -0.00009854   -0.00010444   -0.00029176
     atom   29 type  1   force =     0.00010662   -0.00018067   -0.00028004
     atom   30 type  1   force =    -0.00000554   -0.00003011   -0.00036554
     atom   31 type  1   force =    -0.00006547    0.00018363   -0.00030039
     atom   32 type  1   force =     0.00013418    0.00013322   -0.00028782
     atom   33 type  1   force =    -0.00006550    0.00013955   -0.00031902
     atom   34 type  1   force =     0.00003974   -0.00000437   -0.00039292
     atom   35 type  1   force =     0.00003848   -0.00011301   -0.00032802
     atom   36 type  1   force =    -0.00007741   -0.00001973   -0.00040690
     atom   37 type  2   force =    -0.00000157   -0.00000665   -0.00001105

     Total force =     0.000087     Total SCF correction =     0.001986
     SCF correction compared to forces is large: reduce conv_thr to get better values

     Writing all to output data dir ./pwscf.save/

     init_run     :     10.14s CPU     10.47s WALL (       1 calls)
     electrons    :    274.55s CPU    283.44s WALL (       1 calls)
     forces       :      3.44s CPU      4.07s WALL (       1 calls)

     Called by init_run:
     wfcinit      :      5.67s CPU      5.87s WALL (       1 calls)
     potinit      :      3.06s CPU      3.13s WALL (       1 calls)
     hinit0       :      0.83s CPU      0.85s WALL (       1 calls)

     Called by electrons:
     c_bands      :    229.48s CPU    234.71s WALL (      18 calls)
     sum_band     :     28.25s CPU     29.22s WALL (      18 calls)
     v_of_rho     :      8.71s CPU     10.31s WALL (      18 calls)
     newd         :      2.21s CPU      2.99s WALL (      18 calls)
     PAW_pot      :      3.93s CPU      4.01s WALL (      18 calls)
     mix_rho      :      4.03s CPU      4.09s WALL (      18 calls)
     vdW_kernel   :      1.71s CPU      1.72s WALL (       1 calls)

     Called by c_bands:
     init_us_2    :      2.61s CPU      2.64s WALL (     494 calls)
     init_us_2:cp :      2.61s CPU      2.64s WALL (     494 calls)
     cegterg      :    223.10s CPU    228.07s WALL (     234 calls)

     Called by *egterg:
     cdiaghg      :     63.95s CPU     64.94s WALL (    1139 calls)
     h_psi        :    101.79s CPU    104.23s WALL (    1165 calls)
     s_psi        :     13.53s CPU     13.84s WALL (    1165 calls)
     g_psi        :      0.41s CPU      0.42s WALL (     918 calls)

     Called by h_psi:
     h_psi:calbec :     17.29s CPU     17.94s WALL (    1165 calls)
     vloc_psi     :     69.64s CPU     71.08s WALL (    1165 calls)
     add_vuspsi   :     13.81s CPU     14.06s WALL (    1165 calls)

     General routines
     calbec       :     24.54s CPU     25.36s WALL (    1451 calls)
     fft          :      5.36s CPU      7.15s WALL (    1194 calls)
     ffts         :      2.45s CPU      2.48s WALL (    4172 calls)
     fftw         :     66.93s CPU     68.12s WALL (  297422 calls)
     interpolate  :      0.60s CPU      0.65s WALL (      18 calls)

     Parallel routines

     PWSCF        :   4m49.70s CPU   5m 2.70s WALL


   This run was terminated on:  20:25:44  31Oct2025            

=------------------------------------------------------------------------------=
   JOB DONE.
=------------------------------------------------------------------------------=
