
     Program PWSCF v.7.1 starts on 25Jan2025 at 23:52:11 
        Git branch: heads/qe-7.1
        Last git commit: 48ba0178f8fede6d020eb786884699a9f063f55d-dirty
        Last git commit date: Fri Jan 27 14:22:33 2023 +0000
        Last git commit subject: Merge branch 'fix_hubbard' into 'develop'

     This program is part of the open-source Quantum ESPRESSO suite
     for quantum simulation of materials; please cite
         "P. Giannozzi et al., J. Phys.:Condens. Matter 21 395502 (2009);
         "P. Giannozzi et al., J. Phys.:Condens. Matter 29 465901 (2017);
         "P. Giannozzi et al., J. Chem. Phys. 152 154105 (2020);
          URL http://www.quantum-espresso.org", 
     in publications or presentations arising from this work. More details at
     http://www.quantum-espresso.org/quote

     Parallel version (MPI), running on    48 processors

     MPI processes distributed on     1 nodes
     283381 MiB available memory on the printing compute node when the environment starts

     Reading input from espresso.pwi
Warning: card &CELL ignored
Warning: card / ignored
Warning: card &FCP ignored
Warning: card / ignored
Warning: card &RISM ignored
Warning: card / ignored

     Current dimensions of program PWSCF are:
     Max number of different atomic species (ntypx) = 10
     Max number of k-points (npk) =  40000
     Max angular momentum in pseudopotentials (lmaxx) =  4
     file Pt.pbe-n-kjpaw_psl.1.0.0.UPF: wavefunction(s)  6S 5D renormalized
     file H.pbe-kjpaw_psl.1.0.0.UPF: wavefunction(s)  1S renormalized

     **************************************************************************
     Initializing libbeef V0.1.2 with the BEEF-vdW functional.
     Citation: Wellendorff et al., PRB 85, 235149 (2012).
     **************************************************************************


     IMPORTANT: XC functional enforced from input :
     Exchange-correlation= BEEF-VDW
                           (   1   4  43  14   2   0   0)
     Any further DFT definition will be discarded
     Please, verify this is what you really want


     R & G space division:  proc/nbgrp/npool/nimage =      48
     Subspace diagonalization in iterative solution of the eigenvalue problem:
     one sub-group per band group will be used
     custom distributed-memory algorithm (size of sub-group:  2*  2 procs)


     Parallelization info
     --------------------
     sticks:   dense  smooth     PW     G-vecs:    dense   smooth      PW
     Min         150      59     16                30552     7447    1068
     Max         151      60     17                30571     7456    1081
     Sum        7243    2839    769              1467143   357639   51591

     Using Slab Decomposition



     bravais-lattice index     =            0
     lattice parameter (alat)  =      16.0028  a.u.
     unit-cell volume          =   10463.1828 (a.u.)^3
     number of atoms/cell      =           37
     number of atomic types    =            2
     number of electrons       =       361.00
     number of Kohn-Sham states=          217
     kinetic-energy cutoff     =      40.0000  Ry
     charge density cutoff     =     410.0000  Ry
     scf convergence threshold =      1.0E-06
     mixing beta               =       0.7000
     number of iterations used =            8  local-TF  mixing
     Exchange-correlation= BEEF-VDW
                           (   1   4  43  14   2   0   0)

     celldm(1)=  16.002787  celldm(2)=   0.000000  celldm(3)=   0.000000
     celldm(4)=   0.000000  celldm(5)=   0.000000  celldm(6)=   0.000000

     crystal axes: (cart. coord. in units of alat)
               a(1) = (   1.000000   0.000000   0.000000 )  
               a(2) = (   0.500000   0.866025   0.000000 )  
               a(3) = (   0.000000   0.000000   2.948128 )  

     reciprocal axes: (cart. coord. in units 2 pi/alat)
               b(1) = (  1.000000 -0.577350  0.000000 )  
               b(2) = (  0.000000  1.154701  0.000000 )  
               b(3) = (  0.000000  0.000000  0.339198 )  


     PseudoPot. # 1 for Pt read from file:
     /users/kbadger1/espresso/pseudo/pslibrary.1.0.0/pbe/PSEUDOPOTENTIALS/Pt.pbe-n-kjpaw_psl.1.0.0.UPF
     MD5 check sum: 2e24a0b5bf98a4ed1a57fa81bca8c143
     Pseudo is Projector augmented-wave + core cor, Zval = 10.0
     Generated using 'atomic' code by A. Dal Corso  v.7.0
     Shape of augmentation charge: PSQ
     Using radial grid of 1277 points,  6 beta functions with: 
                l(1) =   0
                l(2) =   0
                l(3) =   1
                l(4) =   1
                l(5) =   2
                l(6) =   2
     Q(r) pseudized with 0 coefficients 


     PseudoPot. # 2 for H  read from file:
     /users/kbadger1/espresso/pseudo/pslibrary.1.0.0/pbe/PSEUDOPOTENTIALS/H.pbe-kjpaw_psl.1.0.0.UPF
     MD5 check sum: fe4c6fa958fa6d3815bf5d2419cbf1df
     Pseudo is Projector augmented-wave, Zval =  1.0
     Generated using 'atomic' code by A. Dal Corso  v.7.0
     Shape of augmentation charge: PSQ
     Using radial grid of  929 points,  2 beta functions with: 
                l(1) =   0
                l(2) =   0
     Q(r) pseudized with 0 coefficients 


     atomic species   valence    mass     pseudopotential
        Pt            10.00   195.08400     Pt( 1.00)
        H              1.00     1.00800     H ( 1.00)

     No symmetry found



   Cartesian axes

     site n.     atom                  positions (alat units)
         1           Pt  tau(   1) = (   0.0000000   0.0000000   1.0037422  )
         2           Pt  tau(   2) = (   0.3340014   0.0000000   1.0037422  )
         3           Pt  tau(   3) = (   0.6680027   0.0000000   1.0037422  )
         4           Pt  tau(   4) = (   0.1670007   0.2892537   1.0037422  )
         5           Pt  tau(   5) = (   0.5010021   0.2892537   1.0037422  )
         6           Pt  tau(   6) = (   0.8350034   0.2892537   1.0037422  )
         7           Pt  tau(   7) = (   0.3340014   0.5785073   1.0037422  )
         8           Pt  tau(   8) = (   0.6680027   0.5785073   1.0037422  )
         9           Pt  tau(   9) = (   1.0020041   0.5785073   1.0037422  )
        10           Pt  tau(  10) = (   0.1670007   0.0964179   1.2764532  )
        11           Pt  tau(  11) = (   0.5010021   0.0964179   1.2764532  )
        12           Pt  tau(  12) = (   0.8350034   0.0964179   1.2764532  )
        13           Pt  tau(  13) = (   0.3340014   0.3856716   1.2764532  )
        14           Pt  tau(  14) = (   0.6680027   0.3856716   1.2764532  )
        15           Pt  tau(  15) = (   1.0020041   0.3856716   1.2764532  )
        16           Pt  tau(  16) = (   0.5010021   0.6749252   1.2764532  )
        17           Pt  tau(  17) = (   0.8350034   0.6749252   1.2764532  )
        18           Pt  tau(  18) = (   1.1690048   0.6749252   1.2764532  )
        19           Pt  tau(  19) = (   0.0018381   0.1931394   1.5483882  )
        20           Pt  tau(  20) = (   0.3343198   0.1930136   1.5480768  )
        21           Pt  tau(  21) = (   0.6681050   0.1930771   1.5458464  )
        22           Pt  tau(  22) = (   0.1681856   0.4814844   1.5473434  )
        23           Pt  tau(  23) = (   0.5012654   0.4820608   1.5458457  )
        24           Pt  tau(  24) = (   0.8350032   0.4820950   1.5457410  )
        25           Pt  tau(  25) = (   0.3354760   0.7710379   1.5477482  )
        26           Pt  tau(  26) = (   0.6681868   0.7710450   1.5483834  )
        27           Pt  tau(  27) = (   1.0010661   0.7709388   1.5473445  )
        28           Pt  tau(  28) = (  -0.0024768  -0.0014321   1.8272203  )
        29           Pt  tau(  29) = (   0.3390437  -0.0014089   1.8270011  )
        30           Pt  tau(  30) = (   0.6682222   0.0011105   1.8223179  )
        31           Pt  tau(  31) = (   0.1683027   0.2943229   1.8270032  )
        32           Pt  tau(  32) = (   0.5031169   0.2904735   1.8212725  )
        33           Pt  tau(  33) = (   0.8333876   0.2905089   1.8213383  )
        34           Pt  tau(  34) = (   0.3350709   0.5781418   1.8223160  )
        35           Pt  tau(  35) = (   0.6682784   0.5764849   1.8213328  )
        36           Pt  tau(  36) = (   1.0014302   0.5781779   1.8221830  )
        37           H   tau(  37) = (   0.1682973   0.0971669   1.9263758  )

     number of k points=    13  Marzari-Vanderbilt smearing, width (Ry)=  0.0200
                       cart. coord. in units 2pi/alat
        k(    1) = (   0.0000000   0.0000000   0.0000000), wk =   0.0800000
        k(    2) = (   0.0000000   0.2309401   0.0000000), wk =   0.1600000
        k(    3) = (   0.0000000   0.4618802   0.0000000), wk =   0.1600000
        k(    4) = (   0.2000000  -0.1154701   0.0000000), wk =   0.1600000
        k(    5) = (   0.2000000   0.1154701   0.0000000), wk =   0.1600000
        k(    6) = (   0.2000000   0.3464102   0.0000000), wk =   0.1600000
        k(    7) = (   0.2000000  -0.5773503   0.0000000), wk =   0.1600000
        k(    8) = (   0.2000000  -0.3464102   0.0000000), wk =   0.1600000
        k(    9) = (   0.4000000  -0.2309401   0.0000000), wk =   0.1600000
        k(   10) = (   0.4000000   0.0000000   0.0000000), wk =   0.1600000
        k(   11) = (   0.4000000   0.2309401   0.0000000), wk =   0.1600000
        k(   12) = (   0.4000000  -0.6928203   0.0000000), wk =   0.1600000
        k(   13) = (   0.4000000  -0.4618802   0.0000000), wk =   0.1600000

     Dense  grid:  1467143 G-vectors     FFT dimensions: ( 108, 108, 320)

     Smooth grid:   357639 G-vectors     FFT dimensions: (  72,  72, 192)

     Estimated max dynamical RAM per process >     211.30 MB

     Estimated total dynamical RAM >       9.90 GB

     Initial potential from superposition of free atoms

     starting charge     360.9939, renormalised to     361.0000

     negative rho (up, down):  3.562E-03 0.000E+00


     %%%%%%%%%%%%%%%%%%%%%%%%%%%%%%%%%%%%%%%%%%%%%%%%%%%%%%%%%%%%%%%%%%%%%%%%
     %                                                                      %
     % You are using vdW-DF, which was implemented by the Thonhauser group. %
     % Please cite the following two papers that made this development      %
     % possible and the two reviews that describe the various versions:     %
     %                                                                      %
     %   T. Thonhauser et al., PRL 115, 136402 (2015).                      %
     %   T. Thonhauser et al., PRB 76, 125112 (2007).                       %
     %   K. Berland et al., Rep. Prog. Phys. 78, 066501 (2015).             %
     %   D.C. Langreth et al., J. Phys.: Condens. Matter 21, 084203 (2009). %
     %                                                                      %
     % If you are calculating stress with vdW-DF, please also cite:         %
     %                                                                      %
     %   R. Sabatini et al., J. Phys.: Condens. Matter 24, 424209 (2012).   %
     %                                                                      %
     %%%%%%%%%%%%%%%%%%%%%%%%%%%%%%%%%%%%%%%%%%%%%%%%%%%%%%%%%%%%%%%%%%%%%%%%

     %%%%%%%%%%%%%%%%%%%%%%%%%%%%%%%%%%%%%%%%%%%%%%%%%%%%%%%%%%%%%%%%%%%%%%%%
     %                                                                      %
     %  vdW-DF NEWS:                                                        %
     %                                                                      %
     %  * vdW-DF3 is now available. DOI: 10.1021/acs.jctc.0c00471           %
     %    use with input_dft = 'vdW-DF3-opt1' or 'vdW-DF3-opt2'             %
     %                                                                      %
     %  * Unscreened and range-separated hybrid vdW-DF-cx functionals       %
     %    DOI: 10.1063/1.4986522 and 10.1088/1361-648X/ac2ad2               %
     %    use with input_dft = 'vdW-DF-cx0'    and 'vdW-DF-ahcx'            %
     %  * Unscreened and range-separated hybrid vdW-DF2-b86r functionals    %
     %    DOI: 10.1063/1.4986522 and DOI: 10.1103/PhysRevX.12.041003        %
     %    use with input_dft = 'vdW-DF2-br0' and 'vdW-DF2-ahbr'             %
     %                                                                      %
     %%%%%%%%%%%%%%%%%%%%%%%%%%%%%%%%%%%%%%%%%%%%%%%%%%%%%%%%%%%%%%%%%%%%%%%%


     Starting wfcs are  325 randomized atomic wfcs
     Checking if some PAW data can be deallocated... 

     total cpu time spent up to now is       11.3 secs

     per-process dynamical memory:   208.9 Mb

     Self-consistent Calculation

     iteration #  1     ecut=    40.00 Ry     beta= 0.70
     Davidson diagonalization with overlap
     ethr =  1.00E-02,  avg # of iterations =  2.0

     Threshold (ethr) on eigenvalues was too large:
     Diagonalizing with lowered threshold

     Davidson diagonalization with overlap
     ethr =  3.67E-04,  avg # of iterations =  3.9

     negative rho (up, down):  1.769E-02 0.000E+00

     total cpu time spent up to now is       42.8 secs

     total energy              =  -27755.29942569 Ry
     estimated scf accuracy    <       1.53056688 Ry

     iteration #  2     ecut=    40.00 Ry     beta= 0.70
     Davidson diagonalization with overlap
     ethr =  4.24E-04,  avg # of iterations =  2.0

     negative rho (up, down):  1.595E-02 0.000E+00

     total cpu time spent up to now is       55.3 secs

     total energy              =  -27755.39697050 Ry
     estimated scf accuracy    <       0.75814875 Ry

     iteration #  3     ecut=    40.00 Ry     beta= 0.70
     Davidson diagonalization with overlap
     ethr =  2.10E-04,  avg # of iterations =  2.0

     negative rho (up, down):  1.072E-02 0.000E+00

     total cpu time spent up to now is       68.4 secs

     total energy              =  -27755.44776295 Ry
     estimated scf accuracy    <       0.08666721 Ry

     iteration #  4     ecut=    40.00 Ry     beta= 0.70
     Davidson diagonalization with overlap
     c_bands:  1 eigenvalues not converged
     c_bands:  1 eigenvalues not converged
     c_bands:  1 eigenvalues not converged
     ethr =  2.40E-05,  avg # of iterations = 14.4

     negative rho (up, down):  7.700E-03 0.000E+00

     total cpu time spent up to now is      100.7 secs

     total energy              =  -27755.49488354 Ry
     estimated scf accuracy    <       0.06534817 Ry

     iteration #  5     ecut=    40.00 Ry     beta= 0.70
     Davidson diagonalization with overlap
     c_bands:  1 eigenvalues not converged
     c_bands:  1 eigenvalues not converged
     ethr =  1.81E-05,  avg # of iterations =  5.8

     negative rho (up, down):  3.893E-03 0.000E+00

     total cpu time spent up to now is      115.5 secs

     total energy              =  -27755.49511108 Ry
     estimated scf accuracy    <       0.02563951 Ry

     iteration #  6     ecut=    40.00 Ry     beta= 0.70
     Davidson diagonalization with overlap
     c_bands:  2 eigenvalues not converged
     ethr =  7.10E-06,  avg # of iterations =  6.7

     negative rho (up, down):  2.146E-03 0.000E+00

     total cpu time spent up to now is      130.4 secs

     total energy              =  -27755.49691140 Ry
     estimated scf accuracy    <       0.00234509 Ry

     iteration #  7     ecut=    40.00 Ry     beta= 0.70
     Davidson diagonalization with overlap
     c_bands:  2 eigenvalues not converged
     c_bands:  2 eigenvalues not converged
     c_bands:  1 eigenvalues not converged
     c_bands:  1 eigenvalues not converged
     ethr =  6.50E-07,  avg # of iterations = 15.1

     negative rho (up, down):  1.716E-03 0.000E+00

     total cpu time spent up to now is      159.1 secs

     total energy              =  -27755.49737679 Ry
     estimated scf accuracy    <       0.00157963 Ry

     iteration #  8     ecut=    40.00 Ry     beta= 0.70
     Davidson diagonalization with overlap
     ethr =  4.38E-07,  avg # of iterations =  3.7

     negative rho (up, down):  1.484E-03 0.000E+00

     total cpu time spent up to now is      172.4 secs

     total energy              =  -27755.49750138 Ry
     estimated scf accuracy    <       0.00018927 Ry

     iteration #  9     ecut=    40.00 Ry     beta= 0.70
     Davidson diagonalization with overlap
     ethr =  5.24E-08,  avg # of iterations =  5.0

     negative rho (up, down):  1.137E-03 0.000E+00

     total cpu time spent up to now is      193.8 secs

     total energy              =  -27755.49757144 Ry
     estimated scf accuracy    <       0.00008216 Ry

     iteration # 10     ecut=    40.00 Ry     beta= 0.70
     Davidson diagonalization with overlap
     ethr =  2.28E-08,  avg # of iterations =  3.9

     negative rho (up, down):  1.071E-03 0.000E+00

     total cpu time spent up to now is      214.5 secs

     total energy              =  -27755.49759485 Ry
     estimated scf accuracy    <       0.00006896 Ry

     iteration # 11     ecut=    40.00 Ry     beta= 0.70
     Davidson diagonalization with overlap
     ethr =  1.91E-08,  avg # of iterations =  1.5

     negative rho (up, down):  1.138E-03 0.000E+00

     total cpu time spent up to now is      226.8 secs

     total energy              =  -27755.49759966 Ry
     estimated scf accuracy    <       0.00004506 Ry

     iteration # 12     ecut=    40.00 Ry     beta= 0.70
     Davidson diagonalization with overlap
     ethr =  1.25E-08,  avg # of iterations =  1.8

     negative rho (up, down):  1.327E-03 0.000E+00

     total cpu time spent up to now is      239.9 secs

     total energy              =  -27755.49760260 Ry
     estimated scf accuracy    <       0.00001946 Ry

     iteration # 13     ecut=    40.00 Ry     beta= 0.70
     Davidson diagonalization with overlap
     ethr =  5.39E-09,  avg # of iterations =  2.3

     negative rho (up, down):  1.757E-03 0.000E+00

     total cpu time spent up to now is      252.7 secs

     total energy              =  -27755.49760494 Ry
     estimated scf accuracy    <       0.00001109 Ry

     iteration # 14     ecut=    40.00 Ry     beta= 0.70
     Davidson diagonalization with overlap
     ethr =  3.07E-09,  avg # of iterations =  2.0

     negative rho (up, down):  2.023E-03 0.000E+00

     total cpu time spent up to now is      266.5 secs

     total energy              =  -27755.49760777 Ry
     estimated scf accuracy    <       0.00000762 Ry

     iteration # 15     ecut=    40.00 Ry     beta= 0.70
     Davidson diagonalization with overlap
     ethr =  2.11E-09,  avg # of iterations =  1.6

     negative rho (up, down):  2.889E-03 0.000E+00

     total cpu time spent up to now is      278.6 secs

     total energy              =  -27755.49760449 Ry
     estimated scf accuracy    <       0.00000649 Ry

     iteration # 16     ecut=    40.00 Ry     beta= 0.70
     Davidson diagonalization with overlap
     ethr =  1.80E-09,  avg # of iterations =  1.6

     negative rho (up, down):  3.015E-03 0.000E+00

     total cpu time spent up to now is      291.2 secs

     total energy              =  -27755.49760464 Ry
     estimated scf accuracy    <       0.00000112 Ry

     iteration # 17     ecut=    40.00 Ry     beta= 0.70
     Davidson diagonalization with overlap
     ethr =  3.09E-10,  avg # of iterations =  4.7

     negative rho (up, down):  3.348E-03 0.000E+00

     total cpu time spent up to now is      311.6 secs

     End of self-consistent calculation

          k = 0.0000 0.0000 0.0000 ( 44645 PWs)   bands (ev):

    -6.6638  -5.6208  -4.9039  -4.2470  -4.2180  -4.2127  -4.2043  -4.1915
    -4.1889  -4.1846  -3.8804  -3.6656  -3.6614  -3.6566  -3.6550  -3.6510
    -3.5666  -3.2113  -3.2097  -3.1871  -3.1865  -3.1762  -3.0965  -2.9757
    -2.9753  -2.9680  -2.9655  -2.9652  -2.8624  -2.7725  -2.7671  -2.7523
    -2.7494  -2.7357  -2.7150  -2.7056  -2.6984  -2.6970  -2.6668  -2.6665
    -2.3028  -2.1269  -2.1249  -2.0870  -2.0731  -2.0592  -2.0562  -2.0339
    -2.0314  -2.0233  -1.8820  -1.8818  -1.7755  -1.7753  -1.7732  -1.3243
    -1.3241  -1.3143  -1.3029  -1.3006  -1.2523  -1.2049  -1.1180  -1.1178
    -1.1119  -1.1111  -1.0996  -1.0957  -1.0887  -1.0541  -1.0522  -1.0478
    -1.0464  -1.0448  -1.0063  -0.9989  -0.9983  -0.8951  -0.8942  -0.8917
    -0.8867  -0.8823  -0.8798  -0.6808  -0.6722  -0.6717  -0.6681  -0.6661
    -0.6473  -0.6426  -0.6418  -0.5595  -0.5590  -0.4868  -0.4793  -0.4793
    -0.4491  -0.4490  -0.4258  -0.4207  -0.3560  -0.2574  -0.2569  -0.2560
    -0.2422  -0.2398  -0.2374  -0.0064   0.2480   0.2487   0.2641   0.2772
     0.2772   0.2869   0.2938   0.2953   0.3089   0.3102   0.3250   0.3863
     0.3864   0.4620   0.5377   0.5384   0.5447   0.5456   0.5644   0.6588
     0.6716   0.7224   0.7224   0.7360   0.7416   0.9818   0.9854   0.9950
     1.0098   1.0142   1.0186   1.0772   1.0807   1.2193   1.2200   1.2361
     1.2387   1.2400   1.2418   1.3682   1.3873   1.4127   1.4133   1.4377
     1.4396   1.4468   1.4514   1.4542   1.4561   1.4577   1.4615   1.5453
     1.5578   1.5597   1.5934   1.5950   1.6188   1.6213   1.6236   1.6717
     1.6845   1.6934   1.7212   1.7228   1.7340   1.7422   1.7456   1.8151
     1.8227   1.8256   1.8330   1.8351   1.8372   1.8914   1.9192   1.9202
     1.9370   1.9380   1.9448   1.9520   2.1399   2.1443   2.2369   2.2392
     2.2416   2.2610   2.2619   2.2642   2.8223   3.0880   3.1095   3.1102
     3.1491   3.1501   3.1546   5.1841   5.4015   5.4053   5.4744   5.4744
     5.4772   7.0242   7.0246   7.0592   7.1160   7.1165   7.1177   7.2159
     7.3279

          k = 0.0000 0.2309 0.0000 ( 44694 PWs)   bands (ev):

    -6.5169  -5.5119  -4.8525  -4.6797  -4.3175  -4.3044  -4.1038  -4.0152
    -3.9697  -3.9653  -3.8627  -3.7495  -3.7005  -3.5944  -3.5884  -3.5779
    -3.4988  -3.2824  -3.1611  -3.1570  -3.1481  -3.1173  -3.0771  -3.0430
    -3.0185  -2.9743  -2.9685  -2.9649  -2.8786  -2.8630  -2.8564  -2.7796
    -2.7666  -2.7477  -2.7430  -2.5917  -2.5468  -2.5232  -2.5198  -2.4907
    -2.3088  -2.2408  -2.2369  -2.1827  -2.1559  -2.1426  -2.1286  -2.0281
    -1.9507  -1.8870  -1.8664  -1.8513  -1.8055  -1.7855  -1.7179  -1.5694
    -1.4751  -1.4696  -1.4225  -1.4145  -1.3800  -1.3255  -1.3063  -1.2970
    -1.2729  -1.2579  -1.1958  -1.1774  -1.1440  -1.1135  -1.0993  -1.0502
    -1.0155  -1.0070  -1.0053  -0.9198  -0.9168  -0.9021  -0.8709  -0.8290
    -0.8184  -0.8100  -0.7818  -0.7422  -0.7062  -0.6937  -0.6825  -0.6806
    -0.6497  -0.6401  -0.5908  -0.5618  -0.5358  -0.5293  -0.5134  -0.5005
    -0.4926  -0.4570  -0.4311  -0.4257  -0.3545  -0.2895  -0.2824  -0.2509
    -0.2434  -0.2365  -0.2276  -0.2232  -0.1776  -0.1688  -0.1556  -0.1426
     0.0751   0.1860   0.2343   0.2535   0.2637   0.2693   0.2772   0.3193
     0.3245   0.3787   0.4643   0.4888   0.5579   0.6109   0.6126   0.6529
     0.6684   0.6797   0.7187   0.7329   0.7398   0.8317   0.8626   0.8678
     0.8781   0.8834   1.0376   1.0787   1.0931   1.0981   1.1160   1.1175
     1.1354   1.2032   1.2256   1.2573   1.2784   1.2818   1.3341   1.3477
     1.3608   1.3704   1.4493   1.4657   1.4957   1.5005   1.5397   1.6032
     1.6259   1.6518   1.6598   1.6700   1.6935   1.7208   1.7838   1.7884
     1.8438   1.8503   1.8700   1.8788   1.9007   1.9104   1.9175   1.9301
     1.9333   1.9866   1.9898   2.1280   2.1322   2.1504   2.1790   2.1876
     2.1904   2.2157   2.2500   2.2548   2.2751   2.3579   2.3744   2.4011
     2.4534   2.5652   2.5680   2.5833   2.6103   2.9591   2.9976   3.5331
     3.7204   3.7469   3.8609   4.6684   5.1034   5.1650   5.8482   5.9272
     5.9431   6.0075   6.2494   6.7352   6.8844   7.0466   7.2723   7.2842
     7.3142

          k = 0.0000 0.4619 0.0000 ( 44748 PWs)   bands (ev):

    -6.0967  -5.4890  -5.2095  -4.6087  -4.3497  -4.3371  -4.1480  -3.9751
    -3.8375  -3.7164  -3.6273  -3.6216  -3.5714  -3.4620  -3.4208  -3.4090
    -3.4037  -3.3949  -3.2571  -3.2325  -3.2274  -3.1879  -3.1814  -3.1584
    -3.0911  -3.0545  -3.0512  -2.9383  -2.8041  -2.7914  -2.7868  -2.7712
    -2.7673  -2.6675  -2.5430  -2.5336  -2.5234  -2.4864  -2.4824  -2.3820
    -2.2819  -2.2167  -2.1968  -2.1873  -2.1619  -2.1314  -2.0840  -2.0559
    -2.0493  -2.0160  -1.9843  -1.8530  -1.8366  -1.8311  -1.8088  -1.7431
    -1.6727  -1.6433  -1.6128  -1.6071  -1.5862  -1.4577  -1.4089  -1.3980
    -1.3936  -1.3728  -1.2887  -1.2836  -1.2511  -1.1641  -1.1424  -1.1375
    -1.0808  -1.0320  -1.0284  -0.9909  -0.9899  -0.9540  -0.9217  -0.9067
    -0.8971  -0.8862  -0.8746  -0.8635  -0.8487  -0.8413  -0.7389  -0.7293
    -0.7181  -0.7015  -0.6985  -0.6926  -0.6687  -0.5584  -0.5289  -0.5249
    -0.4895  -0.4772  -0.4574  -0.4288  -0.3992  -0.3882  -0.2963  -0.2811
    -0.2349  -0.2136  -0.1904  -0.1826  -0.1558  -0.0131   0.0141   0.0733
     0.0954   0.1465   0.1770   0.1934   0.2097   0.2107   0.2146   0.2480
     0.2836   0.3171   0.3242   0.3359   0.3597   0.3827   0.3891   0.4111
     0.4301   0.5262   0.5560   0.5673   0.6366   0.6715   0.7625   0.7627
     0.8610   0.8677   0.9158   0.9611   1.0354   1.0419   1.0844   1.1016
     1.1287   1.1320   1.1697   1.1972   1.2336   1.2430   1.2991   1.3440
     1.3454   1.3908   1.4049   1.4221   1.4282   1.4800   1.5645   1.5976
     1.6667   1.6914   1.6956   1.7162   1.7595   1.8092   1.8161   1.8859
     1.8951   1.8990   1.9148   1.9642   1.9991   2.0036   2.0225   2.1418
     2.1424   2.1609   2.1667   2.1754   2.1772   2.1969   2.2186   2.3935
     2.4125   2.4190   2.4253   2.4301   2.5984   2.6475   2.9057   3.0058
     3.0651   3.2550   3.4774   3.4850   3.7648   3.8630   3.9751   4.1698
     4.4715   4.7058   4.7120   4.7844   4.8973   4.9367   5.0457   5.0661
     5.2975   5.3563   5.8872   5.9784   6.4001   6.5123   6.8883   6.9754
     7.4939

          k = 0.2000-0.1155 0.0000 ( 44694 PWs)   bands (ev):

    -6.5169  -5.5119  -4.8525  -4.6797  -4.3175  -4.3044  -4.1038  -4.0152
    -3.9697  -3.9653  -3.8627  -3.7495  -3.7005  -3.5944  -3.5884  -3.5779
    -3.4988  -3.2824  -3.1611  -3.1570  -3.1481  -3.1173  -3.0771  -3.0430
    -3.0185  -2.9743  -2.9685  -2.9649  -2.8786  -2.8630  -2.8563  -2.7796
    -2.7666  -2.7477  -2.7430  -2.5917  -2.5468  -2.5232  -2.5198  -2.4908
    -2.3088  -2.2408  -2.2369  -2.1827  -2.1559  -2.1426  -2.1286  -2.0281
    -1.9507  -1.8870  -1.8664  -1.8513  -1.8055  -1.7855  -1.7179  -1.5694
    -1.4751  -1.4696  -1.4225  -1.4145  -1.3800  -1.3255  -1.3063  -1.2970
    -1.2729  -1.2579  -1.1958  -1.1774  -1.1440  -1.1135  -1.0993  -1.0502
    -1.0155  -1.0070  -1.0053  -0.9198  -0.9168  -0.9021  -0.8709  -0.8290
    -0.8184  -0.8100  -0.7818  -0.7422  -0.7062  -0.6937  -0.6825  -0.6806
    -0.6497  -0.6401  -0.5908  -0.5618  -0.5358  -0.5293  -0.5134  -0.5005
    -0.4926  -0.4570  -0.4311  -0.4257  -0.3545  -0.2895  -0.2824  -0.2509
    -0.2434  -0.2365  -0.2276  -0.2232  -0.1776  -0.1688  -0.1556  -0.1427
     0.0751   0.1860   0.2343   0.2535   0.2637   0.2692   0.2772   0.3193
     0.3245   0.3787   0.4643   0.4888   0.5579   0.6109   0.6126   0.6529
     0.6684   0.6797   0.7187   0.7329   0.7397   0.8317   0.8626   0.8678
     0.8781   0.8834   1.0376   1.0788   1.0931   1.0981   1.1161   1.1175
     1.1354   1.2032   1.2256   1.2573   1.2784   1.2818   1.3341   1.3477
     1.3608   1.3703   1.4493   1.4657   1.4957   1.5005   1.5397   1.6032
     1.6259   1.6518   1.6598   1.6700   1.6936   1.7208   1.7838   1.7884
     1.8438   1.8503   1.8700   1.8788   1.9007   1.9104   1.9175   1.9300
     1.9333   1.9866   1.9898   2.1280   2.1321   2.1504   2.1790   2.1876
     2.1904   2.2157   2.2500   2.2548   2.2751   2.3579   2.3744   2.4011
     2.4534   2.5652   2.5680   2.5833   2.6103   2.9591   2.9976   3.5331
     3.7204   3.7469   3.8609   4.6684   5.1035   5.1650   5.8482   5.9272
     5.9431   6.0075   6.2494   6.7352   6.8845   7.0466   7.2725   7.2842
     7.3133

          k = 0.2000 0.1155 0.0000 ( 44694 PWs)   bands (ev):

    -6.5169  -5.5120  -4.8512  -4.6823  -4.3166  -4.3035  -4.1040  -4.0165
    -3.9684  -3.9650  -3.8628  -3.7484  -3.7023  -3.5926  -3.5891  -3.5800
    -3.4979  -3.2817  -3.1603  -3.1572  -3.1466  -3.1179  -3.0766  -3.0458
    -3.0187  -2.9741  -2.9688  -2.9655  -2.8774  -2.8628  -2.8569  -2.7813
    -2.7671  -2.7484  -2.7415  -2.5908  -2.5471  -2.5234  -2.5196  -2.4892
    -2.3110  -2.2401  -2.2346  -2.1825  -2.1563  -2.1419  -2.1287  -2.0282
    -1.9500  -1.8887  -1.8659  -1.8511  -1.8060  -1.7860  -1.7177  -1.5679
    -1.4747  -1.4701  -1.4213  -1.4138  -1.3781  -1.3236  -1.3086  -1.2978
    -1.2743  -1.2580  -1.1948  -1.1783  -1.1396  -1.1132  -1.0989  -1.0500
    -1.0186  -1.0087  -1.0079  -0.9209  -0.9150  -0.9027  -0.8706  -0.8280
    -0.8153  -0.8084  -0.7840  -0.7419  -0.7074  -0.6936  -0.6833  -0.6807
    -0.6483  -0.6411  -0.5910  -0.5610  -0.5389  -0.5276  -0.5131  -0.5014
    -0.4936  -0.4578  -0.4300  -0.4260  -0.3547  -0.2896  -0.2817  -0.2526
    -0.2470  -0.2374  -0.2252  -0.2236  -0.1745  -0.1639  -0.1588  -0.1458
     0.0783   0.1863   0.2329   0.2563   0.2630   0.2660   0.2790   0.3192
     0.3240   0.3788   0.4642   0.4881   0.5574   0.6103   0.6110   0.6561
     0.6659   0.6802   0.7177   0.7319   0.7401   0.8291   0.8631   0.8702
     0.8795   0.8832   1.0385   1.0783   1.0898   1.0981   1.1162   1.1164
     1.1336   1.2047   1.2258   1.2584   1.2773   1.2821   1.3358   1.3488
     1.3608   1.3691   1.4489   1.4670   1.4959   1.5009   1.5411   1.6028
     1.6268   1.6526   1.6597   1.6677   1.6909   1.7212   1.7843   1.7885
     1.8425   1.8503   1.8688   1.8781   1.9024   1.9121   1.9166   1.9295
     1.9338   1.9851   1.9880   2.1265   2.1307   2.1536   2.1811   2.1883
     2.1899   2.2165   2.2514   2.2567   2.2765   2.3577   2.3747   2.4003
     2.4531   2.5656   2.5691   2.5824   2.6085   2.9621   2.9994   3.5326
     3.7197   3.7459   3.8603   4.6657   5.1056   5.1671   5.8486   5.9281
     5.9419   6.0072   6.2493   6.7340   6.8841   7.0434   7.2731   7.2847
     7.3134

          k = 0.2000 0.3464 0.0000 ( 44714 PWs)   bands (ev):

    -6.2324  -5.3598  -4.9709  -4.9585  -4.6232  -3.8923  -3.8886  -3.8844
    -3.8712  -3.8340  -3.8170  -3.7958  -3.7064  -3.7026  -3.5364  -3.3209
    -3.3038  -3.3011  -3.2995  -3.2324  -3.2051  -3.0859  -3.0676  -3.0629
    -3.0526  -2.9934  -2.9509  -2.9127  -2.9085  -2.9018  -2.8437  -2.8173
    -2.8080  -2.7514  -2.7403  -2.6467  -2.5101  -2.4054  -2.3158  -2.3091
    -2.2691  -2.2596  -2.2436  -2.2395  -2.1814  -2.1513  -2.1043  -2.0209
    -2.0066  -1.9172  -1.8836  -1.8732  -1.8370  -1.8242  -1.7481  -1.7271
    -1.7171  -1.5673  -1.5450  -1.5210  -1.4735  -1.4587  -1.4207  -1.4134
    -1.4059  -1.3487  -1.3170  -1.2040  -1.1932  -1.1792  -1.1637  -1.1335
    -1.1191  -1.0710  -1.0348  -1.0134  -0.9636  -0.9004  -0.8968  -0.8678
    -0.8510  -0.8314  -0.8205  -0.7994  -0.7799  -0.7649  -0.7385  -0.7211
    -0.7030  -0.6834  -0.5885  -0.5826  -0.5711  -0.5493  -0.5198  -0.5060
    -0.4854  -0.4583  -0.4362  -0.4325  -0.4267  -0.4182  -0.4120  -0.3916
    -0.3561  -0.3362  -0.2468  -0.2147  -0.1855  -0.1144  -0.1005  -0.0904
    -0.0743   0.0987   0.1241   0.1652   0.2244   0.2328   0.2793   0.2895
     0.3119   0.3252   0.3619   0.3785   0.4008   0.4146   0.4278   0.5085
     0.6008   0.6545   0.6679   0.6842   0.7086   0.7323   0.7605   0.8034
     0.8822   0.9144   0.9195   0.9462   1.0028   1.0321   1.0749   1.1240
     1.1281   1.1416   1.2005   1.2158   1.2264   1.2418   1.2452   1.2654
     1.2718   1.2810   1.2884   1.3906   1.4498   1.4819   1.6141   1.6240
     1.6454   1.7721   1.7890   1.8042   1.8096   1.8894   1.9073   1.9280
     1.9443   1.9666   1.9770   1.9920   2.0098   2.0124   2.0228   2.0589
     2.0785   2.0930   2.1677   2.1924   2.2016   2.2324   2.2403   2.2805
     2.4118   2.4403   2.4691   2.4883   2.5418   2.5489   2.5684   2.6579
     2.7103   3.0374   3.2108   3.2480   3.6084   3.7747   3.7790   3.7896
     4.3072   4.4659   4.4874   4.6393   4.7204   4.7478   5.3596   5.8087
     5.9027   5.9156   6.1219   6.4129   6.6218   6.6590   6.6959   6.7155
     6.7341

          k = 0.2000-0.5774 0.0000 ( 44692 PWs)   bands (ev):

    -5.7460  -5.6627  -5.2014  -4.9812  -4.4334  -4.2199  -3.8897  -3.8368
    -3.7545  -3.7073  -3.6008  -3.5948  -3.5004  -3.4944  -3.4076  -3.3816
    -3.3660  -3.3415  -3.3285  -3.3105  -3.1973  -3.1677  -3.1601  -3.1372
    -3.1200  -3.1107  -3.0444  -2.9525  -2.9075  -2.7992  -2.7758  -2.7598
    -2.7520  -2.7293  -2.6955  -2.6420  -2.5205  -2.5161  -2.4069  -2.3333
    -2.3168  -2.2549  -2.1867  -2.1574  -2.1334  -2.0652  -2.0012  -1.9596
    -1.9237  -1.9036  -1.8828  -1.8448  -1.8311  -1.7902  -1.7200  -1.7164
    -1.6921  -1.6832  -1.6711  -1.6654  -1.6104  -1.6058  -1.5834  -1.4797
    -1.4654  -1.3964  -1.3714  -1.3089  -1.2725  -1.2395  -1.2161  -1.1790
    -1.1704  -1.1642  -1.1023  -1.0905  -1.0615  -1.0330  -1.0028  -0.9555
    -0.9356  -0.8477  -0.8409  -0.8311  -0.8172  -0.8127  -0.7337  -0.6781
    -0.6358  -0.6280  -0.6176  -0.5919  -0.5552  -0.5473  -0.5389  -0.5116
    -0.5076  -0.4983  -0.4743  -0.4264  -0.4084  -0.4027  -0.3998  -0.3845
    -0.3736  -0.3709  -0.3348  -0.2988  -0.2767  -0.0841  -0.0643   0.0079
     0.0286   0.1144   0.1309   0.1395   0.1555   0.1826   0.2167   0.2359
     0.2380   0.2540   0.3213   0.3622   0.3762   0.3988   0.4373   0.4557
     0.5111   0.5317   0.5657   0.6526   0.7109   0.7807   0.7917   0.8112
     0.8663   0.8784   0.9088   0.9276   0.9441   0.9460   0.9610   0.9805
     1.0772   1.1091   1.1117   1.1627   1.1688   1.1910   1.1941   1.2212
     1.2315   1.3747   1.4082   1.4561   1.5212   1.5513   1.6279   1.6354
     1.6819   1.7438   1.7549   1.7715   1.8501   1.8612   1.9413   1.9517
     1.9735   1.9878   1.9936   2.0185   2.0370   2.0836   2.1495   2.1531
     2.1774   2.1930   2.1955   2.2077   2.2144   2.2850   2.3874   2.4145
     2.4244   2.4274   2.4327   2.4976   2.5291   2.6210   2.7243   3.4998
     3.5965   3.6231   3.7721   3.8269   3.9203   3.9682   3.9913   4.3299
     4.5654   4.6061   4.7997   5.0468   5.0651   5.1564   5.1929   5.3564
     5.4677   5.5287   5.5756   5.8466   5.9586   6.0313   6.4911   6.6645
     6.6949

          k = 0.2000-0.3464 0.0000 ( 44714 PWs)   bands (ev):

    -6.2324  -5.3593  -4.9712  -4.9591  -4.6222  -3.8910  -3.8857  -3.8845
    -3.8740  -3.8342  -3.8177  -3.7969  -3.7066  -3.7022  -3.5362  -3.3173
    -3.3060  -3.3011  -3.3008  -3.2316  -3.2053  -3.0848  -3.0678  -3.0647
    -3.0543  -2.9910  -2.9501  -2.9153  -2.9070  -2.9034  -2.8451  -2.8173
    -2.8048  -2.7532  -2.7374  -2.6452  -2.5102  -2.4066  -2.3188  -2.3048
    -2.2724  -2.2574  -2.2438  -2.2420  -2.1821  -2.1518  -2.1055  -2.0221
    -2.0044  -1.9184  -1.8829  -1.8738  -1.8341  -1.8269  -1.7460  -1.7280
    -1.7170  -1.5669  -1.5430  -1.5249  -1.4747  -1.4615  -1.4215  -1.4129
    -1.4066  -1.3488  -1.3174  -1.2012  -1.1950  -1.1806  -1.1639  -1.1336
    -1.1167  -1.0695  -1.0367  -1.0135  -0.9640  -0.9036  -0.8955  -0.8698
    -0.8510  -0.8299  -0.8208  -0.8008  -0.7791  -0.7654  -0.7349  -0.7214
    -0.7005  -0.6815  -0.5876  -0.5817  -0.5717  -0.5472  -0.5214  -0.5035
    -0.4851  -0.4607  -0.4354  -0.4301  -0.4258  -0.4160  -0.4145  -0.3911
    -0.3564  -0.3368  -0.2470  -0.2163  -0.1841  -0.1134  -0.0994  -0.0903
    -0.0740   0.1031   0.1175   0.1644   0.2273   0.2334   0.2803   0.2882
     0.3139   0.3219   0.3627   0.3764   0.4022   0.4116   0.4277   0.5066
     0.6025   0.6551   0.6696   0.6831   0.7060   0.7357   0.7615   0.8042
     0.8788   0.9170   0.9224   0.9465   1.0014   1.0326   1.0752   1.1231
     1.1278   1.1419   1.2015   1.2151   1.2264   1.2410   1.2445   1.2658
     1.2729   1.2799   1.2884   1.3906   1.4495   1.4819   1.6134   1.6250
     1.6452   1.7721   1.7894   1.8035   1.8094   1.8900   1.9083   1.9271
     1.9431   1.9662   1.9783   1.9925   2.0106   2.0143   2.0227   2.0602
     2.0783   2.0900   2.1692   2.1935   2.2008   2.2327   2.2396   2.2813
     2.4102   2.4385   2.4669   2.4873   2.5398   2.5500   2.5661   2.6606
     2.7093   3.0388   3.2116   3.2492   3.6061   3.7759   3.7765   3.7897
     4.3083   4.4669   4.4856   4.6403   4.7203   4.7476   5.3594   5.8052
     5.9024   5.9155   6.1226   6.4126   6.6210   6.6622   6.6960   6.7153
     6.7346

          k = 0.4000-0.2309 0.0000 ( 44748 PWs)   bands (ev):

    -6.0967  -5.4890  -5.2095  -4.6087  -4.3497  -4.3371  -4.1480  -3.9751
    -3.8375  -3.7164  -3.6273  -3.6216  -3.5713  -3.4620  -3.4209  -3.4090
    -3.4037  -3.3949  -3.2571  -3.2325  -3.2274  -3.1879  -3.1814  -3.1584
    -3.0911  -3.0545  -3.0512  -2.9383  -2.8041  -2.7914  -2.7868  -2.7711
    -2.7674  -2.6675  -2.5430  -2.5336  -2.5234  -2.4864  -2.4824  -2.3820
    -2.2819  -2.2167  -2.1968  -2.1872  -2.1619  -2.1314  -2.0840  -2.0559
    -2.0493  -2.0160  -1.9843  -1.8530  -1.8366  -1.8311  -1.8088  -1.7432
    -1.6726  -1.6433  -1.6128  -1.6071  -1.5862  -1.4577  -1.4089  -1.3980
    -1.3935  -1.3728  -1.2887  -1.2837  -1.2511  -1.1641  -1.1424  -1.1375
    -1.0808  -1.0321  -1.0284  -0.9909  -0.9899  -0.9540  -0.9217  -0.9067
    -0.8971  -0.8862  -0.8746  -0.8635  -0.8487  -0.8413  -0.7389  -0.7293
    -0.7181  -0.7015  -0.6985  -0.6926  -0.6687  -0.5584  -0.5289  -0.5249
    -0.4895  -0.4773  -0.4574  -0.4288  -0.3992  -0.3882  -0.2963  -0.2812
    -0.2349  -0.2136  -0.1904  -0.1826  -0.1558  -0.0131   0.0140   0.0734
     0.0954   0.1465   0.1770   0.1934   0.2097   0.2107   0.2146   0.2479
     0.2836   0.3171   0.3242   0.3359   0.3597   0.3827   0.3891   0.4111
     0.4301   0.5263   0.5560   0.5673   0.6366   0.6715   0.7625   0.7627
     0.8609   0.8678   0.9158   0.9611   1.0354   1.0419   1.0844   1.1016
     1.1287   1.1320   1.1696   1.1972   1.2336   1.2430   1.2991   1.3440
     1.3454   1.3908   1.4049   1.4221   1.4282   1.4800   1.5645   1.5976
     1.6667   1.6914   1.6956   1.7162   1.7595   1.8092   1.8161   1.8860
     1.8951   1.8990   1.9148   1.9642   1.9991   2.0036   2.0225   2.1419
     2.1424   2.1609   2.1667   2.1754   2.1772   2.1969   2.2186   2.3935
     2.4126   2.4190   2.4253   2.4301   2.5984   2.6475   2.9057   3.0058
     3.0651   3.2550   3.4774   3.4850   3.7648   3.8630   3.9751   4.1698
     4.4715   4.7058   4.7120   4.7844   4.8974   4.9367   5.0457   5.0661
     5.2975   5.3563   5.8872   5.9784   6.4001   6.5123   6.8883   6.9754
     7.4918

          k = 0.4000 0.0000 0.0000 ( 44714 PWs)   bands (ev):

    -6.2324  -5.3598  -4.9709  -4.9584  -4.6232  -3.8923  -3.8886  -3.8843
    -3.8712  -3.8340  -3.8170  -3.7958  -3.7065  -3.7026  -3.5364  -3.3209
    -3.3038  -3.3010  -3.2995  -3.2324  -3.2051  -3.0859  -3.0676  -3.0629
    -3.0526  -2.9934  -2.9509  -2.9127  -2.9085  -2.9018  -2.8437  -2.8173
    -2.8080  -2.7514  -2.7403  -2.6467  -2.5101  -2.4054  -2.3158  -2.3091
    -2.2691  -2.2596  -2.2436  -2.2396  -2.1814  -2.1513  -2.1043  -2.0209
    -2.0066  -1.9172  -1.8836  -1.8732  -1.8371  -1.8242  -1.7481  -1.7271
    -1.7171  -1.5673  -1.5449  -1.5210  -1.4735  -1.4587  -1.4207  -1.4134
    -1.4059  -1.3487  -1.3170  -1.2040  -1.1932  -1.1792  -1.1637  -1.1335
    -1.1191  -1.0710  -1.0348  -1.0134  -0.9635  -0.9004  -0.8968  -0.8678
    -0.8510  -0.8314  -0.8205  -0.7994  -0.7799  -0.7649  -0.7385  -0.7211
    -0.7030  -0.6834  -0.5886  -0.5826  -0.5711  -0.5493  -0.5198  -0.5060
    -0.4854  -0.4583  -0.4362  -0.4325  -0.4267  -0.4182  -0.4120  -0.3916
    -0.3561  -0.3362  -0.2468  -0.2147  -0.1855  -0.1144  -0.1005  -0.0904
    -0.0743   0.0987   0.1241   0.1652   0.2244   0.2328   0.2792   0.2895
     0.3119   0.3252   0.3619   0.3784   0.4008   0.4146   0.4278   0.5085
     0.6008   0.6545   0.6680   0.6842   0.7086   0.7323   0.7605   0.8034
     0.8822   0.9144   0.9195   0.9462   1.0028   1.0321   1.0749   1.1240
     1.1281   1.1416   1.2005   1.2158   1.2264   1.2417   1.2452   1.2654
     1.2718   1.2810   1.2884   1.3906   1.4498   1.4819   1.6141   1.6240
     1.6454   1.7721   1.7890   1.8042   1.8096   1.8894   1.9073   1.9280
     1.9443   1.9666   1.9770   1.9920   2.0098   2.0124   2.0228   2.0589
     2.0785   2.0930   2.1677   2.1925   2.2016   2.2324   2.2403   2.2805
     2.4118   2.4403   2.4691   2.4883   2.5418   2.5490   2.5684   2.6579
     2.7103   3.0374   3.2108   3.2480   3.6084   3.7747   3.7790   3.7896
     4.3072   4.4659   4.4874   4.6393   4.7204   4.7478   5.3596   5.8087
     5.9027   5.9156   6.1219   6.4129   6.6218   6.6590   6.6959   6.7155
     6.7341

          k = 0.4000 0.2309 0.0000 ( 44748 PWs)   bands (ev):

    -6.0967  -5.4904  -5.2077  -4.6104  -4.3491  -4.3364  -4.1481  -3.9762
    -3.8377  -3.7166  -3.6265  -3.6213  -3.5716  -3.4614  -3.4238  -3.4079
    -3.4044  -3.3935  -3.2576  -3.2319  -3.2268  -3.1879  -3.1820  -3.1597
    -3.0912  -3.0541  -3.0510  -2.9376  -2.8054  -2.7961  -2.7820  -2.7701
    -2.7671  -2.6691  -2.5443  -2.5327  -2.5225  -2.4883  -2.4816  -2.3802
    -2.2825  -2.2163  -2.1972  -2.1884  -2.1567  -2.1282  -2.0811  -2.0554
    -2.0500  -2.0171  -1.9857  -1.8562  -1.8358  -1.8309  -1.8088  -1.7406
    -1.6736  -1.6399  -1.6112  -1.6077  -1.5858  -1.4592  -1.4075  -1.3990
    -1.3907  -1.3772  -1.2850  -1.2847  -1.2507  -1.1646  -1.1424  -1.1424
    -1.0850  -1.0309  -1.0274  -0.9889  -0.9889  -0.9519  -0.9209  -0.9051
    -0.8973  -0.8872  -0.8724  -0.8630  -0.8508  -0.8409  -0.7387  -0.7310
    -0.7173  -0.6982  -0.6975  -0.6914  -0.6703  -0.5591  -0.5298  -0.5272
    -0.4934  -0.4767  -0.4561  -0.4331  -0.4016  -0.3927  -0.2976  -0.2801
    -0.2354  -0.2139  -0.1938  -0.1824  -0.1541  -0.0133   0.0142   0.0730
     0.0943   0.1463   0.1791   0.1934   0.2118   0.2129   0.2152   0.2514
     0.2839   0.3178   0.3247   0.3344   0.3605   0.3795   0.3858   0.4109
     0.4323   0.5268   0.5540   0.5678   0.6363   0.6708   0.7613   0.7620
     0.8612   0.8660   0.9167   0.9622   1.0350   1.0415   1.0818   1.0985
     1.1303   1.1329   1.1700   1.1965   1.2343   1.2437   1.2996   1.3445
     1.3476   1.3936   1.4064   1.4199   1.4278   1.4763   1.5650   1.5979
     1.6662   1.6906   1.6950   1.7164   1.7598   1.8096   1.8161   1.8845
     1.8963   1.8991   1.9122   1.9652   1.9975   2.0016   2.0227   2.1413
     2.1423   2.1623   2.1669   2.1768   2.1775   2.1995   2.2197   2.3937
     2.4140   2.4204   2.4274   2.4320   2.5984   2.6468   2.9064   3.0080
     3.0626   3.2536   3.4777   3.4850   3.7637   3.8632   3.9737   4.1698
     4.4763   4.7070   4.7121   4.7821   4.8961   4.9362   5.0476   5.0682
     5.2973   5.3563   5.8881   5.9776   6.4004   6.5117   6.8869   6.9755
     7.4928

          k = 0.4000-0.6928 0.0000 ( 44692 PWs)   bands (ev):

    -5.7442  -5.6655  -5.2000  -4.9812  -4.4350  -4.2190  -3.8903  -3.8371
    -3.7549  -3.7063  -3.6002  -3.5956  -3.5003  -3.4949  -3.4073  -3.3789
    -3.3644  -3.3477  -3.3273  -3.3104  -3.1970  -3.1680  -3.1600  -3.1378
    -3.1181  -3.1126  -3.0444  -2.9526  -2.9059  -2.7992  -2.7772  -2.7588
    -2.7512  -2.7312  -2.6945  -2.6413  -2.5213  -2.5151  -2.4070  -2.3333
    -2.3174  -2.2547  -2.1874  -2.1588  -2.1287  -2.0690  -1.9961  -1.9571
    -1.9270  -1.9041  -1.8818  -1.8453  -1.8313  -1.7877  -1.7206  -1.7144
    -1.6936  -1.6823  -1.6701  -1.6672  -1.6100  -1.6018  -1.5884  -1.4783
    -1.4668  -1.3960  -1.3690  -1.3124  -1.2697  -1.2396  -1.2148  -1.1781
    -1.1729  -1.1664  -1.1022  -1.0897  -1.0610  -1.0347  -1.0028  -0.9543
    -0.9331  -0.8489  -0.8410  -0.8294  -0.8168  -0.8113  -0.7362  -0.6790
    -0.6346  -0.6292  -0.6167  -0.5895  -0.5577  -0.5465  -0.5376  -0.5159
    -0.5098  -0.5024  -0.4743  -0.4214  -0.4093  -0.4058  -0.4015  -0.3809
    -0.3767  -0.3693  -0.3361  -0.2991  -0.2779  -0.0859  -0.0656   0.0070
     0.0303   0.1174   0.1266   0.1406   0.1554   0.1864   0.2180   0.2341
     0.2367   0.2554   0.3231   0.3638   0.3765   0.3977   0.4366   0.4565
     0.5132   0.5278   0.5648   0.6512   0.7116   0.7793   0.7929   0.8117
     0.8672   0.8775   0.9073   0.9297   0.9445   0.9473   0.9615   0.9778
     1.0795   1.1087   1.1130   1.1631   1.1686   1.1909   1.1940   1.2188
     1.2303   1.3748   1.4050   1.4562   1.5209   1.5522   1.6280   1.6370
     1.6831   1.7442   1.7543   1.7725   1.8509   1.8595   1.9410   1.9495
     1.9732   1.9867   1.9930   2.0195   2.0369   2.0848   2.1499   2.1531
     2.1751   2.1936   2.1951   2.2083   2.2145   2.2851   2.3874   2.4161
     2.4251   2.4292   2.4342   2.4971   2.5309   2.6211   2.7240   3.4985
     3.5969   3.6238   3.7705   3.8281   3.9199   3.9693   3.9873   4.3317
     4.5650   4.6081   4.8000   5.0467   5.0640   5.1533   5.1959   5.3594
     5.4729   5.5310   5.5702   5.8478   5.9581   6.0304   6.4922   6.6640
     6.6937

          k = 0.4000-0.4619 0.0000 ( 44692 PWs)   bands (ev):

    -5.7460  -5.6627  -5.2014  -4.9812  -4.4334  -4.2199  -3.8897  -3.8368
    -3.7545  -3.7073  -3.6008  -3.5948  -3.5003  -3.4944  -3.4077  -3.3816
    -3.3660  -3.3415  -3.3285  -3.3105  -3.1973  -3.1677  -3.1601  -3.1372
    -3.1200  -3.1107  -3.0444  -2.9525  -2.9075  -2.7992  -2.7758  -2.7598
    -2.7520  -2.7293  -2.6955  -2.6420  -2.5204  -2.5161  -2.4069  -2.3333
    -2.3168  -2.2549  -2.1867  -2.1574  -2.1333  -2.0652  -2.0013  -1.9596
    -1.9237  -1.9036  -1.8828  -1.8448  -1.8311  -1.7902  -1.7200  -1.7164
    -1.6920  -1.6832  -1.6711  -1.6654  -1.6104  -1.6057  -1.5834  -1.4797
    -1.4654  -1.3964  -1.3713  -1.3089  -1.2725  -1.2395  -1.2161  -1.1790
    -1.1704  -1.1642  -1.1023  -1.0905  -1.0615  -1.0330  -1.0028  -0.9555
    -0.9357  -0.8477  -0.8409  -0.8311  -0.8172  -0.8127  -0.7337  -0.6781
    -0.6358  -0.6280  -0.6176  -0.5919  -0.5552  -0.5473  -0.5389  -0.5116
    -0.5076  -0.4983  -0.4744  -0.4264  -0.4084  -0.4027  -0.3998  -0.3844
    -0.3737  -0.3709  -0.3348  -0.2988  -0.2767  -0.0841  -0.0642   0.0079
     0.0286   0.1144   0.1309   0.1395   0.1555   0.1826   0.2168   0.2359
     0.2381   0.2540   0.3213   0.3622   0.3762   0.3988   0.4373   0.4557
     0.5111   0.5316   0.5657   0.6526   0.7109   0.7807   0.7917   0.8112
     0.8663   0.8784   0.9088   0.9276   0.9441   0.9460   0.9610   0.9805
     1.0772   1.1091   1.1117   1.1627   1.1688   1.1910   1.1941   1.2212
     1.2315   1.3747   1.4082   1.4561   1.5212   1.5513   1.6279   1.6354
     1.6819   1.7438   1.7549   1.7715   1.8501   1.8612   1.9413   1.9517
     1.9735   1.9878   1.9936   2.0185   2.0370   2.0836   2.1495   2.1531
     2.1774   2.1930   2.1955   2.2077   2.2144   2.2850   2.3874   2.4145
     2.4244   2.4274   2.4327   2.4976   2.5291   2.6209   2.7243   3.4998
     3.5965   3.6231   3.7721   3.8269   3.9203   3.9682   3.9913   4.3299
     4.5654   4.6061   4.7997   5.0468   5.0651   5.1564   5.1929   5.3563
     5.4677   5.5287   5.5756   5.8466   5.9586   6.0313   6.4911   6.6645
     6.6950

     the Fermi energy is     2.1942 ev

!    total energy              =  -27755.49760273 Ry
     total all-electron energy =  -1326642.263019 Ry
     estimated scf accuracy    <       0.00000086 Ry
     smearing contrib. (-TS)   =       0.00441790 Ry
     internal energy E=F+TS    =  -27755.50202063 Ry

     The total energy is F=E-TS. E is the sum of the following terms:
     one-electron contribution =  -22810.96031789 Ry
     hartree contribution      =   11708.27466440 Ry
     xc contribution           =    -890.82176506 Ry
     ewald contribution        =    9712.00866629 Ry
     one-center paw contrib.   =  -25474.00326837 Ry

     convergence has been achieved in  17 iterations

     negative rho (up, down):  3.348E-03 0.000E+00

     Forces acting on atoms (cartesian axes, Ry/au):

     atom    1 type  1   force =     0.00229969    0.00131618   -0.00575707
     atom    2 type  1   force =     0.00062714    0.00209579   -0.00432315
     atom    3 type  1   force =    -0.00161555    0.00350978   -0.00526051
     atom    4 type  1   force =     0.00213969   -0.00050462   -0.00433100
     atom    5 type  1   force =    -0.00006929   -0.00003216   -0.00338577
     atom    6 type  1   force =    -0.00188992    0.00064026   -0.00398576
     atom    7 type  1   force =     0.00224134   -0.00315787   -0.00526249
     atom    8 type  1   force =    -0.00039366   -0.00194620   -0.00398546
     atom    9 type  1   force =    -0.00286159   -0.00164352   -0.00445078
     atom   10 type  1   force =     0.00308470    0.00175872    0.00751750
     atom   11 type  1   force =    -0.00002654    0.00178321    0.00402502
     atom   12 type  1   force =    -0.00173620    0.00282554    0.00543956
     atom   13 type  1   force =     0.00155381   -0.00091357    0.00401702
     atom   14 type  1   force =    -0.00003444   -0.00001010    0.00211817
     atom   15 type  1   force =    -0.00172647    0.00096291    0.00497184
     atom   16 type  1   force =     0.00159456   -0.00291997    0.00543661
     atom   17 type  1   force =    -0.00003410   -0.00195793    0.00497199
     atom   18 type  1   force =    -0.00321563   -0.00184599    0.00318989
     atom   19 type  1   force =    -0.00001238    0.00001872   -0.00023333
     atom   20 type  1   force =     0.00000952    0.00001395   -0.00026232
     atom   21 type  1   force =     0.00001917    0.00004021   -0.00000927
     atom   22 type  1   force =    -0.00001454   -0.00004757   -0.00011330
     atom   23 type  1   force =     0.00003931   -0.00000304   -0.00000805
     atom   24 type  1   force =    -0.00002731   -0.00001742    0.00001715
     atom   25 type  1   force =     0.00004279    0.00001877   -0.00011270
     atom   26 type  1   force =     0.00000167   -0.00001703   -0.00024287
     atom   27 type  1   force =    -0.00004484    0.00000758   -0.00012926
     atom   28 type  1   force =    -0.00014044   -0.00008527    0.00009367
     atom   29 type  1   force =     0.00015909   -0.00008540    0.00009832
     atom   30 type  1   force =     0.00000130    0.00007408   -0.00019626
     atom   31 type  1   force =     0.00001004    0.00018374    0.00009727
     atom   32 type  1   force =    -0.00001539   -0.00000518    0.00009043
     atom   33 type  1   force =     0.00001178   -0.00001396    0.00008323
     atom   34 type  1   force =     0.00007716   -0.00003286   -0.00019411
     atom   35 type  1   force =    -0.00000235    0.00001867    0.00008574
     atom   36 type  1   force =    -0.00005671   -0.00003177   -0.00020825
     atom   37 type  2   force =     0.00000460    0.00000334    0.00019830
     The non-local contrib.  to forces
     atom    1 type  1   force =     0.00296325    0.00169778   -0.01649552
     atom    2 type  1   force =    -0.00009740    0.00225754   -0.01710612
     atom    3 type  1   force =    -0.00091832    0.00153931   -0.01670637
     atom    4 type  1   force =     0.00191703   -0.00121305   -0.01711475
     atom    5 type  1   force =     0.00000383    0.00000746   -0.01767704
     atom    6 type  1   force =    -0.00153641    0.00027154   -0.01678860
     atom    7 type  1   force =     0.00088351   -0.00156860   -0.01671151
     atom    8 type  1   force =    -0.00053622   -0.00145506   -0.01678515
     atom    9 type  1   force =    -0.00134018   -0.00076625   -0.01640703
     atom   10 type  1   force =     0.00184199    0.00103572    0.00100244
     atom   11 type  1   force =    -0.00005580    0.00170479    0.00111140
     atom   12 type  1   force =    -0.00049928    0.00219332    0.00153532
     atom   13 type  1   force =     0.00147516   -0.00090092    0.00109770
     atom   14 type  1   force =     0.00010077    0.00007010   -0.00002838
     atom   15 type  1   force =    -0.00178334   -0.00028711    0.00157130
     atom   16 type  1   force =     0.00167166   -0.00153393    0.00153535
     atom   17 type  1   force =    -0.00114791   -0.00137973    0.00157940
     atom   18 type  1   force =    -0.00210892   -0.00120533    0.00164734
     atom   19 type  1   force =    -0.00132018    0.00054486    0.00211748
     atom   20 type  1   force =     0.00118622    0.00067966    0.00257948
     atom   21 type  1   force =     0.00008039    0.00083945    0.00295412
     atom   22 type  1   force =     0.00001247    0.00205581    0.00023095
     atom   23 type  1   force =     0.00077526   -0.00034282    0.00295527
     atom   24 type  1   force =    -0.00085741   -0.00048279    0.00330431
     atom   25 type  1   force =    -0.00170459   -0.00099202   -0.00058109
     atom   26 type  1   force =    -0.00018559   -0.00142153    0.00211101
     atom   27 type  1   force =     0.00177908   -0.00101476    0.00021656
     atom   28 type  1   force =     0.04152777    0.02396931    0.01292570
     atom   29 type  1   force =    -0.04166559    0.02388777    0.01280661
     atom   30 type  1   force =     0.00004910   -0.00029650    0.01388549
     atom   31 type  1   force =    -0.00013709   -0.04802450    0.01281595
     atom   32 type  1   force =    -0.00384107   -0.00221397    0.01648441
     atom   33 type  1   force =     0.00365101   -0.00221997    0.01660188
     atom   34 type  1   force =    -0.00021408    0.00019509    0.01388725
     atom   35 type  1   force =    -0.00009056    0.00427530    0.01658963
     atom   36 type  1   force =     0.00018229    0.00011079    0.01383152
     atom   37 type  2   force =    -0.00002758   -0.00001503   -0.01800762
     The ionic contribution  to forces
     atom    1 type  1   force =     0.14185768    0.08194785  -96.27108351
     atom    2 type  1   force =     0.01195742    0.14514928  -96.20972691
     atom    3 type  1   force =    -0.13337097    0.21701393  -96.23149508
     atom    4 type  1   force =     0.13164181   -0.06219126  -96.20963291
     atom    5 type  1   force =     0.00443411    0.00256860  -96.16381781
     atom    6 type  1   force =    -0.12910582    0.08060132  -96.17516900
     atom    7 type  1   force =     0.12121708   -0.22403947  -96.23148501
     atom    8 type  1   force =     0.00524264   -0.15216010  -96.17525196
     atom    9 type  1   force =    -0.14183584   -0.08194002  -96.18169711
     atom   10 type  1   force =     0.14020743    0.08139128  -32.38209611
     atom   11 type  1   force =    -0.07160536    0.14058449  -32.48322804
     atom   12 type  1   force =    -0.04910149    0.19749775  -32.40462674
     atom   13 type  1   force =     0.08565262   -0.13241007  -32.48277443
     atom   14 type  1   force =    -0.01416400   -0.00842529  -32.58517771
     atom   15 type  1   force =    -0.07582047   -0.00154444  -32.42856773
     atom   16 type  1   force =     0.14610988   -0.14122824  -32.40492553
     atom   17 type  1   force =    -0.03893721   -0.06514196  -32.42930149
     atom   18 type  1   force =    -0.12815042   -0.07406455  -32.31332596
     atom   19 type  1   force =     0.10957615   -0.03167174   32.30400952
     atom   20 type  1   force =    -0.09476614   -0.05335027   32.19610520
     atom   21 type  1   force =    -0.01607736   -0.00548220   31.56650499
     atom   22 type  1   force =    -0.01054952   -0.00765163   31.89765745
     atom   23 type  1   force =    -0.01388553   -0.01205441   31.56634162
     atom   24 type  1   force =     0.02143268    0.01093407   31.54080259
     atom   25 type  1   force =    -0.01288272   -0.00726083   32.02843616
     atom   26 type  1   force =     0.02627037    0.11156999   32.30296889
     atom   27 type  1   force =    -0.01061060   -0.00587649   31.89774282
     atom   28 type  1   force =    -0.39234503   -0.22605689   95.51784263
     atom   29 type  1   force =     0.39898142   -0.22833608   95.46572088
     atom   30 type  1   force =    -0.00769784    0.03467717   95.44382939
     atom   31 type  1   force =     0.00146153    0.46014878   95.46539611
     atom   32 type  1   force =    -0.07190887   -0.04118424   95.24893788
     atom   33 type  1   force =     0.06684749   -0.03449015   95.26791300
     atom   34 type  1   force =     0.02591600   -0.02443423   95.44347924
     atom   35 type  1   force =     0.00348126    0.07451071   95.26759107
     atom   36 type  1   force =    -0.03108759   -0.01852624   95.41302526
     atom   37 type  2   force =     0.00161519    0.00092556   11.92907833
     The local contribution  to forces
     atom    1 type  1   force =    -0.14207795   -0.08202679   96.26367881
     atom    2 type  1   force =    -0.01128794   -0.14486246   96.20445043
     atom    3 type  1   force =     0.13239245   -0.21437487   96.22487544
     atom    4 type  1   force =    -0.13110578    0.06263437   96.20438351
     atom    5 type  1   force =    -0.00441525   -0.00257720   96.16022146
     atom    6 type  1   force =     0.12838030   -0.08005910   96.17011592
     atom    7 type  1   force =    -0.11946268    0.22186984   96.22487380
     atom    8 type  1   force =    -0.00512389    0.15121802   96.17017894
     atom    9 type  1   force =     0.13984612    0.08075762   96.17570904
     atom   10 type  1   force =    -0.13869282   -0.08042140   32.38698991
     atom   11 type  1   force =     0.07166027   -0.14007708   32.48413756
     atom   12 type  1   force =     0.04767434   -0.19626370   32.40678476
     atom   13 type  1   force =    -0.08527287    0.13219206   32.48373216
     atom   14 type  1   force =     0.01409084    0.00833013   32.58500863
     atom   15 type  1   force =     0.07548566    0.00282325   32.43017686
     atom   16 type  1   force =    -0.14583163    0.13938607   32.40707315
     atom   17 type  1   force =     0.03991756    0.06414187   32.43086025
     atom   18 type  1   force =     0.12668404    0.07317923   32.31364467
     atom   19 type  1   force =    -0.10813554    0.03107405  -32.30451229
     atom   20 type  1   force =     0.09334274    0.05262520  -32.19709515
     atom   21 type  1   force =     0.01613676    0.00466238  -31.56814575
     atom   22 type  1   force =     0.01047518    0.00571777  -31.89656316
     atom   23 type  1   force =     0.01312002    0.01244798  -31.56798389
     atom   24 type  1   force =    -0.02053705   -0.01053117  -31.54274761
     atom   25 type  1   force =     0.01450419    0.00821574  -32.02652974
     atom   26 type  1   force =    -0.02614844   -0.10995759  -32.30344127
     atom   27 type  1   force =     0.00899571    0.00674018  -31.89662505
     atom   28 type  1   force =     0.34586437    0.19925787  -95.51775750
     atom   29 type  1   force =    -0.35241428    0.20159230  -95.46550143
     atom   30 type  1   force =     0.00772079   -0.03427037  -95.44080003
     atom   31 type  1   force =    -0.00137139   -0.40641884  -95.46523375
     atom   32 type  1   force =     0.07490657    0.04292107  -95.24837568
     atom   33 type  1   force =    -0.06960821    0.03618014  -95.26751050
     atom   34 type  1   force =    -0.02559391    0.02421906  -95.44045866
     atom   35 type  1   force =    -0.00340621   -0.07778779  -95.26714097
     atom   36 type  1   force =     0.03082525    0.01832014  -95.40998280
     atom   37 type  2   force =    -0.00158832   -0.00090728  -11.91070761
     The core correction contribution to forces
     atom    1 type  1   force =    -0.00043776   -0.00025296    0.01757366
     atom    2 type  1   force =     0.00000409   -0.00044164    0.01743927
     atom    3 type  1   force =     0.00032881   -0.00056248    0.01750568
     atom    4 type  1   force =    -0.00038038    0.00022434    0.01743871
     atom    5 type  1   force =    -0.00000308   -0.00000188    0.01731999
     atom    6 type  1   force =     0.00035026   -0.00015728    0.01732004
     atom    7 type  1   force =    -0.00032257    0.00056620    0.01750567
     atom    8 type  1   force =     0.00003888    0.00038203    0.01732081
     atom    9 type  1   force =     0.00037924    0.00021908    0.01737232
     atom   10 type  1   force =    -0.00039372   -0.00022816    0.00078104
     atom   11 type  1   force =     0.00006882   -0.00036037    0.00114740
     atom   12 type  1   force =     0.00021729   -0.00052592    0.00093963
     atom   13 type  1   force =    -0.00027715    0.00023999    0.00114618
     atom   14 type  1   force =     0.00000997    0.00000630    0.00143806
     atom   15 type  1   force =     0.00029556   -0.00007533    0.00099345
     atom   16 type  1   force =    -0.00034619    0.00045103    0.00094007
     atom   17 type  1   force =     0.00008174    0.00029410    0.00099539
     atom   18 type  1   force =     0.00040434    0.00023354    0.00047248
     atom   19 type  1   force =    -0.00019450    0.00008412   -0.00236294
     atom   20 type  1   force =     0.00018837    0.00010439   -0.00232631
     atom   21 type  1   force =     0.00000060    0.00001278   -0.00188447
     atom   22 type  1   force =     0.00001407   -0.00018399   -0.00189157
     atom   23 type  1   force =     0.00001469   -0.00000348   -0.00188442
     atom   24 type  1   force =    -0.00001640   -0.00000528   -0.00191825
     atom   25 type  1   force =     0.00015828    0.00009132   -0.00189485
     atom   26 type  1   force =    -0.00002080   -0.00021290   -0.00236351
     atom   27 type  1   force =    -0.00015618    0.00010612   -0.00189104
     atom   28 type  1   force =     0.00462009    0.00266613   -0.01242774
     atom   29 type  1   force =    -0.00460865    0.00266727   -0.01238400
     atom   30 type  1   force =    -0.00000920   -0.00010879   -0.01652253
     atom   31 type  1   force =     0.00000637   -0.00532652   -0.01238202
     atom   32 type  1   force =     0.00083701    0.00048241   -0.01634149
     atom   33 type  1   force =    -0.00083308    0.00049207   -0.01635616
     atom   34 type  1   force =    -0.00009833    0.00004722   -0.01652226
     atom   35 type  1   force =     0.00000929   -0.00096572   -0.01635754
     atom   36 type  1   force =     0.00009583    0.00005662   -0.01649776
     atom   37 type  2   force =     0.00000000    0.00000000    0.00000000
     The Hubbard contrib.    to forces
     atom    1 type  1   force =     0.00000000    0.00000000    0.00000000
     atom    2 type  1   force =     0.00000000    0.00000000    0.00000000
     atom    3 type  1   force =     0.00000000    0.00000000    0.00000000
     atom    4 type  1   force =     0.00000000    0.00000000    0.00000000
     atom    5 type  1   force =     0.00000000    0.00000000    0.00000000
     atom    6 type  1   force =     0.00000000    0.00000000    0.00000000
     atom    7 type  1   force =     0.00000000    0.00000000    0.00000000
     atom    8 type  1   force =     0.00000000    0.00000000    0.00000000
     atom    9 type  1   force =     0.00000000    0.00000000    0.00000000
     atom   10 type  1   force =     0.00000000    0.00000000    0.00000000
     atom   11 type  1   force =     0.00000000    0.00000000    0.00000000
     atom   12 type  1   force =     0.00000000    0.00000000    0.00000000
     atom   13 type  1   force =     0.00000000    0.00000000    0.00000000
     atom   14 type  1   force =     0.00000000    0.00000000    0.00000000
     atom   15 type  1   force =     0.00000000    0.00000000    0.00000000
     atom   16 type  1   force =     0.00000000    0.00000000    0.00000000
     atom   17 type  1   force =     0.00000000    0.00000000    0.00000000
     atom   18 type  1   force =     0.00000000    0.00000000    0.00000000
     atom   19 type  1   force =     0.00000000    0.00000000    0.00000000
     atom   20 type  1   force =     0.00000000    0.00000000    0.00000000
     atom   21 type  1   force =     0.00000000    0.00000000    0.00000000
     atom   22 type  1   force =     0.00000000    0.00000000    0.00000000
     atom   23 type  1   force =     0.00000000    0.00000000    0.00000000
     atom   24 type  1   force =     0.00000000    0.00000000    0.00000000
     atom   25 type  1   force =     0.00000000    0.00000000    0.00000000
     atom   26 type  1   force =     0.00000000    0.00000000    0.00000000
     atom   27 type  1   force =     0.00000000    0.00000000    0.00000000
     atom   28 type  1   force =     0.00000000    0.00000000    0.00000000
     atom   29 type  1   force =     0.00000000    0.00000000    0.00000000
     atom   30 type  1   force =     0.00000000    0.00000000    0.00000000
     atom   31 type  1   force =     0.00000000    0.00000000    0.00000000
     atom   32 type  1   force =     0.00000000    0.00000000    0.00000000
     atom   33 type  1   force =     0.00000000    0.00000000    0.00000000
     atom   34 type  1   force =     0.00000000    0.00000000    0.00000000
     atom   35 type  1   force =     0.00000000    0.00000000    0.00000000
     atom   36 type  1   force =     0.00000000    0.00000000    0.00000000
     atom   37 type  2   force =     0.00000000    0.00000000    0.00000000
     The SCF correction term to forces
     atom    1 type  1   force =    -0.00000000   -0.00000000    0.00000000
     atom    2 type  1   force =     0.00000000   -0.00000000    0.00000000
     atom    3 type  1   force =    -0.00000000   -0.00000000    0.00000000
     atom    4 type  1   force =     0.00000000    0.00000000    0.00000000
     atom    5 type  1   force =    -0.00000000   -0.00000000    0.00000000
     atom    6 type  1   force =     0.00000000   -0.00000000    0.00000000
     atom    7 type  1   force =    -0.00000000    0.00000000    0.00000000
     atom    8 type  1   force =    -0.00000000    0.00000000    0.00000000
     atom    9 type  1   force =     0.00000000    0.00000000    0.00000000
     atom   10 type  1   force =     0.00000000   -0.00000000    0.00000000
     atom   11 type  1   force =    -0.00000000   -0.00000000    0.00000000
     atom   12 type  1   force =    -0.00000000   -0.00000000    0.00000000
     atom   13 type  1   force =    -0.00000000   -0.00000000    0.00000000
     atom   14 type  1   force =    -0.00000000    0.00000000    0.00000000
     atom   15 type  1   force =     0.00000000    0.00000000    0.00000000
     atom   16 type  1   force =    -0.00000000    0.00000000    0.00000000
     atom   17 type  1   force =     0.00000000    0.00000000    0.00000000
     atom   18 type  1   force =    -0.00000000    0.00000000    0.00000000
     atom   19 type  1   force =     0.00006185   -0.00001300    0.00062487
     atom   20 type  1   force =     0.00005847   -0.00004544    0.00058442
     atom   21 type  1   force =    -0.00012106    0.00000736    0.00067179
     atom   22 type  1   force =     0.00003342    0.00001404    0.00056299
     atom   23 type  1   force =     0.00001501   -0.00005073    0.00067332
     atom   24 type  1   force =    -0.00004898    0.00006732    0.00068605
     atom   25 type  1   force =    -0.00003222   -0.00003587    0.00056677
     atom   26 type  1   force =     0.00008628    0.00000456    0.00059197
     atom   27 type  1   force =    -0.00005270    0.00005210    0.00053741
     atom   28 type  1   force =     0.00019251    0.00007788   -0.00037947
     atom   29 type  1   force =    -0.00013366    0.00010292   -0.00043379
     atom   30 type  1   force =    -0.00006140    0.00007216   -0.00047863
     atom   31 type  1   force =     0.00005077   -0.00019562   -0.00038906
     atom   32 type  1   force =    -0.00000887   -0.00001087   -0.00050474
     atom   33 type  1   force =    -0.00004529    0.00002353   -0.00045504
     atom   34 type  1   force =     0.00006762   -0.00006042   -0.00046972
     atom   35 type  1   force =     0.00000402   -0.00001425   -0.00048649
     atom   36 type  1   force =    -0.00007234    0.00000650   -0.00047450
     atom   37 type  2   force =     0.00000545   -0.00000033   -0.00005484

     Total force =     0.000747     Total SCF correction =     0.002331
     SCF correction compared to forces is large: reduce conv_thr to get better values

     Writing all to output data dir ./pwscf.save/

     init_run     :     10.77s CPU     11.09s WALL (       1 calls)
     electrons    :    290.73s CPU    300.57s WALL (       1 calls)
     forces       :      3.44s CPU      3.88s WALL (       1 calls)

     Called by init_run:
     wfcinit      :      5.86s CPU      6.03s WALL (       1 calls)
     potinit      :      3.07s CPU      3.16s WALL (       1 calls)
     hinit0       :      1.13s CPU      1.15s WALL (       1 calls)

     Called by electrons:
     c_bands      :    247.42s CPU    253.31s WALL (      18 calls)
     sum_band     :     26.74s CPU     27.86s WALL (      18 calls)
     v_of_rho     :      8.18s CPU     10.10s WALL (      18 calls)
     newd         :      2.62s CPU      3.20s WALL (      18 calls)
     PAW_pot      :      3.79s CPU      3.90s WALL (      18 calls)
     mix_rho      :      4.20s CPU      4.28s WALL (      18 calls)
     vdW_kernel   :      1.68s CPU      1.69s WALL (       1 calls)

     Called by c_bands:
     init_us_2    :      2.55s CPU      2.60s WALL (     494 calls)
     init_us_2:cp :      2.55s CPU      2.60s WALL (     494 calls)
     cegterg      :    240.73s CPU    246.36s WALL (     234 calls)

     Called by *egterg:
     cdiaghg      :     64.70s CPU     65.79s WALL (    1261 calls)
     h_psi        :    112.23s CPU    114.89s WALL (    1287 calls)
     s_psi        :     14.02s CPU     14.30s WALL (    1287 calls)
     g_psi        :      0.46s CPU      0.47s WALL (    1040 calls)

     Called by h_psi:
     h_psi:calbec :     17.74s CPU     18.22s WALL (    1287 calls)
     vloc_psi     :     78.67s CPU     80.64s WALL (    1287 calls)
     add_vuspsi   :     14.67s CPU     14.88s WALL (    1287 calls)

     General routines
     calbec       :     24.79s CPU     25.50s WALL (    1573 calls)
     fft          :      4.74s CPU      6.50s WALL (    1194 calls)
     ffts         :      2.43s CPU      2.46s WALL (    4620 calls)
     fftw         :     75.99s CPU     78.00s WALL (  309802 calls)
     interpolate  :      0.59s CPU      0.62s WALL (      18 calls)

     Parallel routines

     PWSCF        :   5m 8.06s CPU   5m21.73s WALL


   This run was terminated on:  23:57:33  25Jan2025            

=------------------------------------------------------------------------------=
   JOB DONE.
=------------------------------------------------------------------------------=
