
     Program PWSCF v.7.1 starts on 28Jan2025 at  5:44: 0 
        Git branch: heads/qe-7.1
        Last git commit: 48ba0178f8fede6d020eb786884699a9f063f55d-dirty
        Last git commit date: Fri Jan 27 14:22:33 2023 +0000
        Last git commit subject: Merge branch 'fix_hubbard' into 'develop'

     This program is part of the open-source Quantum ESPRESSO suite
     for quantum simulation of materials; please cite
         "P. Giannozzi et al., J. Phys.:Condens. Matter 21 395502 (2009);
         "P. Giannozzi et al., J. Phys.:Condens. Matter 29 465901 (2017);
         "P. Giannozzi et al., J. Chem. Phys. 152 154105 (2020);
          URL http://www.quantum-espresso.org", 
     in publications or presentations arising from this work. More details at
     http://www.quantum-espresso.org/quote

     Parallel version (MPI), running on    48 processors

     MPI processes distributed on     1 nodes
     209364 MiB available memory on the printing compute node when the environment starts

     Reading input from espresso.pwi
Warning: card &CELL ignored
Warning: card / ignored
Warning: card &FCP ignored
Warning: card / ignored
Warning: card &RISM ignored
Warning: card / ignored

     Current dimensions of program PWSCF are:
     Max number of different atomic species (ntypx) = 10
     Max number of k-points (npk) =  40000
     Max angular momentum in pseudopotentials (lmaxx) =  4
     file Pt.pbe-n-kjpaw_psl.1.0.0.UPF: wavefunction(s)  6S 5D renormalized
     file H.pbe-kjpaw_psl.1.0.0.UPF: wavefunction(s)  1S renormalized

     **************************************************************************
     Initializing libbeef V0.1.2 with the BEEF-vdW functional.
     Citation: Wellendorff et al., PRB 85, 235149 (2012).
     **************************************************************************


     IMPORTANT: XC functional enforced from input :
     Exchange-correlation= BEEF-VDW
                           (   1   4  43  14   2   0   0)
     Any further DFT definition will be discarded
     Please, verify this is what you really want


     R & G space division:  proc/nbgrp/npool/nimage =      48
     Subspace diagonalization in iterative solution of the eigenvalue problem:
     one sub-group per band group will be used
     custom distributed-memory algorithm (size of sub-group:  2*  2 procs)


     Parallelization info
     --------------------
     sticks:   dense  smooth     PW     G-vecs:    dense   smooth      PW
     Min         150      59     16                30552     7447    1068
     Max         151      60     17                30571     7456    1081
     Sum        7243    2839    769              1467143   357639   51591

     Using Slab Decomposition



     bravais-lattice index     =            0
     lattice parameter (alat)  =      16.0028  a.u.
     unit-cell volume          =   10463.1828 (a.u.)^3
     number of atoms/cell      =           37
     number of atomic types    =            2
     number of electrons       =       361.00
     number of Kohn-Sham states=          217
     kinetic-energy cutoff     =      40.0000  Ry
     charge density cutoff     =     410.0000  Ry
     scf convergence threshold =      1.0E-06
     mixing beta               =       0.7000
     number of iterations used =            8  local-TF  mixing
     Exchange-correlation= BEEF-VDW
                           (   1   4  43  14   2   0   0)

     celldm(1)=  16.002787  celldm(2)=   0.000000  celldm(3)=   0.000000
     celldm(4)=   0.000000  celldm(5)=   0.000000  celldm(6)=   0.000000

     crystal axes: (cart. coord. in units of alat)
               a(1) = (   1.000000   0.000000   0.000000 )  
               a(2) = (   0.500000   0.866025   0.000000 )  
               a(3) = (   0.000000   0.000000   2.948128 )  

     reciprocal axes: (cart. coord. in units 2 pi/alat)
               b(1) = (  1.000000 -0.577350  0.000000 )  
               b(2) = (  0.000000  1.154701  0.000000 )  
               b(3) = (  0.000000  0.000000  0.339198 )  


     PseudoPot. # 1 for Pt read from file:
     /users/kbadger1/espresso/pseudo/pslibrary.1.0.0/pbe/PSEUDOPOTENTIALS/Pt.pbe-n-kjpaw_psl.1.0.0.UPF
     MD5 check sum: 2e24a0b5bf98a4ed1a57fa81bca8c143
     Pseudo is Projector augmented-wave + core cor, Zval = 10.0
     Generated using 'atomic' code by A. Dal Corso  v.7.0
     Shape of augmentation charge: PSQ
     Using radial grid of 1277 points,  6 beta functions with: 
                l(1) =   0
                l(2) =   0
                l(3) =   1
                l(4) =   1
                l(5) =   2
                l(6) =   2
     Q(r) pseudized with 0 coefficients 


     PseudoPot. # 2 for H  read from file:
     /users/kbadger1/espresso/pseudo/pslibrary.1.0.0/pbe/PSEUDOPOTENTIALS/H.pbe-kjpaw_psl.1.0.0.UPF
     MD5 check sum: fe4c6fa958fa6d3815bf5d2419cbf1df
     Pseudo is Projector augmented-wave, Zval =  1.0
     Generated using 'atomic' code by A. Dal Corso  v.7.0
     Shape of augmentation charge: PSQ
     Using radial grid of  929 points,  2 beta functions with: 
                l(1) =   0
                l(2) =   0
     Q(r) pseudized with 0 coefficients 


     atomic species   valence    mass     pseudopotential
        Pt            10.00   195.08400     Pt( 1.00)
        H              1.00     1.00800     H ( 1.00)

     No symmetry found



   Cartesian axes

     site n.     atom                  positions (alat units)
         1           Pt  tau(   1) = (   0.0000000   0.0000000   1.0037422  )
         2           Pt  tau(   2) = (   0.3340014   0.0000000   1.0037422  )
         3           Pt  tau(   3) = (   0.6680027   0.0000000   1.0037422  )
         4           Pt  tau(   4) = (   0.1670007   0.2892537   1.0037422  )
         5           Pt  tau(   5) = (   0.5010021   0.2892537   1.0037422  )
         6           Pt  tau(   6) = (   0.8350034   0.2892537   1.0037422  )
         7           Pt  tau(   7) = (   0.3340014   0.5785073   1.0037422  )
         8           Pt  tau(   8) = (   0.6680027   0.5785073   1.0037422  )
         9           Pt  tau(   9) = (   1.0020041   0.5785073   1.0037422  )
        10           Pt  tau(  10) = (   0.1670007   0.0964179   1.2764532  )
        11           Pt  tau(  11) = (   0.5010021   0.0964179   1.2764532  )
        12           Pt  tau(  12) = (   0.8350034   0.0964179   1.2764532  )
        13           Pt  tau(  13) = (   0.3340014   0.3856716   1.2764532  )
        14           Pt  tau(  14) = (   0.6680027   0.3856716   1.2764532  )
        15           Pt  tau(  15) = (   1.0020041   0.3856716   1.2764532  )
        16           Pt  tau(  16) = (   0.5010021   0.6749252   1.2764532  )
        17           Pt  tau(  17) = (   0.8350034   0.6749252   1.2764532  )
        18           Pt  tau(  18) = (   1.1690048   0.6749252   1.2764532  )
        19           Pt  tau(  19) = (   0.0020691   0.1929970   1.5488330  )
        20           Pt  tau(  20) = (   0.3341988   0.1928768   1.5484749  )
        21           Pt  tau(  21) = (   0.6681574   0.1928778   1.5458651  )
        22           Pt  tau(  22) = (   0.1682331   0.4807358   1.5483314  )
        23           Pt  tau(  23) = (   0.5013665   0.4818336   1.5460603  )
        24           Pt  tau(  24) = (   0.8349898   0.4818683   1.5459678  )
        25           Pt  tau(  25) = (   0.3357191   0.7708824   1.5481437  )
        26           Pt  tau(  26) = (   0.6682302   0.7709625   1.5486209  )
        27           Pt  tau(  27) = (   1.0009630   0.7707634   1.5476713  )
        28           Pt  tau(  28) = (  -0.0008195  -0.0003405   1.8283563  )
        29           Pt  tau(  29) = (   0.3376834  -0.0003632   1.8279115  )
        30           Pt  tau(  30) = (   0.6683217   0.0012373   1.8224265  )
        31           Pt  tau(  31) = (   0.1684393   0.2946485   1.8298419  )
        32           Pt  tau(  32) = (   0.5032995   0.2903560   1.8213739  )
        33           Pt  tau(  33) = (   0.8333571   0.2904175   1.8214154  )
        34           Pt  tau(  34) = (   0.3355810   0.5788384   1.8222710  )
        35           Pt  tau(  35) = (   0.6683745   0.5773088   1.8217248  )
        36           Pt  tau(  36) = (   1.0011493   0.5788699   1.8221310  )
        37           H   tau(  37) = (   0.1673667   0.1194267   1.9397197  )

     number of k points=    13  Marzari-Vanderbilt smearing, width (Ry)=  0.0200
                       cart. coord. in units 2pi/alat
        k(    1) = (   0.0000000   0.0000000   0.0000000), wk =   0.0800000
        k(    2) = (   0.0000000   0.2309401   0.0000000), wk =   0.1600000
        k(    3) = (   0.0000000   0.4618802   0.0000000), wk =   0.1600000
        k(    4) = (   0.2000000  -0.1154701   0.0000000), wk =   0.1600000
        k(    5) = (   0.2000000   0.1154701   0.0000000), wk =   0.1600000
        k(    6) = (   0.2000000   0.3464102   0.0000000), wk =   0.1600000
        k(    7) = (   0.2000000  -0.5773503   0.0000000), wk =   0.1600000
        k(    8) = (   0.2000000  -0.3464102   0.0000000), wk =   0.1600000
        k(    9) = (   0.4000000  -0.2309401   0.0000000), wk =   0.1600000
        k(   10) = (   0.4000000   0.0000000   0.0000000), wk =   0.1600000
        k(   11) = (   0.4000000   0.2309401   0.0000000), wk =   0.1600000
        k(   12) = (   0.4000000  -0.6928203   0.0000000), wk =   0.1600000
        k(   13) = (   0.4000000  -0.4618802   0.0000000), wk =   0.1600000

     Dense  grid:  1467143 G-vectors     FFT dimensions: ( 108, 108, 320)

     Smooth grid:   357639 G-vectors     FFT dimensions: (  72,  72, 192)

     Estimated max dynamical RAM per process >     211.30 MB

     Estimated total dynamical RAM >       9.90 GB

     Initial potential from superposition of free atoms

     starting charge     360.9939, renormalised to     361.0000

     negative rho (up, down):  3.551E-03 0.000E+00


     %%%%%%%%%%%%%%%%%%%%%%%%%%%%%%%%%%%%%%%%%%%%%%%%%%%%%%%%%%%%%%%%%%%%%%%%
     %                                                                      %
     % You are using vdW-DF, which was implemented by the Thonhauser group. %
     % Please cite the following two papers that made this development      %
     % possible and the two reviews that describe the various versions:     %
     %                                                                      %
     %   T. Thonhauser et al., PRL 115, 136402 (2015).                      %
     %   T. Thonhauser et al., PRB 76, 125112 (2007).                       %
     %   K. Berland et al., Rep. Prog. Phys. 78, 066501 (2015).             %
     %   D.C. Langreth et al., J. Phys.: Condens. Matter 21, 084203 (2009). %
     %                                                                      %
     % If you are calculating stress with vdW-DF, please also cite:         %
     %                                                                      %
     %   R. Sabatini et al., J. Phys.: Condens. Matter 24, 424209 (2012).   %
     %                                                                      %
     %%%%%%%%%%%%%%%%%%%%%%%%%%%%%%%%%%%%%%%%%%%%%%%%%%%%%%%%%%%%%%%%%%%%%%%%

     %%%%%%%%%%%%%%%%%%%%%%%%%%%%%%%%%%%%%%%%%%%%%%%%%%%%%%%%%%%%%%%%%%%%%%%%
     %                                                                      %
     %  vdW-DF NEWS:                                                        %
     %                                                                      %
     %  * vdW-DF3 is now available. DOI: 10.1021/acs.jctc.0c00471           %
     %    use with input_dft = 'vdW-DF3-opt1' or 'vdW-DF3-opt2'             %
     %                                                                      %
     %  * Unscreened and range-separated hybrid vdW-DF-cx functionals       %
     %    DOI: 10.1063/1.4986522 and 10.1088/1361-648X/ac2ad2               %
     %    use with input_dft = 'vdW-DF-cx0'    and 'vdW-DF-ahcx'            %
     %  * Unscreened and range-separated hybrid vdW-DF2-b86r functionals    %
     %    DOI: 10.1063/1.4986522 and DOI: 10.1103/PhysRevX.12.041003        %
     %    use with input_dft = 'vdW-DF2-br0' and 'vdW-DF2-ahbr'             %
     %                                                                      %
     %%%%%%%%%%%%%%%%%%%%%%%%%%%%%%%%%%%%%%%%%%%%%%%%%%%%%%%%%%%%%%%%%%%%%%%%


     Starting wfcs are  325 randomized atomic wfcs
     Checking if some PAW data can be deallocated... 

     total cpu time spent up to now is       11.0 secs

     per-process dynamical memory:   208.8 Mb

     Self-consistent Calculation

     iteration #  1     ecut=    40.00 Ry     beta= 0.70
     Davidson diagonalization with overlap
     ethr =  1.00E-02,  avg # of iterations =  2.0

     Threshold (ethr) on eigenvalues was too large:
     Diagonalizing with lowered threshold

     Davidson diagonalization with overlap
     ethr =  3.68E-04,  avg # of iterations =  4.1

     negative rho (up, down):  1.781E-02 0.000E+00

     total cpu time spent up to now is       42.8 secs

     total energy              =  -27755.29594682 Ry
     estimated scf accuracy    <       1.53446839 Ry

     iteration #  2     ecut=    40.00 Ry     beta= 0.70
     Davidson diagonalization with overlap
     ethr =  4.25E-04,  avg # of iterations =  2.0

     negative rho (up, down):  1.609E-02 0.000E+00

     total cpu time spent up to now is       55.4 secs

     total energy              =  -27755.39405620 Ry
     estimated scf accuracy    <       0.75995720 Ry

     iteration #  3     ecut=    40.00 Ry     beta= 0.70
     Davidson diagonalization with overlap
     ethr =  2.11E-04,  avg # of iterations =  2.0

     negative rho (up, down):  1.085E-02 0.000E+00

     total cpu time spent up to now is       68.6 secs

     total energy              =  -27755.44546489 Ry
     estimated scf accuracy    <       0.08825745 Ry

     iteration #  4     ecut=    40.00 Ry     beta= 0.70
     Davidson diagonalization with overlap
     c_bands:  2 eigenvalues not converged
     c_bands:  1 eigenvalues not converged
     c_bands:  1 eigenvalues not converged
     c_bands:  1 eigenvalues not converged
     ethr =  2.44E-05,  avg # of iterations = 15.0

     negative rho (up, down):  7.943E-03 0.000E+00

     total cpu time spent up to now is      101.3 secs

     total energy              =  -27755.49287657 Ry
     estimated scf accuracy    <       0.06933913 Ry

     iteration #  5     ecut=    40.00 Ry     beta= 0.70
     Davidson diagonalization with overlap
     c_bands:  1 eigenvalues not converged
     c_bands:  1 eigenvalues not converged
     c_bands:  1 eigenvalues not converged
     ethr =  1.92E-05,  avg # of iterations =  6.5

     negative rho (up, down):  3.941E-03 0.000E+00

     total cpu time spent up to now is      116.7 secs

     total energy              =  -27755.49289449 Ry
     estimated scf accuracy    <       0.02688514 Ry

     iteration #  6     ecut=    40.00 Ry     beta= 0.70
     Davidson diagonalization with overlap
     c_bands:  1 eigenvalues not converged
     ethr =  7.45E-06,  avg # of iterations =  7.7

     negative rho (up, down):  2.148E-03 0.000E+00

     total cpu time spent up to now is      132.3 secs

     total energy              =  -27755.49481842 Ry
     estimated scf accuracy    <       0.00235782 Ry

     iteration #  7     ecut=    40.00 Ry     beta= 0.70
     Davidson diagonalization with overlap
     c_bands:  1 eigenvalues not converged
     ethr =  6.53E-07,  avg # of iterations = 12.4

     negative rho (up, down):  1.710E-03 0.000E+00

     total cpu time spent up to now is      159.8 secs

     total energy              =  -27755.49529885 Ry
     estimated scf accuracy    <       0.00168115 Ry

     iteration #  8     ecut=    40.00 Ry     beta= 0.70
     Davidson diagonalization with overlap
     ethr =  4.66E-07,  avg # of iterations =  2.0

     negative rho (up, down):  1.469E-03 0.000E+00

     total cpu time spent up to now is      172.8 secs

     total energy              =  -27755.49543128 Ry
     estimated scf accuracy    <       0.00019363 Ry

     iteration #  9     ecut=    40.00 Ry     beta= 0.70
     Davidson diagonalization with overlap
     ethr =  5.36E-08,  avg # of iterations =  5.2

     negative rho (up, down):  1.117E-03 0.000E+00

     total cpu time spent up to now is      195.7 secs

     total energy              =  -27755.49551689 Ry
     estimated scf accuracy    <       0.00008302 Ry

     iteration # 10     ecut=    40.00 Ry     beta= 0.70
     Davidson diagonalization with overlap
     ethr =  2.30E-08,  avg # of iterations =  4.2

     negative rho (up, down):  1.050E-03 0.000E+00

     total cpu time spent up to now is      217.4 secs

     total energy              =  -27755.49553823 Ry
     estimated scf accuracy    <       0.00007270 Ry

     iteration # 11     ecut=    40.00 Ry     beta= 0.70
     Davidson diagonalization with overlap
     ethr =  2.01E-08,  avg # of iterations =  1.6

     negative rho (up, down):  1.116E-03 0.000E+00

     total cpu time spent up to now is      229.8 secs

     total energy              =  -27755.49554276 Ry
     estimated scf accuracy    <       0.00004616 Ry

     iteration # 12     ecut=    40.00 Ry     beta= 0.70
     Davidson diagonalization with overlap
     ethr =  1.28E-08,  avg # of iterations =  1.6

     negative rho (up, down):  1.306E-03 0.000E+00

     total cpu time spent up to now is      242.6 secs

     total energy              =  -27755.49554583 Ry
     estimated scf accuracy    <       0.00001934 Ry

     iteration # 13     ecut=    40.00 Ry     beta= 0.70
     Davidson diagonalization with overlap
     ethr =  5.36E-09,  avg # of iterations =  2.3

     negative rho (up, down):  1.729E-03 0.000E+00

     total cpu time spent up to now is      257.1 secs

     total energy              =  -27755.49554832 Ry
     estimated scf accuracy    <       0.00001145 Ry

     iteration # 14     ecut=    40.00 Ry     beta= 0.70
     Davidson diagonalization with overlap
     ethr =  3.17E-09,  avg # of iterations =  2.2

     negative rho (up, down):  2.016E-03 0.000E+00

     total cpu time spent up to now is      269.9 secs

     total energy              =  -27755.49555137 Ry
     estimated scf accuracy    <       0.00000754 Ry

     iteration # 15     ecut=    40.00 Ry     beta= 0.70
     Davidson diagonalization with overlap
     ethr =  2.09E-09,  avg # of iterations =  1.9

     negative rho (up, down):  2.851E-03 0.000E+00

     total cpu time spent up to now is      282.6 secs

     total energy              =  -27755.49554835 Ry
     estimated scf accuracy    <       0.00000652 Ry

     iteration # 16     ecut=    40.00 Ry     beta= 0.70
     Davidson diagonalization with overlap
     ethr =  1.81E-09,  avg # of iterations =  1.5

     negative rho (up, down):  3.000E-03 0.000E+00

     total cpu time spent up to now is      295.0 secs

     total energy              =  -27755.49554833 Ry
     estimated scf accuracy    <       0.00000129 Ry

     iteration # 17     ecut=    40.00 Ry     beta= 0.70
     Davidson diagonalization with overlap
     ethr =  3.58E-10,  avg # of iterations =  4.2

     negative rho (up, down):  3.342E-03 0.000E+00

     total cpu time spent up to now is      314.8 secs

     End of self-consistent calculation

          k = 0.0000 0.0000 0.0000 ( 44645 PWs)   bands (ev):

    -6.6494  -5.5445  -4.8183  -4.2444  -4.2116  -4.2066  -4.1972  -4.1836
    -4.1820  -4.1765  -3.8546  -3.6603  -3.6552  -3.6525  -3.6493  -3.6437
    -3.5594  -3.2030  -3.1981  -3.1824  -3.1811  -3.1737  -3.0905  -2.9710
    -2.9678  -2.9643  -2.9631  -2.9602  -2.8584  -2.7655  -2.7596  -2.7490
    -2.7465  -2.7359  -2.7088  -2.6970  -2.6896  -2.6866  -2.6591  -2.6565
    -2.3197  -2.1239  -2.1208  -2.0782  -2.0704  -2.0587  -2.0519  -2.0274
    -2.0253  -2.0187  -1.8786  -1.8782  -1.7862  -1.7728  -1.7638  -1.3258
    -1.3229  -1.3118  -1.3010  -1.2971  -1.2513  -1.2113  -1.1161  -1.1122
    -1.1100  -1.1001  -1.0984  -1.0942  -1.0898  -1.0532  -1.0476  -1.0414
    -1.0396  -1.0388  -0.9972  -0.9933  -0.9923  -0.8968  -0.8951  -0.8894
    -0.8882  -0.8783  -0.8732  -0.6760  -0.6667  -0.6652  -0.6554  -0.6513
    -0.6398  -0.6355  -0.6341  -0.5592  -0.5512  -0.4836  -0.4786  -0.4718
    -0.4506  -0.4440  -0.4260  -0.4206  -0.3602  -0.2585  -0.2567  -0.2556
    -0.2417  -0.2341  -0.2301   0.0084   0.2436   0.2618   0.2660   0.2770
     0.2786   0.2902   0.2921   0.2990   0.3169   0.3198   0.3218   0.3809
     0.3848   0.4624   0.5387   0.5421   0.5499   0.5533   0.5616   0.6612
     0.6683   0.7224   0.7235   0.7381   0.7444   0.9761   0.9923   0.9958
     1.0134   1.0182   1.0218   1.0734   1.0861   1.2120   1.2259   1.2338
     1.2384   1.2401   1.2411   1.3551   1.3995   1.4095   1.4249   1.4356
     1.4426   1.4477   1.4498   1.4530   1.4562   1.4593   1.4606   1.5444
     1.5580   1.5730   1.5918   1.6005   1.6182   1.6214   1.6275   1.6774
     1.6866   1.6988   1.7192   1.7230   1.7327   1.7412   1.7458   1.8132
     1.8224   1.8262   1.8314   1.8339   1.8390   1.8801   1.9150   1.9216
     1.9342   1.9347   1.9440   1.9514   2.1377   2.1426   2.2329   2.2374
     2.2405   2.2585   2.2596   2.2639   2.7943   3.0866   3.0993   3.1123
     3.1475   3.1486   3.1555   5.1298   5.3939   5.4047   5.4644   5.4685
     5.4746   6.9676   7.0379   7.0732   7.1141   7.1168   7.1201   7.2121
     7.3240

          k = 0.0000 0.2309 0.0000 ( 44694 PWs)   bands (ev):

    -6.5017  -5.4203  -4.7791  -4.6686  -4.3096  -4.2935  -4.1015  -4.0075
    -3.9650  -3.9579  -3.8400  -3.7414  -3.7098  -3.5883  -3.5842  -3.5709
    -3.4801  -3.2767  -3.1542  -3.1500  -3.1446  -3.1181  -3.0701  -3.0383
    -3.0139  -2.9642  -2.9594  -2.9562  -2.8849  -2.8560  -2.8472  -2.7758
    -2.7620  -2.7446  -2.7390  -2.5939  -2.5418  -2.5167  -2.5094  -2.4842
    -2.3220  -2.2370  -2.2345  -2.1787  -2.1504  -2.1350  -2.1222  -2.0235
    -1.9430  -1.8815  -1.8609  -1.8523  -1.8026  -1.7823  -1.7262  -1.5653
    -1.4699  -1.4654  -1.4204  -1.4103  -1.3781  -1.3229  -1.3021  -1.2945
    -1.2712  -1.2545  -1.1896  -1.1753  -1.1470  -1.1093  -1.0946  -1.0493
    -1.0149  -1.0035  -1.0030  -0.9150  -0.9112  -0.8959  -0.8690  -0.8302
    -0.8175  -0.8093  -0.7730  -0.7281  -0.6975  -0.6871  -0.6785  -0.6771
    -0.6479  -0.6338  -0.5881  -0.5552  -0.5301  -0.5266  -0.5078  -0.4978
    -0.4833  -0.4518  -0.4329  -0.4263  -0.3507  -0.2844  -0.2761  -0.2483
    -0.2357  -0.2351  -0.2253  -0.2178  -0.1743  -0.1673  -0.1540  -0.1386
     0.0728   0.1930   0.2409   0.2444   0.2640   0.2676   0.2799   0.3216
     0.3269   0.3926   0.4735   0.4917   0.5538   0.6098   0.6140   0.6559
     0.6717   0.6827   0.7214   0.7330   0.7486   0.8348   0.8542   0.8697
     0.8786   0.8831   1.0051   1.0844   1.0870   1.1002   1.1189   1.1240
     1.1396   1.1972   1.2300   1.2625   1.2783   1.2813   1.3407   1.3461
     1.3638   1.3737   1.4482   1.4684   1.4897   1.5029   1.5358   1.6035
     1.6397   1.6557   1.6583   1.6753   1.6895   1.7202   1.7859   1.7885
     1.8370   1.8535   1.8716   1.8747   1.9011   1.9096   1.9188   1.9293
     1.9338   1.9864   1.9873   2.1182   2.1323   2.1513   2.1784   2.1855
     2.1882   2.2159   2.2497   2.2540   2.2758   2.3480   2.3772   2.4015
     2.4434   2.5675   2.5694   2.5841   2.6050   2.9531   2.9979   3.5096
     3.7234   3.7468   3.8601   4.6599   5.0659   5.1614   5.8313   5.9301
     5.9339   6.0037   6.2534   6.7111   6.8881   7.0369   7.2735   7.2820
     7.3090

          k = 0.0000 0.4619 0.0000 ( 44748 PWs)   bands (ev):

    -6.0773  -5.4464  -5.1030  -4.5752  -4.3415  -4.3248  -4.1385  -3.9696
    -3.8314  -3.7145  -3.6231  -3.6142  -3.5671  -3.4553  -3.4103  -3.3992
    -3.3957  -3.3857  -3.2535  -3.2242  -3.2174  -3.1802  -3.1744  -3.1591
    -3.0894  -3.0483  -3.0445  -2.9571  -2.7973  -2.7873  -2.7809  -2.7662
    -2.7613  -2.6736  -2.5376  -2.5288  -2.5187  -2.4845  -2.4783  -2.3888
    -2.2770  -2.2111  -2.1926  -2.1839  -2.1589  -2.1266  -2.0780  -2.0517
    -2.0448  -2.0126  -1.9800  -1.8517  -1.8303  -1.8260  -1.8023  -1.7391
    -1.6718  -1.6417  -1.6084  -1.6029  -1.5790  -1.4546  -1.4054  -1.3949
    -1.3878  -1.3727  -1.2886  -1.2813  -1.2423  -1.1529  -1.1399  -1.1348
    -1.0766  -1.0267  -1.0239  -0.9879  -0.9866  -0.9460  -0.9177  -0.9042
    -0.8978  -0.8806  -0.8745  -0.8553  -0.8410  -0.8396  -0.7472  -0.7270
    -0.7123  -0.7010  -0.6973  -0.6872  -0.6664  -0.5600  -0.5184  -0.5070
    -0.4848  -0.4822  -0.4580  -0.4332  -0.3892  -0.3811  -0.2974  -0.2762
    -0.2304  -0.1983  -0.1926  -0.1729  -0.1492  -0.0059   0.0122   0.0852
     0.0985   0.1547   0.1676   0.2017   0.2077   0.2133   0.2170   0.2556
     0.2888   0.3155   0.3277   0.3328   0.3659   0.3845   0.3894   0.4046
     0.4282   0.5267   0.5588   0.5759   0.6403   0.6616   0.7601   0.7648
     0.8553   0.8660   0.9091   0.9602   1.0387   1.0451   1.0920   1.1005
     1.1242   1.1340   1.1656   1.2005   1.2356   1.2415   1.3051   1.3388
     1.3488   1.3932   1.4063   1.4189   1.4347   1.4783   1.5653   1.6012
     1.6749   1.6947   1.7041   1.7147   1.7475   1.8139   1.8153   1.8729
     1.8926   1.8980   1.9130   1.9608   1.9949   2.0063   2.0215   2.1364
     2.1422   2.1599   2.1629   2.1751   2.1768   2.1955   2.2210   2.3928
     2.4103   2.4180   2.4253   2.4301   2.6041   2.6480   2.8825   3.0062
     3.0641   3.2507   3.4780   3.4870   3.7531   3.8667   3.9658   4.1649
     4.4461   4.7085   4.7143   4.7804   4.8946   4.9411   5.0305   5.0626
     5.2994   5.3599   5.8765   5.9758   6.4019   6.5166   6.8583   6.9736
     7.4353

          k = 0.2000-0.1155 0.0000 ( 44694 PWs)   bands (ev):

    -6.5022  -5.4245  -4.7997  -4.6431  -4.3107  -4.2977  -4.1015  -4.0084
    -3.9628  -3.9581  -3.8546  -3.7432  -3.6795  -3.5874  -3.5823  -3.5724
    -3.4968  -3.2755  -3.1541  -3.1489  -3.1442  -3.1068  -3.0691  -3.0391
    -3.0130  -2.9763  -2.9614  -2.9556  -2.8726  -2.8550  -2.8484  -2.7737
    -2.7606  -2.7436  -2.7365  -2.5889  -2.5410  -2.5152  -2.5124  -2.4860
    -2.3158  -2.2377  -2.2343  -2.1820  -2.1493  -2.1398  -2.1244  -2.0289
    -1.9454  -1.8776  -1.8617  -1.8501  -1.8005  -1.7833  -1.7177  -1.5647
    -1.4704  -1.4636  -1.4201  -1.4085  -1.3794  -1.3221  -1.3038  -1.2923
    -1.2718  -1.2543  -1.1936  -1.1774  -1.1432  -1.1112  -1.0966  -1.0524
    -1.0129  -1.0055  -1.0022  -0.9160  -0.9112  -0.8943  -0.8682  -0.8283
    -0.8182  -0.8096  -0.7732  -0.7331  -0.7009  -0.6860  -0.6774  -0.6742
    -0.6433  -0.6391  -0.5893  -0.5523  -0.5332  -0.5255  -0.5111  -0.5001
    -0.4910  -0.4533  -0.4278  -0.4197  -0.3534  -0.2839  -0.2724  -0.2522
    -0.2416  -0.2350  -0.2287  -0.2194  -0.1796  -0.1649  -0.1540  -0.1410
     0.0780   0.1882   0.2320   0.2553   0.2602   0.2731   0.2797   0.3203
     0.3270   0.3753   0.4657   0.4904   0.5557   0.6076   0.6130   0.6554
     0.6698   0.6790   0.7217   0.7332   0.7418   0.8332   0.8658   0.8679
     0.8803   0.8848   1.0383   1.0829   1.0917   1.1034   1.1152   1.1202
     1.1358   1.2034   1.2246   1.2562   1.2770   1.2835   1.3332   1.3489
     1.3603   1.3705   1.4437   1.4660   1.4974   1.5018   1.5424   1.6042
     1.6257   1.6508   1.6621   1.6687   1.6941   1.7223   1.7833   1.7913
     1.8457   1.8493   1.8697   1.8839   1.8988   1.9100   1.9191   1.9300
     1.9333   1.9852   1.9890   2.1266   2.1293   2.1477   2.1793   2.1866
     2.1890   2.2149   2.2487   2.2532   2.2763   2.3574   2.3772   2.3999
     2.4471   2.5653   2.5692   2.5859   2.6078   2.9522   2.9926   3.5193
     3.7176   3.7466   3.8637   4.6477   5.0927   5.1582   5.8237   5.9284
     5.9454   6.0006   6.2351   6.7145   6.8835   7.0261   7.2651   7.2943
     7.3083

          k = 0.2000 0.1155 0.0000 ( 44694 PWs)   bands (ev):

    -6.5022  -5.4244  -4.7971  -4.6473  -4.3099  -4.2963  -4.1018  -4.0100
    -3.9613  -3.9579  -3.8537  -3.7421  -3.6830  -3.5864  -3.5827  -3.5742
    -3.4947  -3.2749  -3.1537  -3.1487  -3.1428  -3.1085  -3.0690  -3.0420
    -3.0131  -2.9750  -2.9618  -2.9565  -2.8728  -2.8547  -2.8481  -2.7757
    -2.7611  -2.7440  -2.7355  -2.5886  -2.5414  -2.5151  -2.5123  -2.4840
    -2.3179  -2.2369  -2.2322  -2.1822  -2.1496  -2.1390  -2.1240  -2.0292
    -1.9446  -1.8794  -1.8611  -1.8495  -1.8010  -1.7839  -1.7177  -1.5630
    -1.4700  -1.4642  -1.4190  -1.4072  -1.3773  -1.3196  -1.3066  -1.2935
    -1.2734  -1.2544  -1.1921  -1.1779  -1.1392  -1.1112  -1.0954  -1.0521
    -1.0174  -1.0086  -1.0031  -0.9173  -0.9088  -0.8951  -0.8681  -0.8267
    -0.8137  -0.8088  -0.7760  -0.7331  -0.7017  -0.6854  -0.6776  -0.6747
    -0.6436  -0.6399  -0.5898  -0.5521  -0.5338  -0.5253  -0.5100  -0.4999
    -0.4925  -0.4539  -0.4270  -0.4208  -0.3534  -0.2842  -0.2719  -0.2534
    -0.2454  -0.2362  -0.2266  -0.2195  -0.1754  -0.1611  -0.1568  -0.1435
     0.0815   0.1888   0.2305   0.2561   0.2601   0.2706   0.2813   0.3204
     0.3263   0.3766   0.4660   0.4898   0.5550   0.6070   0.6111   0.6585
     0.6678   0.6794   0.7205   0.7322   0.7423   0.8309   0.8663   0.8708
     0.8805   0.8851   1.0374   1.0819   1.0895   1.1024   1.1145   1.1200
     1.1337   1.2046   1.2251   1.2579   1.2767   1.2831   1.3342   1.3509
     1.3609   1.3692   1.4445   1.4668   1.4972   1.5026   1.5435   1.6037
     1.6272   1.6512   1.6621   1.6669   1.6909   1.7225   1.7838   1.7915
     1.8444   1.8493   1.8678   1.8830   1.9007   1.9112   1.9187   1.9290
     1.9343   1.9834   1.9869   2.1247   2.1277   2.1510   2.1814   2.1876
     2.1885   2.2162   2.2499   2.2560   2.2773   2.3562   2.3779   2.3991
     2.4467   2.5663   2.5702   2.5850   2.6056   2.9554   2.9952   3.5181
     3.7170   3.7455   3.8629   4.6454   5.0941   5.1605   5.8254   5.9293
     5.9427   6.0004   6.2362   6.7135   6.8830   7.0228   7.2650   7.2948
     7.3083

          k = 0.2000 0.3464 0.0000 ( 44714 PWs)   bands (ev):

    -6.2154  -5.2379  -4.9617  -4.9532  -4.5644  -3.8862  -3.8827  -3.8778
    -3.8669  -3.8314  -3.8107  -3.7866  -3.6997  -3.6959  -3.5257  -3.3137
    -3.2982  -3.2941  -3.2919  -3.2244  -3.1971  -3.0755  -3.0633  -3.0590
    -3.0447  -2.9956  -2.9435  -2.9061  -2.9016  -2.8966  -2.8412  -2.8123
    -2.8032  -2.7485  -2.7363  -2.6396  -2.5272  -2.4023  -2.3104  -2.3060
    -2.2660  -2.2562  -2.2403  -2.2340  -2.1765  -2.1474  -2.1003  -2.0146
    -2.0036  -1.9089  -1.8768  -1.8741  -1.8333  -1.8202  -1.7481  -1.7234
    -1.7167  -1.5634  -1.5368  -1.5212  -1.4675  -1.4544  -1.4171  -1.4085
    -1.4013  -1.3433  -1.3108  -1.2041  -1.1920  -1.1750  -1.1595  -1.1292
    -1.1151  -1.0670  -1.0296  -1.0093  -0.9589  -0.8961  -0.8881  -0.8636
    -0.8492  -0.8307  -0.8140  -0.7964  -0.7734  -0.7601  -0.7366  -0.7197
    -0.6981  -0.6789  -0.5863  -0.5733  -0.5671  -0.5463  -0.5175  -0.5055
    -0.4843  -0.4533  -0.4352  -0.4287  -0.4199  -0.4139  -0.4078  -0.3922
    -0.3561  -0.3303  -0.2427  -0.2147  -0.1825  -0.1148  -0.0999  -0.0870
    -0.0704   0.0983   0.1289   0.1632   0.2225   0.2332   0.2802   0.2912
     0.3097   0.3283   0.3577   0.3826   0.4010   0.4171   0.4307   0.5129
     0.5969   0.6474   0.6678   0.6828   0.7138   0.7336   0.7643   0.8035
     0.8765   0.9145   0.9200   0.9437   1.0070   1.0311   1.0727   1.1274
     1.1361   1.1463   1.1999   1.2153   1.2270   1.2408   1.2460   1.2638
     1.2732   1.2829   1.2899   1.3955   1.4516   1.4857   1.6143   1.6229
     1.6446   1.7654   1.7886   1.8047   1.8109   1.8832   1.9018   1.9294
     1.9461   1.9660   1.9771   1.9903   2.0102   2.0116   2.0230   2.0564
     2.0774   2.0926   2.1662   2.1909   2.1997   2.2338   2.2419   2.2793
     2.4130   2.4433   2.4680   2.4809   2.5419   2.5499   2.5694   2.6622
     2.7108   3.0184   3.2135   3.2497   3.5975   3.7751   3.7811   3.7906
     4.2748   4.4645   4.4823   4.6421   4.7225   4.7492   5.3543   5.7773
     5.9011   5.9176   6.1274   6.3928   6.6233   6.6583   6.6932   6.7204
     7.1282

          k = 0.2000-0.5774 0.0000 ( 44692 PWs)   bands (ev):

    -5.7035  -5.6564  -5.1229  -4.9078  -4.4326  -4.2054  -3.8812  -3.8233
    -3.7487  -3.6981  -3.5928  -3.5870  -3.4935  -3.4870  -3.4021  -3.3792
    -3.3607  -3.3369  -3.3210  -3.3005  -3.1971  -3.1605  -3.1537  -3.1290
    -3.1101  -3.1045  -3.0481  -2.9475  -2.9037  -2.7937  -2.7768  -2.7562
    -2.7442  -2.7269  -2.6954  -2.6422  -2.5177  -2.5083  -2.4193  -2.3299
    -2.3144  -2.2486  -2.1836  -2.1505  -2.1317  -2.0613  -2.0025  -1.9508
    -1.9189  -1.8987  -1.8780  -1.8399  -1.8304  -1.7926  -1.7145  -1.7051
    -1.6906  -1.6743  -1.6654  -1.6623  -1.6057  -1.6024  -1.5779  -1.4761
    -1.4614  -1.3907  -1.3625  -1.3083  -1.2727  -1.2394  -1.2109  -1.1746
    -1.1677  -1.1559  -1.0866  -1.0790  -1.0572  -1.0331  -1.0024  -0.9533
    -0.9345  -0.8487  -0.8356  -0.8251  -0.8183  -0.8061  -0.7300  -0.6696
    -0.6308  -0.6259  -0.6176  -0.5865  -0.5517  -0.5426  -0.5366  -0.5098
    -0.5015  -0.4915  -0.4726  -0.4264  -0.4082  -0.3978  -0.3944  -0.3803
    -0.3707  -0.3698  -0.3261  -0.2983  -0.2702  -0.0820  -0.0602   0.0156
     0.0267   0.0854   0.1287   0.1398   0.1618   0.1852   0.2139   0.2333
     0.2385   0.2545   0.3100   0.3636   0.3796   0.4000   0.4370   0.4582
     0.5116   0.5349   0.5733   0.6694   0.7138   0.7781   0.7943   0.8083
     0.8582   0.8833   0.9163   0.9317   0.9458   0.9485   0.9633   0.9808
     1.0778   1.1081   1.1105   1.1602   1.1731   1.1883   1.2029   1.2285
     1.2316   1.3672   1.4097   1.4558   1.5263   1.5475   1.6264   1.6351
     1.6762   1.7404   1.7574   1.7716   1.8497   1.8518   1.9396   1.9430
     1.9760   1.9868   1.9962   2.0200   2.0338   2.0847   2.1498   2.1518
     2.1702   2.1908   2.1954   2.2076   2.2125   2.2840   2.3896   2.4130
     2.4227   2.4282   2.4334   2.4993   2.5271   2.6250   2.7362   3.4598
     3.5986   3.6187   3.7636   3.8293   3.9153   3.9735   3.9917   4.3126
     4.5732   4.6071   4.7821   5.0442   5.0699   5.1654   5.1920   5.3459
     5.4649   5.5269   5.5710   5.8372   5.9791   6.0291   6.4680   6.6764
     6.6976

          k = 0.2000-0.3464 0.0000 ( 44714 PWs)   bands (ev):

    -6.2155  -5.2378  -4.9650  -4.9515  -4.5629  -3.8852  -3.8802  -3.8781
    -3.8684  -3.8317  -3.8120  -3.7877  -3.7001  -3.6953  -3.5245  -3.3100
    -3.3007  -3.2944  -3.2926  -3.2236  -3.1976  -3.0741  -3.0634  -3.0612
    -3.0467  -2.9922  -2.9431  -2.9090  -2.9007  -2.8975  -2.8417  -2.8125
    -2.7994  -2.7498  -2.7336  -2.6377  -2.5250  -2.4037  -2.3133  -2.3019
    -2.2694  -2.2539  -2.2406  -2.2368  -2.1770  -2.1482  -2.1014  -2.0156
    -2.0013  -1.9099  -1.8781  -1.8744  -1.8301  -1.8235  -1.7464  -1.7230
    -1.7168  -1.5632  -1.5355  -1.5248  -1.4694  -1.4576  -1.4179  -1.4090
    -1.4010  -1.3434  -1.3113  -1.2011  -1.1942  -1.1763  -1.1594  -1.1293
    -1.1127  -1.0659  -1.0325  -1.0087  -0.9595  -0.8993  -0.8872  -0.8655
    -0.8489  -0.8290  -0.8142  -0.7979  -0.7728  -0.7611  -0.7338  -0.7193
    -0.6959  -0.6768  -0.5854  -0.5724  -0.5675  -0.5448  -0.5192  -0.5033
    -0.4835  -0.4549  -0.4336  -0.4274  -0.4193  -0.4141  -0.4082  -0.3911
    -0.3563  -0.3312  -0.2426  -0.2168  -0.1815  -0.1138  -0.0981  -0.0869
    -0.0705   0.1025   0.1222   0.1618   0.2262   0.2335   0.2823   0.2894
     0.3124   0.3247   0.3589   0.3802   0.4023   0.4133   0.4307   0.5104
     0.6000   0.6489   0.6680   0.6821   0.7117   0.7366   0.7653   0.8046
     0.8742   0.9175   0.9224   0.9442   1.0054   1.0324   1.0729   1.1255
     1.1357   1.1464   1.2009   1.2152   1.2273   1.2405   1.2449   1.2646
     1.2742   1.2803   1.2902   1.3949   1.4511   1.4856   1.6136   1.6238
     1.6445   1.7662   1.7886   1.8040   1.8106   1.8836   1.9031   1.9273
     1.9457   1.9656   1.9784   1.9912   2.0106   2.0138   2.0232   2.0579
     2.0771   2.0889   2.1681   2.1918   2.1994   2.2340   2.2412   2.2804
     2.4103   2.4409   2.4659   2.4794   2.5389   2.5520   2.5666   2.6643
     2.7098   3.0211   3.2153   3.2508   3.5961   3.7760   3.7784   3.7905
     4.2760   4.4647   4.4808   4.6442   4.7227   4.7487   5.3545   5.7747
     5.8998   5.9176   6.1272   6.3912   6.6225   6.6607   6.6934   6.7185
     6.7320

          k = 0.4000-0.2309 0.0000 ( 44748 PWs)   bands (ev):

    -6.0798  -5.4559  -5.1100  -4.5671  -4.3428  -4.3306  -4.1325  -3.9652
    -3.8314  -3.7138  -3.6193  -3.6145  -3.5575  -3.4569  -3.4156  -3.4041
    -3.3971  -3.3884  -3.2529  -3.2255  -3.2199  -3.1814  -3.1737  -3.1550
    -3.0873  -3.0485  -3.0446  -2.9129  -2.7969  -2.7865  -2.7807  -2.7645
    -2.7627  -2.6641  -2.5369  -2.5295  -2.5184  -2.4837  -2.4773  -2.3836
    -2.2783  -2.2116  -2.1911  -2.1826  -2.1620  -2.1273  -2.0804  -2.0517
    -2.0443  -2.0137  -1.9809  -1.8592  -1.8301  -1.8268  -1.8025  -1.7421
    -1.6701  -1.6407  -1.6076  -1.6022  -1.5768  -1.4548  -1.4071  -1.3909
    -1.3874  -1.3691  -1.2890  -1.2788  -1.2463  -1.1569  -1.1389  -1.1327
    -1.0797  -1.0268  -1.0234  -0.9883  -0.9845  -0.9526  -0.9260  -0.9044
    -0.8911  -0.8827  -0.8734  -0.8573  -0.8421  -0.8365  -0.7346  -0.7231
    -0.7131  -0.6999  -0.6933  -0.6872  -0.6685  -0.5699  -0.5438  -0.5165
    -0.4889  -0.4752  -0.4552  -0.4312  -0.4043  -0.3871  -0.3080  -0.2692
    -0.2309  -0.2188  -0.1899  -0.1761  -0.1486  -0.0114   0.0154   0.0672
     0.0981   0.1464   0.1800   0.1945   0.2113   0.2133   0.2192   0.2465
     0.2887   0.3217   0.3254   0.3385   0.3600   0.3839   0.3899   0.4118
     0.4348   0.5275   0.5575   0.5706   0.6397   0.6728   0.7655   0.7681
     0.8613   0.8702   0.9149   0.9619   1.0347   1.0442   1.0811   1.1003
     1.1277   1.1316   1.1715   1.1965   1.2323   1.2429   1.2954   1.3405
     1.3486   1.3895   1.4062   1.4244   1.4286   1.4805   1.5558   1.5956
     1.6592   1.6916   1.6979   1.7191   1.7598   1.8088   1.8177   1.8859
     1.8910   1.9011   1.9124   1.9675   1.9977   2.0024   2.0208   2.1362
     2.1422   2.1575   2.1652   2.1753   2.1777   2.1965   2.2203   2.3944
     2.4086   2.4175   2.4245   2.4298   2.6017   2.6473   2.8970   3.0011
     3.0715   3.2430   3.4818   3.4868   3.7676   3.8664   3.9638   4.1778
     4.4684   4.7078   4.7138   4.7749   4.8987   4.9347   5.0419   5.0605
     5.3015   5.3584   5.8639   5.9823   6.3916   6.5119   6.8745   6.9686
     7.4491

          k = 0.4000 0.0000 0.0000 ( 44714 PWs)   bands (ev):

    -6.2169  -5.2487  -4.9627  -4.9525  -4.5595  -3.8875  -3.8826  -3.8778
    -3.8651  -3.8311  -3.8101  -3.7879  -3.7010  -3.6955  -3.5123  -3.3154
    -3.3024  -3.2950  -3.2919  -3.2244  -3.1971  -3.0808  -3.0627  -3.0605
    -3.0449  -2.9848  -2.9450  -2.9073  -2.9029  -2.8969  -2.8358  -2.8122
    -2.8018  -2.7429  -2.7363  -2.6392  -2.4857  -2.4029  -2.3135  -2.3056
    -2.2673  -2.2546  -2.2416  -2.2337  -2.1772  -2.1462  -2.1162  -2.0122
    -2.0026  -1.9072  -1.8845  -1.8738  -1.8322  -1.8202  -1.7536  -1.7215
    -1.7047  -1.5639  -1.5407  -1.5148  -1.4658  -1.4553  -1.4179  -1.4075
    -1.4022  -1.3459  -1.3154  -1.2037  -1.1972  -1.1794  -1.1613  -1.1249
    -1.1161  -1.0673  -1.0310  -1.0085  -0.9605  -0.9002  -0.8880  -0.8670
    -0.8474  -0.8218  -0.8168  -0.8033  -0.7811  -0.7576  -0.7432  -0.7248
    -0.6983  -0.6882  -0.5849  -0.5774  -0.5677  -0.5490  -0.5170  -0.5058
    -0.4800  -0.4572  -0.4370  -0.4333  -0.4222  -0.4145  -0.4077  -0.3919
    -0.3491  -0.3338  -0.2470  -0.2148  -0.1838  -0.1157  -0.1002  -0.0866
    -0.0697   0.1026   0.1307   0.1479   0.2272   0.2318   0.2829   0.2873
     0.3158   0.3260   0.3682   0.3759   0.4060   0.4160   0.4307   0.5088
     0.6102   0.6416   0.6669   0.6861   0.7182   0.7324   0.7600   0.8046
     0.8782   0.9141   0.9243   0.9624   1.0037   1.0362   1.0785   1.1172
     1.1257   1.1437   1.2042   1.2135   1.2223   1.2456   1.2483   1.2623
     1.2726   1.2799   1.2875   1.3799   1.4526   1.4842   1.6112   1.6236
     1.6486   1.7740   1.7814   1.8050   1.8110   1.8881   1.9082   1.9290
     1.9424   1.9635   1.9786   1.9903   2.0087   2.0116   2.0221   2.0562
     2.0764   2.0913   2.1677   2.1924   2.2008   2.2334   2.2401   2.2803
     2.3969   2.4326   2.4708   2.4867   2.5404   2.5519   2.5669   2.6591
     2.7092   3.0325   3.2254   3.2469   3.6159   3.7706   3.7801   3.7885
     4.2764   4.4605   4.4849   4.6583   4.7247   4.7471   5.3700   5.7983
     5.8893   5.9158   6.1095   6.3643   6.6146   6.6593   6.6935   6.7157
     6.7309

          k = 0.4000 0.2309 0.0000 ( 44748 PWs)   bands (ev):

    -6.0797  -5.4566  -5.1073  -4.5696  -4.3422  -4.3296  -4.1324  -3.9670
    -3.8318  -3.7141  -3.6185  -3.6141  -3.5584  -3.4567  -3.4180  -3.4029
    -3.3971  -3.3873  -3.2534  -3.2248  -3.2189  -3.1812  -3.1746  -3.1569
    -3.0875  -3.0481  -3.0441  -2.9162  -2.7986  -2.7915  -2.7755  -2.7652
    -2.7604  -2.6668  -2.5379  -2.5279  -2.5182  -2.4847  -2.4768  -2.3818
    -2.2791  -2.2110  -2.1941  -2.1828  -2.1560  -2.1247  -2.0770  -2.0509
    -2.0451  -2.0147  -1.9822  -1.8621  -1.8290  -1.8258  -1.8027  -1.7389
    -1.6708  -1.6370  -1.6064  -1.6019  -1.5764  -1.4566  -1.4054  -1.3918
    -1.3843  -1.3737  -1.2846  -1.2809  -1.2456  -1.1573  -1.1405  -1.1371
    -1.0834  -1.0267  -1.0215  -0.9866  -0.9830  -0.9498  -0.9245  -0.9029
    -0.8909  -0.8837  -0.8709  -0.8567  -0.8444  -0.8363  -0.7349  -0.7256
    -0.7129  -0.6965  -0.6902  -0.6859  -0.6708  -0.5684  -0.5445  -0.5191
    -0.4927  -0.4762  -0.4547  -0.4358  -0.4053  -0.3919  -0.3094  -0.2682
    -0.2313  -0.2186  -0.1931  -0.1757  -0.1468  -0.0118   0.0157   0.0683
     0.0974   0.1464   0.1811   0.1946   0.2136   0.2158   0.2192   0.2503
     0.2893   0.3230   0.3253   0.3365   0.3615   0.3804   0.3863   0.4109
     0.4374   0.5281   0.5559   0.5713   0.6389   0.6711   0.7639   0.7670
     0.8611   0.8685   0.9154   0.9634   1.0346   1.0435   1.0786   1.0967
     1.1291   1.1326   1.1717   1.1960   1.2332   1.2438   1.2969   1.3419
     1.3503   1.3925   1.4082   1.4226   1.4278   1.4757   1.5568   1.5963
     1.6590   1.6910   1.6976   1.7192   1.7596   1.8092   1.8178   1.8846
     1.8906   1.9015   1.9101   1.9684   1.9952   2.0006   2.0211   2.1365
     2.1413   2.1588   2.1657   2.1757   2.1788   2.1995   2.2216   2.3946
     2.4104   2.4192   2.4269   2.4321   2.6015   2.6466   2.8968   3.0040
     3.0678   3.2421   3.4817   3.4870   3.7661   3.8663   3.9623   4.1775
     4.4716   4.7091   4.7139   4.7738   4.8972   4.9345   5.0437   5.0627
     5.3016   5.3582   5.8646   5.9819   6.3928   6.5113   6.8716   6.9690
     7.4490

          k = 0.4000-0.6928 0.0000 ( 44692 PWs)   bands (ev):

    -5.7092  -5.6583  -5.1107  -4.9278  -4.4298  -4.1903  -3.8857  -3.8277
    -3.7487  -3.6986  -3.5935  -3.5883  -3.4929  -3.4883  -3.4007  -3.3759
    -3.3585  -3.3403  -3.3200  -3.3008  -3.1883  -3.1616  -3.1537  -3.1315
    -3.1101  -3.1066  -3.0408  -2.9437  -2.9020  -2.7943  -2.7724  -2.7516
    -2.7442  -2.7252  -2.6940  -2.6357  -2.5195  -2.5102  -2.4129  -2.3289
    -2.3118  -2.2550  -2.1841  -2.1490  -2.1241  -2.0709  -1.9915  -1.9527
    -1.9253  -1.8999  -1.8785  -1.8393  -1.8277  -1.7852  -1.7165  -1.7084
    -1.6920  -1.6733  -1.6661  -1.6617  -1.6113  -1.5954  -1.5809  -1.4714
    -1.4595  -1.3941  -1.3626  -1.3031  -1.2700  -1.2373  -1.2109  -1.1719
    -1.1700  -1.1658  -1.0933  -1.0816  -1.0568  -1.0364  -1.0026  -0.9529
    -0.9254  -0.8512  -0.8378  -0.8235  -0.8165  -0.8055  -0.7411  -0.6766
    -0.6313  -0.6283  -0.6122  -0.5901  -0.5554  -0.5432  -0.5323  -0.5174
    -0.5045  -0.5001  -0.4748  -0.4167  -0.4102  -0.4040  -0.4006  -0.3792
    -0.3704  -0.3676  -0.3402  -0.2968  -0.2738  -0.0948  -0.0637   0.0135
     0.0309   0.0981   0.1288   0.1410   0.1637   0.1857   0.2166   0.2345
     0.2376   0.2608   0.3210   0.3654   0.3789   0.3994   0.4403   0.4599
     0.5138   0.5295   0.5629   0.6541   0.7181   0.7826   0.7930   0.8136
     0.8645   0.8818   0.9089   0.9300   0.9445   0.9491   0.9655   0.9786
     1.0752   1.1127   1.1167   1.1621   1.1699   1.1897   1.1959   1.2186
     1.2297   1.3774   1.4048   1.4544   1.5143   1.5552   1.6263   1.6380
     1.6877   1.7415   1.7554   1.7732   1.8454   1.8580   1.9358   1.9503
     1.9719   1.9842   1.9920   2.0158   2.0363   2.0848   2.1500   2.1512
     2.1746   2.1869   2.1962   2.2085   2.2134   2.2848   2.3865   2.4167
     2.4233   2.4293   2.4343   2.4970   2.5261   2.6218   2.7221   3.4719
     3.5991   3.6171   3.7695   3.8288   3.9309   3.9721   3.9899   4.3216
     4.5676   4.6120   4.8038   5.0476   5.0657   5.1497   5.2001   5.3586
     5.4634   5.5253   5.5712   5.8398   5.9554   6.0354   6.4748   6.6582
     6.6958

          k = 0.4000-0.4619 0.0000 ( 44692 PWs)   bands (ev):

    -5.7121  -5.6549  -5.1119  -4.9289  -4.4274  -4.1911  -3.8853  -3.8271
    -3.7483  -3.6994  -3.5943  -3.5881  -3.4928  -3.4878  -3.4019  -3.3769
    -3.3590  -3.3360  -3.3212  -3.3010  -3.1881  -3.1614  -3.1535  -3.1313
    -3.1125  -3.1045  -3.0395  -2.9428  -2.9036  -2.7938  -2.7708  -2.7526
    -2.7442  -2.7236  -2.6952  -2.6361  -2.5190  -2.5114  -2.4125  -2.3290
    -2.3111  -2.2554  -2.1834  -2.1468  -2.1283  -2.0678  -1.9964  -1.9545
    -1.9224  -1.8995  -1.8797  -1.8395  -1.8279  -1.7866  -1.7161  -1.7112
    -1.6903  -1.6754  -1.6657  -1.6609  -1.6133  -1.5973  -1.5756  -1.4732
    -1.4585  -1.3946  -1.3646  -1.3005  -1.2729  -1.2365  -1.2114  -1.1729
    -1.1683  -1.1634  -1.0930  -1.0823  -1.0580  -1.0351  -1.0027  -0.9544
    -0.9285  -0.8501  -0.8377  -0.8262  -0.8152  -0.8077  -0.7390  -0.6747
    -0.6339  -0.6262  -0.6134  -0.5937  -0.5538  -0.5429  -0.5332  -0.5127
    -0.5031  -0.4948  -0.4745  -0.4226  -0.4089  -0.4016  -0.3977  -0.3792
    -0.3713  -0.3698  -0.3394  -0.2969  -0.2722  -0.0925  -0.0625   0.0143
     0.0298   0.0969   0.1308   0.1402   0.1642   0.1823   0.2150   0.2358
     0.2400   0.2596   0.3192   0.3634   0.3792   0.4009   0.4409   0.4589
     0.5105   0.5338   0.5641   0.6540   0.7178   0.7837   0.7923   0.8128
     0.8640   0.8831   0.9100   0.9274   0.9433   0.9489   0.9645   0.9811
     1.0728   1.1130   1.1154   1.1631   1.1694   1.1892   1.1963   1.2210
     1.2307   1.3776   1.4089   1.4540   1.5140   1.5546   1.6262   1.6363
     1.6872   1.7414   1.7553   1.7723   1.8447   1.8598   1.9365   1.9527
     1.9722   1.9855   1.9923   2.0148   2.0361   2.0833   2.1490   2.1517
     2.1767   2.1872   2.1962   2.2083   2.2132   2.2847   2.3865   2.4149
     2.4219   2.4277   2.4323   2.4974   2.5238   2.6213   2.7215   3.4738
     3.5987   3.6168   3.7722   3.8271   3.9324   3.9710   3.9942   4.3199
     4.5674   4.6100   4.8050   5.0488   5.0660   5.1517   5.1978   5.3553
     5.4578   5.5218   5.5776   5.8379   5.9545   6.0373   6.4740   6.6592
     6.6987

     the Fermi energy is     2.1930 ev

!    total energy              =  -27755.49554648 Ry
     total all-electron energy =  -1326642.260963 Ry
     estimated scf accuracy    <       0.00000084 Ry
     smearing contrib. (-TS)   =       0.00473023 Ry
     internal energy E=F+TS    =  -27755.50027672 Ry

     The total energy is F=E-TS. E is the sum of the following terms:
     one-electron contribution =  -22786.05788936 Ry
     hartree contribution      =   11695.83886196 Ry
     xc contribution           =    -890.78354969 Ry
     ewald contribution        =    9699.49841078 Ry
     one-center paw contrib.   =  -25473.99611040 Ry

     convergence has been achieved in  17 iterations

     negative rho (up, down):  3.342E-03 0.000E+00

     Forces acting on atoms (cartesian axes, Ry/au):

     atom    1 type  1   force =     0.00221860    0.00140578   -0.00574705
     atom    2 type  1   force =     0.00067360    0.00218573   -0.00432748
     atom    3 type  1   force =    -0.00162486    0.00397680   -0.00556381
     atom    4 type  1   force =     0.00212882   -0.00045383   -0.00427538
     atom    5 type  1   force =    -0.00006387   -0.00010942   -0.00343507
     atom    6 type  1   force =    -0.00189426    0.00056620   -0.00403030
     atom    7 type  1   force =     0.00209032   -0.00306337   -0.00507832
     atom    8 type  1   force =    -0.00039364   -0.00197352   -0.00393791
     atom    9 type  1   force =    -0.00275355   -0.00157727   -0.00429805
     atom   10 type  1   force =     0.00306818    0.00162583    0.00826936
     atom   11 type  1   force =     0.00004770    0.00145598    0.00413385
     atom   12 type  1   force =    -0.00174002    0.00246730    0.00562046
     atom   13 type  1   force =     0.00124047   -0.00074784    0.00517901
     atom   14 type  1   force =    -0.00000818   -0.00011023    0.00241911
     atom   15 type  1   force =    -0.00139456    0.00110373    0.00611763
     atom   16 type  1   force =     0.00159222   -0.00300779    0.00612513
     atom   17 type  1   force =    -0.00002735   -0.00209243    0.00559744
     atom   18 type  1   force =    -0.00316850   -0.00142219    0.00406548
     atom   19 type  1   force =    -0.00000208    0.00019686   -0.00008802
     atom   20 type  1   force =    -0.00000976    0.00020230   -0.00006159
     atom   21 type  1   force =     0.00001205    0.00017135   -0.00008094
     atom   22 type  1   force =    -0.00000754    0.00050801   -0.00051933
     atom   23 type  1   force =     0.00006703    0.00025239   -0.00018758
     atom   24 type  1   force =    -0.00004642    0.00023973   -0.00021470
     atom   25 type  1   force =     0.00011864    0.00036354   -0.00005193
     atom   26 type  1   force =    -0.00001300    0.00015093   -0.00015148
     atom   27 type  1   force =    -0.00009003    0.00033506   -0.00005066
     atom   28 type  1   force =    -0.00006026    0.00047633    0.00043239
     atom   29 type  1   force =     0.00005838    0.00045576    0.00040867
     atom   30 type  1   force =     0.00002247    0.00035317   -0.00010381
     atom   31 type  1   force =    -0.00001436    0.00090894   -0.00043512
     atom   32 type  1   force =     0.00003553    0.00050714    0.00002997
     atom   33 type  1   force =     0.00000754    0.00049331    0.00004535
     atom   34 type  1   force =    -0.00001381    0.00044272    0.00001808
     atom   35 type  1   force =     0.00001756    0.00021591   -0.00005835
     atom   36 type  1   force =     0.00001133    0.00043030    0.00002022
     atom   37 type  2   force =    -0.00008439   -0.00693322   -0.00578527
     The non-local contrib.  to forces
     atom    1 type  1   force =     0.00289744    0.00163919   -0.01644084
     atom    2 type  1   force =    -0.00003306    0.00219055   -0.01703235
     atom    3 type  1   force =    -0.00092150    0.00113320   -0.01651302
     atom    4 type  1   force =     0.00191451   -0.00132645   -0.01725279
     atom    5 type  1   force =    -0.00007247    0.00001652   -0.01757335
     atom    6 type  1   force =    -0.00144741    0.00026780   -0.01667610
     atom    7 type  1   force =     0.00111249   -0.00139081   -0.01686533
     atom    8 type  1   force =    -0.00053718   -0.00147839   -0.01688380
     atom    9 type  1   force =    -0.00155297   -0.00057182   -0.01656474
     atom   10 type  1   force =     0.00185772    0.00085878    0.00116439
     atom   11 type  1   force =    -0.00035574    0.00185410    0.00130049
     atom   12 type  1   force =    -0.00014843    0.00234089    0.00175309
     atom   13 type  1   force =     0.00165774   -0.00098550    0.00147199
     atom   14 type  1   force =     0.00011625    0.00002343    0.00000725
     atom   15 type  1   force =    -0.00192182   -0.00039481    0.00195917
     atom   16 type  1   force =     0.00186548   -0.00164802    0.00171093
     atom   17 type  1   force =    -0.00132179   -0.00149046    0.00174884
     atom   18 type  1   force =    -0.00204370   -0.00155085    0.00234829
     atom   19 type  1   force =    -0.00150654    0.00056394    0.00272582
     atom   20 type  1   force =     0.00139798    0.00067907    0.00317333
     atom   21 type  1   force =     0.00004996    0.00105961    0.00283230
     atom   22 type  1   force =     0.00000430    0.00375482   -0.00206266
     atom   23 type  1   force =     0.00119701   -0.00000367    0.00273480
     atom   24 type  1   force =    -0.00125940   -0.00011307    0.00302599
     atom   25 type  1   force =    -0.00175465   -0.00046735   -0.00032633
     atom   26 type  1   force =    -0.00015678   -0.00186805    0.00129205
     atom   27 type  1   force =     0.00176277   -0.00047008    0.00062851
     atom   28 type  1   force =     0.03780670    0.02670926    0.01840970
     atom   29 type  1   force =    -0.03870716    0.02682563    0.01921951
     atom   30 type  1   force =     0.00002294   -0.00026589    0.01402222
     atom   31 type  1   force =    -0.00036339   -0.03139432   -0.00596086
     atom   32 type  1   force =    -0.00464496   -0.00154602    0.01693393
     atom   33 type  1   force =     0.00468757   -0.00166662    0.01718016
     atom   34 type  1   force =    -0.00030732   -0.00018270    0.01473789
     atom   35 type  1   force =    -0.00007170    0.00126834    0.01544025
     atom   36 type  1   force =     0.00020520   -0.00022483    0.01465953
     atom   37 type  2   force =    -0.00020085    0.00795771   -0.01934735
     The ionic contribution  to forces
     atom    1 type  1   force =     0.14044401    0.08159313  -96.23347299
     atom    2 type  1   force =     0.01311335    0.14476598  -96.17258958
     atom    3 type  1   force =    -0.13311851    0.21371544  -96.19178553
     atom    4 type  1   force =     0.13148925   -0.05932713  -96.16977877
     atom    5 type  1   force =     0.00270938    0.00285956  -96.12743574
     atom    6 type  1   force =    -0.12721462    0.08072200  -96.13847080
     atom    7 type  1   force =     0.11794329   -0.22379114  -96.18922121
     atom    8 type  1   force =     0.00517868   -0.15169733  -96.13923134
     atom    9 type  1   force =    -0.13849686   -0.08194452  -96.13961638
     atom   10 type  1   force =     0.13869942    0.08718713  -32.35951951
     atom   11 type  1   force =    -0.07455263    0.12973972  -32.45238100
     atom   12 type  1   force =    -0.04409371    0.18581887  -32.37111271
     atom   13 type  1   force =     0.06654750   -0.11606083  -32.44141315
     atom   14 type  1   force =    -0.01334108   -0.00558908  -32.57025535
     atom   15 type  1   force =    -0.05703852    0.01294878  -32.38577506
     atom   16 type  1   force =     0.12961465   -0.14279860  -32.37518054
     atom   17 type  1   force =    -0.02385644   -0.06810132  -32.40071218
     atom   18 type  1   force =    -0.12602885   -0.09548121  -32.23820214
     atom   19 type  1   force =     0.10259062   -0.02543371   32.31680807
     atom   20 type  1   force =    -0.08922373   -0.04503513   32.19912930
     atom   21 type  1   force =    -0.01510609   -0.02928615   31.48411268
     atom   22 type  1   force =    -0.00996715    0.03213220   32.00737817
     atom   23 type  1   force =    -0.02821387   -0.00308907   31.52498456
     atom   24 type  1   force =     0.03615005    0.01890803   31.50079306
     atom   25 type  1   force =    -0.03747815   -0.00748744   32.03782359
     atom   26 type  1   force =     0.02388966    0.10083174   32.25193697
     atom   27 type  1   force =     0.01631823   -0.00749069   31.89139730
     atom   28 type  1   force =    -0.42036857   -0.30113208   95.56519759
     atom   29 type  1   force =     0.41188704   -0.28868830   95.49473430
     atom   30 type  1   force =    -0.00622910    0.00074270   95.32435150
     atom   31 type  1   force =     0.00626833    0.76925466   95.46777722
     atom   32 type  1   force =    -0.01141129    0.00682595   95.09706039
     atom   33 type  1   force =     0.00711839    0.01407384   95.11006995
     atom   34 type  1   force =     0.01477341    0.00994585   95.28914187
     atom   35 type  1   force =     0.00420769   -0.00218434   95.20145933
     atom   36 type  1   force =    -0.02119746    0.01376287   95.25997077
     atom   37 type  2   force =     0.00799369   -0.25121041   12.07202738
     The local contribution  to forces
     atom    1 type  1   force =    -0.14065279   -0.08155183   96.22596820
     atom    2 type  1   force =    -0.01246017   -0.14434627   96.16719010
     atom    3 type  1   force =     0.13210424   -0.21018686   96.18456223
     atom    4 type  1   force =    -0.13094330    0.05992384   96.16467115
     atom    5 type  1   force =    -0.00262787   -0.00293295   96.12365769
     atom    6 type  1   force =     0.12639254   -0.08020777   96.13322055
     atom    7 type  1   force =    -0.11656609    0.22154946   96.18292516
     atom    8 type  1   force =    -0.00505086    0.15077926   96.13428166
     atom    9 type  1   force =     0.13681119    0.08067333   96.13390621
     atom   10 type  1   force =    -0.13718224   -0.08619243   32.36512225
     atom   11 type  1   force =     0.07496485   -0.12973658   32.45333547
     atom   12 type  1   force =     0.04229470   -0.18512568   32.37337022
     atom   13 type  1   force =    -0.06667516    0.11609280   32.44335042
     atom   14 type  1   force =     0.01326696    0.00546230   32.57047132
     atom   15 type  1   force =     0.05719685   -0.01139361   32.38833406
     atom   16 type  1   force =    -0.12950290    0.14095132   32.37795411
     atom   17 type  1   force =     0.02499779    0.06706973   32.40282205
     atom   18 type  1   force =     0.12453573    0.09530899   32.23895285
     atom   19 type  1   force =    -0.10098045    0.02501267  -32.31763096
     atom   20 type  1   force =     0.08761958    0.04451820  -32.20038435
     atom   21 type  1   force =     0.01516139    0.02838571  -31.48563865
     atom   22 type  1   force =     0.00992186   -0.03519171  -32.00431066
     atom   23 type  1   force =     0.02709474    0.00339446  -31.52655208
     atom   24 type  1   force =    -0.03491947   -0.01860186  -31.50265884
     atom   25 type  1   force =     0.03919792    0.00829410  -32.03606923
     atom   26 type  1   force =    -0.02380394   -0.09864683  -32.25143387
     atom   27 type  1   force =    -0.01793803    0.00818797  -31.89058331
     atom   28 type  1   force =     0.37918183    0.27252719  -95.56956726
     atom   29 type  1   force =    -0.37003030    0.26007318  -95.49981355
     atom   30 type  1   force =     0.00630730   -0.00009813  -95.32129893
     atom   31 type  1   force =    -0.00591261   -0.72858003  -95.45152216
     atom   32 type  1   force =     0.01534804   -0.00504389  -95.09701382
     atom   33 type  1   force =    -0.01100169   -0.01222775  -95.11027158
     atom   34 type  1   force =    -0.01446883   -0.00935077  -95.28663543
     atom   35 type  1   force =    -0.00412888    0.00181224  -95.19993813
     atom   36 type  1   force =     0.02099458   -0.01322269  -95.25740216
     atom   37 type  2   force =    -0.00788219    0.23630665  -12.05831211
     The core correction contribution to forces
     atom    1 type  1   force =    -0.00043680   -0.00025476    0.01757470
     atom    2 type  1   force =     0.00000416   -0.00044313    0.01744120
     atom    3 type  1   force =     0.00032954   -0.00059160    0.01756984
     atom    4 type  1   force =    -0.00037982    0.00022651    0.01742772
     atom    5 type  1   force =     0.00000271   -0.00002691    0.01731720
     atom    6 type  1   force =     0.00034515   -0.00018080    0.01731770
     atom    7 type  1   force =    -0.00031149    0.00055532    0.01747871
     atom    8 type  1   force =     0.00004006    0.00038202    0.01731310
     atom    9 type  1   force =     0.00037032    0.00020908    0.01734968
     atom   10 type  1   force =    -0.00039033   -0.00024357    0.00069473
     atom   11 type  1   force =     0.00007019   -0.00032211    0.00107078
     atom   12 type  1   force =     0.00020986   -0.00048437    0.00085296
     atom   13 type  1   force =    -0.00021942    0.00022692    0.00099987
     atom   14 type  1   force =     0.00000781    0.00000356    0.00139901
     atom   15 type  1   force =     0.00023772   -0.00008657    0.00084228
     atom   16 type  1   force =    -0.00033715    0.00045547    0.00086598
     atom   17 type  1   force =     0.00007350    0.00030309    0.00092501
     atom   18 type  1   force =     0.00040074    0.00030464    0.00023015
     atom   19 type  1   force =    -0.00019326    0.00006867   -0.00238954
     atom   20 type  1   force =     0.00018861    0.00008432   -0.00235706
     atom   21 type  1   force =     0.00000126    0.00005371   -0.00184991
     atom   22 type  1   force =     0.00000989   -0.00021701   -0.00185600
     atom   23 type  1   force =     0.00002271   -0.00002832   -0.00182356
     atom   24 type  1   force =    -0.00002758   -0.00003247   -0.00185130
     atom   25 type  1   force =     0.00020869    0.00006397   -0.00183878
     atom   26 type  1   force =    -0.00001799   -0.00020257   -0.00233533
     atom   27 type  1   force =    -0.00021386    0.00008357   -0.00183331
     atom   28 type  1   force =     0.00316928    0.00228209   -0.01301297
     atom   29 type  1   force =    -0.00299698    0.00213565   -0.01309010
     atom   30 type  1   force =    -0.00002244   -0.00005730   -0.01650212
     atom   31 type  1   force =    -0.00004832   -0.00816733   -0.01019835
     atom   32 type  1   force =     0.00079126    0.00028463   -0.01628148
     atom   33 type  1   force =    -0.00079966    0.00030138   -0.01629687
     atom   34 type  1   force =    -0.00004626    0.00007895   -0.01656223
     atom   35 type  1   force =     0.00001003   -0.00067647   -0.01634768
     atom   36 type  1   force =     0.00004390    0.00010251   -0.01653790
     atom   37 type  2   force =     0.00000000    0.00000000    0.00000000
     The Hubbard contrib.    to forces
     atom    1 type  1   force =     0.00000000    0.00000000    0.00000000
     atom    2 type  1   force =     0.00000000    0.00000000    0.00000000
     atom    3 type  1   force =     0.00000000    0.00000000    0.00000000
     atom    4 type  1   force =     0.00000000    0.00000000    0.00000000
     atom    5 type  1   force =     0.00000000    0.00000000    0.00000000
     atom    6 type  1   force =     0.00000000    0.00000000    0.00000000
     atom    7 type  1   force =     0.00000000    0.00000000    0.00000000
     atom    8 type  1   force =     0.00000000    0.00000000    0.00000000
     atom    9 type  1   force =     0.00000000    0.00000000    0.00000000
     atom   10 type  1   force =     0.00000000    0.00000000    0.00000000
     atom   11 type  1   force =     0.00000000    0.00000000    0.00000000
     atom   12 type  1   force =     0.00000000    0.00000000    0.00000000
     atom   13 type  1   force =     0.00000000    0.00000000    0.00000000
     atom   14 type  1   force =     0.00000000    0.00000000    0.00000000
     atom   15 type  1   force =     0.00000000    0.00000000    0.00000000
     atom   16 type  1   force =     0.00000000    0.00000000    0.00000000
     atom   17 type  1   force =     0.00000000    0.00000000    0.00000000
     atom   18 type  1   force =     0.00000000    0.00000000    0.00000000
     atom   19 type  1   force =     0.00000000    0.00000000    0.00000000
     atom   20 type  1   force =     0.00000000    0.00000000    0.00000000
     atom   21 type  1   force =     0.00000000    0.00000000    0.00000000
     atom   22 type  1   force =     0.00000000    0.00000000    0.00000000
     atom   23 type  1   force =     0.00000000    0.00000000    0.00000000
     atom   24 type  1   force =     0.00000000    0.00000000    0.00000000
     atom   25 type  1   force =     0.00000000    0.00000000    0.00000000
     atom   26 type  1   force =     0.00000000    0.00000000    0.00000000
     atom   27 type  1   force =     0.00000000    0.00000000    0.00000000
     atom   28 type  1   force =     0.00000000    0.00000000    0.00000000
     atom   29 type  1   force =     0.00000000    0.00000000    0.00000000
     atom   30 type  1   force =     0.00000000    0.00000000    0.00000000
     atom   31 type  1   force =     0.00000000    0.00000000    0.00000000
     atom   32 type  1   force =     0.00000000    0.00000000    0.00000000
     atom   33 type  1   force =     0.00000000    0.00000000    0.00000000
     atom   34 type  1   force =     0.00000000    0.00000000    0.00000000
     atom   35 type  1   force =     0.00000000    0.00000000    0.00000000
     atom   36 type  1   force =     0.00000000    0.00000000    0.00000000
     atom   37 type  2   force =     0.00000000    0.00000000    0.00000000
     The SCF correction term to forces
     atom    1 type  1   force =    -0.00000000   -0.00000000    0.00000000
     atom    2 type  1   force =     0.00000000    0.00000000    0.00000000
     atom    3 type  1   force =    -0.00000000   -0.00000000    0.00000000
     atom    4 type  1   force =     0.00000000    0.00000000    0.00000000
     atom    5 type  1   force =    -0.00000000   -0.00000000    0.00000000
     atom    6 type  1   force =     0.00000000   -0.00000000    0.00000000
     atom    7 type  1   force =    -0.00000000    0.00000000    0.00000000
     atom    8 type  1   force =    -0.00000000    0.00000000    0.00000000
     atom    9 type  1   force =     0.00000000    0.00000000    0.00000000
     atom   10 type  1   force =     0.00000000    0.00000000    0.00000000
     atom   11 type  1   force =    -0.00000000   -0.00000000    0.00000000
     atom   12 type  1   force =    -0.00000000   -0.00000000    0.00000000
     atom   13 type  1   force =    -0.00000000   -0.00000000    0.00000000
     atom   14 type  1   force =    -0.00000000   -0.00000000    0.00000000
     atom   15 type  1   force =     0.00000000    0.00000000    0.00000000
     atom   16 type  1   force =    -0.00000000    0.00000000    0.00000000
     atom   17 type  1   force =     0.00000000    0.00000000    0.00000000
     atom   18 type  1   force =    -0.00000000   -0.00000000    0.00000000
     atom   19 type  1   force =     0.00008719   -0.00001563    0.00049423
     atom   20 type  1   force =     0.00000742   -0.00004508    0.00047282
     atom   21 type  1   force =    -0.00009485   -0.00004246    0.00055827
     atom   22 type  1   force =     0.00002317    0.00002880    0.00042746
     atom   23 type  1   force =    -0.00003393   -0.00002191    0.00056433
     atom   24 type  1   force =     0.00000959    0.00007818    0.00057203
     atom   25 type  1   force =    -0.00005554   -0.00004066    0.00045446
     atom   26 type  1   force =     0.00007567    0.00003573    0.00048433
     atom   27 type  1   force =    -0.00001951    0.00002336    0.00043579
     atom   28 type  1   force =     0.00015013    0.00008895   -0.00049903
     atom   29 type  1   force =    -0.00009461    0.00010868   -0.00054586
     atom   30 type  1   force =    -0.00005661    0.00003088   -0.00058084
     atom   31 type  1   force =     0.00004125   -0.00020496   -0.00043533
     atom   32 type  1   force =    -0.00004790   -0.00001445   -0.00057342
     atom   33 type  1   force =     0.00000254    0.00001154   -0.00054068
     atom   34 type  1   force =     0.00003481   -0.00004953   -0.00056839
     atom   35 type  1   force =     0.00000004   -0.00000478   -0.00057650
     atom   36 type  1   force =    -0.00003527    0.00001153   -0.00057438
     atom   37 type  2   force =     0.00000458    0.00001192   -0.00005756

     Total force =     0.009253     Total SCF correction =     0.002252
     SCF correction compared to forces is large: reduce conv_thr to get better values

     Writing all to output data dir ./pwscf.save/

     init_run     :     10.50s CPU     10.81s WALL (       1 calls)
     electrons    :    293.98s CPU    304.06s WALL (       1 calls)
     forces       :      4.85s CPU      5.55s WALL (       1 calls)

     Called by init_run:
     wfcinit      :      5.79s CPU      5.96s WALL (       1 calls)
     potinit      :      3.09s CPU      3.17s WALL (       1 calls)
     hinit0       :      1.01s CPU      1.02s WALL (       1 calls)

     Called by electrons:
     c_bands      :    249.25s CPU    255.29s WALL (      18 calls)
     sum_band     :     28.34s CPU     29.43s WALL (      18 calls)
     v_of_rho     :      8.38s CPU     10.31s WALL (      18 calls)
     newd         :      2.37s CPU      2.97s WALL (      18 calls)
     PAW_pot      :      3.76s CPU      3.95s WALL (      18 calls)
     mix_rho      :      4.01s CPU      4.08s WALL (      18 calls)
     vdW_kernel   :      1.72s CPU      1.73s WALL (       1 calls)

     Called by c_bands:
     init_us_2    :      2.59s CPU      2.75s WALL (     494 calls)
     init_us_2:cp :      2.59s CPU      2.75s WALL (     494 calls)
     cegterg      :    242.57s CPU    248.25s WALL (     234 calls)

     Called by *egterg:
     cdiaghg      :     64.48s CPU     65.37s WALL (    1239 calls)
     h_psi        :    112.17s CPU    114.89s WALL (    1265 calls)
     s_psi        :     14.44s CPU     14.60s WALL (    1265 calls)
     g_psi        :      0.46s CPU      0.47s WALL (    1018 calls)

     Called by h_psi:
     h_psi:calbec :     18.36s CPU     19.21s WALL (    1265 calls)
     vloc_psi     :     78.27s CPU     79.91s WALL (    1265 calls)
     add_vuspsi   :     14.39s CPU     14.60s WALL (    1265 calls)

     General routines
     calbec       :     26.21s CPU     27.22s WALL (    1551 calls)
     fft          :      5.61s CPU      7.64s WALL (    1194 calls)
     ffts         :      2.27s CPU      2.30s WALL (    4398 calls)
     fftw         :     76.05s CPU     77.65s WALL (  309032 calls)
     interpolate  :      0.59s CPU      0.63s WALL (      18 calls)

     Parallel routines

     PWSCF        :   5m11.10s CPU   5m25.16s WALL


   This run was terminated on:   5:49:26  28Jan2025            

=------------------------------------------------------------------------------=
   JOB DONE.
=------------------------------------------------------------------------------=
