
     Program PWSCF v.7.1 starts on  2Dec2025 at 14:38:54 
        Git branch: heads/qe-7.1
        Last git commit: 48ba0178f8fede6d020eb786884699a9f063f55d-dirty
        Last git commit date: Fri Jan 27 14:22:33 2023 +0000
        Last git commit subject: Merge branch 'fix_hubbard' into 'develop'

     This program is part of the open-source Quantum ESPRESSO suite
     for quantum simulation of materials; please cite
         "P. Giannozzi et al., J. Phys.:Condens. Matter 21 395502 (2009);
         "P. Giannozzi et al., J. Phys.:Condens. Matter 29 465901 (2017);
         "P. Giannozzi et al., J. Chem. Phys. 152 154105 (2020);
          URL http://www.quantum-espresso.org", 
     in publications or presentations arising from this work. More details at
     http://www.quantum-espresso.org/quote

     Parallel version (MPI), running on    96 processors

     MPI processes distributed on     2 nodes
     281295 MiB available memory on the printing compute node when the environment starts

     Reading input from espresso.pwi
Warning: card &CELL ignored
Warning: card / ignored
Warning: card &FCP ignored
Warning: card / ignored
Warning: card &RISM ignored
Warning: card / ignored

     Current dimensions of program PWSCF are:
     Max number of different atomic species (ntypx) = 10
     Max number of k-points (npk) =  40000
     Max angular momentum in pseudopotentials (lmaxx) =  4
     file Co.pbe-n-kjpaw_psl.1.0.0.UPF: wavefunction(s)  4S 3D renormalized
     file C.pbe-n-kjpaw_psl.1.0.0.UPF: wavefunction(s)  2S 2P renormalized
     file O.pbe-nl-kjpaw_psl.1.0.0.UPF: wavefunction(s)  2S 2P renormalized
     file H.pbe-kjpaw_psl.1.0.0.UPF: wavefunction(s)  1S renormalized

     **************************************************************************
     Initializing libbeef V0.1.2 with the BEEF-vdW functional.
     Citation: Wellendorff et al., PRB 85, 235149 (2012).
     **************************************************************************


     IMPORTANT: XC functional enforced from input :
     Exchange-correlation= BEEF-VDW
                           (   1   4  43  14   2   0   0)
     Any further DFT definition will be discarded
     Please, verify this is what you really want


     R & G space division:  proc/nbgrp/npool/nimage =      96
     Subspace diagonalization in iterative solution of the eigenvalue problem:
     one sub-group per band group will be used
     custom distributed-memory algorithm (size of sub-group:  2*  2 procs)


     Parallelization info
     --------------------
     sticks:   dense  smooth     PW     G-vecs:    dense   smooth      PW
     Min          43      23      6                 7829     3049     440
     Max          44      24      7                 7845     3068     465
     Sum        4153    2221    613               752179   293251   42993

     Using Slab Decomposition



     bravais-lattice index     =            0
     lattice parameter (alat)  =      14.1729  a.u.
     unit-cell volume          =    8574.3059 (a.u.)^3
     number of atoms/cell      =           39
     number of atomic types    =            4
     number of electrons       =       335.00
     number of Kohn-Sham states=          202
     kinetic-energy cutoff     =      40.0000  Ry
     charge density cutoff     =     300.0000  Ry
     scf convergence threshold =      1.0E-06
     mixing beta               =       0.7000
     number of iterations used =            8  local-TF  mixing
     Exchange-correlation= BEEF-VDW
                           (   1   4  43  14   2   0   0)

     celldm(1)=  14.172946  celldm(2)=   0.000000  celldm(3)=   0.000000
     celldm(4)=   0.000000  celldm(5)=   0.000000  celldm(6)=   0.000000

     crystal axes: (cart. coord. in units of alat)
               a(1) = (   1.000000   0.000000   0.000000 )  
               a(2) = (   0.500000   0.866025   0.000000 )  
               a(3) = (   0.000000   0.000000   3.477667 )  

     reciprocal axes: (cart. coord. in units 2 pi/alat)
               b(1) = (  1.000000 -0.577350  0.000000 )  
               b(2) = (  0.000000  1.154701  0.000000 )  
               b(3) = (  0.000000  0.000000  0.287549 )  


     PseudoPot. # 1 for Co read from file:
     /users/kbadger1/espresso/pseudo/pslibrary.1.0.0/pbe/PSEUDOPOTENTIALS/Co.pbe-n-kjpaw_psl.1.0.0.UPF
     MD5 check sum: 88af6ec42553d4236c267fdfcb472151
     Pseudo is Projector augmented-wave + core cor, Zval =  9.0
     Generated using 'atomic' code by A. Dal Corso  v.7.0
     Shape of augmentation charge: PSQ
     Using radial grid of 1193 points,  6 beta functions with: 
                l(1) =   0
                l(2) =   0
                l(3) =   1
                l(4) =   1
                l(5) =   2
                l(6) =   2
     Q(r) pseudized with 0 coefficients 


     PseudoPot. # 2 for C  read from file:
     /users/kbadger1/espresso/pseudo/pslibrary.1.0.0/pbe/PSEUDOPOTENTIALS/C.pbe-n-kjpaw_psl.1.0.0.UPF
     MD5 check sum: 6408e75cdba28732cea38a4db8498ce4
     Pseudo is Projector augmented-wave + core cor, Zval =  4.0
     Generated using 'atomic' code by A. Dal Corso  v.7.0
     Shape of augmentation charge: PSQ
     Using radial grid of 1073 points,  4 beta functions with: 
                l(1) =   0
                l(2) =   0
                l(3) =   1
                l(4) =   1
     Q(r) pseudized with 0 coefficients 


     PseudoPot. # 3 for O  read from file:
     /users/kbadger1/espresso/pseudo/pslibrary.1.0.0/pbe/PSEUDOPOTENTIALS/O.pbe-nl-kjpaw_psl.1.0.0.UPF
     MD5 check sum: f0439fab3598ca4e468f064226030408
     Pseudo is Projector augmented-wave + core cor, Zval =  6.0
     Generated using 'atomic' code by A. Dal Corso  v.7.0
     Shape of augmentation charge: PSQ
     Using radial grid of 1095 points,  4 beta functions with: 
                l(1) =   0
                l(2) =   0
                l(3) =   1
                l(4) =   1
     Q(r) pseudized with 0 coefficients 


     PseudoPot. # 4 for H  read from file:
     /users/kbadger1/espresso/pseudo/pslibrary.1.0.0/pbe/PSEUDOPOTENTIALS/H.pbe-kjpaw_psl.1.0.0.UPF
     MD5 check sum: fe4c6fa958fa6d3815bf5d2419cbf1df
     Pseudo is Projector augmented-wave, Zval =  1.0
     Generated using 'atomic' code by A. Dal Corso  v.7.0
     Shape of augmentation charge: PSQ
     Using radial grid of  929 points,  2 beta functions with: 
                l(1) =   0
                l(2) =   0
     Q(r) pseudized with 0 coefficients 


     atomic species   valence    mass     pseudopotential
        Co             9.00    58.93319     Co( 1.00)
        C              4.00    12.00000     C ( 1.00)
        O              6.00    15.99491     O ( 1.00)
        H              1.00     1.00783     H ( 1.00)

     Starting magnetic structure 
     atomic species   magnetization
        Co           1.000
        C            1.000
        O            0.000
        H            0.000

     No symmetry found



   Cartesian axes

     site n.     atom                  positions (alat units)
         1           Co  tau(   1) = (   0.0000000   0.1924501   1.3333333  )
         2           Co  tau(   2) = (   0.3333333   0.1924501   1.3333333  )
         3           Co  tau(   3) = (   0.6666667   0.1924501   1.3333333  )
         4           Co  tau(   4) = (   0.1666667   0.4811252   1.3333333  )
         5           Co  tau(   5) = (   0.5000000   0.4811252   1.3333333  )
         6           Co  tau(   6) = (   0.8333333   0.4811252   1.3333333  )
         7           Co  tau(   7) = (   0.3333333   0.7698004   1.3333333  )
         8           Co  tau(   8) = (   0.6666667   0.7698004   1.3333333  )
         9           Co  tau(   9) = (   1.0000000   0.7698004   1.3333333  )
        10           Co  tau(  10) = (   0.0000000   0.0000000   1.6036667  )
        11           Co  tau(  11) = (   0.3333333   0.0000000   1.6036667  )
        12           Co  tau(  12) = (   0.6666667   0.0000000   1.6036667  )
        13           Co  tau(  13) = (   0.1666667   0.2886751   1.6036667  )
        14           Co  tau(  14) = (   0.5000000   0.2886751   1.6036667  )
        15           Co  tau(  15) = (   0.8333333   0.2886751   1.6036667  )
        16           Co  tau(  16) = (   0.3333333   0.5773503   1.6036667  )
        17           Co  tau(  17) = (   0.6666667   0.5773503   1.6036667  )
        18           Co  tau(  18) = (   1.0000000   0.5773503   1.6036667  )
        19           Co  tau(  19) = (   0.0000000   0.1924501   1.8740000  )
        20           Co  tau(  20) = (   0.3333333   0.1924501   1.8740000  )
        21           Co  tau(  21) = (   0.6666667   0.1924501   1.8740000  )
        22           Co  tau(  22) = (   0.1666667   0.4811252   1.8740000  )
        23           Co  tau(  23) = (   0.5000000   0.4811252   1.8740000  )
        24           Co  tau(  24) = (   0.8333333   0.4811252   1.8740000  )
        25           Co  tau(  25) = (   0.3333333   0.7698004   1.8740000  )
        26           Co  tau(  26) = (   0.6666667   0.7698004   1.8740000  )
        27           Co  tau(  27) = (   1.0000000   0.7698004   1.8740000  )
        28           Co  tau(  28) = (   0.0000000   0.0000000   2.1443333  )
        29           Co  tau(  29) = (   0.3333333   0.0000000   2.1443333  )
        30           Co  tau(  30) = (   0.6666667   0.0000000   2.1443333  )
        31           Co  tau(  31) = (   0.1666667   0.2886751   2.1443333  )
        32           Co  tau(  32) = (   0.5000000   0.2886751   2.1443333  )
        33           Co  tau(  33) = (   0.8333333   0.2886751   2.1443333  )
        34           Co  tau(  34) = (   0.3333333   0.5773503   2.1443333  )
        35           Co  tau(  35) = (   0.6666667   0.5773503   2.1443333  )
        36           Co  tau(  36) = (   1.0000000   0.5773503   2.1443333  )
        37           C   tau(  37) = (   0.3778148   0.1667472   2.3317110  )
        38           O   tau(  38) = (   0.3556490   0.1531882   2.4882432  )
        39           H   tau(  39) = (   0.5911949   0.3832105   2.3050957  )

     number of k points=    13  Marzari-Vanderbilt smearing, width (Ry)=  0.0010
                       cart. coord. in units 2pi/alat
        k(    1) = (   0.0000000   0.0000000   0.0000000), wk =   0.0400000
        k(    2) = (   0.0000000   0.2309401   0.0000000), wk =   0.0800000
        k(    3) = (   0.0000000   0.4618802   0.0000000), wk =   0.0800000
        k(    4) = (   0.2000000  -0.1154701   0.0000000), wk =   0.0800000
        k(    5) = (   0.2000000   0.1154701   0.0000000), wk =   0.0800000
        k(    6) = (   0.2000000   0.3464102   0.0000000), wk =   0.0800000
        k(    7) = (   0.2000000  -0.5773503   0.0000000), wk =   0.0800000
        k(    8) = (   0.2000000  -0.3464102   0.0000000), wk =   0.0800000
        k(    9) = (   0.4000000  -0.2309401   0.0000000), wk =   0.0800000
        k(   10) = (   0.4000000   0.0000000   0.0000000), wk =   0.0800000
        k(   11) = (   0.4000000   0.2309401   0.0000000), wk =   0.0800000
        k(   12) = (   0.4000000  -0.6928203   0.0000000), wk =   0.0800000
        k(   13) = (   0.4000000  -0.4618802   0.0000000), wk =   0.0800000

     Dense  grid:   752179 G-vectors     FFT dimensions: (  80,  80, 288)

     Smooth grid:   293251 G-vectors     FFT dimensions: (  60,  60, 200)

     Estimated max dynamical RAM per process >      84.82 MB

     Estimated total dynamical RAM >       7.95 GB
     Generating pointlists ...
     new r_m :   0.0856 (alat units)  1.2137 (a.u.) for type    1
     new r_m :   0.0655 (alat units)  0.9277 (a.u.) for type    2
     new r_m :   0.0655 (alat units)  0.9277 (a.u.) for type    3
     new r_m :   0.0856 (alat units)  1.2137 (a.u.) for type    4

     Initial potential from superposition of free atoms

     starting charge     334.9897, renormalised to     335.0000

     negative rho (up, down):  3.048E-03 4.543E-04


     %%%%%%%%%%%%%%%%%%%%%%%%%%%%%%%%%%%%%%%%%%%%%%%%%%%%%%%%%%%%%%%%%%%%%%%%
     %                                                                      %
     % You are using vdW-DF, which was implemented by the Thonhauser group. %
     % Please cite the following two papers that made this development      %
     % possible and the two reviews that describe the various versions:     %
     %                                                                      %
     %   T. Thonhauser et al., PRL 115, 136402 (2015).                      %
     %   T. Thonhauser et al., PRB 76, 125112 (2007).                       %
     %   K. Berland et al., Rep. Prog. Phys. 78, 066501 (2015).             %
     %   D.C. Langreth et al., J. Phys.: Condens. Matter 21, 084203 (2009). %
     %                                                                      %
     % If you are calculating stress with vdW-DF, please also cite:         %
     %                                                                      %
     %   R. Sabatini et al., J. Phys.: Condens. Matter 24, 424209 (2012).   %
     %   C.M. Frostenson et al., Electr. Struct. 4, 014001 (2022).          %
     %                                                                      %
     %%%%%%%%%%%%%%%%%%%%%%%%%%%%%%%%%%%%%%%%%%%%%%%%%%%%%%%%%%%%%%%%%%%%%%%%

     %%%%%%%%%%%%%%%%%%%%%%%%%%%%%%%%%%%%%%%%%%%%%%%%%%%%%%%%%%%%%%%%%%%%%%%%
     %                                                                      %
     %  vdW-DF NEWS:                                                        %
     %                                                                      %
     %  * vdW-DF3 is now available. DOI: 10.1021/acs.jctc.0c00471           %
     %    use with input_dft = 'vdW-DF3-opt1' or 'vdW-DF3-opt2'             %
     %                                                                      %
     %  * Unscreened and range-separated hybrid vdW-DF-cx functionals       %
     %    DOI: 10.1063/1.4986522 and 10.1088/1361-648X/ac2ad2               %
     %    use with input_dft = 'vdW-DF-cx0'    and 'vdW-DF-ahcx'            %
     %  * Unscreened and range-separated hybrid vdW-DF2-b86r functionals    %
     %    DOI: 10.1063/1.4986522 and DOI: 10.1103/PhysRevX.12.041003        %
     %    use with input_dft = 'vdW-DF2-br0' and 'vdW-DF2-ahbr'             %
     %                                                                      %
     %%%%%%%%%%%%%%%%%%%%%%%%%%%%%%%%%%%%%%%%%%%%%%%%%%%%%%%%%%%%%%%%%%%%%%%%


     Starting wfcs are  333 randomized atomic wfcs
     Checking if some PAW data can be deallocated... 

     total cpu time spent up to now is       15.4 secs

     per-process dynamical memory:   213.6 Mb

     Self-consistent Calculation

     iteration #  1     ecut=    40.00 Ry     beta= 0.70
     Davidson diagonalization with overlap
     ethr =  1.00E-02,  avg # of iterations =  2.0

     negative rho (up, down):  6.719E-05 1.358E-06

     total cpu time spent up to now is       30.1 secs

     total energy              =   -6052.98196222 Ry
     estimated scf accuracy    <      39.25907060 Ry

     total magnetization       =    69.00 Bohr mag/cell
     absolute magnetization    =    81.27 Bohr mag/cell

     iteration #  2     ecut=    40.00 Ry     beta= 0.70
     Davidson diagonalization with overlap
     ethr =  1.00E-02,  avg # of iterations =  1.0

     negative rho (up, down):  2.735E-05 9.574E-07

     total cpu time spent up to now is       45.7 secs

     total energy              =   -6052.43977428 Ry
     estimated scf accuracy    <      25.22643236 Ry

     total magnetization       =    68.89 Bohr mag/cell
     absolute magnetization    =    76.76 Bohr mag/cell

     iteration #  3     ecut=    40.00 Ry     beta= 0.70
     Davidson diagonalization with overlap
     ethr =  7.53E-03,  avg # of iterations =  1.0

     negative rho (up, down):  1.341E-06 2.825E-06

     total cpu time spent up to now is       58.5 secs

     total energy              =   -6055.06548509 Ry
     estimated scf accuracy    <      83.18688388 Ry

     total magnetization       =    66.12 Bohr mag/cell
     absolute magnetization    =    73.52 Bohr mag/cell

     iteration #  4     ecut=    40.00 Ry     beta= 0.70
     Davidson diagonalization with overlap
     ethr =  7.53E-03,  avg # of iterations =  1.0

     negative rho (up, down):  1.443E-06 7.619E-07

     total cpu time spent up to now is       73.5 secs

     total energy              =   -6056.30449084 Ry
     estimated scf accuracy    <       5.08683223 Ry

     total magnetization       =    60.46 Bohr mag/cell
     absolute magnetization    =    70.23 Bohr mag/cell

     iteration #  5     ecut=    40.00 Ry     beta= 0.70
     Davidson diagonalization with overlap
     ethr =  1.52E-03,  avg # of iterations =  1.2

     negative rho (up, down):  1.523E-06 7.307E-07

     total cpu time spent up to now is       86.9 secs

     total energy              =   -6056.32278604 Ry
     estimated scf accuracy    <       2.16079782 Ry

     total magnetization       =    59.98 Bohr mag/cell
     absolute magnetization    =    69.42 Bohr mag/cell

     iteration #  6     ecut=    40.00 Ry     beta= 0.70
     Davidson diagonalization with overlap
     ethr =  6.45E-04,  avg # of iterations =  1.7

     negative rho (up, down):  1.478E-06 7.357E-07

     total cpu time spent up to now is      102.9 secs

     total energy              =   -6056.42467109 Ry
     estimated scf accuracy    <       0.59438607 Ry

     total magnetization       =    59.81 Bohr mag/cell
     absolute magnetization    =    68.88 Bohr mag/cell

     iteration #  7     ecut=    40.00 Ry     beta= 0.70
     Davidson diagonalization with overlap
     ethr =  1.77E-04,  avg # of iterations =  5.8

     negative rho (up, down):  1.237E-06 6.241E-07

     total cpu time spent up to now is      123.5 secs

     total energy              =   -6056.45868801 Ry
     estimated scf accuracy    <       0.66213053 Ry

     total magnetization       =    59.97 Bohr mag/cell
     absolute magnetization    =    68.67 Bohr mag/cell

     iteration #  8     ecut=    40.00 Ry     beta= 0.70
     Davidson diagonalization with overlap
     ethr =  1.77E-04,  avg # of iterations =  1.5

     negative rho (up, down):  8.602E-07 3.884E-07

     total cpu time spent up to now is      136.7 secs

     total energy              =   -6056.47755973 Ry
     estimated scf accuracy    <       0.12556388 Ry

     total magnetization       =    59.96 Bohr mag/cell
     absolute magnetization    =    68.51 Bohr mag/cell

     iteration #  9     ecut=    40.00 Ry     beta= 0.70
     Davidson diagonalization with overlap
     c_bands:  1 eigenvalues not converged
     c_bands:  3 eigenvalues not converged
     ethr =  3.75E-05,  avg # of iterations = 10.7

     negative rho (up, down):  4.706E-07 2.489E-07

     total cpu time spent up to now is      165.6 secs

     total energy              =   -6056.48330661 Ry
     estimated scf accuracy    <       0.20642538 Ry

     total magnetization       =    60.28 Bohr mag/cell
     absolute magnetization    =    68.37 Bohr mag/cell

     iteration # 10     ecut=    40.00 Ry     beta= 0.70
     Davidson diagonalization with overlap
     ethr =  3.75E-05,  avg # of iterations =  2.0

     negative rho (up, down):  3.368E-07 1.515E-07

     total cpu time spent up to now is      179.4 secs

     total energy              =   -6056.48957604 Ry
     estimated scf accuracy    <       0.11130846 Ry

     total magnetization       =    60.45 Bohr mag/cell
     absolute magnetization    =    68.35 Bohr mag/cell

     iteration # 11     ecut=    40.00 Ry     beta= 0.70
     Davidson diagonalization with overlap
     ethr =  3.32E-05,  avg # of iterations =  1.3

     negative rho (up, down):  1.159E-07 7.284E-08

     total cpu time spent up to now is      194.9 secs

     total energy              =   -6056.48654127 Ry
     estimated scf accuracy    <       0.12274116 Ry

     total magnetization       =    60.33 Bohr mag/cell
     absolute magnetization    =    68.16 Bohr mag/cell

     iteration # 12     ecut=    40.00 Ry     beta= 0.70
     Davidson diagonalization with overlap
     ethr =  3.32E-05,  avg # of iterations =  1.8

     negative rho (up, down):  1.741E-06 2.836E-07

     total cpu time spent up to now is      208.0 secs

     total energy              =   -6056.48902566 Ry
     estimated scf accuracy    <       0.08981921 Ry

     total magnetization       =    60.30 Bohr mag/cell
     absolute magnetization    =    68.01 Bohr mag/cell

     iteration # 13     ecut=    40.00 Ry     beta= 0.70
     Davidson diagonalization with overlap
     ethr =  2.68E-05,  avg # of iterations =  1.2

     negative rho (up, down):  1.623E-07 8.852E-08

     total cpu time spent up to now is      223.0 secs

     total energy              =   -6056.48980193 Ry
     estimated scf accuracy    <       0.08486426 Ry

     total magnetization       =    60.34 Bohr mag/cell
     absolute magnetization    =    67.98 Bohr mag/cell

     iteration # 14     ecut=    40.00 Ry     beta= 0.70
     Davidson diagonalization with overlap
     ethr =  2.53E-05,  avg # of iterations =  1.2

     negative rho (up, down):  2.673E-08 6.836E-09

     total cpu time spent up to now is      236.0 secs

     total energy              =   -6056.48540031 Ry
     estimated scf accuracy    <       0.08280551 Ry

     total magnetization       =    60.33 Bohr mag/cell
     absolute magnetization    =    68.00 Bohr mag/cell

     iteration # 15     ecut=    40.00 Ry     beta= 0.70
     Davidson diagonalization with overlap
     ethr =  2.47E-05,  avg # of iterations =  1.3

     negative rho (up, down):  3.373E-03 2.136E-03

     total cpu time spent up to now is      251.7 secs

     total energy              =   -6056.48325170 Ry
     estimated scf accuracy    <       0.06696088 Ry

     total magnetization       =    60.35 Bohr mag/cell
     absolute magnetization    =    68.02 Bohr mag/cell

     iteration # 16     ecut=    40.00 Ry     beta= 0.70
     Davidson diagonalization with overlap
     ethr =  2.00E-05,  avg # of iterations =  1.8

     negative rho (up, down):  7.445E-03 5.825E-03

     total cpu time spent up to now is      265.0 secs

     total energy              =   -6056.48277135 Ry
     estimated scf accuracy    <       0.07517681 Ry

     total magnetization       =    60.32 Bohr mag/cell
     absolute magnetization    =    67.89 Bohr mag/cell

     iteration # 17     ecut=    40.00 Ry     beta= 0.70
     Davidson diagonalization with overlap
     ethr =  2.00E-05,  avg # of iterations =  1.3

     negative rho (up, down):  1.512E-02 1.320E-02

     total cpu time spent up to now is      280.9 secs

     total energy              =   -6056.47993299 Ry
     estimated scf accuracy    <       0.08925620 Ry

     total magnetization       =    60.31 Bohr mag/cell
     absolute magnetization    =    67.86 Bohr mag/cell

     iteration # 18     ecut=    40.00 Ry     beta= 0.70
     Davidson diagonalization with overlap
     ethr =  2.00E-05,  avg # of iterations =  1.1

     negative rho (up, down):  2.431E-02 2.278E-02

     total cpu time spent up to now is      293.5 secs

     total energy              =   -6056.48178624 Ry
     estimated scf accuracy    <       0.01135048 Ry

     total magnetization       =    60.30 Bohr mag/cell
     absolute magnetization    =    67.82 Bohr mag/cell

     iteration # 19     ecut=    40.00 Ry     beta= 0.70
     Davidson diagonalization with overlap
     c_bands:  1 eigenvalues not converged
     c_bands:  1 eigenvalues not converged
     c_bands:  1 eigenvalues not converged
     c_bands:  2 eigenvalues not converged
     c_bands:  2 eigenvalues not converged
     ethr =  3.39E-06,  avg # of iterations =  9.2

     negative rho (up, down):  1.740E-02 1.582E-02

     total cpu time spent up to now is      318.2 secs

     total energy              =   -6056.48199399 Ry
     estimated scf accuracy    <       0.02770593 Ry

     total magnetization       =    60.37 Bohr mag/cell
     absolute magnetization    =    67.88 Bohr mag/cell

     iteration # 20     ecut=    40.00 Ry     beta= 0.70
     Davidson diagonalization with overlap
     ethr =  3.39E-06,  avg # of iterations =  2.2

     negative rho (up, down):  1.895E-02 1.745E-02

     total cpu time spent up to now is      334.4 secs

     total energy              =   -6056.48210283 Ry
     estimated scf accuracy    <       0.00758925 Ry

     total magnetization       =    60.37 Bohr mag/cell
     absolute magnetization    =    67.88 Bohr mag/cell

     iteration # 21     ecut=    40.00 Ry     beta= 0.70
     Davidson diagonalization with overlap
     ethr =  2.27E-06,  avg # of iterations =  2.2

     negative rho (up, down):  1.867E-02 1.744E-02

     total cpu time spent up to now is      348.4 secs

     total energy              =   -6056.48179185 Ry
     estimated scf accuracy    <       0.01205871 Ry

     total magnetization       =    60.38 Bohr mag/cell
     absolute magnetization    =    67.89 Bohr mag/cell

     iteration # 22     ecut=    40.00 Ry     beta= 0.70
     Davidson diagonalization with overlap
     ethr =  2.27E-06,  avg # of iterations =  1.8

     negative rho (up, down):  1.057E-02 9.568E-03

     total cpu time spent up to now is      365.1 secs

     total energy              =   -6056.48169876 Ry
     estimated scf accuracy    <       0.00680078 Ry

     total magnetization       =    60.43 Bohr mag/cell
     absolute magnetization    =    67.94 Bohr mag/cell

     iteration # 23     ecut=    40.00 Ry     beta= 0.70
     Davidson diagonalization with overlap
     c_bands:  2 eigenvalues not converged
     ethr =  2.03E-06,  avg # of iterations =  2.0

     negative rho (up, down):  1.132E-02 1.053E-02

     total cpu time spent up to now is      378.5 secs

     total energy              =   -6056.48207936 Ry
     estimated scf accuracy    <       0.00733334 Ry

     total magnetization       =    60.39 Bohr mag/cell
     absolute magnetization    =    67.92 Bohr mag/cell

     iteration # 24     ecut=    40.00 Ry     beta= 0.70
     Davidson diagonalization with overlap
     ethr =  2.03E-06,  avg # of iterations =  2.0

     negative rho (up, down):  1.119E-02 1.043E-02

     total cpu time spent up to now is      394.5 secs

     total energy              =   -6056.48245788 Ry
     estimated scf accuracy    <       0.00228221 Ry

     total magnetization       =    60.41 Bohr mag/cell
     absolute magnetization    =    67.95 Bohr mag/cell

     iteration # 25     ecut=    40.00 Ry     beta= 0.70
     Davidson diagonalization with overlap
     ethr =  6.81E-07,  avg # of iterations =  1.5

     negative rho (up, down):  7.929E-03 7.244E-03

     total cpu time spent up to now is      407.5 secs

     total energy              =   -6056.48266315 Ry
     estimated scf accuracy    <       0.00040961 Ry

     total magnetization       =    60.43 Bohr mag/cell
     absolute magnetization    =    67.96 Bohr mag/cell

     iteration # 26     ecut=    40.00 Ry     beta= 0.70
     Davidson diagonalization with overlap
     c_bands:  1 eigenvalues not converged
     c_bands:  1 eigenvalues not converged
     c_bands:  1 eigenvalues not converged
     ethr =  1.22E-07,  avg # of iterations =  8.1

     negative rho (up, down):  4.114E-03 3.271E-03

     total cpu time spent up to now is      431.0 secs

     total energy              =   -6056.48271781 Ry
     estimated scf accuracy    <       0.00070197 Ry

     total magnetization       =    60.44 Bohr mag/cell
     absolute magnetization    =    67.97 Bohr mag/cell

     iteration # 27     ecut=    40.00 Ry     beta= 0.70
     Davidson diagonalization with overlap
     ethr =  1.22E-07,  avg # of iterations =  2.0

     negative rho (up, down):  5.039E-03 4.270E-03

     total cpu time spent up to now is      445.0 secs

     total energy              =   -6056.48272534 Ry
     estimated scf accuracy    <       0.00040193 Ry

     total magnetization       =    60.43 Bohr mag/cell
     absolute magnetization    =    67.97 Bohr mag/cell

     iteration # 28     ecut=    40.00 Ry     beta= 0.70
     Davidson diagonalization with overlap
     ethr =  1.20E-07,  avg # of iterations =  1.0

     negative rho (up, down):  4.025E-03 3.139E-03

     total cpu time spent up to now is      459.9 secs

     total energy              =   -6056.48277001 Ry
     estimated scf accuracy    <       0.00011264 Ry

     total magnetization       =    60.43 Bohr mag/cell
     absolute magnetization    =    67.96 Bohr mag/cell

     iteration # 29     ecut=    40.00 Ry     beta= 0.70
     Davidson diagonalization with overlap
     ethr =  3.36E-08,  avg # of iterations =  2.5

     negative rho (up, down):  3.602E-03 2.681E-03

     total cpu time spent up to now is      474.4 secs

     total energy              =   -6056.48275904 Ry
     estimated scf accuracy    <       0.00017213 Ry

     total magnetization       =    60.43 Bohr mag/cell
     absolute magnetization    =    67.96 Bohr mag/cell

     iteration # 30     ecut=    40.00 Ry     beta= 0.70
     Davidson diagonalization with overlap
     ethr =  3.36E-08,  avg # of iterations =  1.2

     negative rho (up, down):  3.058E-03 1.972E-03

     total cpu time spent up to now is      489.8 secs

     total energy              =   -6056.48279537 Ry
     estimated scf accuracy    <       0.00005730 Ry

     total magnetization       =    60.43 Bohr mag/cell
     absolute magnetization    =    67.96 Bohr mag/cell

     iteration # 31     ecut=    40.00 Ry     beta= 0.70
     Davidson diagonalization with overlap
     ethr =  1.71E-08,  avg # of iterations =  2.2

     negative rho (up, down):  2.225E-03 1.108E-03

     total cpu time spent up to now is      503.7 secs

     total energy              =   -6056.48280259 Ry
     estimated scf accuracy    <       0.00010757 Ry

     total magnetization       =    60.43 Bohr mag/cell
     absolute magnetization    =    67.96 Bohr mag/cell

     iteration # 32     ecut=    40.00 Ry     beta= 0.70
     Davidson diagonalization with overlap
     ethr =  1.71E-08,  avg # of iterations =  1.9

     negative rho (up, down):  2.354E-03 1.246E-03

     total cpu time spent up to now is      520.3 secs

     total energy              =   -6056.48280492 Ry
     estimated scf accuracy    <       0.00005944 Ry

     total magnetization       =    60.43 Bohr mag/cell
     absolute magnetization    =    67.96 Bohr mag/cell

     iteration # 33     ecut=    40.00 Ry     beta= 0.70
     Davidson diagonalization with overlap
     ethr =  1.71E-08,  avg # of iterations =  1.8

     negative rho (up, down):  2.307E-03 1.222E-03

     total cpu time spent up to now is      533.8 secs

     total energy              =   -6056.48280675 Ry
     estimated scf accuracy    <       0.00005915 Ry

     total magnetization       =    60.43 Bohr mag/cell
     absolute magnetization    =    67.96 Bohr mag/cell

     iteration # 34     ecut=    40.00 Ry     beta= 0.70
     Davidson diagonalization with overlap
     ethr =  1.71E-08,  avg # of iterations =  1.2

     negative rho (up, down):  2.319E-03 1.300E-03

     total cpu time spent up to now is      549.5 secs

     total energy              =   -6056.48280695 Ry
     estimated scf accuracy    <       0.00001066 Ry

     total magnetization       =    60.43 Bohr mag/cell
     absolute magnetization    =    67.96 Bohr mag/cell

     iteration # 35     ecut=    40.00 Ry     beta= 0.70
     Davidson diagonalization with overlap
     c_bands:  1 eigenvalues not converged
     ethr =  3.18E-09,  avg # of iterations =  6.2

     negative rho (up, down):  2.311E-03 1.265E-03

     total cpu time spent up to now is      566.9 secs

     total energy              =   -6056.48280888 Ry
     estimated scf accuracy    <       0.00000743 Ry

     total magnetization       =    60.43 Bohr mag/cell
     absolute magnetization    =    67.95 Bohr mag/cell

     iteration # 36     ecut=    40.00 Ry     beta= 0.70
     Davidson diagonalization with overlap
     ethr =  2.22E-09,  avg # of iterations =  2.0

     negative rho (up, down):  2.299E-03 1.222E-03

     total cpu time spent up to now is      582.8 secs

     total energy              =   -6056.48281025 Ry
     estimated scf accuracy    <       0.00000221 Ry

     total magnetization       =    60.43 Bohr mag/cell
     absolute magnetization    =    67.95 Bohr mag/cell

     iteration # 37     ecut=    40.00 Ry     beta= 0.70
     Davidson diagonalization with overlap
     ethr =  6.59E-10,  avg # of iterations =  4.7

     negative rho (up, down):  2.310E-03 1.232E-03

     total cpu time spent up to now is      599.0 secs

     total energy              =   -6056.48281049 Ry
     estimated scf accuracy    <       0.00000115 Ry

     total magnetization       =    60.43 Bohr mag/cell
     absolute magnetization    =    67.95 Bohr mag/cell

     iteration # 38     ecut=    40.00 Ry     beta= 0.70
     Davidson diagonalization with overlap
     ethr =  3.42E-10,  avg # of iterations =  3.0

     negative rho (up, down):  2.242E-03 1.155E-03

     Magnetic moment per site  (integrated on atomic sphere of radius R)
     atom   1 (R=0.086)  charge=  5.4241  magn=  1.6009
     atom   2 (R=0.086)  charge=  5.4254  magn=  1.5866
     atom   3 (R=0.086)  charge=  5.4246  magn=  1.5923
     atom   4 (R=0.086)  charge=  5.4243  magn=  1.5997
     atom   5 (R=0.086)  charge=  5.4245  magn=  1.5966
     atom   6 (R=0.086)  charge=  5.4241  magn=  1.6004
     atom   7 (R=0.086)  charge=  5.4238  magn=  1.6064
     atom   8 (R=0.086)  charge=  5.4241  magn=  1.5994
     atom   9 (R=0.086)  charge=  5.4244  magn=  1.5970
     atom  10 (R=0.086)  charge=  5.4174  magn=  1.5336
     atom  11 (R=0.086)  charge=  5.4193  magn=  1.5365
     atom  12 (R=0.086)  charge=  5.4186  magn=  1.5463
     atom  13 (R=0.086)  charge=  5.4192  magn=  1.5409
     atom  14 (R=0.086)  charge=  5.4197  magn=  1.5288
     atom  15 (R=0.086)  charge=  5.4191  magn=  1.5428
     atom  16 (R=0.086)  charge=  5.4190  magn=  1.5396
     atom  17 (R=0.086)  charge=  5.4193  magn=  1.5436
     atom  18 (R=0.086)  charge=  5.4195  magn=  1.5400
     atom  19 (R=0.086)  charge=  5.4182  magn=  1.5215
     atom  20 (R=0.086)  charge=  5.4173  magn=  1.5385
     atom  21 (R=0.086)  charge=  5.4187  magn=  1.5309
     atom  22 (R=0.086)  charge=  5.4185  magn=  1.5360
     atom  23 (R=0.086)  charge=  5.4183  magn=  1.5310
     atom  24 (R=0.086)  charge=  5.4179  magn=  1.5570
     atom  25 (R=0.086)  charge=  5.4181  magn=  1.5338
     atom  26 (R=0.086)  charge=  5.4178  magn=  1.5092
     atom  27 (R=0.086)  charge=  5.4189  magn=  1.5291
     atom  28 (R=0.086)  charge=  5.4214  magn=  1.6300
     atom  29 (R=0.086)  charge=  5.4323  magn=  1.2345
     atom  30 (R=0.086)  charge=  5.4259  magn=  1.6250
     atom  31 (R=0.086)  charge=  5.4289  magn=  1.5271
     atom  32 (R=0.086)  charge=  5.4276  magn=  0.8423
     atom  33 (R=0.086)  charge=  5.4247  magn=  1.6029
     atom  34 (R=0.086)  charge=  5.4247  magn=  1.6346
     atom  35 (R=0.086)  charge=  5.4221  magn=  1.5491
     atom  36 (R=0.086)  charge=  5.4226  magn=  1.6170
     atom  37 (R=0.065)  charge=  1.0461  magn= -0.0203
     atom  38 (R=0.065)  charge=  2.9195  magn= -0.0370
     atom  39 (R=0.086)  charge=  0.7409  magn= -0.0150

     total cpu time spent up to now is      616.4 secs

     End of self-consistent calculation

 ------ SPIN UP ------------


          k = 0.0000 0.0000 0.0000 ( 36693 PWs)   bands (ev):

   -21.9504  -9.1981  -7.6524  -6.4523  -5.8084  -5.6472  -5.3894  -4.9000
    -4.8228  -4.8183  -4.8134  -4.7990  -4.7864  -4.7691  -4.5193  -4.3397
    -4.2811  -4.2797  -4.2630  -4.2447  -4.2305  -4.0083  -3.7623  -3.7605
    -3.7509  -3.7370  -3.7126  -3.6748  -3.6253  -3.6228  -3.6191  -3.6132
    -3.5956  -3.5461  -3.5420  -3.4278  -3.2420  -3.2369  -3.2332  -3.2309
    -3.1763  -3.1720  -3.1655  -3.1621  -3.1588  -3.1507  -3.1431  -3.0966
    -3.0073  -3.0059  -2.9371  -2.9330  -2.9274  -2.9213  -2.9133  -2.9008
    -2.8969  -2.8964  -2.8728  -2.8685  -2.8003  -2.7914  -2.7881  -2.7800
    -2.7175  -2.6017  -2.2949  -2.2589  -2.2570  -2.2524  -2.2507  -2.1501
    -2.1289  -2.1173  -2.1050  -2.0963  -2.0859  -2.0777  -2.0728  -2.0672
    -2.0264  -2.0230  -1.9963  -1.9845  -1.9766  -1.9693  -1.9562  -1.9473
    -1.9428  -1.9356  -1.9305  -1.9251  -1.9147  -1.9024  -1.8979  -1.8869
    -1.8854  -1.8820  -1.8798  -1.8791  -1.8759  -1.8735  -1.8712  -1.8571
    -1.8504  -1.8443  -1.8215  -1.8045  -1.7954  -1.7253  -1.7191  -1.6203
    -1.5436  -1.4344  -1.4332  -1.4309  -1.4221  -1.4164  -1.4052  -1.3900
    -1.3860  -1.3812  -1.3665  -1.3407  -1.3372  -1.2102  -1.2065  -1.1888
    -1.1736  -1.1666  -1.0826  -1.0406  -1.0171  -1.0045  -0.9675  -0.9545
    -0.9503  -0.9458  -0.9366  -0.9284  -0.9211  -0.8763  -0.8225  -0.7975
    -0.7166  -0.6931  -0.6903  -0.6857  -0.6713  -0.6466  -0.6313  -0.6252
    -0.6217  -0.6192  -0.6180  -0.6152  -0.6092  -0.6009  -0.5961  -0.5868
    -0.5835  -0.5750  -0.5652  -0.5512  -0.5494  -0.5434  -0.5332  -0.5246
    -0.5240  -0.5106  -0.5042  -0.4978  -0.4938  -0.4795  -0.4783  -0.4724
    -0.4682  -0.4623  -0.4428  -0.4189  -0.4033  -0.3916  -0.3863  -0.3789
    -0.3751  -0.3656  -0.3600  -0.3465  -0.3415  -0.3034  -0.2958  -0.2927
    -0.2857  -0.2838  -0.2278  -0.2225  -0.2171  -0.2086  -0.1771  -0.1638
     0.4814   0.7979

          k = 0.0000 0.2309 0.0000 ( 36641 PWs)   bands (ev):

   -21.9504  -9.1870  -7.5112  -6.3536  -5.8451  -5.6708  -5.5160  -5.3551
    -5.0572  -5.0374  -4.7976  -4.5805  -4.4826  -4.4677  -4.4298  -4.3939
    -4.3310  -4.2857  -4.2009  -4.1736  -4.1403  -3.9800  -3.8754  -3.7598
    -3.7469  -3.6847  -3.6500  -3.6314  -3.6266  -3.6224  -3.6128  -3.5952
    -3.5639  -3.5262  -3.5024  -3.4811  -3.4750  -3.3999  -3.2690  -3.2531
    -3.2462  -3.1988  -3.1945  -3.1771  -3.1592  -3.0982  -3.0635  -3.0458
    -3.0279  -3.0222  -3.0148  -2.9814  -2.9515  -2.8912  -2.8817  -2.8577
    -2.8165  -2.8057  -2.7846  -2.7814  -2.7555  -2.7189  -2.7160  -2.7026
    -2.6698  -2.5928  -2.3809  -2.3696  -2.3445  -2.3327  -2.3129  -2.2277
    -2.2203  -2.2069  -2.2009  -2.1900  -2.1837  -2.1691  -2.1375  -2.0930
    -2.0879  -2.0708  -2.0518  -2.0190  -2.0142  -2.0074  -1.9966  -1.9859
    -1.9789  -1.9757  -1.9667  -1.9631  -1.9502  -1.9383  -1.9009  -1.8718
    -1.8632  -1.8432  -1.7996  -1.7890  -1.7821  -1.7706  -1.7642  -1.7612
    -1.7526  -1.7435  -1.7342  -1.7292  -1.7246  -1.7076  -1.6854  -1.6756
    -1.6632  -1.6443  -1.6271  -1.5767  -1.5542  -1.4975  -1.4544  -1.4500
    -1.4371  -1.4326  -1.4207  -1.4170  -1.3943  -1.3729  -1.3047  -1.2643
    -1.2282  -1.2071  -1.1707  -1.1596  -1.1347  -1.1017  -1.0775  -1.0625
    -1.0100  -0.9797  -0.9733  -0.9564  -0.9280  -0.9171  -0.8895  -0.8813
    -0.8653  -0.8383  -0.8176  -0.7966  -0.7901  -0.7826  -0.7717  -0.7541
    -0.7053  -0.6950  -0.6868  -0.6833  -0.6639  -0.6418  -0.6252  -0.6177
    -0.6111  -0.6066  -0.5983  -0.5891  -0.5745  -0.5615  -0.5488  -0.5325
    -0.4934  -0.4779  -0.4664  -0.4414  -0.4280  -0.4156  -0.3832  -0.3680
    -0.3579  -0.3452  -0.3378  -0.3338  -0.3152  -0.3078  -0.3024  -0.2605
    -0.2329  -0.2202  -0.2141  -0.1933  -0.1850  -0.1743  -0.1556  -0.1336
    -0.0839  -0.0147   0.1316   0.1592   0.2075   0.2914   0.4032   0.4324
     0.4664   0.7974

          k = 0.0000 0.4619 0.0000 ( 36606 PWs)   bands (ev):

   -21.9504  -9.1693  -7.0950  -6.4452  -6.1093  -5.8140  -5.5438  -5.3748
    -5.1925  -5.1492  -5.0509  -4.5872  -4.3384  -4.3026  -4.2687  -4.2233
    -4.1661  -4.1097  -4.1026  -4.0026  -3.9722  -3.9681  -3.9328  -3.8081
    -3.7902  -3.7809  -3.7766  -3.7665  -3.7002  -3.6729  -3.6604  -3.6020
    -3.5065  -3.4979  -3.4838  -3.4599  -3.4479  -3.4077  -3.3506  -3.3411
    -3.3291  -3.3172  -3.2895  -3.2025  -3.1143  -3.0914  -3.0229  -3.0098
    -2.9857  -2.9649  -2.9448  -2.9326  -2.9241  -2.9125  -2.8863  -2.8416
    -2.8302  -2.8084  -2.7671  -2.7408  -2.6370  -2.6199  -2.6019  -2.5736
    -2.5451  -2.5132  -2.4904  -2.4759  -2.4642  -2.4032  -2.3457  -2.3437
    -2.3414  -2.3296  -2.3192  -2.3008  -2.2874  -2.2783  -2.2617  -2.2257
    -2.2120  -2.1819  -2.1632  -2.1419  -2.1130  -2.1035  -2.0575  -2.0273
    -2.0127  -2.0022  -1.9819  -1.9611  -1.9482  -1.9106  -1.8995  -1.8914
    -1.8890  -1.8639  -1.8590  -1.8370  -1.8272  -1.8231  -1.8148  -1.7836
    -1.7723  -1.7382  -1.7168  -1.7090  -1.6441  -1.6281  -1.6025  -1.5886
    -1.5751  -1.5586  -1.5471  -1.5027  -1.4935  -1.4807  -1.4749  -1.4662
    -1.4564  -1.4513  -1.4446  -1.4368  -1.4272  -1.4227  -1.3998  -1.3858
    -1.3725  -1.3566  -1.3015  -1.2579  -1.2473  -1.2332  -1.2141  -1.1888
    -1.1705  -1.1224  -1.0940  -1.0858  -1.0598  -1.0475  -1.0149  -0.9873
    -0.9683  -0.9291  -0.9157  -0.9025  -0.8760  -0.8448  -0.8200  -0.7747
    -0.7454  -0.7117  -0.7026  -0.6860  -0.6838  -0.6778  -0.6675  -0.6595
    -0.6397  -0.6283  -0.5418  -0.5321  -0.5288  -0.5198  -0.5059  -0.4927
    -0.4802  -0.4649  -0.4577  -0.4525  -0.4228  -0.4048  -0.3500  -0.3379
    -0.3246  -0.3125  -0.2849  -0.2417  -0.2373  -0.2064  -0.1984  -0.1594
    -0.1276  -0.1194  -0.1114  -0.0948  -0.0891  -0.0856  -0.0777  -0.0295
     0.0149   0.0466   0.4358   0.6227   0.9408   1.0920   1.1385   1.2715
     1.4700   1.5230

          k = 0.2000-0.1155 0.0000 ( 36641 PWs)   bands (ev):

   -21.9504  -9.1886  -7.5101  -6.3521  -5.8233  -5.6675  -5.5373  -5.3580
    -5.0597  -5.0319  -4.7910  -4.6193  -4.4736  -4.4682  -4.4195  -4.3958
    -4.3078  -4.2877  -4.2195  -4.1471  -4.1385  -4.0243  -3.8542  -3.7655
    -3.7562  -3.6869  -3.6430  -3.6300  -3.6264  -3.6174  -3.6082  -3.5929
    -3.5767  -3.5150  -3.5018  -3.4797  -3.4749  -3.3922  -3.2579  -3.2504
    -3.2372  -3.1978  -3.1942  -3.1841  -3.1629  -3.0889  -3.0619  -3.0506
    -3.0280  -3.0267  -3.0099  -2.9856  -2.9622  -2.8895  -2.8815  -2.8502
    -2.8213  -2.8145  -2.7861  -2.7810  -2.7567  -2.7190  -2.7164  -2.7015
    -2.6852  -2.5844  -2.3775  -2.3704  -2.3487  -2.3403  -2.3149  -2.2287
    -2.2186  -2.2033  -2.1985  -2.1890  -2.1833  -2.1749  -2.1507  -2.0956
    -2.0836  -2.0714  -2.0502  -2.0185  -2.0112  -2.0071  -1.9947  -1.9892
    -1.9768  -1.9722  -1.9627  -1.9619  -1.9542  -1.9349  -1.9182  -1.8771
    -1.8594  -1.8556  -1.7913  -1.7847  -1.7748  -1.7726  -1.7647  -1.7611
    -1.7487  -1.7410  -1.7327  -1.7300  -1.7193  -1.7011  -1.6896  -1.6737
    -1.6593  -1.6513  -1.6211  -1.5648  -1.5514  -1.4702  -1.4572  -1.4545
    -1.4463  -1.4268  -1.4227  -1.4154  -1.3936  -1.3804  -1.3616  -1.2561
    -1.2349  -1.1995  -1.1692  -1.1576  -1.1410  -1.0867  -1.0686  -1.0598
    -1.0436  -0.9679  -0.9568  -0.9471  -0.9197  -0.9155  -0.8845  -0.8731
    -0.8558  -0.8422  -0.8329  -0.8051  -0.7908  -0.7756  -0.7695  -0.7640
    -0.7052  -0.7005  -0.6889  -0.6828  -0.6727  -0.6545  -0.6294  -0.6164
    -0.6107  -0.6052  -0.6005  -0.5878  -0.5701  -0.5606  -0.5469  -0.5316
    -0.5034  -0.4896  -0.4766  -0.4409  -0.4236  -0.4053  -0.3923  -0.3666
    -0.3614  -0.3485  -0.3437  -0.3303  -0.3143  -0.3071  -0.3014  -0.2682
    -0.2342  -0.2265  -0.2134  -0.1930  -0.1864  -0.1707  -0.1578  -0.1382
    -0.0779  -0.0046   0.1462   0.1595   0.2479   0.3058   0.4176   0.4304
     0.4637   0.7829

          k = 0.2000 0.1155 0.0000 ( 36641 PWs)   bands (ev):

   -21.9504  -9.1866  -7.5116  -6.3550  -5.8617  -5.6631  -5.4774  -5.3877
    -5.0553  -5.0357  -4.8030  -4.5601  -4.4850  -4.4667  -4.4396  -4.3862
    -4.3318  -4.2980  -4.2018  -4.1730  -4.1410  -3.9724  -3.8750  -3.7654
    -3.7401  -3.6806  -3.6436  -3.6347  -3.6275  -3.6240  -3.6120  -3.6039
    -3.5436  -3.5356  -3.5114  -3.4799  -3.4760  -3.4031  -3.2728  -3.2522
    -3.2480  -3.1989  -3.1961  -3.1803  -3.1556  -3.0936  -3.0656  -3.0426
    -3.0262  -3.0224  -3.0140  -2.9871  -2.9517  -2.8922  -2.8820  -2.8555
    -2.8219  -2.7963  -2.7857  -2.7796  -2.7621  -2.7189  -2.7161  -2.7048
    -2.6536  -2.5982  -2.3788  -2.3707  -2.3417  -2.3324  -2.3152  -2.2272
    -2.2215  -2.2143  -2.1973  -2.1920  -2.1835  -2.1701  -2.1237  -2.0948
    -2.0881  -2.0721  -2.0422  -2.0175  -2.0129  -2.0076  -2.0020  -1.9867
    -1.9788  -1.9747  -1.9680  -1.9635  -1.9515  -1.9321  -1.9151  -1.8732
    -1.8626  -1.8418  -1.8010  -1.7889  -1.7836  -1.7709  -1.7652  -1.7623
    -1.7515  -1.7423  -1.7384  -1.7290  -1.7274  -1.7100  -1.6820  -1.6773
    -1.6632  -1.6508  -1.6198  -1.5755  -1.5561  -1.5081  -1.4566  -1.4483
    -1.4376  -1.4284  -1.4215  -1.4152  -1.3957  -1.3603  -1.2836  -1.2708
    -1.2304  -1.2131  -1.1707  -1.1611  -1.1332  -1.1120  -1.0792  -1.0706
    -0.9995  -0.9847  -0.9722  -0.9464  -0.9329  -0.9194  -0.8894  -0.8827
    -0.8653  -0.8378  -0.8205  -0.7971  -0.7938  -0.7817  -0.7774  -0.7548
    -0.7010  -0.6914  -0.6852  -0.6807  -0.6685  -0.6331  -0.6278  -0.6174
    -0.6107  -0.6048  -0.5987  -0.5875  -0.5743  -0.5611  -0.5537  -0.5441
    -0.4902  -0.4708  -0.4615  -0.4442  -0.4294  -0.4224  -0.3821  -0.3682
    -0.3613  -0.3485  -0.3388  -0.3281  -0.3144  -0.3068  -0.3012  -0.2574
    -0.2267  -0.2196  -0.2123  -0.1922  -0.1855  -0.1493  -0.1429  -0.1352
    -0.0827  -0.0369   0.1269   0.1606   0.1950   0.2882   0.4062   0.4283
     0.4601   0.7623

          k = 0.2000 0.3464 0.0000 ( 36608 PWs)   bands (ev):

   -21.9504  -9.1716  -7.2334  -6.1977  -6.0442  -5.9158  -5.6691  -5.4902
    -5.3724  -4.7972  -4.7547  -4.5415  -4.4797  -4.4764  -4.2862  -4.2541
    -4.2165  -4.1520  -4.1467  -4.0705  -4.0241  -3.9048  -3.8786  -3.8454
    -3.8006  -3.7614  -3.6717  -3.6669  -3.6270  -3.6219  -3.6085  -3.5986
    -3.5690  -3.5574  -3.5374  -3.5025  -3.4576  -3.4332  -3.4195  -3.3675
    -3.2848  -3.2396  -3.1936  -3.1630  -3.1462  -3.1335  -3.0811  -3.0336
    -3.0010  -2.9617  -2.9574  -2.9486  -2.9220  -2.8975  -2.8769  -2.8698
    -2.8506  -2.8190  -2.7458  -2.6755  -2.6670  -2.6461  -2.6270  -2.6066
    -2.5953  -2.5449  -2.4843  -2.4117  -2.3918  -2.3695  -2.3562  -2.3277
    -2.3100  -2.3018  -2.2949  -2.2763  -2.2543  -2.2446  -2.2383  -2.2252
    -2.1980  -2.1722  -2.1481  -2.0894  -2.0477  -2.0391  -2.0306  -2.0090
    -1.9910  -1.9731  -1.9432  -1.9363  -1.9319  -1.9017  -1.8837  -1.8778
    -1.8698  -1.8676  -1.8608  -1.8402  -1.8377  -1.8200  -1.8058  -1.8012
    -1.7748  -1.7471  -1.7250  -1.7039  -1.6948  -1.6698  -1.6497  -1.6457
    -1.6340  -1.6203  -1.6016  -1.5707  -1.5479  -1.5387  -1.5116  -1.4946
    -1.4840  -1.4731  -1.4606  -1.4489  -1.4330  -1.4192  -1.4039  -1.3578
    -1.3309  -1.3209  -1.3079  -1.2123  -1.1915  -1.1729  -1.1559  -1.0902
    -1.0428  -1.0390  -1.0337  -1.0288  -1.0099  -0.9995  -0.9827  -0.9772
    -0.9585  -0.9330  -0.9174  -0.8752  -0.8560  -0.8459  -0.8333  -0.8234
    -0.7952  -0.7846  -0.7668  -0.7595  -0.7445  -0.7335  -0.6163  -0.5901
    -0.5727  -0.5578  -0.5493  -0.5379  -0.5240  -0.5167  -0.5007  -0.4939
    -0.4730  -0.4412  -0.4225  -0.4051  -0.3864  -0.3674  -0.3261  -0.3193
    -0.3105  -0.3092  -0.3011  -0.2806  -0.2699  -0.2647  -0.2561  -0.2341
    -0.2264  -0.1520  -0.1400  -0.1372  -0.0953  -0.0932  -0.0543   0.0512
     0.2402   0.2522   0.3040   0.3885   0.5629   0.6363   0.9412   1.1397
     1.2388   1.4207

          k = 0.2000-0.5774 0.0000 ( 36660 PWs)   bands (ev):

   -21.9504  -9.1646  -6.7203  -6.6648  -6.1194  -5.9538  -5.7682  -5.4610
    -5.2292  -5.1848  -4.8077  -4.4796  -4.4430  -4.2092  -4.1691  -4.0488
    -4.0350  -4.0191  -4.0059  -3.9948  -3.9471  -3.9301  -3.9251  -3.9210
    -3.8966  -3.8234  -3.7772  -3.7706  -3.7480  -3.7385  -3.6964  -3.6065
    -3.5905  -3.5804  -3.5625  -3.5318  -3.4790  -3.4293  -3.3312  -3.2939
    -3.2878  -3.2716  -3.2028  -3.1874  -3.1610  -3.1183  -3.0778  -3.0705
    -3.0472  -3.0044  -2.9737  -2.9127  -2.8805  -2.8587  -2.8420  -2.7921
    -2.7753  -2.7143  -2.7099  -2.6982  -2.6877  -2.6749  -2.6468  -2.6024
    -2.5417  -2.4921  -2.4837  -2.4759  -2.4542  -2.4149  -2.4024  -2.3497
    -2.3414  -2.3060  -2.2947  -2.2907  -2.2796  -2.2605  -2.2398  -2.2254
    -2.2103  -2.2027  -2.1865  -2.1648  -2.1573  -2.1175  -2.0897  -2.0747
    -2.0651  -2.0459  -1.9864  -1.9636  -1.9427  -1.9206  -1.9098  -1.9020
    -1.8811  -1.8729  -1.8620  -1.8517  -1.8351  -1.8176  -1.8115  -1.7655
    -1.7497  -1.7290  -1.7161  -1.7110  -1.6941  -1.6875  -1.6806  -1.6687
    -1.6634  -1.6597  -1.6326  -1.6148  -1.5754  -1.5547  -1.5496  -1.5219
    -1.4843  -1.4708  -1.4525  -1.4132  -1.4020  -1.3891  -1.3821  -1.3560
    -1.3162  -1.3087  -1.2897  -1.2219  -1.1868  -1.1793  -1.1644  -1.1464
    -1.1213  -1.1144  -1.1021  -1.0816  -1.0646  -1.0466  -1.0281  -1.0070
    -0.9656  -0.9619  -0.9367  -0.9228  -0.9048  -0.8724  -0.8511  -0.8411
    -0.8321  -0.8087  -0.7988  -0.7833  -0.7662  -0.7476  -0.7218  -0.5727
    -0.5545  -0.5443  -0.5320  -0.5299  -0.5157  -0.5089  -0.4945  -0.4710
    -0.4564  -0.4500  -0.4391  -0.4230  -0.3724  -0.3289  -0.3098  -0.3043
    -0.2884  -0.2786  -0.2625  -0.2454  -0.2201  -0.2075  -0.2027  -0.1863
    -0.1744  -0.1394  -0.1096  -0.1046  -0.0924  -0.0771  -0.0577  -0.0206
     0.1604   0.2857   0.5423   0.9037   0.9717   1.1922   1.2658   1.5673
     1.6873   1.7357

          k = 0.2000-0.3464 0.0000 ( 36608 PWs)   bands (ev):

   -21.9504  -9.1749  -7.2292  -6.2054  -5.9809  -5.9312  -5.6674  -5.5543
    -5.3437  -4.8298  -4.7038  -4.5875  -4.4779  -4.4647  -4.2740  -4.2534
    -4.2298  -4.1529  -4.1470  -4.0239  -4.0101  -3.9965  -3.8767  -3.8546
    -3.8063  -3.7560  -3.6663  -3.6509  -3.6409  -3.6194  -3.6115  -3.5894
    -3.5691  -3.5618  -3.5208  -3.4945  -3.4607  -3.4180  -3.4025  -3.3633
    -3.2774  -3.2158  -3.1927  -3.1779  -3.1489  -3.1271  -3.0740  -3.0342
    -2.9882  -2.9836  -2.9555  -2.9401  -2.9342  -2.9003  -2.8809  -2.8622
    -2.8450  -2.8261  -2.7340  -2.7183  -2.6675  -2.6537  -2.6297  -2.6166
    -2.5911  -2.5539  -2.4795  -2.4144  -2.3921  -2.3713  -2.3543  -2.3237
    -2.3101  -2.2998  -2.2943  -2.2705  -2.2532  -2.2439  -2.2319  -2.2244
    -2.2157  -2.1733  -2.1437  -2.1192  -2.0479  -2.0418  -2.0181  -2.0030
    -1.9954  -1.9712  -1.9565  -1.9360  -1.9190  -1.9048  -1.8882  -1.8837
    -1.8758  -1.8657  -1.8594  -1.8409  -1.8290  -1.8246  -1.8070  -1.7913
    -1.7799  -1.7746  -1.7515  -1.7018  -1.6976  -1.6664  -1.6519  -1.6436
    -1.6382  -1.6146  -1.5803  -1.5724  -1.5464  -1.5204  -1.5095  -1.4913
    -1.4765  -1.4721  -1.4620  -1.4401  -1.4326  -1.4102  -1.4010  -1.3509
    -1.3369  -1.2996  -1.2865  -1.2348  -1.1968  -1.1625  -1.1539  -1.0780
    -1.0609  -1.0381  -1.0239  -1.0203  -1.0125  -1.0044  -0.9780  -0.9681
    -0.9528  -0.9467  -0.9215  -0.8778  -0.8667  -0.8539  -0.8337  -0.8206
    -0.7997  -0.7779  -0.7675  -0.7562  -0.7435  -0.7336  -0.6154  -0.5988
    -0.5825  -0.5637  -0.5500  -0.5375  -0.5296  -0.5131  -0.5038  -0.4881
    -0.4700  -0.4431  -0.4108  -0.4002  -0.3889  -0.3747  -0.3410  -0.3178
    -0.3136  -0.3087  -0.3032  -0.2796  -0.2715  -0.2616  -0.2545  -0.2399
    -0.2330  -0.1565  -0.1409  -0.1354  -0.0940  -0.0889  -0.0778   0.0602
     0.1776   0.2519   0.2756   0.4746   0.5303   0.6588   1.0566   1.1401
     1.2603   1.3876

          k = 0.4000-0.2309 0.0000 ( 36606 PWs)   bands (ev):

   -21.9504  -9.1735  -7.0903  -6.4393  -6.1043  -5.7455  -5.6230  -5.3574
    -5.2058  -5.1467  -5.0619  -4.5829  -4.3117  -4.2978  -4.2798  -4.2340
    -4.1695  -4.1085  -4.0979  -4.0319  -3.9739  -3.9687  -3.9611  -3.8034
    -3.7897  -3.7860  -3.7772  -3.7683  -3.7137  -3.6697  -3.6627  -3.5328
    -3.5034  -3.4931  -3.4796  -3.4574  -3.4492  -3.4053  -3.3474  -3.3418
    -3.3260  -3.3209  -3.2430  -3.1939  -3.1225  -3.0959  -3.0304  -3.0233
    -2.9887  -2.9718  -2.9455  -2.9333  -2.9260  -2.9050  -2.8862  -2.8362
    -2.8291  -2.8033  -2.7768  -2.7686  -2.6368  -2.6297  -2.6036  -2.5919
    -2.5408  -2.5146  -2.4881  -2.4780  -2.4609  -2.4008  -2.3458  -2.3430
    -2.3381  -2.3304  -2.3231  -2.3027  -2.2880  -2.2725  -2.2579  -2.2459
    -2.2147  -2.1785  -2.1612  -2.1430  -2.1183  -2.0911  -2.0521  -2.0211
    -2.0114  -2.0009  -1.9734  -1.9682  -1.9591  -1.9143  -1.8997  -1.8932
    -1.8904  -1.8737  -1.8599  -1.8346  -1.8236  -1.8152  -1.8101  -1.7901
    -1.7769  -1.7472  -1.7118  -1.7096  -1.6418  -1.6246  -1.6096  -1.6055
    -1.5834  -1.5605  -1.5337  -1.5118  -1.4942  -1.4735  -1.4712  -1.4642
    -1.4609  -1.4531  -1.4439  -1.4344  -1.4296  -1.4189  -1.4071  -1.3955
    -1.3881  -1.3433  -1.2788  -1.2685  -1.2510  -1.2277  -1.2094  -1.1992
    -1.1693  -1.1051  -1.0951  -1.0876  -1.0508  -1.0403  -1.0054  -0.9630
    -0.9442  -0.9277  -0.9150  -0.8935  -0.8792  -0.8627  -0.8405  -0.7495
    -0.7349  -0.7267  -0.7061  -0.7007  -0.6879  -0.6799  -0.6739  -0.6627
    -0.6533  -0.6298  -0.5480  -0.5370  -0.5281  -0.5193  -0.5135  -0.4988
    -0.4878  -0.4765  -0.4521  -0.4470  -0.4253  -0.4067  -0.3577  -0.3405
    -0.3323  -0.3098  -0.2975  -0.2427  -0.2357  -0.2100  -0.2006  -0.1587
    -0.1281  -0.1244  -0.1161  -0.1021  -0.0894  -0.0842  -0.0787  -0.0254
     0.0145   0.0524   0.4995   0.6142   0.9284   1.1196   1.1451   1.3518
     1.4848   1.5155

          k = 0.4000 0.0000 0.0000 ( 36608 PWs)   bands (ev):

   -21.9504  -9.1743  -7.2305  -6.2032  -6.0080  -5.9226  -5.6673  -5.5229
    -5.3562  -4.8383  -4.7171  -4.5582  -4.4805  -4.4647  -4.2842  -4.2522
    -4.2230  -4.1535  -4.1467  -4.0376  -4.0220  -3.9703  -3.8746  -3.8500
    -3.8047  -3.7566  -3.6671  -3.6554  -3.6310  -3.6161  -3.6071  -3.6022
    -3.5694  -3.5609  -3.5223  -3.4951  -3.4593  -3.4192  -3.4120  -3.3610
    -3.2752  -3.2183  -3.1941  -3.1750  -3.1492  -3.1326  -3.0828  -3.0340
    -2.9959  -2.9741  -2.9580  -2.9411  -2.9302  -2.8961  -2.8904  -2.8620
    -2.8438  -2.8245  -2.7381  -2.7020  -2.6660  -2.6485  -2.6395  -2.6149
    -2.5864  -2.5542  -2.4816  -2.4138  -2.3977  -2.3710  -2.3541  -2.3240
    -2.3097  -2.3000  -2.2940  -2.2716  -2.2565  -2.2433  -2.2302  -2.2255
    -2.2190  -2.1697  -2.1412  -2.0973  -2.0470  -2.0424  -2.0185  -2.0037
    -1.9953  -1.9717  -1.9471  -1.9388  -1.9289  -1.9028  -1.8866  -1.8843
    -1.8767  -1.8648  -1.8574  -1.8423  -1.8317  -1.8221  -1.8074  -1.7986
    -1.7795  -1.7697  -1.7419  -1.7032  -1.6959  -1.6599  -1.6499  -1.6482
    -1.6397  -1.6197  -1.5937  -1.5602  -1.5479  -1.5383  -1.5180  -1.4860
    -1.4819  -1.4702  -1.4608  -1.4396  -1.4260  -1.4121  -1.3994  -1.3563
    -1.3358  -1.3108  -1.2925  -1.2292  -1.2017  -1.1707  -1.1520  -1.0815
    -1.0554  -1.0360  -1.0259  -1.0150  -1.0117  -1.0037  -0.9767  -0.9693
    -0.9532  -0.9414  -0.9176  -0.8772  -0.8701  -0.8482  -0.8359  -0.8268
    -0.8039  -0.7839  -0.7654  -0.7538  -0.7409  -0.7328  -0.6182  -0.5867
    -0.5857  -0.5630  -0.5492  -0.5381  -0.5227  -0.5191  -0.4983  -0.4921
    -0.4683  -0.4441  -0.4161  -0.4075  -0.3869  -0.3735  -0.3364  -0.3225
    -0.3116  -0.3080  -0.3048  -0.2800  -0.2694  -0.2607  -0.2588  -0.2368
    -0.2273  -0.1547  -0.1386  -0.1361  -0.0914  -0.0862  -0.0652   0.0466
     0.1923   0.2525   0.2827   0.4477   0.5492   0.6586   1.0298   1.1342
     1.2604   1.4143

          k = 0.4000 0.2309 0.0000 ( 36606 PWs)   bands (ev):

   -21.9504  -9.1682  -7.0969  -6.4481  -6.1151  -5.8358  -5.4866  -5.4022
    -5.1926  -5.1462  -5.0455  -4.5971  -4.3421  -4.2995  -4.2770  -4.2231
    -4.1568  -4.1095  -4.1055  -3.9955  -3.9730  -3.9684  -3.9008  -3.8121
    -3.7896  -3.7806  -3.7754  -3.7664  -3.6810  -3.6755  -3.6531  -3.6438
    -3.5090  -3.5035  -3.4904  -3.4595  -3.4544  -3.4060  -3.3493  -3.3435
    -3.3297  -3.3165  -3.2886  -3.1981  -3.1173  -3.0809  -3.0246  -3.0019
    -2.9890  -2.9649  -2.9453  -2.9423  -2.9294  -2.9085  -2.8741  -2.8430
    -2.8324  -2.8095  -2.7749  -2.7270  -2.6303  -2.6201  -2.6069  -2.5743
    -2.5475  -2.5085  -2.4886  -2.4823  -2.4719  -2.4013  -2.3500  -2.3424
    -2.3393  -2.3294  -2.3193  -2.3029  -2.2855  -2.2800  -2.2591  -2.2178
    -2.2045  -2.1842  -2.1665  -2.1500  -2.1106  -2.0938  -2.0539  -2.0318
    -2.0157  -2.0045  -1.9829  -1.9665  -1.9423  -1.9101  -1.9042  -1.8914
    -1.8786  -1.8678  -1.8578  -1.8389  -1.8295  -1.8228  -1.8148  -1.7864
    -1.7715  -1.7415  -1.7241  -1.7084  -1.6446  -1.6317  -1.6027  -1.5865
    -1.5688  -1.5581  -1.5415  -1.4967  -1.4931  -1.4864  -1.4745  -1.4688
    -1.4579  -1.4543  -1.4381  -1.4371  -1.4266  -1.4179  -1.4040  -1.3862
    -1.3694  -1.3553  -1.3155  -1.2585  -1.2407  -1.2337  -1.2140  -1.1858
    -1.1739  -1.1211  -1.1001  -1.0880  -1.0784  -1.0373  -1.0261  -0.9909
    -0.9644  -0.9295  -0.9126  -0.9073  -0.8748  -0.8451  -0.8200  -0.7804
    -0.7264  -0.7113  -0.7022  -0.6882  -0.6826  -0.6730  -0.6675  -0.6549
    -0.6434  -0.6419  -0.5415  -0.5329  -0.5295  -0.5144  -0.5041  -0.4862
    -0.4819  -0.4719  -0.4556  -0.4434  -0.4303  -0.4032  -0.3479  -0.3333
    -0.3280  -0.3141  -0.2791  -0.2383  -0.2359  -0.2003  -0.1987  -0.1583
    -0.1261  -0.1164  -0.1126  -0.0913  -0.0871  -0.0842  -0.0667  -0.0394
     0.0144   0.0480   0.4083   0.7004   0.9012   1.0450   1.1439   1.2145
     1.4908   1.5358

          k = 0.4000-0.6928 0.0000 ( 36660 PWs)   bands (ev):

   -21.9504  -9.1640  -6.7253  -6.6643  -6.1199  -5.9276  -5.8223  -5.4187
    -5.2135  -5.1976  -4.8259  -4.4865  -4.4403  -4.2064  -4.1680  -4.0421
    -4.0353  -4.0130  -4.0037  -3.9839  -3.9545  -3.9308  -3.9258  -3.9150
    -3.8964  -3.8001  -3.7776  -3.7732  -3.7514  -3.7360  -3.7143  -3.6065
    -3.5896  -3.5845  -3.5695  -3.5455  -3.4852  -3.4238  -3.3257  -3.2947
    -3.2891  -3.2682  -3.1971  -3.1890  -3.1612  -3.1136  -3.0759  -3.0732
    -3.0626  -2.9959  -2.9843  -2.9119  -2.8763  -2.8501  -2.8448  -2.7900
    -2.7737  -2.7152  -2.7073  -2.6999  -2.6883  -2.6799  -2.6327  -2.6149
    -2.5390  -2.4948  -2.4849  -2.4696  -2.4599  -2.4205  -2.4041  -2.3482
    -2.3393  -2.3077  -2.3009  -2.2854  -2.2784  -2.2574  -2.2348  -2.2201
    -2.2092  -2.2001  -2.1772  -2.1656  -2.1563  -2.1361  -2.0959  -2.0760
    -2.0602  -2.0413  -1.9933  -1.9595  -1.9421  -1.9216  -1.9108  -1.9035
    -1.8800  -1.8737  -1.8637  -1.8465  -1.8299  -1.8231  -1.8106  -1.7546
    -1.7370  -1.7308  -1.7156  -1.7015  -1.6946  -1.6895  -1.6789  -1.6731
    -1.6693  -1.6624  -1.6351  -1.6257  -1.5766  -1.5572  -1.5480  -1.5315
    -1.4867  -1.4676  -1.4499  -1.4150  -1.4012  -1.3900  -1.3787  -1.3642
    -1.3139  -1.3108  -1.2844  -1.2341  -1.1815  -1.1779  -1.1692  -1.1417
    -1.1240  -1.1113  -1.1019  -1.0893  -1.0716  -1.0472  -1.0208  -0.9975
    -0.9660  -0.9577  -0.9339  -0.9196  -0.9107  -0.8770  -0.8567  -0.8503
    -0.8253  -0.8123  -0.7987  -0.7775  -0.7650  -0.7500  -0.7197  -0.5735
    -0.5539  -0.5467  -0.5369  -0.5248  -0.5214  -0.5060  -0.4940  -0.4617
    -0.4579  -0.4423  -0.4413  -0.4297  -0.3700  -0.3188  -0.3128  -0.3018
    -0.2914  -0.2781  -0.2614  -0.2326  -0.2169  -0.2089  -0.1994  -0.1890
    -0.1817  -0.1540  -0.1111  -0.1033  -0.0913  -0.0787  -0.0582  -0.0182
     0.1691   0.2896   0.5832   0.8635   0.9526   1.1916   1.2527   1.5858
     1.6923   1.7299

          k = 0.4000-0.4619 0.0000 ( 36660 PWs)   bands (ev):

   -21.9504  -9.1673  -6.6993  -6.6775  -6.1128  -5.9826  -5.6738  -5.5465
    -5.2287  -5.1817  -4.8022  -4.4670  -4.4429  -4.2160  -4.1662  -4.0709
    -4.0362  -4.0224  -4.0058  -4.0005  -3.9469  -3.9369  -3.9261  -3.9247
    -3.8902  -3.8418  -3.7760  -3.7686  -3.7451  -3.7399  -3.6899  -3.6024
    -3.5906  -3.5818  -3.5603  -3.5066  -3.4398  -3.4223  -3.3551  -3.2946
    -3.2892  -3.2374  -3.2089  -3.1894  -3.1627  -3.1212  -3.0753  -3.0747
    -3.0381  -3.0092  -2.9833  -2.9145  -2.8767  -2.8568  -2.8416  -2.7995
    -2.7907  -2.7157  -2.7055  -2.6927  -2.6847  -2.6727  -2.6506  -2.6326
    -2.5435  -2.4989  -2.4854  -2.4696  -2.4501  -2.4128  -2.3952  -2.3500
    -2.3440  -2.3032  -2.2967  -2.2943  -2.2828  -2.2613  -2.2361  -2.2321
    -2.2154  -2.2058  -2.1878  -2.1625  -2.1588  -2.1292  -2.0842  -2.0684
    -2.0536  -2.0151  -1.9884  -1.9682  -1.9521  -1.9250  -1.9119  -1.9011
    -1.8822  -1.8707  -1.8639  -1.8566  -1.8435  -1.8204  -1.8122  -1.7964
    -1.7525  -1.7282  -1.7180  -1.7080  -1.6920  -1.6852  -1.6797  -1.6692
    -1.6597  -1.6573  -1.6359  -1.6024  -1.5714  -1.5622  -1.5495  -1.5218
    -1.4674  -1.4625  -1.4381  -1.4205  -1.4042  -1.3961  -1.3786  -1.3550
    -1.3238  -1.3063  -1.2780  -1.2486  -1.1969  -1.1698  -1.1615  -1.1406
    -1.1256  -1.1174  -1.1044  -1.0762  -1.0570  -1.0377  -1.0248  -1.0144
    -0.9660  -0.9454  -0.9330  -0.9254  -0.9140  -0.8694  -0.8530  -0.8370
    -0.8290  -0.8113  -0.8026  -0.7890  -0.7645  -0.7541  -0.7121  -0.5807
    -0.5538  -0.5500  -0.5395  -0.5250  -0.5180  -0.5098  -0.4951  -0.4800
    -0.4545  -0.4406  -0.4343  -0.4241  -0.3837  -0.3359  -0.3131  -0.3050
    -0.2899  -0.2812  -0.2624  -0.2513  -0.2166  -0.2078  -0.2016  -0.1873
    -0.1804  -0.1174  -0.1118  -0.1034  -0.0916  -0.0783  -0.0588  -0.0190
     0.1577   0.2692   0.5018   0.8781   1.1192   1.1896   1.3122   1.5248
     1.6933   1.7362

 ------ SPIN DOWN ----------


          k = 0.0000 0.0000 0.0000 ( 36693 PWs)   bands (ev):

   -22.0321  -9.2792  -7.7794  -6.5282  -5.7997  -5.6895  -5.4185  -4.7386
    -4.6265  -4.6178  -4.6153  -4.5901  -4.5757  -4.5604  -4.0595  -3.7459
    -3.7437  -3.7298  -3.7142  -3.7045  -3.6601  -3.2811  -2.8065  -2.7969
    -2.7891  -2.7830  -2.7210  -2.5696  -2.3392  -2.3278  -2.3220  -2.3173
    -2.2991  -2.2305  -2.1283  -2.1245  -2.0587  -2.0398  -2.0304  -2.0294
    -1.9457  -1.9420  -1.8942  -1.8904  -1.8325  -1.8070  -1.7997  -1.7840
    -1.7490  -1.7356  -1.5492  -1.5428  -1.5275  -1.5192  -1.5046  -1.5030
    -1.4905  -1.4891  -1.4581  -1.4534  -1.4228  -1.4140  -1.4112  -1.4095
    -1.3394  -1.2524  -0.8991  -0.8593  -0.8382  -0.8330  -0.7953  -0.7470
    -0.6478  -0.6245  -0.5363  -0.5239  -0.5153  -0.5074  -0.4962  -0.4845
    -0.4605  -0.4508  -0.4262  -0.4229  -0.4147  -0.4142  -0.3600  -0.3553
    -0.3472  -0.3186  -0.3035  -0.2942  -0.2756  -0.2666  -0.2586  -0.2521
    -0.2497  -0.2408  -0.2292  -0.2282  -0.2250  -0.2227  -0.1813  -0.1426
    -0.1237  -0.1023  -0.0863  -0.0597  -0.0175  -0.0042   0.0009   0.0046
     0.0074   0.0107   0.0159   0.0540   0.0847   0.0860   0.1326   0.1588
     0.1700   0.1761   0.1851   0.2145   0.2602   0.3938   0.4059   0.4528
     0.4616   0.4812   0.4897   0.4936   0.5998   0.6917   0.7769   0.8124
     0.8285   0.8714   0.9819   1.0015   1.0295   1.0501   1.0565   1.0610
     1.1123   1.1869   1.2036   1.2192   1.2275   1.2353   1.2438   1.2639
     1.2733   1.2879   1.2967   1.3151   1.3288   1.3357   1.3405   1.3751
     1.3783   1.3853   1.3885   1.3974   1.4263   1.4407   1.4476   1.4573
     1.4671   1.4809   1.4905   1.5027   1.5059   1.5150   1.5172   1.5520
     1.5599   1.5768   1.5801   1.5859   1.5945   1.6009   1.6071   1.6423
     1.6482   1.6508   1.6539   1.6583   1.6627   1.6710   1.6797   1.6843
     1.6878   1.7333   1.7347   1.8770   1.8829   1.8860   1.8890   1.8911
     1.8936   2.0320

          k = 0.0000 0.2309 0.0000 ( 36641 PWs)   bands (ev):

   -22.0321  -9.2683  -7.6375  -6.4246  -5.8718  -5.6888  -5.5368  -5.3876
    -4.9874  -4.9743  -4.6324  -4.3906  -4.1191  -4.0644  -4.0426  -3.9273
    -3.7890  -3.7425  -3.4580  -3.3896  -3.3083  -3.2369  -2.9660  -2.7814
    -2.7560  -2.7323  -2.6764  -2.5650  -2.4439  -2.3604  -2.3561  -2.3448
    -2.3128  -2.2846  -2.2713  -2.2696  -2.2221  -2.1874  -2.0895  -2.0865
    -2.0028  -2.0022  -1.9617  -1.8387  -1.8307  -1.8086  -1.7901  -1.6995
    -1.6647  -1.6515  -1.5969  -1.5606  -1.5534  -1.5245  -1.5119  -1.5072
    -1.4916  -1.4772  -1.4074  -1.3838  -1.3708  -1.3507  -1.3217  -1.2848
    -1.2313  -1.1477  -0.9556  -0.9183  -0.8897  -0.8842  -0.8349  -0.7716
    -0.7568  -0.7118  -0.6806  -0.6301  -0.6180  -0.5667  -0.5374  -0.5306
    -0.4941  -0.4873  -0.4677  -0.4592  -0.4516  -0.4370  -0.4218  -0.3725
    -0.3336  -0.3165  -0.3027  -0.3005  -0.2925  -0.2615  -0.2439  -0.2327
    -0.2227  -0.2116  -0.2087  -0.2018  -0.2002  -0.1974  -0.1780  -0.1509
    -0.1253  -0.1160  -0.0991  -0.0929  -0.0888  -0.0680  -0.0468  -0.0223
    -0.0002   0.0082   0.0502   0.0749   0.0998   0.1162   0.1229   0.1519
     0.2455   0.2760   0.3078   0.3545   0.3783   0.3877   0.4215   0.4380
     0.4430   0.4503   0.4673   0.4731   0.5905   0.7156   0.7716   0.7916
     0.8026   0.8180   0.8277   0.8425   0.8838   0.8971   0.9545   0.9799
     1.0223   1.0394   1.0701   1.0992   1.1143   1.1347   1.1584   1.1639
     1.2256   1.2421   1.2635   1.2770   1.2881   1.3026   1.3385   1.3466
     1.3652   1.3851   1.4179   1.4389   1.4556   1.4645   1.4870   1.5115
     1.5299   1.5408   1.5465   1.5491   1.5700   1.6171   1.6281   1.6360
     1.6432   1.6674   1.6724   1.7023   1.7083   1.7177   1.7238   1.7335
     1.7487   1.7937   1.7969   1.8138   1.8167   1.8245   1.8348   1.8526
     1.8662   1.8757   1.8825   1.8999   1.9708   1.9849   1.9908   2.0444
     2.0657   2.1174

          k = 0.0000 0.4619 0.0000 ( 36606 PWs)   bands (ev):

   -22.0321  -9.2508  -7.2161  -6.5436  -6.1608  -5.8456  -5.5840  -5.4067
    -5.1994  -5.1506  -5.0440  -4.4012  -4.1184  -4.0328  -3.7421  -3.4504
    -3.4442  -3.3706  -3.3119  -3.1389  -3.0924  -3.0035  -2.9649  -2.8464
    -2.8422  -2.7737  -2.7379  -2.7012  -2.6348  -2.6056  -2.5779  -2.5551
    -2.5231  -2.4318  -2.3162  -2.3004  -2.2311  -2.2073  -2.1131  -2.1074
    -2.0991  -2.0744  -2.0466  -1.8219  -1.7989  -1.7906  -1.7460  -1.7176
    -1.6014  -1.5871  -1.5692  -1.5549  -1.5487  -1.5182  -1.5130  -1.4961
    -1.4706  -1.4058  -1.4011  -1.3746  -1.3529  -1.3423  -1.1991  -1.1756
    -1.0687  -1.0404  -0.9714  -0.9316  -0.9135  -0.8748  -0.8562  -0.8506
    -0.8263  -0.7928  -0.7900  -0.7553  -0.7133  -0.6803  -0.6669  -0.6366
    -0.6072  -0.5930  -0.5616  -0.5515  -0.5191  -0.4892  -0.4491  -0.4105
    -0.3850  -0.3719  -0.3436  -0.3128  -0.2834  -0.2598  -0.2431  -0.2221
    -0.1964  -0.1922  -0.1799  -0.1566  -0.1481  -0.1439  -0.1285  -0.1148
    -0.0881  -0.0732  -0.0569  -0.0425  -0.0360  -0.0335  -0.0196  -0.0032
     0.0193   0.0397   0.0832   0.1366   0.1648   0.1672   0.1795   0.2181
     0.2294   0.2364   0.2519   0.2957   0.3178   0.3310   0.3485   0.3712
     0.3982   0.4137   0.4275   0.4401   0.4783   0.5544   0.5993   0.6135
     0.6603   0.6931   0.7451   0.8100   0.8376   0.8673   0.8830   0.9030
     0.9268   0.9433   0.9708   0.9851   1.0109   1.1170   1.1282   1.1859
     1.1981   1.2218   1.2578   1.2644   1.3037   1.3185   1.3391   1.3586
     1.3873   1.4005   1.4078   1.4732   1.5016   1.5168   1.5417   1.5495
     1.5596   1.5650   1.5919   1.6059   1.6311   1.6370   1.6503   1.6813
     1.6856   1.7151   1.7812   1.7865   1.8015   1.8078   1.8239   1.8385
     1.8498   1.8744   1.8833   1.8946   1.9126   1.9154   1.9249   1.9286
     1.9740   2.0199   2.0437   2.1357   2.1572   2.2361   2.5569   2.6146
     2.6651   2.6953

          k = 0.2000-0.1155 0.0000 ( 36641 PWs)   bands (ev):

   -22.0321  -9.2697  -7.6365  -6.4225  -5.8414  -5.7063  -5.5530  -5.3815
    -4.9961  -4.9676  -4.6141  -4.4459  -4.0752  -4.0643  -4.0175  -3.9382
    -3.8154  -3.7351  -3.4389  -3.3903  -3.3687  -3.2350  -2.9179  -2.7939
    -2.7663  -2.7098  -2.6731  -2.5962  -2.4197  -2.3616  -2.3577  -2.3361
    -2.3155  -2.2814  -2.2696  -2.2653  -2.2190  -2.2036  -2.0930  -2.0848
    -2.0023  -1.9993  -1.9472  -1.8647  -1.8322  -1.8083  -1.8027  -1.6975
    -1.6676  -1.6522  -1.5956  -1.5649  -1.5466  -1.5285  -1.5113  -1.5045
    -1.4953  -1.4891  -1.3988  -1.3850  -1.3718  -1.3562  -1.3169  -1.2723
    -1.2377  -1.1415  -0.9585  -0.9230  -0.8881  -0.8838  -0.8294  -0.7847
    -0.7286  -0.7043  -0.6772  -0.6323  -0.6180  -0.5618  -0.5439  -0.5352
    -0.4932  -0.4833  -0.4733  -0.4687  -0.4555  -0.4290  -0.4066  -0.3736
    -0.3498  -0.3075  -0.3024  -0.2995  -0.2823  -0.2626  -0.2445  -0.2290
    -0.2213  -0.2184  -0.2097  -0.2030  -0.2008  -0.1985  -0.1705  -0.1519
    -0.1351  -0.1173  -0.1069  -0.0955  -0.0714  -0.0577  -0.0416  -0.0208
    -0.0119   0.0148   0.0397   0.0615   0.1050   0.1198   0.1249   0.1519
     0.2398   0.2675   0.3036   0.3575   0.3752   0.3818   0.4336   0.4396
     0.4425   0.4528   0.4657   0.4701   0.6019   0.7001   0.7754   0.7977
     0.8034   0.8130   0.8261   0.8345   0.8919   0.9013   0.9520   0.9753
     1.0190   1.0324   1.0664   1.0858   1.1079   1.1249   1.1551   1.2113
     1.2213   1.2457   1.2591   1.2770   1.2916   1.2990   1.3387   1.3460
     1.3713   1.3894   1.4253   1.4337   1.4530   1.4638   1.4789   1.4931
     1.5272   1.5426   1.5441   1.5472   1.5765   1.6279   1.6316   1.6414
     1.6462   1.6676   1.6746   1.7015   1.7048   1.7171   1.7228   1.7288
     1.7505   1.7927   1.7965   1.8113   1.8159   1.8248   1.8356   1.8527
     1.8734   1.8769   1.8835   1.9146   1.9717   1.9855   1.9879   2.0381
     2.0682   2.1200

          k = 0.2000 0.1155 0.0000 ( 36641 PWs)   bands (ev):

   -22.0321  -9.2679  -7.6380  -6.4262  -5.8895  -5.6761  -5.5042  -5.4149
    -4.9855  -4.9759  -4.6446  -4.3555  -4.1250  -4.0669  -4.0441  -3.9523
    -3.7787  -3.7415  -3.4602  -3.3934  -3.2948  -3.2250  -2.9742  -2.8062
    -2.7487  -2.7184  -2.6916  -2.5455  -2.4525  -2.3639  -2.3554  -2.3395
    -2.3202  -2.2910  -2.2720  -2.2663  -2.2301  -2.1747  -2.0893  -2.0858
    -2.0055  -2.0008  -1.9543  -1.8503  -1.8173  -1.8058  -1.7974  -1.6862
    -1.6723  -1.6587  -1.5887  -1.5745  -1.5523  -1.5228  -1.5078  -1.5048
    -1.4994  -1.4528  -1.4203  -1.3847  -1.3717  -1.3521  -1.3217  -1.2837
    -1.2318  -1.1497  -0.9592  -0.9232  -0.8901  -0.8755  -0.8238  -0.7997
    -0.7619  -0.6885  -0.6707  -0.6392  -0.6246  -0.5667  -0.5488  -0.5190
    -0.4957  -0.4848  -0.4699  -0.4601  -0.4578  -0.4363  -0.4255  -0.3651
    -0.3319  -0.3127  -0.3036  -0.2994  -0.2916  -0.2585  -0.2391  -0.2306
    -0.2245  -0.2134  -0.2082  -0.2056  -0.2004  -0.1998  -0.1669  -0.1515
    -0.1325  -0.1170  -0.0999  -0.0955  -0.0862  -0.0624  -0.0453  -0.0299
    -0.0027   0.0138   0.0580   0.0848   0.0893   0.1125   0.1226   0.1526
     0.2251   0.2837   0.3152   0.3478   0.3667   0.3898   0.4241   0.4301
     0.4429   0.4560   0.4688   0.4728   0.6295   0.6881   0.7744   0.7887
     0.8053   0.8111   0.8318   0.8446   0.8737   0.8965   0.9448   0.9720
     0.9946   1.0616   1.0774   1.0975   1.1135   1.1433   1.1594   1.1627
     1.2228   1.2536   1.2701   1.2831   1.2925   1.2966   1.3374   1.3458
     1.3618   1.3892   1.4233   1.4454   1.4518   1.4643   1.4849   1.5060
     1.5253   1.5398   1.5469   1.5564   1.5663   1.6136   1.6221   1.6357
     1.6462   1.6661   1.6755   1.7042   1.7112   1.7167   1.7239   1.7329
     1.7505   1.7936   1.7983   1.8133   1.8153   1.8257   1.8342   1.8516
     1.8685   1.8768   1.8828   1.8894   1.9703   1.9830   1.9914   2.0362
     2.0690   2.1163

          k = 0.2000 0.3464 0.0000 ( 36608 PWs)   bands (ev):

   -22.0321  -9.2532  -7.3570  -6.2572  -6.1072  -5.9885  -5.6862  -5.5280
    -5.4075  -4.7464  -4.6824  -4.3232  -4.2576  -4.2537  -3.8108  -3.4313
    -3.4162  -3.4108  -3.3870  -3.2331  -3.1622  -3.1150  -3.1062  -2.8937
    -2.7470  -2.6760  -2.6622  -2.6561  -2.5792  -2.5488  -2.5124  -2.4635
    -2.4559  -2.4407  -2.4260  -2.3386  -2.3008  -2.2349  -2.0768  -2.0621
    -2.0217  -1.9953  -1.9493  -1.9349  -1.9143  -1.7851  -1.7324  -1.7100
    -1.6196  -1.5933  -1.5546  -1.5447  -1.5388  -1.5263  -1.5008  -1.4905
    -1.4780  -1.4666  -1.3981  -1.3720  -1.3135  -1.2875  -1.2053  -1.1508
    -1.1003  -1.0537  -0.9910  -0.9556  -0.8941  -0.8629  -0.8444  -0.8121
    -0.7895  -0.7716  -0.7539  -0.7165  -0.6815  -0.6675  -0.6652  -0.6356
    -0.6171  -0.5968  -0.5743  -0.5538  -0.5416  -0.4669  -0.4130  -0.3952
    -0.3849  -0.3722  -0.3502  -0.3161  -0.3084  -0.2840  -0.2705  -0.2542
    -0.2418  -0.2205  -0.2074  -0.1976  -0.1851  -0.1599  -0.1453  -0.1238
    -0.1107  -0.0953  -0.0848  -0.0735  -0.0674  -0.0519  -0.0411  -0.0247
     0.0246   0.0479   0.0674   0.0860   0.1733   0.1926   0.2094   0.2385
     0.2646   0.2688   0.2994   0.3123   0.3720   0.3821   0.3980   0.4012
     0.4097   0.4313   0.4832   0.5018   0.5466   0.6016   0.6754   0.7106
     0.7618   0.7979   0.8164   0.8460   0.8531   0.8596   0.8676   0.9072
     0.9165   0.9326   0.9374   0.9569   0.9913   1.0507   1.0967   1.1100
     1.1479   1.1582   1.1696   1.1939   1.2155   1.2604   1.2711   1.3059
     1.3529   1.4194   1.4648   1.5084   1.5170   1.5347   1.5543   1.5669
     1.5773   1.5892   1.6065   1.6176   1.6657   1.6839   1.6927   1.6995
     1.7115   1.7392   1.7524   1.7629   1.7706   1.7886   1.7959   1.8229
     1.8308   1.8344   1.8469   1.8657   1.8717   1.8951   1.9226   1.9536
     1.9634   1.9747   2.0626   2.0962   2.2033   2.2349   2.2940   2.5302
     2.5549   2.5650

          k = 0.2000-0.5774 0.0000 ( 36660 PWs)   bands (ev):

   -22.0321  -9.2463  -6.8299  -6.7776  -6.1898  -5.9977  -5.8138  -5.4981
    -5.2634  -5.2079  -4.7650  -4.3244  -4.2178  -3.7138  -3.5135  -3.4510
    -3.4474  -3.3486  -3.1961  -3.1076  -3.0386  -3.0259  -3.0158  -2.8939
    -2.8894  -2.8737  -2.8519  -2.8411  -2.7006  -2.6449  -2.5116  -2.4971
    -2.4749  -2.4606  -2.4241  -2.4127  -2.3734  -2.3074  -2.1975  -2.0508
    -1.9620  -1.9573  -1.9376  -1.9124  -1.8637  -1.7852  -1.7130  -1.7007
    -1.6751  -1.6587  -1.6456  -1.5537  -1.5118  -1.4788  -1.4726  -1.4582
    -1.4308  -1.3740  -1.3289  -1.3127  -1.2694  -1.2483  -1.2309  -1.1274
    -1.0868  -1.0520  -0.9506  -0.9341  -0.9260  -0.8656  -0.8545  -0.8204
    -0.8018  -0.7899  -0.7660  -0.7397  -0.7214  -0.6785  -0.6624  -0.6398
    -0.6265  -0.6012  -0.5941  -0.5831  -0.5655  -0.5611  -0.5272  -0.4976
    -0.4928  -0.4519  -0.4321  -0.4214  -0.3789  -0.3640  -0.3202  -0.2729
    -0.2519  -0.2205  -0.1981  -0.1901  -0.1572  -0.1498  -0.1371  -0.1185
    -0.0897  -0.0607  -0.0449  -0.0282  -0.0049   0.0022   0.0626   0.0855
     0.1204   0.1327   0.1451   0.1527   0.1675   0.1890   0.2251   0.2408
     0.2574   0.2629   0.3106   0.3380   0.3541   0.3775   0.3921   0.4250
     0.4329   0.4442   0.4685   0.4893   0.5003   0.5132   0.5279   0.5638
     0.6123   0.6964   0.7209   0.7792   0.7923   0.8132   0.8498   0.8575
     0.8724   0.8846   0.9075   0.9546   1.0015   1.0408   1.0626   1.0923
     1.1148   1.1311   1.1583   1.1907   1.2156   1.2320   1.2453   1.3021
     1.3782   1.4342   1.4669   1.4806   1.5246   1.5665   1.5948   1.6057
     1.6147   1.6269   1.6328   1.6410   1.6717   1.6945   1.7021   1.7125
     1.7617   1.7762   1.7807   1.7983   1.8012   1.8062   1.8153   1.8171
     1.8384   1.8646   1.8744   1.9046   1.9130   1.9296   1.9362   1.9577
     2.0164   2.1010   2.2236   2.3411   2.3914   2.6681   2.7518   2.8126
     2.8520   2.9520

          k = 0.2000-0.3464 0.0000 ( 36608 PWs)   bands (ev):

   -22.0321  -9.2562  -7.3529  -6.2610  -6.0494  -6.0079  -5.6781  -5.5969
    -5.3765  -4.7857  -4.6171  -4.3969  -4.2476  -4.2324  -3.7912  -3.4300
    -3.4194  -3.4112  -3.3986  -3.2865  -3.1430  -3.1235  -3.0997  -2.8753
    -2.7446  -2.6778  -2.6619  -2.6112  -2.5758  -2.5587  -2.5478  -2.4648
    -2.4567  -2.4441  -2.4148  -2.3078  -2.2623  -2.2380  -2.0818  -2.0698
    -2.0529  -1.9943  -1.9588  -1.9358  -1.9140  -1.7806  -1.7320  -1.7155
    -1.6553  -1.5844  -1.5543  -1.5522  -1.5371  -1.5241  -1.5103  -1.4952
    -1.4844  -1.4603  -1.4125  -1.3796  -1.3329  -1.2799  -1.1823  -1.1499
    -1.0888  -1.0645  -0.9781  -0.9261  -0.8814  -0.8521  -0.8394  -0.8062
    -0.7934  -0.7681  -0.7354  -0.7166  -0.6916  -0.6734  -0.6543  -0.6328
    -0.6209  -0.6065  -0.5850  -0.5680  -0.5231  -0.4621  -0.4132  -0.4052
    -0.3984  -0.3820  -0.3494  -0.3219  -0.2970  -0.2833  -0.2764  -0.2516
    -0.2373  -0.2322  -0.2184  -0.1937  -0.1793  -0.1559  -0.1380  -0.1232
    -0.1136  -0.1019  -0.0939  -0.0665  -0.0543  -0.0453  -0.0408  -0.0250
     0.0394   0.0597   0.0669   0.0887   0.1516   0.1814   0.2207   0.2427
     0.2627   0.2766   0.3133   0.3498   0.3710   0.3816   0.3908   0.3964
     0.4069   0.4306   0.4644   0.4772   0.5287   0.5906   0.7009   0.7095
     0.7449   0.7796   0.8254   0.8442   0.8617   0.8680   0.8860   0.8985
     0.9081   0.9299   0.9418   0.9565   0.9928   1.0462   1.0786   1.1013
     1.1349   1.1623   1.1718   1.2087   1.2163   1.2556   1.2800   1.3323
     1.3359   1.4034   1.4792   1.5080   1.5167   1.5405   1.5513   1.5622
     1.5790   1.5859   1.6106   1.6161   1.6721   1.6802   1.6922   1.6992
     1.7214   1.7403   1.7434   1.7562   1.7727   1.7858   1.7985   1.8164
     1.8322   1.8371   1.8445   1.8585   1.8707   1.8795   1.9252   1.9534
     1.9641   2.0152   2.0606   2.0910   2.1854   2.2319   2.3946   2.4656
     2.5279   2.5652

          k = 0.4000-0.2309 0.0000 ( 36606 PWs)   bands (ev):

   -22.0321  -9.2547  -7.2118  -6.5369  -6.1551  -5.7759  -5.6740  -5.3817
    -5.2147  -5.1488  -5.0475  -4.4113  -4.0948  -4.0174  -3.7954  -3.4521
    -3.4438  -3.3719  -3.3187  -3.1541  -3.0363  -3.0018  -2.9847  -2.8491
    -2.8433  -2.7818  -2.7320  -2.7064  -2.6238  -2.6046  -2.5968  -2.5385
    -2.5292  -2.3636  -2.3189  -2.3027  -2.2287  -2.2206  -2.1145  -2.1083
    -2.0903  -2.0785  -2.0518  -1.8422  -1.8107  -1.7916  -1.7633  -1.7485
    -1.5954  -1.5830  -1.5692  -1.5569  -1.5474  -1.5207  -1.5146  -1.4957
    -1.4824  -1.4073  -1.3958  -1.3778  -1.3636  -1.3472  -1.1937  -1.1661
    -1.0710  -1.0272  -0.9387  -0.9104  -0.9012  -0.8733  -0.8513  -0.8440
    -0.8234  -0.8085  -0.7895  -0.7598  -0.7147  -0.6774  -0.6573  -0.6336
    -0.6103  -0.5947  -0.5642  -0.5569  -0.5202  -0.5043  -0.4541  -0.3931
    -0.3724  -0.3597  -0.3391  -0.3197  -0.2991  -0.2782  -0.2464  -0.2299
    -0.1981  -0.1893  -0.1742  -0.1660  -0.1485  -0.1455  -0.1173  -0.0960
    -0.0867  -0.0681  -0.0569  -0.0483  -0.0398  -0.0265  -0.0136   0.0038
     0.0154   0.0412   0.0686   0.1120   0.1571   0.1617   0.1806   0.2215
     0.2233   0.2382   0.2564   0.2852   0.3239   0.3370   0.3461   0.3640
     0.4024   0.4152   0.4303   0.4399   0.4784   0.5394   0.6080   0.6114
     0.6754   0.7053   0.7454   0.7943   0.8419   0.8696   0.8861   0.8981
     0.9248   0.9365   0.9567   0.9893   1.0032   1.0667   1.1685   1.1906
     1.2034   1.2303   1.2467   1.2666   1.3080   1.3228   1.3478   1.3615
     1.3866   1.4031   1.4122   1.4722   1.4915   1.4981   1.5493   1.5559
     1.5681   1.5684   1.5934   1.6081   1.6293   1.6421   1.6515   1.6785
     1.6859   1.7414   1.7555   1.7865   1.7990   1.8150   1.8258   1.8431
     1.8463   1.8742   1.8775   1.8933   1.9100   1.9155   1.9254   1.9278
     1.9734   2.0327   2.0499   2.1164   2.1366   2.2221   2.5638   2.6394
     2.6648   2.7121

          k = 0.4000 0.0000 0.0000 ( 36608 PWs)   bands (ev):

   -22.0321  -9.2556  -7.3542  -6.2596  -6.0751  -5.9968  -5.6832  -5.5655
    -5.3859  -4.7912  -4.6323  -4.3608  -4.2502  -4.2403  -3.7973  -3.4298
    -3.4128  -3.4110  -3.4029  -3.2745  -3.1493  -3.1180  -3.1030  -2.8824
    -2.7462  -2.6697  -2.6633  -2.6327  -2.5724  -2.5520  -2.5462  -2.4622
    -2.4548  -2.4429  -2.4162  -2.3097  -2.2758  -2.2373  -2.0811  -2.0674
    -2.0485  -1.9856  -1.9642  -1.9328  -1.9181  -1.7832  -1.7288  -1.7215
    -1.6426  -1.5977  -1.5542  -1.5479  -1.5351  -1.5251  -1.5057  -1.4931
    -1.4757  -1.4621  -1.4109  -1.3705  -1.3327  -1.2878  -1.1847  -1.1560
    -1.0878  -1.0619  -0.9756  -0.9419  -0.8888  -0.8515  -0.8377  -0.8126
    -0.7979  -0.7623  -0.7442  -0.7105  -0.6880  -0.6690  -0.6526  -0.6351
    -0.6185  -0.5969  -0.5839  -0.5506  -0.5411  -0.4447  -0.4318  -0.4079
    -0.3902  -0.3752  -0.3444  -0.3266  -0.2984  -0.2836  -0.2719  -0.2590
    -0.2468  -0.2288  -0.2164  -0.1929  -0.1844  -0.1635  -0.1524  -0.1172
    -0.1047  -0.0975  -0.0883  -0.0691  -0.0574  -0.0531  -0.0372  -0.0248
     0.0315   0.0595   0.0647   0.0803   0.1744   0.1845   0.2187   0.2432
     0.2651   0.2939   0.3126   0.3265   0.3603   0.3833   0.3892   0.3987
[...]
     atom    8 type  1   force =     0.00000768   -0.00186538   -0.10329670
     atom    9 type  1   force =    -0.00157821    0.00326005   -0.10400038
     atom   10 type  1   force =     0.00101178   -0.00111626   -0.01712613
     atom   11 type  1   force =     0.00023779   -0.00084752   -0.00962711
     atom   12 type  1   force =    -0.00108979    0.00133252   -0.01162474
     atom   13 type  1   force =     0.00046731    0.00186827   -0.00941146
     atom   14 type  1   force =     0.00022975    0.00028346   -0.00682039
     atom   15 type  1   force =    -0.00143295    0.00018856   -0.01089167
     atom   16 type  1   force =     0.00072395   -0.00216746   -0.01276547
     atom   17 type  1   force =     0.00051588    0.00006133   -0.00873495
     atom   18 type  1   force =    -0.00074103   -0.00036481   -0.01336223
     atom   19 type  1   force =    -0.00135694   -0.00063379    0.01178097
     atom   20 type  1   force =    -0.00985041   -0.00166364   -0.00323347
     atom   21 type  1   force =     0.01261132   -0.00786455   -0.00248149
     atom   22 type  1   force =     0.00004729   -0.00038790    0.01253442
     atom   23 type  1   force =    -0.00052486    0.01277506   -0.00077441
     atom   24 type  1   force =    -0.00020621   -0.00196419    0.01370412
     atom   25 type  1   force =     0.00061599   -0.00002288    0.01936480
     atom   26 type  1   force =    -0.00478315   -0.00029988    0.00212137
     atom   27 type  1   force =     0.00461900   -0.00000315    0.00940891
     atom   28 type  1   force =     0.00080617    0.00182965    0.11513545
     atom   29 type  1   force =     0.01040771    0.04866956    0.10063492
     atom   30 type  1   force =    -0.01615571    0.01393639    0.13559748
     atom   31 type  1   force =     0.03923632   -0.02233895    0.13792515
     atom   32 type  1   force =    -0.05338218   -0.05093677    0.04602777
     atom   33 type  1   force =    -0.01673948    0.01002619    0.12575864
     atom   34 type  1   force =     0.01177323   -0.00651587    0.12790892
     atom   35 type  1   force =     0.00072490   -0.00350637    0.10215351
     atom   36 type  1   force =     0.00004999   -0.00129244    0.10555913
     atom   37 type  2   force =    -0.09253016   -0.00837959    0.41632485
     atom   38 type  3   force =     0.37654220    0.24690128   -2.67624495
     atom   39 type  4   force =    -0.00591095   -0.00525001   -0.02417686
     The ionic contribution  to forces
     atom    1 type  1   force =    -0.00605302    0.00028427 -111.13363976
     atom    2 type  1   force =    -0.00371510    0.00071916 -111.15323330
     atom    3 type  1   force =     0.00976804   -0.00074607 -111.14102405
     atom    4 type  1   force =    -0.00449805    0.00586658 -111.13352378
     atom    5 type  1   force =     0.00177743    0.00857595 -111.13899217
     atom    6 type  1   force =     0.00272060   -0.00007225 -111.13003680
     atom    7 type  1   force =     0.00095690   -0.00061165 -111.12803962
     atom    8 type  1   force =    -0.00523104   -0.00515621 -111.13650181
     atom    9 type  1   force =     0.00427420   -0.00885976 -111.13844733
     atom   10 type  1   force =    -0.03885923   -0.01692199  -40.06575085
     atom   11 type  1   force =    -0.01572466   -0.06097745  -40.17574288
     atom   12 type  1   force =     0.05456915   -0.03924454  -40.09563380
     atom   13 type  1   force =    -0.06454257    0.03387975  -40.14077143
     atom   14 type  1   force =     0.03760447    0.03618735  -40.19630639
     atom   15 type  1   force =     0.02694600    0.00814459  -40.06774590
     atom   16 type  1   force =    -0.01172690    0.04951463  -40.07175499
     atom   17 type  1   force =     0.00886828    0.00702707  -40.07678996
     atom   18 type  1   force =     0.00286497   -0.01761283  -40.05416273
     atom   19 type  1   force =    -0.29415624    0.01505384   31.54635528
     atom   20 type  1   force =    -0.20651031    0.05368793   30.47507577
     atom   21 type  1   force =     0.49716931   -0.04857858   31.19604890
     atom   22 type  1   force =    -0.21007310    0.27788404   31.55564468
     atom   23 type  1   force =     0.07743245    0.42916915   31.28011036
     atom   24 type  1   force =     0.13123817    0.00374592   31.68443040
     atom   25 type  1   force =     0.04026391   -0.02513031   31.77631363
     atom   26 type  1   force =    -0.25340252   -0.26043995   31.41698164
     atom   27 type  1   force =     0.21441858   -0.44298128   31.31578950
     atom   28 type  1   force =    -1.32962304   -0.57016776  104.11826760
     atom   29 type  1   force =    -1.11516909   -4.57810363   99.05833728
     atom   30 type  1   force =     2.12359002   -1.41491194  103.45910463
     atom   31 type  1   force =    -3.37777105    1.94594507  101.57721549
     atom   32 type  1   force =     2.48187403    2.38534895   98.09007885
     atom   33 type  1   force =     1.05209622    0.09095032  104.12963291
     atom   34 type  1   force =    -0.43651567    1.61314139  104.09055524
     atom   35 type  1   force =     0.41349522    0.67662618  103.79189855
     atom   36 type  1   force =     0.11754824   -0.54823107  104.41831633
     atom   37 type  2   force =     0.84378193    0.66126150   51.22278066
     atom   38 type  3   force =    -1.49146469   -0.94815677   89.76603035
     atom   39 type  4   force =     0.72177814    0.68389038   15.20912948
     The local contribution  to forces
     atom    1 type  1   force =     0.00527674   -0.00083636  111.23836058
     atom    2 type  1   force =     0.00638482    0.00057795  111.26094739
     atom    3 type  1   force =    -0.01164353    0.00312003  111.24718382
     atom    4 type  1   force =     0.00353191   -0.00348809  111.24040396
     atom    5 type  1   force =    -0.00232291   -0.01300730  111.24703777
     atom    6 type  1   force =    -0.00059192    0.00088529  111.23325355
     atom    7 type  1   force =    -0.00196451    0.00064752  111.23308169
     atom    8 type  1   force =     0.00615729    0.00631737  111.24330116
     atom    9 type  1   force =    -0.00355904    0.00562083  111.24390664
     atom   10 type  1   force =     0.03881290    0.01719891   40.06274287
     atom   11 type  1   force =     0.01338300    0.06111670   40.16542265
     atom   12 type  1   force =    -0.05265452    0.03702067   40.09046549
     atom   13 type  1   force =     0.06318144   -0.03577885   40.13311435
     atom   14 type  1   force =    -0.03771904   -0.03516761   40.18169536
     atom   15 type  1   force =    -0.02538729   -0.00906655   40.05860189
     atom   16 type  1   force =     0.01182453   -0.04684586   40.06536567
     atom   17 type  1   force =    -0.00911100   -0.00648368   40.06587351
     atom   18 type  1   force =    -0.00157920    0.01832300   40.04616451
     atom   19 type  1   force =     0.29303594   -0.01468472  -31.53517204
     atom   20 type  1   force =     0.21649931   -0.05210792  -30.45909168
     atom   21 type  1   force =    -0.50783903    0.05358441  -31.17870825
     atom   22 type  1   force =     0.20988088   -0.27599010  -31.54785624
     atom   23 type  1   force =    -0.07788875   -0.44177443  -31.26492280
     atom   24 type  1   force =    -0.13004051   -0.00090720  -31.67561389
     atom   25 type  1   force =    -0.04214735    0.02487490  -31.77020006
     atom   26 type  1   force =     0.25633636    0.25943847  -31.40278122
     atom   27 type  1   force =    -0.21547894    0.44250897  -31.30830806
     atom   28 type  1   force =     1.32618566    0.56738021 -104.24127881
     atom   29 type  1   force =     1.09625276    4.50467337  -99.16644906
     atom   30 type  1   force =    -2.09895929    1.39065183 -103.60388355
     atom   31 type  1   force =     3.32667609   -1.91959648 -101.71986116
     atom   32 type  1   force =    -2.43131532   -2.33323615  -98.11396827
     atom   33 type  1   force =    -1.03139135   -0.10231846 -104.26128653
     atom   34 type  1   force =     0.41956689   -1.59756946 -104.22664884
     atom   35 type  1   force =    -0.41429301   -0.67151809 -103.89410334
     atom   36 type  1   force =    -0.11638544    0.55054359 -104.53390472
     atom   37 type  2   force =    -0.75296884   -0.65092884  -51.63815558
     atom   38 type  3   force =     1.11949676    0.70995626  -87.10632200
     atom   39 type  4   force =    -0.69734426   -0.66080979  -15.19708393
     The core correction contribution to forces
     atom    1 type  1   force =     0.00002346    0.00012076    0.01020299
     atom    2 type  1   force =     0.00040921    0.00009185    0.01001399
     atom    3 type  1   force =    -0.00012832    0.00013680    0.01036210
     atom    4 type  1   force =    -0.00005988    0.00001570    0.01004089
     atom    5 type  1   force =    -0.00021668   -0.00023868    0.01040656
     atom    6 type  1   force =     0.00019273    0.00017632    0.00996108
     atom    7 type  1   force =     0.00000572    0.00016753    0.01035830
     atom    8 type  1   force =    -0.00009299   -0.00002513    0.01030862
     atom    9 type  1   force =     0.00003968   -0.00010872    0.01000429
     atom   10 type  1   force =    -0.00016875   -0.00012936   -0.00189408
     atom   11 type  1   force =    -0.00005376   -0.00018125   -0.00194495
     atom   12 type  1   force =     0.00015382   -0.00043157   -0.00179755
     atom   13 type  1   force =    -0.00015807   -0.00011325   -0.00189215
     atom   14 type  1   force =     0.00022677    0.00009467   -0.00168839
     atom   15 type  1   force =     0.00015250    0.00006175   -0.00191587
     atom   16 type  1   force =    -0.00012207    0.00026649   -0.00175393
     atom   17 type  1   force =     0.00009725   -0.00004771   -0.00179142
     atom   18 type  1   force =     0.00012993    0.00015254   -0.00169470
     atom   19 type  1   force =    -0.00003181   -0.00036516    0.00183393
     atom   20 type  1   force =    -0.00118221   -0.00043153    0.00077553
     atom   21 type  1   force =     0.00072237   -0.00067405    0.00019165
     atom   22 type  1   force =    -0.00022045    0.00070925    0.00135171
     atom   23 type  1   force =    -0.00002723    0.00086333    0.00086217
     atom   24 type  1   force =     0.00038927    0.00036643    0.00192517
     atom   25 type  1   force =     0.00027306    0.00007568    0.00196780
     atom   26 type  1   force =    -0.00024571    0.00052797    0.00174413
     atom   27 type  1   force =     0.00060943   -0.00037175    0.00107188
     atom   28 type  1   force =     0.00154368    0.00029644   -0.00956938
     atom   29 type  1   force =     0.00310670    0.00989949   -0.00496806
     atom   30 type  1   force =    -0.00450170    0.00365379   -0.00774481
     atom   31 type  1   force =     0.00734944   -0.00385308   -0.00576654
     atom   32 type  1   force =    -0.00392713   -0.00453143    0.00169533
     atom   33 type  1   force =    -0.00595119    0.00207767   -0.00701845
     atom   34 type  1   force =     0.00328250   -0.00380126   -0.00760506
     atom   35 type  1   force =    -0.00314201   -0.00788239   -0.00627481
     atom   36 type  1   force =    -0.00084164    0.00051259   -0.01047390
     atom   37 type  2   force =     0.00088283    0.00003163   -0.00146801
     atom   38 type  3   force =    -0.00277319   -0.00188070    0.01953235
     atom   39 type  4   force =     0.00000000    0.00000000    0.00000000
     The Hubbard contrib.    to forces
     atom    1 type  1   force =     0.00000000    0.00000000    0.00000000
     atom    2 type  1   force =     0.00000000    0.00000000    0.00000000
     atom    3 type  1   force =     0.00000000    0.00000000    0.00000000
     atom    4 type  1   force =     0.00000000    0.00000000    0.00000000
     atom    5 type  1   force =     0.00000000    0.00000000    0.00000000
     atom    6 type  1   force =     0.00000000    0.00000000    0.00000000
     atom    7 type  1   force =     0.00000000    0.00000000    0.00000000
     atom    8 type  1   force =     0.00000000    0.00000000    0.00000000
     atom    9 type  1   force =     0.00000000    0.00000000    0.00000000
     atom   10 type  1   force =     0.00000000    0.00000000    0.00000000
     atom   11 type  1   force =     0.00000000    0.00000000    0.00000000
     atom   12 type  1   force =     0.00000000    0.00000000    0.00000000
     atom   13 type  1   force =     0.00000000    0.00000000    0.00000000
     atom   14 type  1   force =     0.00000000    0.00000000    0.00000000
     atom   15 type  1   force =     0.00000000    0.00000000    0.00000000
     atom   16 type  1   force =     0.00000000    0.00000000    0.00000000
     atom   17 type  1   force =     0.00000000    0.00000000    0.00000000
     atom   18 type  1   force =     0.00000000    0.00000000    0.00000000
     atom   19 type  1   force =     0.00000000    0.00000000    0.00000000
     atom   20 type  1   force =     0.00000000    0.00000000    0.00000000
     atom   21 type  1   force =     0.00000000    0.00000000    0.00000000
     atom   22 type  1   force =     0.00000000    0.00000000    0.00000000
     atom   23 type  1   force =     0.00000000    0.00000000    0.00000000
     atom   24 type  1   force =     0.00000000    0.00000000    0.00000000
     atom   25 type  1   force =     0.00000000    0.00000000    0.00000000
     atom   26 type  1   force =     0.00000000    0.00000000    0.00000000
     atom   27 type  1   force =     0.00000000    0.00000000    0.00000000
     atom   28 type  1   force =     0.00000000    0.00000000    0.00000000
     atom   29 type  1   force =     0.00000000    0.00000000    0.00000000
     atom   30 type  1   force =     0.00000000    0.00000000    0.00000000
     atom   31 type  1   force =     0.00000000    0.00000000    0.00000000
     atom   32 type  1   force =     0.00000000    0.00000000    0.00000000
     atom   33 type  1   force =     0.00000000    0.00000000    0.00000000
     atom   34 type  1   force =     0.00000000    0.00000000    0.00000000
     atom   35 type  1   force =     0.00000000    0.00000000    0.00000000
     atom   36 type  1   force =     0.00000000    0.00000000    0.00000000
     atom   37 type  2   force =     0.00000000    0.00000000    0.00000000
     atom   38 type  3   force =     0.00000000    0.00000000    0.00000000
     atom   39 type  4   force =     0.00000000    0.00000000    0.00000000
     The SCF correction term to forces
     atom    1 type  1   force =     0.00000000   -0.00000000    0.00000000
     atom    2 type  1   force =    -0.00000000   -0.00000000    0.00000000
     atom    3 type  1   force =    -0.00000000   -0.00000000    0.00000000
     atom    4 type  1   force =     0.00000000   -0.00000000    0.00000000
     atom    5 type  1   force =    -0.00000000   -0.00000000    0.00000000
     atom    6 type  1   force =     0.00000000   -0.00000000    0.00000000
     atom    7 type  1   force =    -0.00000000    0.00000000    0.00000000
     atom    8 type  1   force =    -0.00000000    0.00000000    0.00000000
     atom    9 type  1   force =     0.00000000    0.00000000    0.00000000
     atom   10 type  1   force =     0.00000000    0.00000000   -0.00000000
     atom   11 type  1   force =     0.00000000    0.00000000    0.00000000
     atom   12 type  1   force =    -0.00000000    0.00000000    0.00000000
     atom   13 type  1   force =     0.00000000   -0.00000000    0.00000000
     atom   14 type  1   force =    -0.00000000   -0.00000000    0.00000000
     atom   15 type  1   force =    -0.00000000   -0.00000000    0.00000000
     atom   16 type  1   force =     0.00000000   -0.00000000    0.00000000
     atom   17 type  1   force =    -0.00000000   -0.00000000    0.00000000
     atom   18 type  1   force =     0.00000000    0.00000000    0.00000000
     atom   19 type  1   force =     0.00000000    0.00000000   -0.00000000
     atom   20 type  1   force =     0.00000000    0.00000000   -0.00000000
     atom   21 type  1   force =    -0.00000000    0.00000000   -0.00000000
     atom   22 type  1   force =     0.00000000   -0.00000000   -0.00000000
     atom   23 type  1   force =    -0.00000000   -0.00000000   -0.00000000
     atom   24 type  1   force =     0.00000000   -0.00000000   -0.00000000
     atom   25 type  1   force =    -0.00000000   -0.00000000   -0.00000000
     atom   26 type  1   force =     0.00000000   -0.00000000   -0.00000000
     atom   27 type  1   force =     0.00000000   -0.00000000   -0.00000000
     atom   28 type  1   force =    -0.00000000    0.00000000   -0.00000000
     atom   29 type  1   force =     0.00000000    0.00000000   -0.00000000
     atom   30 type  1   force =     0.00000000    0.00000000   -0.00000000
     atom   31 type  1   force =     0.00000000    0.00000000   -0.00000000
     atom   32 type  1   force =    -0.00000000    0.00000000   -0.00000000
     atom   33 type  1   force =     0.00000000    0.00000000   -0.00000000
     atom   34 type  1   force =    -0.00000000   -0.00000000   -0.00000000
     atom   35 type  1   force =    -0.00000000   -0.00000000   -0.00000000
     atom   36 type  1   force =     0.00000000   -0.00000000   -0.00000000
     atom   37 type  2   force =    -0.00005228    0.00021087    0.00011103
     atom   38 type  3   force =    -0.00001012    0.00011336   -0.00011722
     atom   39 type  4   force =    -0.00001118   -0.00001484   -0.00002588

     Total force =     0.029545     Total SCF correction =     0.000295

     Writing all to output data dir ./pwscf.save/

     init_run     :     13.60s CPU     14.04s WALL (       1 calls)
     electrons    :    593.05s CPU    601.22s WALL (       1 calls)
     forces       :      3.08s CPU      3.14s WALL (       1 calls)

     Called by init_run:
     wfcinit      :      8.45s CPU      8.75s WALL (       1 calls)
     potinit      :      2.31s CPU      2.40s WALL (       1 calls)
     hinit0       :      2.43s CPU      2.46s WALL (       1 calls)

     Called by electrons:
     c_bands      :    497.15s CPU    503.71s WALL (      38 calls)
     sum_band     :     64.94s CPU     65.89s WALL (      38 calls)
     v_of_rho     :      7.03s CPU      7.18s WALL (      39 calls)
     newd         :      2.88s CPU      2.93s WALL (      39 calls)
     PAW_pot      :     13.35s CPU     13.49s WALL (      39 calls)
     mix_rho      :      9.15s CPU      9.30s WALL (      38 calls)
     vdW_kernel   :      1.08s CPU      1.09s WALL (       1 calls)

     Called by c_bands:
     init_us_2    :      4.79s CPU      4.91s WALL (    2028 calls)
     init_us_2:cp :      4.78s CPU      4.91s WALL (    2028 calls)
     cegterg      :    482.08s CPU    488.18s WALL (     988 calls)

     Called by *egterg:
     cdiaghg      :    163.36s CPU    164.66s WALL (    3525 calls)
     h_psi        :    210.25s CPU    213.95s WALL (    3551 calls)
     s_psi        :     21.21s CPU     21.46s WALL (    3551 calls)
     g_psi        :      0.43s CPU      0.43s WALL (    2537 calls)

     Called by h_psi:
     h_psi:calbec :     32.32s CPU     32.93s WALL (    3551 calls)
     vloc_psi     :    154.55s CPU    157.08s WALL (    3551 calls)
     add_vuspsi   :     22.28s CPU     22.82s WALL (    3551 calls)

     General routines
     calbec       :     48.20s CPU     49.05s WALL (    4643 calls)
     fft          :      6.39s CPU      6.52s WALL (    3548 calls)
     ffts         :      5.21s CPU      5.31s WALL (   13147 calls)
     fftw         :    181.40s CPU    184.27s WALL ( 1033208 calls)
     interpolate  :      0.48s CPU      0.49s WALL (      78 calls)

     Parallel routines

     PWSCF        :  10m15.71s CPU  10m29.07s WALL


   This run was terminated on:  14:49:24   2Dec2025            

=------------------------------------------------------------------------------=
   JOB DONE.
=------------------------------------------------------------------------------=
