
     Program PWSCF v.7.1 starts on  5Dec2025 at  0:35:58 
        Git branch: heads/qe-7.1
        Last git commit: 48ba0178f8fede6d020eb786884699a9f063f55d-dirty
        Last git commit date: Fri Jan 27 14:22:33 2023 +0000
        Last git commit subject: Merge branch 'fix_hubbard' into 'develop'

     This program is part of the open-source Quantum ESPRESSO suite
     for quantum simulation of materials; please cite
         "P. Giannozzi et al., J. Phys.:Condens. Matter 21 395502 (2009);
         "P. Giannozzi et al., J. Phys.:Condens. Matter 29 465901 (2017);
         "P. Giannozzi et al., J. Chem. Phys. 152 154105 (2020);
          URL http://www.quantum-espresso.org", 
     in publications or presentations arising from this work. More details at
     http://www.quantum-espresso.org/quote

     Parallel version (MPI), running on    48 processors

     MPI processes distributed on     1 nodes
     101057 MiB available memory on the printing compute node when the environment starts

     Reading input from espresso.pwi
Warning: card &CELL ignored
Warning: card / ignored
Warning: card &FCP ignored
Warning: card / ignored
Warning: card &RISM ignored
Warning: card / ignored

     Current dimensions of program PWSCF are:
     Max number of different atomic species (ntypx) = 10
     Max number of k-points (npk) =  40000
     Max angular momentum in pseudopotentials (lmaxx) =  4
     file Pt.pbe-n-kjpaw_psl.1.0.0.UPF: wavefunction(s)  6S 5D renormalized
     file C.pbe-n-kjpaw_psl.1.0.0.UPF: wavefunction(s)  2S 2P renormalized
     file H.pbe-kjpaw_psl.1.0.0.UPF: wavefunction(s)  1S renormalized

     **************************************************************************
     Initializing libbeef V0.1.2 with the BEEF-vdW functional.
     Citation: Wellendorff et al., PRB 85, 235149 (2012).
     **************************************************************************


     IMPORTANT: XC functional enforced from input :
     Exchange-correlation= BEEF-VDW
                           (   1   4  43  14   2   0   0)
     Any further DFT definition will be discarded
     Please, verify this is what you really want


     R & G space division:  proc/nbgrp/npool/nimage =      48
     Subspace diagonalization in iterative solution of the eigenvalue problem:
     one sub-group per band group will be used
     custom distributed-memory algorithm (size of sub-group:  2*  2 procs)


     Parallelization info
     --------------------
     sticks:   dense  smooth     PW     G-vecs:    dense   smooth      PW
     Min         151      59     16                29407     7165    1028
     Max         152      60     17                29420     7176    1042
     Sum        7267    2839    769              1411785   344073   49691

     Using Slab Decomposition



     bravais-lattice index     =            0
     lattice parameter (alat)  =      16.0349  a.u.
     unit-cell volume          =   10068.6169 (a.u.)^3
     number of atoms/cell      =           39
     number of atomic types    =            3
     number of electrons       =       369.00
     number of Kohn-Sham states=          222
     kinetic-energy cutoff     =      40.0000  Ry
     charge density cutoff     =     410.0000  Ry
     scf convergence threshold =      1.0E-06
     mixing beta               =       0.7000
     number of iterations used =            8  local-TF  mixing
     Exchange-correlation= BEEF-VDW
                           (   1   4  43  14   2   0   0)

     celldm(1)=  16.034858  celldm(2)=   0.000000  celldm(3)=   0.000000
     celldm(4)=   0.000000  celldm(5)=   0.000000  celldm(6)=   0.000000

     crystal axes: (cart. coord. in units of alat)
               a(1) = (   1.000000   0.000000   0.000000 )  
               a(2) = (   0.500000   0.866025   0.000000 )  
               a(3) = (   0.000000   0.000000   2.819966 )  

     reciprocal axes: (cart. coord. in units 2 pi/alat)
               b(1) = (  1.000000 -0.577350  0.000000 )  
               b(2) = (  0.000000  1.154701  0.000000 )  
               b(3) = (  0.000000  0.000000  0.354614 )  


     PseudoPot. # 1 for Pt read from file:
     /users/kbadger1/espresso/pseudo/pslibrary.1.0.0/pbe/PSEUDOPOTENTIALS/Pt.pbe-n-kjpaw_psl.1.0.0.UPF
     MD5 check sum: 2e24a0b5bf98a4ed1a57fa81bca8c143
     Pseudo is Projector augmented-wave + core cor, Zval = 10.0
     Generated using 'atomic' code by A. Dal Corso  v.7.0
     Shape of augmentation charge: PSQ
     Using radial grid of 1277 points,  6 beta functions with: 
                l(1) =   0
                l(2) =   0
                l(3) =   1
                l(4) =   1
                l(5) =   2
                l(6) =   2
     Q(r) pseudized with 0 coefficients 


     PseudoPot. # 2 for C  read from file:
     /users/kbadger1/espresso/pseudo/pslibrary.1.0.0/pbe/PSEUDOPOTENTIALS/C.pbe-n-kjpaw_psl.1.0.0.UPF
     MD5 check sum: 6408e75cdba28732cea38a4db8498ce4
     Pseudo is Projector augmented-wave + core cor, Zval =  4.0
     Generated using 'atomic' code by A. Dal Corso  v.7.0
     Shape of augmentation charge: PSQ
     Using radial grid of 1073 points,  4 beta functions with: 
                l(1) =   0
                l(2) =   0
                l(3) =   1
                l(4) =   1
     Q(r) pseudized with 0 coefficients 


     PseudoPot. # 3 for H  read from file:
     /users/kbadger1/espresso/pseudo/pslibrary.1.0.0/pbe/PSEUDOPOTENTIALS/H.pbe-kjpaw_psl.1.0.0.UPF
     MD5 check sum: fe4c6fa958fa6d3815bf5d2419cbf1df
     Pseudo is Projector augmented-wave, Zval =  1.0
     Generated using 'atomic' code by A. Dal Corso  v.7.0
     Shape of augmentation charge: PSQ
     Using radial grid of  929 points,  2 beta functions with: 
                l(1) =   0
                l(2) =   0
     Q(r) pseudized with 0 coefficients 


     atomic species   valence    mass     pseudopotential
        Pt            10.00   195.08400     Pt( 1.00)
        C              4.00    12.01100     C ( 1.00)
        H              1.00     1.00800     H ( 1.00)

     No symmetry found



   Cartesian axes

     site n.     atom                  positions (alat units)
         1           Pt  tau(   1) = (   0.0000000   0.0000000   1.0017346  )
         2           Pt  tau(   2) = (   0.3333333   0.0000000   1.0017346  )
         3           Pt  tau(   3) = (   0.6666667   0.0000000   1.0017346  )
         4           Pt  tau(   4) = (   0.1666667   0.2886751   1.0017346  )
         5           Pt  tau(   5) = (   0.5000000   0.2886751   1.0017346  )
         6           Pt  tau(   6) = (   0.8333333   0.2886751   1.0017346  )
         7           Pt  tau(   7) = (   0.3333333   0.5773503   1.0017346  )
         8           Pt  tau(   8) = (   0.6666667   0.5773503   1.0017346  )
         9           Pt  tau(   9) = (   1.0000000   0.5773503   1.0017346  )
        10           Pt  tau(  10) = (   0.1666667   0.0962250   1.2739001  )
        11           Pt  tau(  11) = (   0.5000000   0.0962250   1.2739001  )
        12           Pt  tau(  12) = (   0.8333333   0.0962250   1.2739001  )
        13           Pt  tau(  13) = (   0.3333333   0.3849002   1.2739001  )
        14           Pt  tau(  14) = (   0.6666667   0.3849002   1.2739001  )
        15           Pt  tau(  15) = (   1.0000000   0.3849002   1.2739001  )
        16           Pt  tau(  16) = (   0.5000000   0.6735753   1.2739001  )
        17           Pt  tau(  17) = (   0.8333333   0.6735753   1.2739001  )
        18           Pt  tau(  18) = (   1.1666667   0.6735753   1.2739001  )
        19           Pt  tau(  19) = (   0.0019532   0.1915618   1.5496873  )
        20           Pt  tau(  20) = (   0.3308347   0.1915018   1.5496077  )
        21           Pt  tau(  21) = (   0.6664360   0.1929444   1.5385852  )
        22           Pt  tau(  22) = (   0.1664134   0.4786585   1.5475566  )
        23           Pt  tau(  23) = (   0.4978746   0.4818201   1.5447367  )
        24           Pt  tau(  24) = (   0.8350400   0.4818411   1.5447701  )
        25           Pt  tau(  25) = (   0.3357098   0.7701650   1.5475874  )
        26           Pt  tau(  26) = (   0.6664126   0.7706544   1.5480336  )
        27           Pt  tau(  27) = (   0.9971291   0.7701311   1.5475691  )
        28           Pt  tau(  28) = (  -0.0051368  -0.0035964   1.8368966  )
        29           Pt  tau(  29) = (   0.3374795  -0.0037969   1.8367525  )
        30           Pt  tau(  30) = (   0.6661407   0.0037239   1.8135000  )
        31           Pt  tau(  31) = (   0.1662575   0.2843327   1.8510523  )
        32           Pt  tau(  32) = (   0.5042094   0.2863965   1.8145404  )
        33           Pt  tau(  33) = (   0.8280232   0.2863984   1.8145460  )
        34           Pt  tau(  34) = (   0.3412901   0.5803199   1.8289812  )
        35           Pt  tau(  35) = (   0.6662859   0.5716671   1.8166782  )
        36           Pt  tau(  36) = (   0.9911967   0.5801609   1.8291645  )
        37           C   tau(  37) = (   0.1662711   0.0777506   1.9723524  )
        38           H   tau(  38) = (   0.1663287   0.0742083   2.1009844  )
        39           C   tau(  39) = (   0.1663523   0.4958700   1.9434160  )

     number of k points=    13  Marzari-Vanderbilt smearing, width (Ry)=  0.0010
                       cart. coord. in units 2pi/alat
        k(    1) = (   0.0000000   0.0000000   0.0000000), wk =   0.0800000
        k(    2) = (   0.0000000   0.2309401   0.0000000), wk =   0.1600000
        k(    3) = (   0.0000000   0.4618802   0.0000000), wk =   0.1600000
        k(    4) = (   0.2000000  -0.1154701   0.0000000), wk =   0.1600000
        k(    5) = (   0.2000000   0.1154701   0.0000000), wk =   0.1600000
        k(    6) = (   0.2000000   0.3464102   0.0000000), wk =   0.1600000
        k(    7) = (   0.2000000  -0.5773503   0.0000000), wk =   0.1600000
        k(    8) = (   0.2000000  -0.3464102   0.0000000), wk =   0.1600000
        k(    9) = (   0.4000000  -0.2309401   0.0000000), wk =   0.1600000
        k(   10) = (   0.4000000  -0.0000000   0.0000000), wk =   0.1600000
        k(   11) = (   0.4000000   0.2309401   0.0000000), wk =   0.1600000
        k(   12) = (   0.4000000  -0.6928203   0.0000000), wk =   0.1600000
        k(   13) = (   0.4000000  -0.4618802   0.0000000), wk =   0.1600000

     Dense  grid:  1411785 G-vectors     FFT dimensions: ( 108, 108, 300)

     Smooth grid:   344073 G-vectors     FFT dimensions: (  72,  72, 192)

     Estimated max dynamical RAM per process >     207.37 MB

     Estimated total dynamical RAM >       9.72 GB

     Initial potential from superposition of free atoms

     starting charge     368.9938, renormalised to     369.0000

     negative rho (up, down):  3.167E-03 0.000E+00


     %%%%%%%%%%%%%%%%%%%%%%%%%%%%%%%%%%%%%%%%%%%%%%%%%%%%%%%%%%%%%%%%%%%%%%%%
     %                                                                      %
     % You are using vdW-DF, which was implemented by the Thonhauser group. %
     % Please cite the following two papers that made this development      %
     % possible and the two reviews that describe the various versions:     %
     %                                                                      %
     %   T. Thonhauser et al., PRL 115, 136402 (2015).                      %
     %   T. Thonhauser et al., PRB 76, 125112 (2007).                       %
     %   K. Berland et al., Rep. Prog. Phys. 78, 066501 (2015).             %
     %   D.C. Langreth et al., J. Phys.: Condens. Matter 21, 084203 (2009). %
     %                                                                      %
     % If you are calculating stress with vdW-DF, please also cite:         %
     %                                                                      %
     %   R. Sabatini et al., J. Phys.: Condens. Matter 24, 424209 (2012).   %
     %                                                                      %
     %%%%%%%%%%%%%%%%%%%%%%%%%%%%%%%%%%%%%%%%%%%%%%%%%%%%%%%%%%%%%%%%%%%%%%%%

     %%%%%%%%%%%%%%%%%%%%%%%%%%%%%%%%%%%%%%%%%%%%%%%%%%%%%%%%%%%%%%%%%%%%%%%%
     %                                                                      %
     %  vdW-DF NEWS:                                                        %
     %                                                                      %
     %  * vdW-DF3 is now available. DOI: 10.1021/acs.jctc.0c00471           %
     %    use with input_dft = 'vdW-DF3-opt1' or 'vdW-DF3-opt2'             %
     %                                                                      %
     %  * Unscreened and range-separated hybrid vdW-DF-cx functionals       %
     %    DOI: 10.1063/1.4986522 and 10.1088/1361-648X/ac2ad2               %
     %    use with input_dft = 'vdW-DF-cx0'    and 'vdW-DF-ahcx'            %
     %  * Unscreened and range-separated hybrid vdW-DF2-b86r functionals    %
     %    DOI: 10.1063/1.4986522 and DOI: 10.1103/PhysRevX.12.041003        %
     %    use with input_dft = 'vdW-DF2-br0' and 'vdW-DF2-ahbr'             %
     %                                                                      %
     %%%%%%%%%%%%%%%%%%%%%%%%%%%%%%%%%%%%%%%%%%%%%%%%%%%%%%%%%%%%%%%%%%%%%%%%


     Starting wfcs are  333 randomized atomic wfcs
     Checking if some PAW data can be deallocated... 

     total cpu time spent up to now is       11.9 secs

     per-process dynamical memory:   212.6 Mb

     Self-consistent Calculation

     iteration #  1     ecut=    40.00 Ry     beta= 0.70
     Davidson diagonalization with overlap
     ethr =  1.00E-02,  avg # of iterations =  2.0

     Threshold (ethr) on eigenvalues was too large:
     Diagonalizing with lowered threshold

     Davidson diagonalization with overlap
     ethr =  6.72E-04,  avg # of iterations =  2.8

     negative rho (up, down):  1.064E-02 0.000E+00

     total cpu time spent up to now is       40.5 secs

     total energy              =  -27792.93310948 Ry
     estimated scf accuracy    <       2.76220838 Ry

     iteration #  2     ecut=    40.00 Ry     beta= 0.70
     Davidson diagonalization with overlap
     ethr =  7.49E-04,  avg # of iterations =  2.0

     negative rho (up, down):  7.603E-03 0.000E+00

     total cpu time spent up to now is       53.2 secs

     total energy              =  -27793.26277729 Ry
     estimated scf accuracy    <       0.79717347 Ry

     iteration #  3     ecut=    40.00 Ry     beta= 0.70
     Davidson diagonalization with overlap
     ethr =  2.16E-04,  avg # of iterations =  3.2

     negative rho (up, down):  4.671E-03 0.000E+00

     total cpu time spent up to now is       67.3 secs

     total energy              =  -27793.33767000 Ry
     estimated scf accuracy    <       0.28813671 Ry

     iteration #  4     ecut=    40.00 Ry     beta= 0.70
     Davidson diagonalization with overlap
     ethr =  7.81E-05,  avg # of iterations = 10.6

     negative rho (up, down):  1.676E-03 0.000E+00

     total cpu time spent up to now is       88.4 secs

     total energy              =  -27793.37207614 Ry
     estimated scf accuracy    <       0.07647475 Ry

     iteration #  5     ecut=    40.00 Ry     beta= 0.70
     Davidson diagonalization with overlap
     ethr =  2.07E-05,  avg # of iterations =  7.3

     negative rho (up, down):  8.737E-04 0.000E+00

     total cpu time spent up to now is      113.8 secs

     total energy              =  -27793.39162160 Ry
     estimated scf accuracy    <       0.06282115 Ry

     iteration #  6     ecut=    40.00 Ry     beta= 0.70
     Davidson diagonalization with overlap
     ethr =  1.70E-05,  avg # of iterations =  1.8

     negative rho (up, down):  2.648E-04 0.000E+00

     total cpu time spent up to now is      126.4 secs

     total energy              =  -27793.39317233 Ry
     estimated scf accuracy    <       0.00862338 Ry

     iteration #  7     ecut=    40.00 Ry     beta= 0.70
     Davidson diagonalization with overlap
     c_bands:  1 eigenvalues not converged
     c_bands:  1 eigenvalues not converged
     c_bands:  2 eigenvalues not converged
     c_bands:  1 eigenvalues not converged
     c_bands:  1 eigenvalues not converged
     ethr =  2.34E-06,  avg # of iterations = 17.4

     negative rho (up, down):  1.012E-04 0.000E+00

     total cpu time spent up to now is      168.4 secs

     total energy              =  -27793.39456456 Ry
     estimated scf accuracy    <       0.00525971 Ry

     iteration #  8     ecut=    40.00 Ry     beta= 0.70
     Davidson diagonalization with overlap
     c_bands:  2 eigenvalues not converged
     c_bands:  2 eigenvalues not converged
     ethr =  1.43E-06,  avg # of iterations =  5.2

     negative rho (up, down):  6.969E-05 0.000E+00

     total cpu time spent up to now is      184.8 secs

     total energy              =  -27793.39486399 Ry
     estimated scf accuracy    <       0.00090123 Ry

     iteration #  9     ecut=    40.00 Ry     beta= 0.70
     Davidson diagonalization with overlap
     ethr =  2.44E-07,  avg # of iterations =  4.8

     negative rho (up, down):  6.916E-05 0.000E+00

     total cpu time spent up to now is      203.4 secs

     total energy              =  -27793.39505663 Ry
     estimated scf accuracy    <       0.00074991 Ry

     iteration # 10     ecut=    40.00 Ry     beta= 0.70
     Davidson diagonalization with overlap
     ethr =  2.03E-07,  avg # of iterations =  1.5

     negative rho (up, down):  9.021E-05 0.000E+00

     total cpu time spent up to now is      215.5 secs

     total energy              =  -27793.39509714 Ry
     estimated scf accuracy    <       0.00058896 Ry

     iteration # 11     ecut=    40.00 Ry     beta= 0.70
     Davidson diagonalization with overlap
     ethr =  1.60E-07,  avg # of iterations =  2.7

     negative rho (up, down):  1.769E-04 0.000E+00

     total cpu time spent up to now is      228.7 secs

     total energy              =  -27793.39516961 Ry
     estimated scf accuracy    <       0.00034818 Ry

     iteration # 12     ecut=    40.00 Ry     beta= 0.70
     Davidson diagonalization with overlap
     ethr =  9.44E-08,  avg # of iterations =  5.2

     negative rho (up, down):  3.075E-04 0.000E+00

     total cpu time spent up to now is      245.1 secs

     total energy              =  -27793.39522011 Ry
     estimated scf accuracy    <       0.00018099 Ry

     iteration # 13     ecut=    40.00 Ry     beta= 0.70
     Davidson diagonalization with overlap
     ethr =  4.90E-08,  avg # of iterations =  2.6

     negative rho (up, down):  7.753E-04 0.000E+00

     total cpu time spent up to now is      258.2 secs

     total energy              =  -27793.39529303 Ry
     estimated scf accuracy    <       0.00008105 Ry

     iteration # 14     ecut=    40.00 Ry     beta= 0.70
     Davidson diagonalization with overlap
     ethr =  2.20E-08,  avg # of iterations =  5.4

     negative rho (up, down):  1.113E-03 0.000E+00

     total cpu time spent up to now is      273.3 secs

     total energy              =  -27793.39532452 Ry
     estimated scf accuracy    <       0.00004824 Ry

     iteration # 15     ecut=    40.00 Ry     beta= 0.70
     Davidson diagonalization with overlap
     ethr =  1.31E-08,  avg # of iterations =  1.8

     negative rho (up, down):  2.221E-03 0.000E+00

     total cpu time spent up to now is      286.1 secs

     total energy              =  -27793.39533608 Ry
     estimated scf accuracy    <       0.00003334 Ry

     iteration # 16     ecut=    40.00 Ry     beta= 0.70
     Davidson diagonalization with overlap
     ethr =  9.04E-09,  avg # of iterations =  3.8

     negative rho (up, down):  2.656E-03 0.000E+00

     total cpu time spent up to now is      300.2 secs

     total energy              =  -27793.39533739 Ry
     estimated scf accuracy    <       0.00000645 Ry

     iteration # 17     ecut=    40.00 Ry     beta= 0.70
     Davidson diagonalization with overlap
     ethr =  1.75E-09,  avg # of iterations =  4.2

     negative rho (up, down):  3.090E-03 0.000E+00

     total cpu time spent up to now is      320.1 secs

     total energy              =  -27793.39533748 Ry
     estimated scf accuracy    <       0.00000692 Ry

     iteration # 18     ecut=    40.00 Ry     beta= 0.70
     Davidson diagonalization with overlap
     ethr =  1.75E-09,  avg # of iterations =  1.1

     negative rho (up, down):  3.089E-03 0.000E+00

     total cpu time spent up to now is      331.6 secs

     End of self-consistent calculation

          k = 0.0000 0.0000 0.0000 ( 42913 PWs)   bands (ev):

   -10.0079  -9.3391  -5.9030  -4.7797  -4.5288  -4.0870  -3.7490  -3.6011
    -3.5763  -3.5448  -3.5225  -3.4962  -3.4146  -3.3941  -3.2614  -3.2122
    -3.0062  -3.0003  -2.9339  -2.8941  -2.8691  -2.8589  -2.6965  -2.5935
    -2.5848  -2.4298  -2.4012  -2.3761  -2.3570  -2.3535  -2.3324  -2.2827
    -2.2438  -2.2094  -2.1961  -2.1632  -2.1564  -2.1052  -2.0566  -2.0191
    -1.9893  -1.9537  -1.9310  -1.9152  -1.7098  -1.7047  -1.6463  -1.5740
    -1.5120  -1.5113  -1.4738  -1.4456  -1.4125  -1.4026  -1.3418  -1.3054
    -1.2118  -1.2098  -1.1603  -1.1427  -1.1118  -0.9143  -0.8711  -0.7951
    -0.7395  -0.7360  -0.7141  -0.6595  -0.6538  -0.6105  -0.5129  -0.5062
    -0.4853  -0.4496  -0.4493  -0.4432  -0.4258  -0.4166  -0.4034  -0.3902
    -0.3583  -0.3456  -0.3373  -0.3299  -0.3294  -0.3134  -0.2736  -0.2656
    -0.2483  -0.1933  -0.1736  -0.0591  -0.0407  -0.0389  -0.0232   0.0178
     0.0212   0.0478   0.0587   0.0863   0.1262   0.1546   0.1641   0.1817
     0.2059   0.2118   0.2505   0.2842   0.3014   0.3287   0.3617   0.4220
     0.4231   0.6001   0.6309   0.6650   0.6961   0.7639   0.7913   0.8119
     0.8968   0.9731   0.9783   0.9986   1.0107   1.0616   1.0643   1.0842
     1.0873   1.1200   1.1454   1.1611   1.2449   1.2607   1.3383   1.3435
     1.3940   1.4043   1.4467   1.4799   1.4958   1.5518   1.5562   1.6139
     1.6229   1.6345   1.6449   1.6633   1.7373   1.7835   1.8267   1.8632
     1.8698   1.9253   1.9547   1.9605   1.9951   1.9957   2.0058   2.0363
     2.0445   2.0670   2.0726   2.0924   2.1028   2.1223   2.1292   2.1298
     2.1422   2.1648   2.1907   2.2074   2.2315   2.2426   2.2750   2.3127
     2.3236   2.3587   2.3828   2.4027   2.4060   2.4267   2.4306   2.4706
     2.4718   2.4984   2.5303   2.5705   2.5753   2.6979   2.7139   2.7455
     2.7960   2.8170   2.8331   2.8402   2.8581   2.9374   3.0715   3.2278
     3.3847   3.4720   3.6808   3.7202   4.3915   4.6161   4.7265   4.9571
     5.4983   5.6747   5.9109   6.0083   6.2679   6.2901   6.8270   7.1005
     7.6551   7.6733   7.7250   7.7649   7.8105   7.8427

          k = 0.0000 0.2309 0.0000 ( 42996 PWs)   bands (ev):

    -9.9870  -9.3582  -5.7615  -4.7644  -4.4093  -4.0306  -4.0247  -3.7169
    -3.5447  -3.5436  -3.4486  -3.4090  -3.2920  -3.2337  -3.2266  -3.2042
    -3.0147  -2.9532  -2.9253  -2.8482  -2.8446  -2.8043  -2.7341  -2.5740
    -2.5109  -2.5039  -2.4469  -2.4089  -2.4064  -2.3323  -2.2944  -2.2612
    -2.2516  -2.2184  -2.2038  -2.1652  -2.1424  -2.1100  -2.0630  -2.0081
    -1.9752  -1.9219  -1.8440  -1.8255  -1.7478  -1.7216  -1.6612  -1.5963
    -1.5750  -1.5503  -1.5477  -1.4789  -1.4214  -1.3869  -1.3604  -1.3457
    -1.2833  -1.2528  -1.1685  -1.1107  -1.1027  -0.9467  -0.8778  -0.8758
    -0.8369  -0.8184  -0.7826  -0.7822  -0.7492  -0.7166  -0.6925  -0.6503
    -0.5977  -0.5578  -0.5178  -0.5013  -0.4928  -0.4754  -0.4351  -0.4149
    -0.3553  -0.3334  -0.3094  -0.2830  -0.2557  -0.2476  -0.2438  -0.2313
    -0.2027  -0.1473  -0.0966  -0.0958  -0.0855  -0.0589  -0.0398  -0.0234
    -0.0155   0.0104   0.0272   0.0528   0.0690   0.1093   0.1296   0.1451
     0.1650   0.1830   0.2407   0.2568   0.3403   0.3512   0.3876   0.4301
     0.4339   0.4508   0.4524   0.4779   0.4813   0.6241   0.6541   0.6931
     0.7343   0.8238   0.8307   0.8490   0.8793   0.9345   1.0022   1.0672
     1.1159   1.1206   1.1464   1.1732   1.2148   1.2414   1.2633   1.2705
     1.3214   1.3225   1.3684   1.4079   1.4216   1.4514   1.4931   1.5141
     1.5680   1.5867   1.6215   1.6486   1.6814   1.6906   1.7500   1.8013
     1.8131   1.8358   1.8435   1.9434   1.9501   1.9930   2.0085   2.0296
     2.0508   2.0785   2.0828   2.1071   2.1375   2.1738   2.2260   2.2666
     2.2905   2.3642   2.3734   2.3867   2.4031   2.4093   2.4441   2.4675
     2.5084   2.5173   2.5378   2.5606   2.5620   2.6234   2.6871   2.6977
     2.7273   2.7385   2.7487   2.7660   2.8103   2.8321   2.8522   2.8566
     2.9114   2.9730   2.9905   3.0509   3.1098   3.1576   3.2715   3.3793
     3.5634   3.7675   3.8898   4.2827   4.4096   4.6832   4.7274   5.1599
     5.2442   5.6047   6.0056   6.1695   6.3337   6.4844   6.6391   6.8483
     6.9571   7.2095   7.5385   7.6294   7.8173   7.8851

          k = 0.0000 0.4619 0.0000 ( 43046 PWs)   bands (ev):

    -9.9502  -9.3922  -5.3600  -4.8348  -4.5929  -4.0510  -3.9125  -3.7321
    -3.6307  -3.4842  -3.4733  -3.2516  -3.2008  -3.0940  -3.0880  -3.0401
    -2.9443  -2.9103  -2.8567  -2.7460  -2.7409  -2.7098  -2.6517  -2.6316
    -2.5687  -2.5428  -2.5409  -2.4957  -2.4629  -2.4220  -2.4128  -2.3209
    -2.3167  -2.1822  -2.1690  -2.1028  -2.1025  -2.0273  -2.0027  -1.9770
    -1.8925  -1.8922  -1.8631  -1.8436  -1.7643  -1.7494  -1.6786  -1.6749
    -1.5846  -1.5686  -1.5521  -1.4948  -1.4818  -1.4000  -1.3933  -1.3774
    -1.3164  -1.2833  -1.2367  -1.2148  -1.1537  -1.1105  -1.0714  -1.0148
    -0.9620  -0.9329  -0.8832  -0.8653  -0.8445  -0.8034  -0.7810  -0.7086
    -0.7025  -0.6727  -0.6402  -0.6330  -0.5804  -0.5234  -0.5127  -0.4428
    -0.4346  -0.3975  -0.3328  -0.3321  -0.3214  -0.3001  -0.2996  -0.2424
    -0.2391  -0.2061  -0.2004  -0.1702  -0.1464  -0.1334  -0.0946  -0.0716
    -0.0218  -0.0135   0.0109   0.0172   0.0537   0.0836   0.0909   0.1312
     0.1749   0.1945   0.2034   0.2363   0.2879   0.3192   0.3855   0.3860
     0.4090   0.4292   0.4473   0.4691   0.5371   0.6054   0.6256   0.6844
     0.6950   0.7562   0.7878   0.8054   0.8259   0.8478   0.8584   0.8939
     0.9361   0.9404   0.9996   1.0764   1.0765   1.1045   1.1319   1.1576
     1.2031   1.2273   1.2642   1.3446   1.3545   1.4139   1.4359   1.5122
     1.5369   1.5745   1.5958   1.6176   1.6657   1.6816   1.7062   1.7497
     1.7571   1.7924   1.8441   1.8853   1.9091   1.9500   1.9555   2.0348
     2.0389   2.0606   2.1204   2.1593   2.2101   2.2366   2.3092   2.3386
     2.3910   2.4052   2.4106   2.4528   2.4609   2.5003   2.5359   2.5480
     2.6147   2.6220   2.6758   2.6763   2.7306   2.7367   2.7385   2.8173
     2.8603   2.9029   2.9842   2.9857   2.9940   3.0010   3.0673   3.1370
     3.2361   3.2715   3.4695   3.6127   3.9397   3.9424   4.1420   4.2345
     4.2353   4.4875   4.5368   4.6868   4.8606   4.9049   5.1995   5.2807
     5.3788   5.4760   5.6052   5.6385   6.0015   6.1114   6.2863   6.4816
     6.5154   6.8625   7.0514   7.1744   7.3283   7.7227

          k = 0.2000-0.1155 0.0000 ( 42996 PWs)   bands (ev):

    -9.9950  -9.3464  -5.7627  -4.7404  -4.4352  -4.1623  -3.8855  -3.6868
    -3.6107  -3.5164  -3.4362  -3.3912  -3.3200  -3.2628  -3.1765  -3.1411
    -3.0878  -2.9895  -2.9370  -2.8959  -2.8172  -2.7933  -2.6738  -2.5964
    -2.5560  -2.5006  -2.4379  -2.4142  -2.3910  -2.3146  -2.2888  -2.2661
    -2.2477  -2.2199  -2.2015  -2.1876  -2.1338  -2.1075  -2.0594  -2.0143
    -1.9772  -1.9114  -1.8641  -1.8222  -1.7604  -1.7075  -1.6576  -1.6050
    -1.5744  -1.5575  -1.5017  -1.4630  -1.4351  -1.3987  -1.3662  -1.3144
    -1.2819  -1.2322  -1.1840  -1.1372  -1.1189  -0.9562  -0.9004  -0.8790
    -0.8454  -0.8122  -0.8022  -0.7639  -0.7328  -0.7012  -0.6862  -0.6323
    -0.6095  -0.5854  -0.5276  -0.5076  -0.4856  -0.4799  -0.4331  -0.4108
    -0.3439  -0.3370  -0.3127  -0.2929  -0.2767  -0.2599  -0.2486  -0.2111
    -0.1923  -0.1632  -0.1401  -0.1215  -0.0875  -0.0688  -0.0467  -0.0294
    -0.0049   0.0086   0.0465   0.0812   0.1047   0.1069   0.1283   0.1393
     0.1572   0.1759   0.2287   0.2768   0.3182   0.3732   0.3847   0.4066
     0.4393   0.4487   0.4530   0.4936   0.5509   0.5655   0.6449   0.6918
     0.7512   0.7631   0.8190   0.8466   0.9119   0.9735   0.9871   1.0580
     1.1087   1.1288   1.1468   1.1845   1.2164   1.2462   1.2706   1.2910
     1.3042   1.3324   1.3937   1.4206   1.4603   1.4772   1.5066   1.5431
     1.5936   1.5988   1.6186   1.6508   1.7096   1.7357   1.7561   1.7825
     1.8168   1.8452   1.8630   1.9275   1.9830   1.9941   2.0140   2.0483
     2.0574   2.0777   2.0898   2.1270   2.1741   2.1832   2.2084   2.2789
     2.2924   2.3301   2.3616   2.3683   2.3882   2.4085   2.4282   2.4504
     2.4801   2.5207   2.5316   2.5595   2.5759   2.6273   2.6690   2.6989
     2.7209   2.7332   2.7586   2.7641   2.8084   2.8134   2.8301   2.8574
     2.8923   2.9642   2.9788   3.0549   3.0908   3.1523   3.2156   3.3334
     3.6121   3.7480   3.9619   4.1946   4.4711   4.6636   4.7020   5.0715
     5.4037   5.6154   5.9064   6.0641   6.3250   6.5045   6.6728   6.7101
     6.9427   7.2870   7.4988   7.7538   7.8680   7.8998

          k = 0.2000 0.1155 0.0000 ( 42996 PWs)   bands (ev):

    -9.9950  -9.3464  -5.7627  -4.7404  -4.4351  -4.1621  -3.8853  -3.6867
    -3.6110  -3.5169  -3.4362  -3.3911  -3.3194  -3.2632  -3.1766  -3.1413
    -3.0881  -2.9892  -2.9362  -2.8956  -2.8174  -2.7936  -2.6737  -2.5965
    -2.5556  -2.5010  -2.4381  -2.4144  -2.3908  -2.3142  -2.2888  -2.2659
    -2.2476  -2.2197  -2.2012  -2.1877  -2.1338  -2.1080  -2.0595  -2.0146
    -1.9773  -1.9113  -1.8647  -1.8222  -1.7601  -1.7077  -1.6581  -1.6052
    -1.5749  -1.5573  -1.5016  -1.4630  -1.4346  -1.3990  -1.3663  -1.3145
    -1.2816  -1.2326  -1.1839  -1.1368  -1.1194  -0.9568  -0.9007  -0.8799
    -0.8458  -0.8126  -0.8023  -0.7645  -0.7336  -0.7005  -0.6857  -0.6326
    -0.6085  -0.5856  -0.5280  -0.5083  -0.4861  -0.4794  -0.4307  -0.4094
    -0.3439  -0.3371  -0.3121  -0.2935  -0.2767  -0.2598  -0.2488  -0.2109
    -0.1930  -0.1627  -0.1406  -0.1213  -0.0873  -0.0686  -0.0459  -0.0297
    -0.0056   0.0076   0.0459   0.0816   0.1049   0.1075   0.1289   0.1394
     0.1575   0.1755   0.2290   0.2772   0.3184   0.3734   0.3848   0.4064
     0.4394   0.4485   0.4530   0.4936   0.5510   0.5651   0.6442   0.6918
     0.7517   0.7631   0.8195   0.8466   0.9125   0.9742   0.9868   1.0577
     1.1089   1.1293   1.1475   1.1853   1.2167   1.2461   1.2709   1.2914
     1.3042   1.3319   1.3939   1.4208   1.4603   1.4770   1.5064   1.5431
     1.5936   1.5992   1.6182   1.6510   1.7099   1.7358   1.7559   1.7824
     1.8164   1.8447   1.8633   1.9270   1.9830   1.9935   2.0140   2.0481
     2.0571   2.0776   2.0899   2.1268   2.1738   2.1831   2.2083   2.2792
     2.2927   2.3301   2.3615   2.3684   2.3880   2.4086   2.4286   2.4506
     2.4803   2.5206   2.5321   2.5599   2.5764   2.6272   2.6698   2.6988
     2.7217   2.7326   2.7585   2.7639   2.8076   2.8128   2.8298   2.8567
     2.8916   2.9642   2.9789   3.0550   3.0907   3.1520   3.2148   3.3327
     3.6120   3.7480   3.9620   4.1952   4.4717   4.6637   4.7017   5.0716
     5.4036   5.6153   5.9063   6.0635   6.3246   6.5047   6.6729   6.7106
     6.9428   7.2869   7.4996   7.7540   7.8692   7.8999

          k = 0.2000 0.3464 0.0000 ( 43046 PWs)   bands (ev):

    -9.9664  -9.3726  -5.4901  -4.7350  -4.3657  -4.2440  -4.1483  -3.7819
    -3.5670  -3.3702  -3.2873  -3.2294  -3.1688  -3.1404  -3.1261  -3.0858
    -3.0543  -2.9912  -2.9569  -2.8896  -2.7525  -2.6540  -2.6273  -2.6022
    -2.5803  -2.5189  -2.4942  -2.4552  -2.3955  -2.3484  -2.3299  -2.2985
    -2.2896  -2.2696  -2.2056  -2.1897  -2.1484  -2.1182  -2.0759  -2.0055
    -1.9544  -1.9027  -1.8468  -1.7929  -1.7324  -1.7013  -1.6608  -1.6083
    -1.5825  -1.5552  -1.5057  -1.4907  -1.4443  -1.4284  -1.3561  -1.3353
    -1.3014  -1.2183  -1.1822  -1.1729  -1.1373  -1.1129  -1.0902  -0.9812
    -0.9585  -0.9322  -0.8834  -0.8551  -0.8254  -0.7914  -0.7533  -0.7096
    -0.6916  -0.6343  -0.6159  -0.5780  -0.5523  -0.5391  -0.5187  -0.4640
    -0.4272  -0.4031  -0.3634  -0.3393  -0.3299  -0.2842  -0.2652  -0.2371
    -0.2148  -0.1886  -0.1621  -0.1495  -0.1270  -0.1078  -0.0835  -0.0376
    -0.0367  -0.0094   0.0215   0.0568   0.0644   0.0905   0.1078   0.1370
     0.1594   0.1853   0.2079   0.2328   0.2485   0.2563   0.3094   0.3463
     0.3635   0.3866   0.4312   0.4651   0.5066   0.5826   0.6414   0.6730
     0.7181   0.7715   0.7859   0.8019   0.8512   0.8727   0.8972   0.9535
     0.9774   0.9994   1.0150   1.0732   1.1110   1.1422   1.1948   1.2306
     1.2466   1.2908   1.3281   1.3675   1.4051   1.4269   1.4487   1.4656
     1.5215   1.5450   1.5743   1.6081   1.6239   1.6679   1.7312   1.7488
     1.7901   1.8077   1.8220   1.8572   1.8987   1.9088   1.9667   2.0367
     2.0528   2.1184   2.1644   2.1970   2.2447   2.2680   2.3337   2.3554
     2.4026   2.4427   2.4697   2.4901   2.5263   2.5409   2.5633   2.5913
     2.6214   2.6325   2.6462   2.6715   2.7022   2.7292   2.7709   2.7866
     2.8064   2.8246   2.8694   2.9389   2.9612   3.0220   3.0448   3.0646
     3.1360   3.2039   3.2645   3.3568   3.7016   3.8101   3.8756   3.9513
     4.1037   4.2244   4.2778   4.6146   4.7158   4.8229   5.1331   5.2696
     5.3388   5.3918   5.5891   6.0888   6.2589   6.3146   6.4933   6.6214
     6.8395   6.9649   7.1831   7.2100   7.4237   7.5088

          k = 0.2000-0.5774 0.0000 ( 43014 PWs)   bands (ev):

    -9.9474  -9.3902  -5.0364  -4.9595  -4.6252  -4.3922  -3.8029  -3.7381
    -3.6147  -3.5504  -3.2634  -3.1921  -3.1177  -3.0763  -3.0236  -2.9483
    -2.8872  -2.8568  -2.8088  -2.7680  -2.7231  -2.7051  -2.6832  -2.6693
    -2.6275  -2.5846  -2.5249  -2.4856  -2.4628  -2.4546  -2.3964  -2.3511
    -2.3148  -2.2634  -2.2307  -2.1957  -2.0952  -2.0787  -2.0502  -2.0259
    -1.9311  -1.8960  -1.8525  -1.8037  -1.7739  -1.7229  -1.6680  -1.6418
    -1.5993  -1.5560  -1.5136  -1.4578  -1.3810  -1.3636  -1.3247  -1.3125
    -1.2816  -1.2315  -1.1697  -1.1515  -1.1301  -1.1129  -1.0853  -1.0553
    -1.0076  -0.9945  -0.9405  -0.9180  -0.9065  -0.8862  -0.8488  -0.7936
    -0.7571  -0.7149  -0.6983  -0.6498  -0.6346  -0.6115  -0.5831  -0.5510
    -0.5026  -0.4665  -0.4283  -0.4100  -0.3797  -0.3714  -0.3522  -0.2882
    -0.2519  -0.2243  -0.2069  -0.1878  -0.1202  -0.1033  -0.0670  -0.0521
     0.0068   0.0186   0.0615   0.0770   0.0830   0.0922   0.1163   0.1288
     0.1546   0.1852   0.2122   0.2291   0.2584   0.2706   0.2833   0.2922
     0.3176   0.3549   0.4390   0.5100   0.5579   0.5748   0.6252   0.6891
     0.6995   0.7202   0.7375   0.7632   0.7640   0.7950   0.8637   0.8882
     0.9217   0.9459   0.9885   1.0399   1.0487   1.1101   1.1201   1.1992
     1.2291   1.2596   1.3166   1.3369   1.3677   1.4073   1.4482   1.4995
     1.5115   1.5271   1.5617   1.5956   1.6023   1.6433   1.6582   1.6826
     1.7010   1.7419   1.7603   1.8457   1.8720   1.9684   2.0363   2.0392
     2.1301   2.1682   2.2017   2.2116   2.2524   2.2728   2.3071   2.3696
     2.4055   2.4441   2.4924   2.5375   2.5495   2.5617   2.6033   2.6273
     2.6491   2.6880   2.7119   2.7128   2.7619   2.7774   2.8038   2.8680
     2.9052   2.9252   2.9787   3.0005   3.0193   3.0392   3.0782   3.1943
     3.2732   3.5125   3.7263   3.8066   4.0665   4.1110   4.2396   4.2914
     4.4285   4.6457   4.7440   4.8219   4.9519   5.1200   5.1971   5.4336
     5.5179   5.7647   5.8081   5.8559   5.9879   6.0565   6.1067   6.2893
     6.3665   6.4361   6.8391   7.0936   7.1634   7.2513

          k = 0.2000-0.3464 0.0000 ( 43046 PWs)   bands (ev):

    -9.9664  -9.3726  -5.4901  -4.7350  -4.3658  -4.2442  -4.1483  -3.7819
    -3.5670  -3.3703  -3.2875  -3.2297  -3.1687  -3.1401  -3.1256  -3.0856
    -3.0540  -2.9913  -2.9571  -2.8896  -2.7526  -2.6552  -2.6272  -2.6025
    -2.5807  -2.5189  -2.4948  -2.4551  -2.3950  -2.3482  -2.3298  -2.2982
    -2.2889  -2.2695  -2.2058  -2.1893  -2.1487  -2.1183  -2.0759  -2.0059
    -1.9540  -1.9034  -1.8467  -1.7928  -1.7320  -1.7010  -1.6603  -1.6081
    -1.5824  -1.5544  -1.5055  -1.4908  -1.4447  -1.4285  -1.3561  -1.3348
    -1.3015  -1.2184  -1.1823  -1.1726  -1.1375  -1.1129  -1.0896  -0.9807
    -0.9580  -0.9314  -0.8822  -0.8550  -0.8251  -0.7910  -0.7533  -0.7092
    -0.6913  -0.6339  -0.6159  -0.5788  -0.5536  -0.5390  -0.5189  -0.4637
    -0.4278  -0.4035  -0.3641  -0.3398  -0.3307  -0.2841  -0.2650  -0.2375
    -0.2151  -0.1883  -0.1626  -0.1510  -0.1259  -0.1076  -0.0844  -0.0379
    -0.0371  -0.0098   0.0214   0.0574   0.0645   0.0900   0.1070   0.1375
     0.1605   0.1850   0.2079   0.2328   0.2484   0.2566   0.3095   0.3466
     0.3635   0.3868   0.4308   0.4651   0.5062   0.5828   0.6411   0.6721
     0.7178   0.7717   0.7856   0.8013   0.8510   0.8724   0.8976   0.9533
     0.9771   0.9995   1.0143   1.0726   1.1121   1.1421   1.1946   1.2297
     1.2463   1.2907   1.3282   1.3678   1.4046   1.4268   1.4487   1.4661
     1.5212   1.5448   1.5749   1.6082   1.6239   1.6676   1.7309   1.7495
     1.7901   1.8080   1.8220   1.8579   1.8987   1.9093   1.9668   2.0366
     2.0528   2.1182   2.1648   2.1969   2.2448   2.2679   2.3339   2.3552
     2.4028   2.4424   2.4696   2.4906   2.5262   2.5408   2.5633   2.5909
     2.6208   2.6320   2.6462   2.6715   2.7023   2.7291   2.7708   2.7857
     2.8068   2.8246   2.8691   2.9391   2.9618   3.0228   3.0459   3.0656
     3.1362   3.2038   3.2642   3.3569   3.7011   3.8100   3.8755   3.9509
     4.1041   4.2249   4.2784   4.6146   4.7158   4.8229   5.1329   5.2698
     5.3387   5.3921   5.5893   6.0897   6.2592   6.3143   6.4938   6.6212
     6.8384   6.9648   7.1826   7.2102   7.4240   7.5085

          k = 0.4000-0.2309 0.0000 ( 43046 PWs)   bands (ev):

    -9.9733  -9.3590  -5.3642  -4.7940  -4.6303  -4.1244  -3.9206  -3.6813
    -3.6307  -3.4764  -3.4003  -3.2504  -3.1733  -3.1491  -3.0950  -3.0385
    -2.9621  -2.9201  -2.8415  -2.7809  -2.7303  -2.6869  -2.6734  -2.6473
    -2.5850  -2.5291  -2.5225  -2.4935  -2.4711  -2.4403  -2.3984  -2.3447
    -2.3247  -2.2270  -2.1734  -2.1162  -2.0840  -2.0359  -2.0130  -1.9875
    -1.9165  -1.8841  -1.8452  -1.8363  -1.7995  -1.7631  -1.6750  -1.6315
    -1.5713  -1.5389  -1.5029  -1.4914  -1.4471  -1.4213  -1.3958  -1.3462
    -1.3224  -1.2892  -1.2483  -1.2042  -1.1585  -1.1296  -1.0632  -1.0311
    -1.0044  -0.9783  -0.9374  -0.8672  -0.8176  -0.8066  -0.7543  -0.7444
    -0.6795  -0.6629  -0.6261  -0.5660  -0.5488  -0.5219  -0.4867  -0.4592
    -0.4326  -0.4094  -0.3754  -0.3545  -0.3327  -0.2987  -0.2794  -0.2656
    -0.2520  -0.2200  -0.2011  -0.1778  -0.1612  -0.1525  -0.0928  -0.0718
    -0.0570  -0.0128   0.0001   0.0339   0.0640   0.0798   0.1058   0.1215
     0.1448   0.1635   0.2153   0.2451   0.2630   0.3245   0.3748   0.4092
     0.4256   0.4333   0.4691   0.5274   0.5440   0.5987   0.6336   0.6768
     0.7002   0.7273   0.7554   0.7924   0.8145   0.8414   0.8498   0.8939
     0.9294   0.9706   0.9899   1.0592   1.0869   1.1075   1.1409   1.1713
     1.2227   1.2399   1.2978   1.3499   1.4001   1.4133   1.4761   1.5168
     1.5580   1.6125   1.6314   1.6585   1.6695   1.7132   1.7389   1.7588
     1.7877   1.8186   1.8635   1.8859   1.9217   1.9528   1.9999   2.0448
     2.0529   2.0800   2.1284   2.1885   2.2077   2.2501   2.2890   2.3503
     2.3826   2.4023   2.4167   2.4246   2.4699   2.5118   2.5260   2.5559
     2.5869   2.6327   2.6649   2.6962   2.7082   2.7328   2.7517   2.8167
     2.8599   2.9087   2.9539   2.9840   2.9895   3.0080   3.0498   3.2207
     3.2435   3.3159   3.4515   3.5001   3.7542   3.9471   4.0882   4.2049
     4.2643   4.4204   4.5231   4.6820   4.8661   4.9136   5.1120   5.2435
     5.3948   5.4391   5.5436   5.6689   5.9917   6.1310   6.2870   6.3474
     6.4633   6.8211   6.9479   7.1918   7.5146   7.7213

          k = 0.4000-0.0000 0.0000 ( 43046 PWs)   bands (ev):

    -9.9801  -9.3527  -5.4923  -4.7069  -4.3544  -4.3238  -4.1561  -3.7826
    -3.4724  -3.3196  -3.3079  -3.2350  -3.1890  -3.1645  -3.1276  -3.0716
    -3.0471  -3.0116  -2.9651  -2.9348  -2.8137  -2.6459  -2.6244  -2.6028
    -2.5280  -2.4862  -2.4818  -2.4593  -2.4051  -2.3705  -2.3386  -2.3266
    -2.2896  -2.2339  -2.2184  -2.1809  -2.1315  -2.1153  -2.0854  -2.0111
    -1.9863  -1.9587  -1.8203  -1.7806  -1.7253  -1.6985  -1.6520  -1.6175
    -1.5744  -1.5317  -1.5082  -1.4559  -1.4370  -1.4212  -1.3774  -1.3695
    -1.2802  -1.2425  -1.1834  -1.1753  -1.1547  -1.1192  -1.0828  -0.9798
    -0.9589  -0.9443  -0.9041  -0.8480  -0.7867  -0.7785  -0.7688  -0.7544
    -0.6767  -0.6388  -0.5896  -0.5857  -0.5605  -0.5189  -0.5032  -0.4900
    -0.4231  -0.3988  -0.3604  -0.3222  -0.3105  -0.2929  -0.2813  -0.2648
    -0.2401  -0.1864  -0.1742  -0.1476  -0.1307  -0.1121  -0.0781  -0.0459
    -0.0321  -0.0015   0.0267   0.0312   0.0751   0.0964   0.1133   0.1346
     0.1627   0.1814   0.1974   0.2379   0.2550   0.2602   0.2962   0.3397
     0.3612   0.4044   0.4349   0.4706   0.4922   0.6148   0.6521   0.6618
     0.6797   0.7756   0.7827   0.8113   0.8478   0.8955   0.9107   0.9344
     0.9756   0.9953   1.0072   1.0651   1.1172   1.1461   1.1777   1.2267
     1.2624   1.3196   1.3582   1.4012   1.4044   1.4174   1.4556   1.4734
     1.5105   1.5202   1.5557   1.6474   1.6600   1.7053   1.7506   1.7607
     1.8057   1.8269   1.8442   1.8661   1.8835   1.9381   1.9468   2.0245
     2.0796   2.0937   2.1636   2.2213   2.2865   2.3062   2.3426   2.3650
     2.4070   2.4482   2.4861   2.5034   2.5175   2.5285   2.5779   2.5913
     2.6094   2.6437   2.6555   2.6650   2.7114   2.7294   2.7416   2.7775
     2.7977   2.8645   2.9036   2.9453   2.9793   2.9936   3.0177   3.0460
     3.1106   3.1939   3.2222   3.4081   3.5445   3.7230   3.8851   3.9679
     4.1782   4.2279   4.3254   4.5131   4.8327   4.9043   5.0388   5.0861
     5.2401   5.4071   5.5363   5.9221   6.2764   6.3392   6.5247   6.7525
     6.7625   6.9005   7.0871   7.2768   7.4857   7.5806

          k = 0.4000 0.2309 0.0000 ( 43046 PWs)   bands (ev):

    -9.9733  -9.3590  -5.3641  -4.7940  -4.6302  -4.1243  -3.9206  -3.6814
    -3.6309  -3.4763  -3.4002  -3.2498  -3.1734  -3.1493  -3.0947  -3.0383
    -2.9623  -2.9204  -2.8412  -2.7801  -2.7304  -2.6867  -2.6732  -2.6472
    -2.5852  -2.5289  -2.5224  -2.4935  -2.4705  -2.4406  -2.3984  -2.3447
    -2.3253  -2.2272  -2.1742  -2.1165  -2.0842  -2.0360  -2.0133  -1.9879
    -1.9170  -1.8846  -1.8455  -1.8362  -1.7994  -1.7636  -1.6752  -1.6316
    -1.5716  -1.5387  -1.5030  -1.4910  -1.4469  -1.4212  -1.3962  -1.3462
    -1.3221  -1.2896  -1.2486  -1.2047  -1.1588  -1.1304  -1.0645  -1.0321
    -1.0052  -0.9785  -0.9386  -0.8671  -0.8174  -0.8068  -0.7536  -0.7444
    -0.6794  -0.6630  -0.6251  -0.5653  -0.5484  -0.5198  -0.4856  -0.4594
    -0.4318  -0.4096  -0.3753  -0.3543  -0.3332  -0.2989  -0.2806  -0.2656
    -0.2516  -0.2204  -0.2007  -0.1772  -0.1613  -0.1520  -0.0936  -0.0708
    -0.0566  -0.0133  -0.0001   0.0333   0.0632   0.0802   0.1069   0.1216
     0.1456   0.1636   0.2159   0.2456   0.2636   0.3247   0.3750   0.4094
     0.4255   0.4333   0.4691   0.5274   0.5441   0.5989   0.6333   0.6764
     0.7005   0.7273   0.7554   0.7921   0.8140   0.8421   0.8497   0.8940
     0.9300   0.9710   0.9904   1.0596   1.0871   1.1078   1.1418   1.1713
     1.2239   1.2405   1.2977   1.3503   1.4001   1.4131   1.4762   1.5168
     1.5576   1.6123   1.6310   1.6586   1.6696   1.7130   1.7385   1.7583
     1.7875   1.8186   1.8631   1.8857   1.9218   1.9531   1.9995   2.0449
     2.0528   2.0801   2.1282   2.1883   2.2074   2.2506   2.2892   2.3504
     2.3830   2.4025   2.4168   2.4249   2.4701   2.5120   2.5263   2.5562
     2.5874   2.6334   2.6654   2.6959   2.7076   2.7326   2.7511   2.8153
     2.8591   2.9091   2.9531   2.9837   2.9889   3.0076   3.0495   3.2203
     3.2436   3.3152   3.4512   3.5002   3.7547   3.9473   4.0886   4.2050
     4.2641   4.4202   4.5234   4.6816   4.8661   4.9123   5.1115   5.2433
     5.3947   5.4389   5.5438   5.6691   5.9911   6.1303   6.2875   6.3479
     6.4618   6.8218   6.9486   7.1920   7.5146   7.7222

          k = 0.4000-0.6928 0.0000 ( 43014 PWs)   bands (ev):

    -9.9621  -9.3693  -5.0442  -4.9405  -4.6601  -4.3443  -3.9262  -3.7753
    -3.5326  -3.4303  -3.2898  -3.1808  -3.1510  -3.0780  -3.0143  -2.9624
    -2.8818  -2.8593  -2.8028  -2.7697  -2.7216  -2.7126  -2.6790  -2.6541
    -2.6389  -2.6030  -2.5634  -2.4990  -2.4676  -2.4435  -2.3991  -2.3780
    -2.3113  -2.2758  -2.2322  -2.1772  -2.1123  -2.0741  -2.0579  -1.9850
    -1.9600  -1.8932  -1.8534  -1.8344  -1.7538  -1.7223  -1.6597  -1.6259
    -1.5826  -1.5449  -1.5004  -1.4490  -1.3967  -1.3626  -1.3189  -1.3090
    -1.2681  -1.2297  -1.1889  -1.1608  -1.1433  -1.1178  -1.0934  -1.0631
    -1.0149  -0.9901  -0.9700  -0.9401  -0.9020  -0.8676  -0.8393  -0.8214
    -0.7581  -0.7197  -0.6559  -0.6395  -0.6183  -0.5983  -0.5799  -0.5459
    -0.5067  -0.4933  -0.4493  -0.4289  -0.4007  -0.3675  -0.3222  -0.2890
    -0.2337  -0.2181  -0.2020  -0.1827  -0.1535  -0.0920  -0.0725  -0.0396
    -0.0173   0.0207   0.0660   0.0768   0.0838   0.1065   0.1126   0.1482
     0.1623   0.1770   0.2255   0.2403   0.2503   0.2773   0.2911   0.3122
     0.3230   0.3408   0.4290   0.4795   0.5072   0.5592   0.6268   0.6634
     0.6872   0.7118   0.7204   0.7561   0.7944   0.8290   0.8649   0.9083
     0.9203   0.9517   0.9751   1.0409   1.0816   1.1151   1.1471   1.1722
     1.2492   1.2733   1.3080   1.3427   1.3728   1.3985   1.4448   1.4846
     1.5002   1.5171   1.5640   1.5973   1.6288   1.6340   1.6753   1.6987
     1.7450   1.7823   1.8004   1.8458   1.9137   1.9737   2.0083   2.0312
     2.1419   2.1898   2.2003   2.2177   2.2757   2.2986   2.3205   2.3685
     2.4432   2.4738   2.4986   2.5235   2.5426   2.5764   2.6115   2.6262
     2.6416   2.6633   2.6901   2.7290   2.7366   2.7811   2.7937   2.8811
     2.9029   2.9463   2.9746   2.9995   3.0284   3.0482   3.0744   3.2190
     3.2847   3.4659   3.6133   3.8260   4.0304   4.1683   4.2298   4.3149
     4.4489   4.4981   4.7016   4.8180   5.0319   5.0912   5.2156   5.3294
     5.4503   5.5335   5.7912   5.8757   5.9910   6.0782   6.1220   6.2480
     6.4662   6.5632   6.8148   6.9645   7.1574   7.2384

          k = 0.4000-0.4619 0.0000 ( 43014 PWs)   bands (ev):

    -9.9621  -9.3693  -5.0445  -4.9403  -4.6602  -4.3442  -3.9263  -3.7753
    -3.5327  -3.4303  -3.2900  -3.1805  -3.1516  -3.0780  -3.0144  -2.9625
    -2.8813  -2.8594  -2.8031  -2.7697  -2.7217  -2.7127  -2.6789  -2.6538
    -2.6388  -2.6030  -2.5635  -2.4989  -2.4675  -2.4443  -2.3992  -2.3779
    -2.3112  -2.2759  -2.2319  -2.1771  -2.1115  -2.0740  -2.0578  -1.9847
    -1.9601  -1.8929  -1.8529  -1.8338  -1.7534  -1.7223  -1.6598  -1.6262
    -1.5827  -1.5450  -1.5004  -1.4492  -1.3967  -1.3631  -1.3191  -1.3101
    -1.2678  -1.2284  -1.1870  -1.1608  -1.1429  -1.1175  -1.0932  -1.0625
    -1.0147  -0.9892  -0.9702  -0.9399  -0.9023  -0.8671  -0.8394  -0.8215
    -0.7577  -0.7202  -0.6562  -0.6394  -0.6187  -0.5991  -0.5792  -0.5476
    -0.5064  -0.4940  -0.4500  -0.4285  -0.4013  -0.3675  -0.3220  -0.2887
    -0.2337  -0.2183  -0.2025  -0.1832  -0.1536  -0.0913  -0.0725  -0.0387
    -0.0181   0.0205   0.0652   0.0764   0.0837   0.1058   0.1125   0.1488
     0.1618   0.1767   0.2264   0.2408   0.2502   0.2771   0.2910   0.3123
     0.3233   0.3405   0.4286   0.4794   0.5072   0.5594   0.6265   0.6635
     0.6872   0.7122   0.7205   0.7557   0.7941   0.8285   0.8641   0.9082
     0.9203   0.9517   0.9753   1.0407   1.0812   1.1150   1.1469   1.1723
     1.2488   1.2734   1.3081   1.3428   1.3729   1.3988   1.4449   1.4843
     1.5003   1.5174   1.5639   1.5972   1.6290   1.6342   1.6751   1.6989
     1.7448   1.7819   1.8007   1.8459   1.9137   1.9732   2.0086   2.0308
     2.1420   2.1896   2.2005   2.2182   2.2760   2.2985   2.3205   2.3686
     2.4431   2.4738   2.4983   2.5235   2.5425   2.5763   2.6116   2.6261
     2.6415   2.6631   2.6901   2.7298   2.7363   2.7802   2.7935   2.8807
     2.9034   2.9464   2.9752   2.9998   3.0298   3.0485   3.0748   3.2190
     3.2845   3.4659   3.6139   3.8255   4.0305   4.1681   4.2298   4.3145
     4.4483   4.4981   4.7020   4.8180   5.0317   5.0917   5.2160   5.3294
     5.4501   5.5338   5.7943   5.8757   5.9919   6.0782   6.1212   6.2470
     6.4667   6.5630   6.8142   6.9647   7.1566   7.2376

     the Fermi energy is     2.7875 ev

!    total energy              =  -27793.39533752 Ry
     total all-electron energy =  -1326795.688949 Ry
     estimated scf accuracy    <       0.00000061 Ry
     smearing contrib. (-TS)   =       0.00003196 Ry
     internal energy E=F+TS    =  -27793.39536948 Ry

     The total energy is F=E-TS. E is the sum of the following terms:
     one-electron contribution =  -20756.30837820 Ry
     hartree contribution      =   10691.49798485 Ry
     xc contribution           =    -900.36704516 Ry
     ewald contribution        =    8658.96863879 Ry
     one-center paw contrib.   =  -25487.18656976 Ry

     convergence has been achieved in  18 iterations

     negative rho (up, down):  3.089E-03 0.000E+00

     Forces acting on atoms (cartesian axes, Ry/au):

     atom    1 type  1   force =    -0.00049084    0.00021572   -0.00389275
     atom    2 type  1   force =     0.00058833    0.00019971   -0.00391248
     atom    3 type  1   force =     0.00001300   -0.00021123   -0.00706073
     atom    4 type  1   force =     0.00002492    0.00102851   -0.00596403
     atom    5 type  1   force =    -0.00071227   -0.00026931   -0.00834248
     atom    6 type  1   force =     0.00078777   -0.00023961   -0.00832334
     atom    7 type  1   force =    -0.00057312   -0.00091309   -0.00696580
     atom    8 type  1   force =     0.00007363   -0.00058785   -0.00424469
     atom    9 type  1   force =     0.00060739   -0.00090329   -0.00695872
     atom   10 type  1   force =    -0.00012115    0.00194734    0.01971840
     atom   11 type  1   force =    -0.00197617   -0.00173050    0.00228341
     atom   12 type  1   force =     0.00186209   -0.00171960    0.00237445
     atom   13 type  1   force =    -0.00142956   -0.00001854    0.00785483
     atom   14 type  1   force =    -0.00000972    0.00127977   -0.00103163
     atom   15 type  1   force =     0.00124859   -0.00000170    0.00788996
     atom   16 type  1   force =    -0.00239461    0.00087616    0.00904325
     atom   17 type  1   force =     0.00225340    0.00084833    0.00899870
     atom   18 type  1   force =    -0.00006898    0.00064691   -0.00128300
     atom   19 type  1   force =     0.00000050   -0.00001858    0.00003998
     atom   20 type  1   force =     0.00008596    0.00004679    0.00003118
     atom   21 type  1   force =    -0.00003505   -0.00006551   -0.00010674
     atom   22 type  1   force =     0.00004442    0.00003730   -0.00009192
     atom   23 type  1   force =     0.00008994   -0.00002596   -0.00002796
     atom   24 type  1   force =    -0.00015360   -0.00000838   -0.00004986
     atom   25 type  1   force =     0.00008276    0.00002472    0.00002407
     atom   26 type  1   force =    -0.00002560    0.00000928   -0.00010178
     atom   27 type  1   force =    -0.00008554   -0.00003773    0.00002306
     atom   28 type  1   force =    -0.00010132   -0.00009336    0.00002195
     atom   29 type  1   force =     0.00014674    0.00004411    0.00009374
     atom   30 type  1   force =     0.00009500    0.00002901   -0.00004807
     atom   31 type  1   force =    -0.00002678   -0.00021363    0.00007707
     atom   32 type  1   force =     0.00016137   -0.00004449   -0.00008748
     atom   33 type  1   force =     0.00004420   -0.00003494   -0.00005635
     atom   34 type  1   force =     0.00008116   -0.00002321    0.00002366
     atom   35 type  1   force =    -0.00018382   -0.00009263    0.00001560
     atom   36 type  1   force =     0.00002320    0.00003640   -0.00003150
     atom   37 type  2   force =     0.00003995    0.00008578   -0.00002279
     atom   38 type  3   force =     0.00000505    0.00001647   -0.00005302
     atom   39 type  2   force =     0.00002875   -0.00011918    0.00014382
     The non-local contrib.  to forces
     atom    1 type  1   force =     0.00096772   -0.00054722   -0.02038425
     atom    2 type  1   force =    -0.00098624   -0.00054942   -0.02035530
     atom    3 type  1   force =    -0.00000777   -0.00147289   -0.01980347
     atom    4 type  1   force =    -0.00001100    0.00020067   -0.02114341
     atom    5 type  1   force =     0.00072656   -0.00006061   -0.02039978
     atom    6 type  1   force =    -0.00072766   -0.00004591   -0.02041318
     atom    7 type  1   force =    -0.00308970   -0.00006740   -0.02423390
     atom    8 type  1   force =     0.00002843    0.00073619   -0.02230445
     atom    9 type  1   force =     0.00304046   -0.00006291   -0.02424266
     atom   10 type  1   force =    -0.00011242    0.00088486    0.00305683
     atom   11 type  1   force =    -0.00315754    0.00098588   -0.00097865
     atom   12 type  1   force =     0.00297783    0.00102478   -0.00090541
     atom   13 type  1   force =    -0.00164794   -0.00195246    0.00265695
     atom   14 type  1   force =    -0.00003259    0.00169205   -0.00353816
     atom   15 type  1   force =     0.00144192   -0.00191739    0.00269230
     atom   16 type  1   force =     0.00292376    0.00054292   -0.00090797
     atom   17 type  1   force =    -0.00310374    0.00052787   -0.00092745
     atom   18 type  1   force =    -0.00006692   -0.00025305    0.00782087
     atom   19 type  1   force =    -0.00680822   -0.00281427    0.01242943
     atom   20 type  1   force =     0.00691229   -0.00282906    0.01241703
     atom   21 type  1   force =    -0.00004150    0.00268355    0.01646756
     atom   22 type  1   force =     0.00004693    0.00990649    0.02403932
     atom   23 type  1   force =     0.00810832   -0.00498407    0.00396425
     atom   24 type  1   force =    -0.00815041   -0.00498123    0.00396431
     atom   25 type  1   force =    -0.00637015   -0.00042755   -0.00052874
     atom   26 type  1   force =     0.00004184   -0.00113160    0.01815048
     atom   27 type  1   force =     0.00641026   -0.00048613   -0.00054834
     atom   28 type  1   force =     0.04045617    0.02138127   -0.03902609
     atom   29 type  1   force =    -0.04023199    0.02169130   -0.03906414
     atom   30 type  1   force =     0.00018650   -0.03055799    0.02537800
     atom   31 type  1   force =    -0.00022121    0.03696879   -0.04811272
     atom   32 type  1   force =    -0.02459923    0.00681635    0.02178465
     atom   33 type  1   force =     0.02496492    0.00679815    0.02170807
     atom   34 type  1   force =    -0.08420959   -0.04565499   -0.00017885
     atom   35 type  1   force =    -0.00011616    0.02034966    0.02114578
     atom   36 type  1   force =     0.08433025   -0.04544153   -0.00032869
     atom   37 type  2   force =     0.00008065    0.06506994   -0.11222297
     atom   38 type  3   force =    -0.00003519    0.00239435   -0.08053585
     atom   39 type  2   force =    -0.00019911   -0.04077769   -0.36561420
     The ionic contribution  to forces
     atom    1 type  1   force =     0.00879729    0.00164805  -94.38902257
     atom    2 type  1   force =    -0.00900466    0.00158387  -94.38946460
     atom    3 type  1   force =     0.00019997   -0.02982346  -94.40913968
     atom    4 type  1   force =    -0.00014952    0.00035404  -94.37592710
     atom    5 type  1   force =    -0.03012804   -0.00117491  -94.42931453
     atom    6 type  1   force =     0.03026607   -0.00134583  -94.42903308
     atom    7 type  1   force =    -0.01797676    0.00340669  -94.38718136
     atom    8 type  1   force =    -0.00006817    0.02212811  -94.41775765
     atom    9 type  1   force =     0.01803834    0.00321969  -94.38735108
     atom   10 type  1   force =    -0.00354429    0.04927244  -33.33460290
     atom   11 type  1   force =    -0.23946014   -0.13470817  -33.48795018
     atom   12 type  1   force =     0.23949976   -0.13437074  -33.48584896
     atom   13 type  1   force =    -0.15217167   -0.05152815  -33.36628545
     atom   14 type  1   force =    -0.00006917    0.18300073  -33.65064741
     atom   15 type  1   force =     0.14961659   -0.05350658  -33.36665224
     atom   16 type  1   force =    -0.02371852    0.09188104  -33.44484377
     atom   17 type  1   force =     0.02040147    0.09067982  -33.44649855
     atom   18 type  1   force =     0.00008113   -0.04410025  -33.16368858
     atom   19 type  1   force =     0.21526164    0.09907656   28.64894778
     atom   20 type  1   force =    -0.21145413    0.10487976   28.63197034
     atom   21 type  1   force =    -0.00226817   -0.12653335   26.17509990
     atom   22 type  1   force =     0.00359338    0.09626175   28.39774105
     atom   23 type  1   force =    -0.17895027    0.00153426   27.38831576
     atom   24 type  1   force =     0.17618131    0.00101827   27.39355069
     atom   25 type  1   force =    -0.25101186   -0.16321175   27.99525820
     atom   26 type  1   force =    -0.00531242    0.12705807   28.22067832
     atom   27 type  1   force =     0.25637326   -0.16355835   27.99191275
     atom   28 type  1   force =    -3.37418021   -1.50190226   88.62560400
     atom   29 type  1   force =     3.37113641   -1.49480683   88.60184031
     atom   30 type  1   force =     0.00234397    0.18597888   88.39267683
     atom   31 type  1   force =    -0.00279787    0.56420255   88.70956714
     atom   32 type  1   force =     0.65652956    0.17050818   88.52508783
     atom   33 type  1   force =    -0.64788000    0.16676817   88.52944211
     atom   34 type  1   force =     2.62044579    1.25586053   88.06802819
     atom   35 type  1   force =    -0.01133524   -0.70659796   88.86949040
     atom   36 type  1   force =    -2.61559600    1.25595567   88.10159868
     atom   37 type  2   force =     0.00242723   -0.52825718   44.87131031
     atom   38 type  3   force =     0.00116969   -0.15400315   12.41728387
     atom   39 type  2   force =     0.00471423    0.81315178   45.80580524
     The local contribution  to forces
     atom    1 type  1   force =    -0.01033232   -0.00102932   94.38876985
     atom    2 type  1   force =     0.01062395   -0.00092617   94.38913868
     atom    3 type  1   force =    -0.00013389    0.03076345   94.40484346
     atom    4 type  1   force =     0.00021960    0.00058933   94.37440183
     atom    5 type  1   force =     0.02868207    0.00120022   94.42451381
     atom    6 type  1   force =    -0.02876317    0.00131701   94.42422921
     atom    7 type  1   force =     0.02057566   -0.00403667   94.38765136
     atom    8 type  1   force =     0.00004742   -0.02347890   94.41938314
     atom    9 type  1   force =    -0.02047267   -0.00384883   94.38778568
     atom   10 type  1   force =     0.00352901   -0.04843220   33.35208336
     atom   11 type  1   force =     0.24001892    0.13161325   33.49148355
     atom   12 type  1   force =    -0.23999725    0.13114243   33.48936454
     atom   13 type  1   force =     0.15249976    0.05348521   33.37209452
     atom   14 type  1   force =    -0.00000653   -0.18248356   33.65289485
     atom   15 type  1   force =    -0.14982403    0.05538320   33.37241025
     atom   16 type  1   force =     0.01819887   -0.09144095   33.45541576
     atom   17 type  1   force =    -0.01494454   -0.09018946   33.45703323
     atom   18 type  1   force =     0.00000650    0.04502289   33.15587391
     atom   19 type  1   force =    -0.20800169   -0.09614568  -28.65845407
     atom   20 type  1   force =     0.20430094   -0.10174383  -28.64145317
     atom   21 type  1   force =     0.00217870    0.12360716  -26.19000144
     atom   22 type  1   force =    -0.00345252   -0.10511834  -28.41708311
     atom   23 type  1   force =     0.17084881    0.00338604  -27.39078603
     atom   24 type  1   force =    -0.16822295    0.00394408  -27.39603240
     atom   25 type  1   force =     0.25654861    0.16313292  -27.99245563
     atom   26 type  1   force =     0.00518563   -0.12595261  -28.23612875
     atom   27 type  1   force =    -0.26189029    0.16360004  -27.98904837
     atom   28 type  1   force =     3.31750086    1.47295410  -88.58468580
     atom   29 type  1   force =    -3.31462002    1.46579668  -88.56082961
     atom   30 type  1   force =    -0.00244618   -0.15699186  -88.40205152
     atom   31 type  1   force =     0.00305347   -0.60665125  -88.66960868
     atom   32 type  1   force =    -0.63414411   -0.17717048  -88.53079291
     atom   33 type  1   force =     0.62527724   -0.17344101  -88.53495982
     atom   34 type  1   force =    -2.51565493   -1.20066511  -88.06747245
     atom   35 type  1   force =     0.01115932    0.68784545  -88.87468016
     atom   36 type  1   force =     2.51086857   -1.20085813  -88.10085482
     atom   37 type  2   force =    -0.00250331    0.46403734  -44.76140892
     atom   38 type  3   force =    -0.00112466    0.15163919  -12.33683105
     atom   39 type  2   force =    -0.00455249   -0.77354313  -45.44747355
     The core correction contribution to forces
     atom    1 type  1   force =    -0.00000577   -0.00007767    0.01688308
     atom    2 type  1   force =     0.00000326   -0.00007575    0.01688575
     atom    3 type  1   force =    -0.00000171    0.00028352    0.01720333
     atom    4 type  1   force =    -0.00000172   -0.00001839    0.01681969
     atom    5 type  1   force =     0.00012020   -0.00010050    0.01703372
     atom    6 type  1   force =    -0.00012427   -0.00010163    0.01703007
     atom    7 type  1   force =     0.00006001   -0.00009088    0.01700622
     atom    8 type  1   force =    -0.00000048    0.00006191    0.01662138
     atom    9 type  1   force =    -0.00006419   -0.00009103    0.01700667
     atom   10 type  1   force =     0.00001079    0.00008359   -0.00039014
     atom   11 type  1   force =     0.00074630    0.00036533    0.00017862
     atom   12 type  1   force =    -0.00073876    0.00036208    0.00016994
     atom   13 type  1   force =     0.00006100    0.00023486   -0.00008468
     atom   14 type  1   force =     0.00000189   -0.00078945    0.00068209
     atom   15 type  1   force =    -0.00004767    0.00024022   -0.00008621
     atom   16 type  1   force =     0.00014667   -0.00023851   -0.00016932
     atom   17 type  1   force =    -0.00013501   -0.00023806   -0.00017482
     atom   18 type  1   force =     0.00000957   -0.00000082   -0.00074352
     atom   19 type  1   force =    -0.00050332   -0.00011849   -0.00248718
     atom   20 type  1   force =     0.00047807   -0.00014268   -0.00248678
     atom   21 type  1   force =     0.00001283    0.00015796   -0.00130966
     atom   22 type  1   force =    -0.00001661   -0.00077533   -0.00446421
     atom   23 type  1   force =     0.00002168    0.00022175   -0.00112907
     atom   24 type  1   force =    -0.00001448    0.00022083   -0.00112589
     atom   25 type  1   force =     0.00088012    0.00030849   -0.00187216
     atom   26 type  1   force =     0.00001439   -0.00024198   -0.00242799
     atom   27 type  1   force =    -0.00089177    0.00030789   -0.00187600
     atom   28 type  1   force =     0.01586015    0.00723865   -0.00184568
     atom   29 type  1   force =    -0.01585123    0.00721552   -0.00183369
     atom   30 type  1   force =    -0.00000622    0.00167374   -0.01584908
     atom   31 type  1   force =     0.00001986    0.00530474    0.00820439
     atom   32 type  1   force =     0.00253093   -0.00008034   -0.01588506
     atom   33 type  1   force =    -0.00256256   -0.00007013   -0.01589449
     atom   34 type  1   force =    -0.02011458   -0.00943167   -0.00046860
     atom   35 type  1   force =     0.00004148   -0.00179086   -0.01574492
     atom   36 type  1   force =     0.02010129   -0.00943000   -0.00049468
     atom   37 type  2   force =     0.00005118   -0.00075595    0.00237687
     atom   38 type  3   force =     0.00000000    0.00000000    0.00000000
     atom   39 type  2   force =     0.00008543    0.00109111    0.00754199
     The Hubbard contrib.    to forces
     atom    1 type  1   force =     0.00000000    0.00000000    0.00000000
     atom    2 type  1   force =     0.00000000    0.00000000    0.00000000
     atom    3 type  1   force =     0.00000000    0.00000000    0.00000000
     atom    4 type  1   force =     0.00000000    0.00000000    0.00000000
     atom    5 type  1   force =     0.00000000    0.00000000    0.00000000
     atom    6 type  1   force =     0.00000000    0.00000000    0.00000000
     atom    7 type  1   force =     0.00000000    0.00000000    0.00000000
     atom    8 type  1   force =     0.00000000    0.00000000    0.00000000
     atom    9 type  1   force =     0.00000000    0.00000000    0.00000000
     atom   10 type  1   force =     0.00000000    0.00000000    0.00000000
     atom   11 type  1   force =     0.00000000    0.00000000    0.00000000
     atom   12 type  1   force =     0.00000000    0.00000000    0.00000000
     atom   13 type  1   force =     0.00000000    0.00000000    0.00000000
     atom   14 type  1   force =     0.00000000    0.00000000    0.00000000
     atom   15 type  1   force =     0.00000000    0.00000000    0.00000000
     atom   16 type  1   force =     0.00000000    0.00000000    0.00000000
     atom   17 type  1   force =     0.00000000    0.00000000    0.00000000
     atom   18 type  1   force =     0.00000000    0.00000000    0.00000000
     atom   19 type  1   force =     0.00000000    0.00000000    0.00000000
     atom   20 type  1   force =     0.00000000    0.00000000    0.00000000
     atom   21 type  1   force =     0.00000000    0.00000000    0.00000000
     atom   22 type  1   force =     0.00000000    0.00000000    0.00000000
     atom   23 type  1   force =     0.00000000    0.00000000    0.00000000
     atom   24 type  1   force =     0.00000000    0.00000000    0.00000000
     atom   25 type  1   force =     0.00000000    0.00000000    0.00000000
     atom   26 type  1   force =     0.00000000    0.00000000    0.00000000
     atom   27 type  1   force =     0.00000000    0.00000000    0.00000000
     atom   28 type  1   force =     0.00000000    0.00000000    0.00000000
     atom   29 type  1   force =     0.00000000    0.00000000    0.00000000
     atom   30 type  1   force =     0.00000000    0.00000000    0.00000000
     atom   31 type  1   force =     0.00000000    0.00000000    0.00000000
     atom   32 type  1   force =     0.00000000    0.00000000    0.00000000
     atom   33 type  1   force =     0.00000000    0.00000000    0.00000000
     atom   34 type  1   force =     0.00000000    0.00000000    0.00000000
     atom   35 type  1   force =     0.00000000    0.00000000    0.00000000
     atom   36 type  1   force =     0.00000000    0.00000000    0.00000000
     atom   37 type  2   force =     0.00000000    0.00000000    0.00000000
     atom   38 type  3   force =     0.00000000    0.00000000    0.00000000
     atom   39 type  2   force =     0.00000000    0.00000000    0.00000000
     The SCF correction term to forces
     atom    1 type  1   force =     0.00000000    0.00000000   -0.00000000
     atom    2 type  1   force =    -0.00000000    0.00000000   -0.00000000
     atom    3 type  1   force =    -0.00000000    0.00000000   -0.00000000
     atom    4 type  1   force =    -0.00000000   -0.00000000   -0.00000000
     atom    5 type  1   force =    -0.00000000   -0.00000000   -0.00000000
     atom    6 type  1   force =     0.00000000   -0.00000000   -0.00000000
     atom    7 type  1   force =    -0.00000000   -0.00000000   -0.00000000
     atom    8 type  1   force =     0.00000000   -0.00000000   -0.00000000
     atom    9 type  1   force =     0.00000000   -0.00000000   -0.00000000
     atom   10 type  1   force =    -0.00000000    0.00000000   -0.00000000
     atom   11 type  1   force =    -0.00000000    0.00000000   -0.00000000
     atom   12 type  1   force =     0.00000000    0.00000000   -0.00000000
     atom   13 type  1   force =    -0.00000000   -0.00000000   -0.00000000
     atom   14 type  1   force =     0.00000000   -0.00000000   -0.00000000
     atom   15 type  1   force =     0.00000000   -0.00000000   -0.00000000
     atom   16 type  1   force =     0.00000000    0.00000000   -0.00000000
     atom   17 type  1   force =     0.00000000    0.00000000   -0.00000000
     atom   18 type  1   force =    -0.00000000   -0.00000000   -0.00000000
     atom   19 type  1   force =     0.00005535   -0.00000007   -0.00046013
     atom   20 type  1   force =    -0.00014797   -0.00010079   -0.00048041
     atom   21 type  1   force =     0.00008634    0.00003578   -0.00042726
     atom   22 type  1   force =    -0.00012352   -0.00022065   -0.00038913
     atom   23 type  1   force =     0.00006464   -0.00016732   -0.00045703
     atom   24 type  1   force =     0.00005617   -0.00019373   -0.00047073
     atom   25 type  1   force =     0.00003927    0.00023921   -0.00044177
     atom   26 type  1   force =     0.00004821    0.00029401   -0.00043800
     atom   27 type  1   force =    -0.00008375    0.00011544   -0.00048114
     atom   28 type  1   force =     0.00026495    0.00025148   -0.00008864
     atom   29 type  1   force =    -0.00028319    0.00016405   -0.00008328
     atom   30 type  1   force =     0.00002017   -0.00005715   -0.00026645
     atom   31 type  1   force =    -0.00007779   -0.00002185   -0.00003722
     atom   32 type  1   force =    -0.00015254   -0.00010159   -0.00034616
     atom   33 type  1   force =     0.00024784   -0.00007351   -0.00041637
     atom   34 type  1   force =    -0.00038229   -0.00011536    0.00005122
     atom   35 type  1   force =     0.00007002    0.00011769   -0.00025966
     atom   36 type  1   force =     0.00032233   -0.00017301   -0.00001615
     atom   37 type  2   force =    -0.00001257    0.00000825   -0.00014225
     atom   38 type  3   force =    -0.00000154    0.00000269   -0.00003415
     atom   39 type  2   force =    -0.00001608   -0.00002464   -0.00017984

     Total force =     0.000604     Total SCF correction =     0.001828
     SCF correction compared to forces is large: reduce conv_thr to get better values

     Writing all to output data dir ./pwscf.save/

     init_run     :     11.34s CPU     11.67s WALL (       1 calls)
     electrons    :    310.05s CPU    319.88s WALL (       1 calls)
     forces       :      3.94s CPU      4.61s WALL (       1 calls)

     Called by init_run:
     wfcinit      :      6.08s CPU      6.27s WALL (       1 calls)
     potinit      :      3.64s CPU      3.72s WALL (       1 calls)
     hinit0       :      1.02s CPU      1.04s WALL (       1 calls)

     Called by electrons:
     c_bands      :    264.47s CPU    270.25s WALL (      19 calls)
     sum_band     :     28.57s CPU     29.62s WALL (      19 calls)
     v_of_rho     :      8.53s CPU     10.31s WALL (      19 calls)
     newd         :      2.76s CPU      3.49s WALL (      19 calls)
     PAW_pot      :      4.10s CPU      4.21s WALL (      19 calls)
     mix_rho      :      3.78s CPU      3.98s WALL (      19 calls)
     vdW_kernel   :      1.71s CPU      1.72s WALL (       1 calls)

     Called by c_bands:
     init_us_2    :      2.73s CPU      2.79s WALL (     520 calls)
     init_us_2:cp :      2.73s CPU      2.79s WALL (     520 calls)
     cegterg      :    257.39s CPU    262.91s WALL (     247 calls)

     Called by *egterg:
     cdiaghg      :     85.52s CPU     86.77s WALL (    1344 calls)
     h_psi        :    108.95s CPU    111.16s WALL (    1370 calls)
     s_psi        :     14.87s CPU     15.20s WALL (    1370 calls)
     g_psi        :      0.42s CPU      0.44s WALL (    1110 calls)

     Called by h_psi:
     h_psi:calbec :     17.91s CPU     18.55s WALL (    1370 calls)
     vloc_psi     :     74.67s CPU     75.97s WALL (    1370 calls)
     add_vuspsi   :     15.27s CPU     15.52s WALL (    1370 calls)

     General routines
     calbec       :     25.53s CPU     26.29s WALL (    1669 calls)
     fft          :      4.64s CPU      6.52s WALL (    1257 calls)
     ffts         :      2.29s CPU      2.32s WALL (    4599 calls)
     fftw         :     71.35s CPU     72.59s WALL (  311774 calls)
     interpolate  :      0.59s CPU      0.63s WALL (      19 calls)

     Parallel routines

     PWSCF        :   5m27.33s CPU   5m41.38s WALL


   This run was terminated on:   0:41:40   5Dec2025            

=------------------------------------------------------------------------------=
   JOB DONE.
=------------------------------------------------------------------------------=
