
     Program PWSCF v.7.1 starts on 23Feb2025 at  9:31: 8 
        Git branch: heads/qe-7.1
        Last git commit: 48ba0178f8fede6d020eb786884699a9f063f55d-dirty
        Last git commit date: Fri Jan 27 14:22:33 2023 +0000
        Last git commit subject: Merge branch 'fix_hubbard' into 'develop'

     This program is part of the open-source Quantum ESPRESSO suite
     for quantum simulation of materials; please cite
         "P. Giannozzi et al., J. Phys.:Condens. Matter 21 395502 (2009);
         "P. Giannozzi et al., J. Phys.:Condens. Matter 29 465901 (2017);
         "P. Giannozzi et al., J. Chem. Phys. 152 154105 (2020);
          URL http://www.quantum-espresso.org", 
     in publications or presentations arising from this work. More details at
     http://www.quantum-espresso.org/quote

     Parallel version (MPI), running on    48 processors

     MPI processes distributed on     1 nodes
     173453 MiB available memory on the printing compute node when the environment starts

     Reading input from espresso.pwi
Warning: card &CELL ignored
Warning: card / ignored
Warning: card &FCP ignored
Warning: card / ignored
Warning: card &RISM ignored
Warning: card / ignored

     Current dimensions of program PWSCF are:
     Max number of different atomic species (ntypx) = 10
     Max number of k-points (npk) =  40000
     Max angular momentum in pseudopotentials (lmaxx) =  4
     file Pt.pbe-n-kjpaw_psl.1.0.0.UPF: wavefunction(s)  6S 5D renormalized
     file H.pbe-kjpaw_psl.1.0.0.UPF: wavefunction(s)  1S renormalized

     **************************************************************************
     Initializing libbeef V0.1.2 with the BEEF-vdW functional.
     Citation: Wellendorff et al., PRB 85, 235149 (2012).
     **************************************************************************


     IMPORTANT: XC functional enforced from input :
     Exchange-correlation= BEEF-VDW
                           (   1   4  43  14   2   0   0)
     Any further DFT definition will be discarded
     Please, verify this is what you really want


     R & G space division:  proc/nbgrp/npool/nimage =      48
     Subspace diagonalization in iterative solution of the eigenvalue problem:
     one sub-group per band group will be used
     custom distributed-memory algorithm (size of sub-group:  2*  2 procs)


     Parallelization info
     --------------------
     sticks:   dense  smooth     PW     G-vecs:    dense   smooth      PW
     Min         151      59     16                29407     7165    1028
     Max         152      60     17                29420     7176    1042
     Sum        7267    2839    769              1411785   344073   49691

     Using Slab Decomposition



     bravais-lattice index     =            0
     lattice parameter (alat)  =      16.0349  a.u.
     unit-cell volume          =   10068.6169 (a.u.)^3
     number of atoms/cell      =           37
     number of atomic types    =            2
     number of electrons       =       361.00
     number of Kohn-Sham states=          217
     kinetic-energy cutoff     =      40.0000  Ry
     charge density cutoff     =     410.0000  Ry
     scf convergence threshold =      1.0E-06
     mixing beta               =       0.7000
     number of iterations used =            8  local-TF  mixing
     Exchange-correlation= BEEF-VDW
                           (   1   4  43  14   2   0   0)

     celldm(1)=  16.034858  celldm(2)=   0.000000  celldm(3)=   0.000000
     celldm(4)=   0.000000  celldm(5)=   0.000000  celldm(6)=   0.000000

     crystal axes: (cart. coord. in units of alat)
               a(1) = (   1.000000   0.000000   0.000000 )  
               a(2) = (   0.500000   0.866025   0.000000 )  
               a(3) = (   0.000000   0.000000   2.819966 )  

     reciprocal axes: (cart. coord. in units 2 pi/alat)
               b(1) = (  1.000000 -0.577350  0.000000 )  
               b(2) = (  0.000000  1.154701  0.000000 )  
               b(3) = (  0.000000  0.000000  0.354614 )  


     PseudoPot. # 1 for Pt read from file:
     /users/kbadger1/espresso/pseudo/pslibrary.1.0.0/pbe/PSEUDOPOTENTIALS/Pt.pbe-n-kjpaw_psl.1.0.0.UPF
     MD5 check sum: 2e24a0b5bf98a4ed1a57fa81bca8c143
     Pseudo is Projector augmented-wave + core cor, Zval = 10.0
     Generated using 'atomic' code by A. Dal Corso  v.7.0
     Shape of augmentation charge: PSQ
     Using radial grid of 1277 points,  6 beta functions with: 
                l(1) =   0
                l(2) =   0
                l(3) =   1
                l(4) =   1
                l(5) =   2
                l(6) =   2
     Q(r) pseudized with 0 coefficients 


     PseudoPot. # 2 for H  read from file:
     /users/kbadger1/espresso/pseudo/pslibrary.1.0.0/pbe/PSEUDOPOTENTIALS/H.pbe-kjpaw_psl.1.0.0.UPF
     MD5 check sum: fe4c6fa958fa6d3815bf5d2419cbf1df
     Pseudo is Projector augmented-wave, Zval =  1.0
     Generated using 'atomic' code by A. Dal Corso  v.7.0
     Shape of augmentation charge: PSQ
     Using radial grid of  929 points,  2 beta functions with: 
                l(1) =   0
                l(2) =   0
     Q(r) pseudized with 0 coefficients 


     atomic species   valence    mass     pseudopotential
        Pt            10.00   195.08400     Pt( 1.00)
        H              1.00     1.00800     H ( 1.00)

     No symmetry found



   Cartesian axes

     site n.     atom                  positions (alat units)
         1           Pt  tau(   1) = (   0.0000000   0.0000000   1.0017346  )
         2           Pt  tau(   2) = (   0.3333333   0.0000000   1.0017346  )
         3           Pt  tau(   3) = (   0.6666667   0.0000000   1.0017346  )
         4           Pt  tau(   4) = (   0.1666667   0.2886751   1.0017346  )
         5           Pt  tau(   5) = (   0.5000000   0.2886751   1.0017346  )
         6           Pt  tau(   6) = (   0.8333333   0.2886751   1.0017346  )
         7           Pt  tau(   7) = (   0.3333333   0.5773503   1.0017346  )
         8           Pt  tau(   8) = (   0.6666667   0.5773503   1.0017346  )
         9           Pt  tau(   9) = (   1.0000000   0.5773503   1.0017346  )
        10           Pt  tau(  10) = (   0.1666667   0.0962250   1.2739001  )
        11           Pt  tau(  11) = (   0.5000000   0.0962250   1.2739001  )
        12           Pt  tau(  12) = (   0.8333333   0.0962250   1.2739001  )
        13           Pt  tau(  13) = (   0.3333333   0.3849002   1.2739001  )
        14           Pt  tau(  14) = (   0.6666667   0.3849002   1.2739001  )
        15           Pt  tau(  15) = (   1.0000000   0.3849002   1.2739001  )
        16           Pt  tau(  16) = (   0.5000000   0.6735753   1.2739001  )
        17           Pt  tau(  17) = (   0.8333333   0.6735753   1.2739001  )
        18           Pt  tau(  18) = (   1.1666667   0.6735753   1.2739001  )
        19           Pt  tau(  19) = (   0.0006444   0.1919546   1.5448013  )
        20           Pt  tau(  20) = (   0.3328250   0.1919732   1.5447093  )
        21           Pt  tau(  21) = (   0.6667349   0.1919234   1.5422731  )
        22           Pt  tau(  22) = (   0.1667516   0.4795513   1.5444040  )
        23           Pt  tau(  23) = (   0.4999767   0.4808518   1.5424160  )
        24           Pt  tau(  24) = (   0.8334976   0.4808552   1.5423902  )
        25           Pt  tau(  25) = (   0.3342163   0.7698434   1.5438481  )
        26           Pt  tau(  26) = (   0.6667044   0.7699967   1.5444696  )
        27           Pt  tau(  27) = (   0.9994239   0.7697533   1.5436468  )
        28           Pt  tau(  28) = (  -0.0022771  -0.0015908   1.8232759  )
        29           Pt  tau(  29) = (   0.3361948  -0.0017657   1.8224856  )
        30           Pt  tau(  30) = (   0.6668506  -0.0002008   1.8173706  )
        31           Pt  tau(  31) = (   0.1668831   0.2934130   1.8249557  )
        32           Pt  tau(  32) = (   0.5017270   0.2890283   1.8166285  )
        33           Pt  tau(  33) = (   0.8317798   0.2891245   1.8165779  )
        34           Pt  tau(  34) = (   0.3340037   0.5776296   1.8172273  )
        35           Pt  tau(  35) = (   0.6668303   0.5760109   1.8168256  )
        36           Pt  tau(  36) = (   0.9996795   0.5775757   1.8172303  )
        37           H   tau(  37) = (   0.1633304   0.1184738   1.9342042  )

     number of k points=    13  Marzari-Vanderbilt smearing, width (Ry)=  0.0200
                       cart. coord. in units 2pi/alat
        k(    1) = (   0.0000000   0.0000000   0.0000000), wk =   0.0800000
        k(    2) = (   0.0000000   0.2309401   0.0000000), wk =   0.1600000
        k(    3) = (   0.0000000   0.4618802   0.0000000), wk =   0.1600000
        k(    4) = (   0.2000000  -0.1154701   0.0000000), wk =   0.1600000
        k(    5) = (   0.2000000   0.1154701   0.0000000), wk =   0.1600000
        k(    6) = (   0.2000000   0.3464102   0.0000000), wk =   0.1600000
        k(    7) = (   0.2000000  -0.5773503   0.0000000), wk =   0.1600000
        k(    8) = (   0.2000000  -0.3464102   0.0000000), wk =   0.1600000
        k(    9) = (   0.4000000  -0.2309401   0.0000000), wk =   0.1600000
        k(   10) = (   0.4000000  -0.0000000   0.0000000), wk =   0.1600000
        k(   11) = (   0.4000000   0.2309401   0.0000000), wk =   0.1600000
        k(   12) = (   0.4000000  -0.6928203   0.0000000), wk =   0.1600000
        k(   13) = (   0.4000000  -0.4618802   0.0000000), wk =   0.1600000

     Dense  grid:  1411785 G-vectors     FFT dimensions: ( 108, 108, 300)

     Smooth grid:   344073 G-vectors     FFT dimensions: (  72,  72, 192)

     Estimated max dynamical RAM per process >     203.68 MB

     Estimated total dynamical RAM >       9.55 GB

     Initial potential from superposition of free atoms

     starting charge     360.9939, renormalised to     361.0000

     negative rho (up, down):  3.360E-03 0.000E+00


     %%%%%%%%%%%%%%%%%%%%%%%%%%%%%%%%%%%%%%%%%%%%%%%%%%%%%%%%%%%%%%%%%%%%%%%%
     %                                                                      %
     % You are using vdW-DF, which was implemented by the Thonhauser group. %
     % Please cite the following two papers that made this development      %
     % possible and the two reviews that describe the various versions:     %
     %                                                                      %
     %   T. Thonhauser et al., PRL 115, 136402 (2015).                      %
     %   T. Thonhauser et al., PRB 76, 125112 (2007).                       %
     %   K. Berland et al., Rep. Prog. Phys. 78, 066501 (2015).             %
     %   D.C. Langreth et al., J. Phys.: Condens. Matter 21, 084203 (2009). %
     %                                                                      %
     % If you are calculating stress with vdW-DF, please also cite:         %
     %                                                                      %
     %   R. Sabatini et al., J. Phys.: Condens. Matter 24, 424209 (2012).   %
     %                                                                      %
     %%%%%%%%%%%%%%%%%%%%%%%%%%%%%%%%%%%%%%%%%%%%%%%%%%%%%%%%%%%%%%%%%%%%%%%%

     %%%%%%%%%%%%%%%%%%%%%%%%%%%%%%%%%%%%%%%%%%%%%%%%%%%%%%%%%%%%%%%%%%%%%%%%
     %                                                                      %
     %  vdW-DF NEWS:                                                        %
     %                                                                      %
     %  * vdW-DF3 is now available. DOI: 10.1021/acs.jctc.0c00471           %
     %    use with input_dft = 'vdW-DF3-opt1' or 'vdW-DF3-opt2'             %
     %                                                                      %
     %  * Unscreened and range-separated hybrid vdW-DF-cx functionals       %
     %    DOI: 10.1063/1.4986522 and 10.1088/1361-648X/ac2ad2               %
     %    use with input_dft = 'vdW-DF-cx0'    and 'vdW-DF-ahcx'            %
     %  * Unscreened and range-separated hybrid vdW-DF2-b86r functionals    %
     %    DOI: 10.1063/1.4986522 and DOI: 10.1103/PhysRevX.12.041003        %
     %    use with input_dft = 'vdW-DF2-br0' and 'vdW-DF2-ahbr'             %
     %                                                                      %
     %%%%%%%%%%%%%%%%%%%%%%%%%%%%%%%%%%%%%%%%%%%%%%%%%%%%%%%%%%%%%%%%%%%%%%%%


     Starting wfcs are  325 randomized atomic wfcs
     Checking if some PAW data can be deallocated... 

     total cpu time spent up to now is       10.8 secs

     per-process dynamical memory:   207.4 Mb

     Self-consistent Calculation

     iteration #  1     ecut=    40.00 Ry     beta= 0.70
     Davidson diagonalization with overlap
     ethr =  1.00E-02,  avg # of iterations =  2.0

     Threshold (ethr) on eigenvalues was too large:
     Diagonalizing with lowered threshold

     Davidson diagonalization with overlap
     ethr =  3.69E-04,  avg # of iterations =  3.6

     negative rho (up, down):  1.756E-02 0.000E+00

     total cpu time spent up to now is       59.2 secs

     total energy              =  -27755.28668612 Ry
     estimated scf accuracy    <       1.52939890 Ry

     iteration #  2     ecut=    40.00 Ry     beta= 0.70
     Davidson diagonalization with overlap
     ethr =  4.24E-04,  avg # of iterations =  2.0

     negative rho (up, down):  1.575E-02 0.000E+00

     total cpu time spent up to now is       71.3 secs

     total energy              =  -27755.38469593 Ry
     estimated scf accuracy    <       0.79278044 Ry

     iteration #  3     ecut=    40.00 Ry     beta= 0.70
     Davidson diagonalization with overlap
     ethr =  2.20E-04,  avg # of iterations =  2.0

     negative rho (up, down):  1.036E-02 0.000E+00

     total cpu time spent up to now is       92.5 secs

     total energy              =  -27755.43560100 Ry
     estimated scf accuracy    <       0.09002574 Ry

     iteration #  4     ecut=    40.00 Ry     beta= 0.70
     Davidson diagonalization with overlap
     c_bands:  2 eigenvalues not converged
     c_bands:  1 eigenvalues not converged
     c_bands:  1 eigenvalues not converged
     c_bands:  1 eigenvalues not converged
     ethr =  2.49E-05,  avg # of iterations = 14.7

     negative rho (up, down):  7.486E-03 0.000E+00

     total cpu time spent up to now is      132.9 secs

     total energy              =  -27755.48455907 Ry
     estimated scf accuracy    <       0.07720503 Ry

     iteration #  5     ecut=    40.00 Ry     beta= 0.70
     Davidson diagonalization with overlap
     ethr =  2.14E-05,  avg # of iterations =  4.6

     negative rho (up, down):  3.349E-03 0.000E+00

     total cpu time spent up to now is      155.0 secs

     total energy              =  -27755.48441434 Ry
     estimated scf accuracy    <       0.02908242 Ry

     iteration #  6     ecut=    40.00 Ry     beta= 0.70
     Davidson diagonalization with overlap
     c_bands:  2 eigenvalues not converged
     c_bands:  1 eigenvalues not converged
     c_bands:  1 eigenvalues not converged
     c_bands:  1 eigenvalues not converged
     ethr =  8.06E-06,  avg # of iterations =  8.7

     negative rho (up, down):  1.625E-03 0.000E+00

     total cpu time spent up to now is      180.6 secs

     total energy              =  -27755.48648149 Ry
     estimated scf accuracy    <       0.00239786 Ry

     iteration #  7     ecut=    40.00 Ry     beta= 0.70
     Davidson diagonalization with overlap
     c_bands:  2 eigenvalues not converged
     c_bands:  1 eigenvalues not converged
     c_bands:  2 eigenvalues not converged
     c_bands:  1 eigenvalues not converged
     c_bands:  1 eigenvalues not converged
     c_bands:  1 eigenvalues not converged
     ethr =  6.64E-07,  avg # of iterations = 14.8

     negative rho (up, down):  1.262E-03 0.000E+00

     total cpu time spent up to now is      217.6 secs

     total energy              =  -27755.48694769 Ry
     estimated scf accuracy    <       0.00174973 Ry

     iteration #  8     ecut=    40.00 Ry     beta= 0.70
     Davidson diagonalization with overlap
     ethr =  4.85E-07,  avg # of iterations =  3.3

     negative rho (up, down):  1.104E-03 0.000E+00

     total cpu time spent up to now is      242.1 secs

     total energy              =  -27755.48709479 Ry
     estimated scf accuracy    <       0.00020866 Ry

     iteration #  9     ecut=    40.00 Ry     beta= 0.70
     Davidson diagonalization with overlap
     ethr =  5.78E-08,  avg # of iterations =  5.3

     negative rho (up, down):  8.966E-04 0.000E+00

     total cpu time spent up to now is      274.0 secs

     total energy              =  -27755.48720262 Ry
     estimated scf accuracy    <       0.00008761 Ry

     iteration # 10     ecut=    40.00 Ry     beta= 0.70
     Davidson diagonalization with overlap
     ethr =  2.43E-08,  avg # of iterations =  5.6

     negative rho (up, down):  8.732E-04 0.000E+00

     total cpu time spent up to now is      306.7 secs

     total energy              =  -27755.48722200 Ry
     estimated scf accuracy    <       0.00008319 Ry

     iteration # 11     ecut=    40.00 Ry     beta= 0.70
     Davidson diagonalization with overlap
     ethr =  2.30E-08,  avg # of iterations =  1.7

     negative rho (up, down):  9.605E-04 0.000E+00

     total cpu time spent up to now is      327.6 secs

     total energy              =  -27755.48722744 Ry
     estimated scf accuracy    <       0.00005154 Ry

     iteration # 12     ecut=    40.00 Ry     beta= 0.70
     Davidson diagonalization with overlap
     ethr =  1.43E-08,  avg # of iterations =  1.4

     negative rho (up, down):  1.189E-03 0.000E+00

     total cpu time spent up to now is      339.1 secs

     total energy              =  -27755.48723345 Ry
     estimated scf accuracy    <       0.00002007 Ry

     iteration # 13     ecut=    40.00 Ry     beta= 0.70
     Davidson diagonalization with overlap
     ethr =  5.56E-09,  avg # of iterations =  2.1

     negative rho (up, down):  1.671E-03 0.000E+00

     total cpu time spent up to now is      360.6 secs

     total energy              =  -27755.48723868 Ry
     estimated scf accuracy    <       0.00001129 Ry

     iteration # 14     ecut=    40.00 Ry     beta= 0.70
     Davidson diagonalization with overlap
     ethr =  3.13E-09,  avg # of iterations =  2.0

     negative rho (up, down):  1.941E-03 0.000E+00

     total cpu time spent up to now is      377.1 secs

     total energy              =  -27755.48724160 Ry
     estimated scf accuracy    <       0.00000673 Ry

     iteration # 15     ecut=    40.00 Ry     beta= 0.70
     Davidson diagonalization with overlap
     ethr =  1.86E-09,  avg # of iterations =  2.0

     negative rho (up, down):  2.783E-03 0.000E+00

     total cpu time spent up to now is      396.4 secs

     total energy              =  -27755.48723877 Ry
     estimated scf accuracy    <       0.00000574 Ry

     iteration # 16     ecut=    40.00 Ry     beta= 0.70
     Davidson diagonalization with overlap
     ethr =  1.59E-09,  avg # of iterations =  1.7

     negative rho (up, down):  3.149E-03 0.000E+00

     total cpu time spent up to now is      417.4 secs

     End of self-consistent calculation

          k = 0.0000 0.0000 0.0000 ( 42913 PWs)   bands (ev):

    -6.3060  -5.1924  -4.4682  -3.8894  -3.8729  -3.8724  -3.8640  -3.8477
    -3.8440  -3.8422  -3.5113  -3.3172  -3.3145  -3.3077  -3.3050  -3.3017
    -3.2147  -2.8611  -2.8578  -2.8390  -2.8383  -2.8322  -2.7487  -2.6294
    -2.6284  -2.6258  -2.6208  -2.6183  -2.5141  -2.4156  -2.4155  -2.3975
    -2.3971  -2.3860  -2.3832  -2.3702  -2.3600  -2.3592  -2.3348  -2.3318
    -1.9764  -1.7853  -1.7829  -1.7492  -1.7387  -1.7172  -1.7113  -1.6888
    -1.6872  -1.6824  -1.5451  -1.5447  -1.4510  -1.4413  -1.4304  -0.9774
    -0.9743  -0.9635  -0.9529  -0.9509  -0.8995  -0.8629  -0.7846  -0.7833
    -0.7784  -0.7647  -0.7616  -0.7531  -0.7495  -0.7283  -0.7218  -0.7152
    -0.7143  -0.7141  -0.6730  -0.6699  -0.6682  -0.5556  -0.5527  -0.5494
    -0.5419  -0.5371  -0.5356  -0.3747  -0.3590  -0.3583  -0.3466  -0.3417
    -0.3283  -0.3140  -0.3073  -0.2235  -0.2162  -0.1492  -0.1431  -0.1345
    -0.1144  -0.1083  -0.0875  -0.0825  -0.0283   0.0745   0.0754   0.0824
     0.0872   0.0954   0.0965   0.3378   0.5627   0.5778   0.5811   0.5893
     0.5934   0.6060   0.6209   0.6275   0.6436   0.6469   0.6511   0.7238
     0.7282   0.7899   0.8677   0.8708   0.8777   0.8813   0.8897   0.9977
     1.0049   1.0550   1.0558   1.0595   1.0624   1.2962   1.3037   1.3124
     1.3240   1.3260   1.3310   1.3884   1.3979   1.5388   1.5536   1.5617
     1.5687   1.5700   1.5714   1.6824   1.7164   1.7274   1.7435   1.7563
     1.7591   1.7627   1.7710   1.7759   1.7824   1.7853   1.7865   1.8625
     1.8744   1.8912   1.9092   1.9178   1.9338   1.9379   1.9435   1.9896
     2.0033   2.0165   2.0345   2.0354   2.0516   2.0535   2.0646   2.1272
     2.1400   2.1418   2.1491   2.1503   2.1563   2.2114   2.2374   2.2436
     2.2561   2.2571   2.2648   2.2737   2.4596   2.4650   2.5572   2.5633
     2.5668   2.5835   2.5839   2.5886   3.1249   3.4227   3.4281   3.4424
     3.4739   3.4744   3.4831   5.4593   5.7250   5.7393   5.7953   5.7994
     5.8059   7.2514   7.3187   7.3586   7.3998   7.4014   7.4063   7.5422
     7.6290

          k = 0.0000 0.2309 0.0000 ( 42996 PWs)   bands (ev):

    -6.1592  -5.0697  -4.4359  -4.3290  -3.9757  -3.9589  -3.7470  -3.6696
    -3.6282  -3.6223  -3.4970  -3.3976  -3.3673  -3.2471  -3.2417  -3.2301
    -3.1358  -2.9391  -2.8160  -2.8093  -2.7975  -2.7786  -2.7297  -2.6959
    -2.6686  -2.6304  -2.6295  -2.6140  -2.5416  -2.5280  -2.5143  -2.4311
    -2.4220  -2.4016  -2.3883  -2.2489  -2.1976  -2.1889  -2.1787  -2.1437
    -1.9786  -1.9002  -1.8974  -1.8401  -1.8181  -1.8003  -1.7820  -1.6833
    -1.6043  -1.5470  -1.5279  -1.5166  -1.4669  -1.4472  -1.3929  -1.2355
    -1.1418  -1.1376  -1.0776  -1.0666  -1.0333  -0.9856  -0.9607  -0.9525
    -0.9273  -0.9187  -0.8571  -0.8338  -0.7966  -0.7727  -0.7603  -0.7147
    -0.6808  -0.6702  -0.6642  -0.5932  -0.5892  -0.5732  -0.5334  -0.4875
    -0.4784  -0.4702  -0.4676  -0.3967  -0.3785  -0.3646  -0.3591  -0.3563
    -0.3141  -0.2958  -0.2552  -0.2315  -0.2172  -0.1965  -0.1766  -0.1616
    -0.1493  -0.1183  -0.1046  -0.0953  -0.0114   0.0491   0.0563   0.0825
     0.0911   0.0942   0.1091   0.1127   0.1568   0.1653   0.1789   0.1939
     0.3986   0.5080   0.5580   0.5724   0.5998   0.6020   0.6048   0.6373
     0.6444   0.7196   0.8000   0.8094   0.8895   0.9429   0.9466   0.9779
     0.9873   1.0119   1.0533   1.0634   1.0749   1.1553   1.1783   1.1947
     1.2043   1.2074   1.3270   1.4029   1.4080   1.4164   1.4381   1.4410
     1.4640   1.5224   1.5540   1.5792   1.6007   1.6023   1.6674   1.6705
     1.6831   1.6902   1.7698   1.7911   1.8120   1.8247   1.8590   1.9223
     1.9569   1.9743   1.9764   1.9930   2.0142   2.0344   2.1059   2.1073
     2.1558   2.1717   2.1859   2.1939   2.2227   2.2306   2.2320   2.2435
     2.2455   2.3064   2.3066   2.4419   2.4569   2.4748   2.4940   2.5060
     2.5079   2.5399   2.5694   2.5771   2.5907   2.6611   2.6893   2.7167
     2.7603   2.8791   2.8899   2.8997   2.9294   3.2799   3.3259   3.8366
     4.0460   4.0751   4.1843   4.9870   5.3951   5.4931   6.1408   6.2162
     6.2392   6.3329   6.5832   7.0070   7.1774   7.3492   7.5595   7.5656
     7.6376

          k = 0.0000 0.4619 0.0000 ( 43046 PWs)   bands (ev):

    -5.7373  -5.1096  -4.7558  -4.2290  -4.0096  -3.9907  -3.7940  -3.6306
    -3.4874  -3.3632  -3.2863  -3.2807  -3.2266  -3.1169  -3.0731  -3.0598
    -3.0590  -3.0452  -2.9111  -2.8941  -2.8843  -2.8476  -2.8412  -2.8078
    -2.7409  -2.7108  -2.7063  -2.6129  -2.4536  -2.4483  -2.4410  -2.4264
    -2.4256  -2.3322  -2.2010  -2.1904  -2.1709  -2.1439  -2.1387  -2.0455
    -1.9367  -1.8685  -1.8557  -1.8453  -1.8095  -1.7846  -1.7422  -1.7135
    -1.7083  -1.6759  -1.6408  -1.5154  -1.5007  -1.4969  -1.4637  -1.4019
    -1.3370  -1.3070  -1.2752  -1.2698  -1.2471  -1.1179  -1.0626  -1.0553
    -1.0532  -1.0353  -0.9493  -0.9348  -0.9070  -0.8120  -0.8069  -0.8052
    -0.7390  -0.6867  -0.6860  -0.6588  -0.6575  -0.6051  -0.5801  -0.5710
    -0.5626  -0.5514  -0.5362  -0.5316  -0.5309  -0.5029  -0.4167  -0.3997
    -0.3922  -0.3665  -0.3644  -0.3594  -0.3253  -0.2191  -0.2127  -0.1701
    -0.1507  -0.1430  -0.1171  -0.0932  -0.0624  -0.0550   0.0338   0.0534
     0.0894   0.1258   0.1378   0.1576   0.1819   0.3247   0.3453   0.4158
     0.4222   0.4852   0.4968   0.5249   0.5361   0.5378   0.5444   0.5898
     0.6146   0.6427   0.6569   0.6591   0.6936   0.7073   0.7133   0.7366
     0.7558   0.8542   0.8783   0.9030   0.9630   0.9862   1.0768   1.0792
     1.1793   1.1935   1.2359   1.2874   1.3596   1.3661   1.4100   1.4224
     1.4529   1.4629   1.4884   1.5213   1.5638   1.5709   1.6222   1.6633
     1.6754   1.7173   1.7279   1.7341   1.7532   1.8018   1.8885   1.9246
     1.9908   2.0115   2.0199   2.0292   2.0700   2.1319   2.1338   2.1956
     2.2181   2.2240   2.2364   2.2825   2.3176   2.3293   2.3423   2.4565
     2.4612   2.4808   2.4851   2.4946   2.4953   2.5195   2.5254   2.7022
     2.7275   2.7350   2.7426   2.7471   2.9088   2.9565   3.2034   3.3333
     3.3824   3.5716   3.7788   3.7872   4.0599   4.1696   4.2857   4.4773
     4.7644   5.0019   5.0047   5.1011   5.2134   5.2527   5.3529   5.3923
     5.5981   5.6555   6.1969   6.2871   6.7051   6.8175   7.1775   7.2959
     7.7520

          k = 0.2000-0.1155 0.0000 ( 42996 PWs)   bands (ev):

    -6.1597  -5.0744  -4.4575  -4.3013  -3.9774  -3.9640  -3.7470  -3.6695
    -3.6260  -3.6235  -3.5130  -3.3991  -3.3335  -3.2459  -3.2395  -3.2322
    -3.1542  -2.9382  -2.8157  -2.8104  -2.7957  -2.7649  -2.7289  -2.6966
    -2.6679  -2.6338  -2.6316  -2.6230  -2.5305  -2.5254  -2.5143  -2.4288
    -2.4205  -2.3987  -2.3865  -2.2440  -2.1978  -2.1866  -2.1814  -2.1472
    -1.9720  -1.9009  -1.8973  -1.8426  -1.8165  -1.8060  -1.7841  -1.6895
    -1.6074  -1.5433  -1.5287  -1.5154  -1.4647  -1.4477  -1.3829  -1.2359
    -1.1419  -1.1358  -1.0786  -1.0662  -1.0352  -0.9860  -0.9613  -0.9489
    -0.9275  -0.9182  -0.8599  -0.8372  -0.7950  -0.7747  -0.7622  -0.7169
    -0.6783  -0.6686  -0.6636  -0.5944  -0.5891  -0.5729  -0.5325  -0.4869
    -0.4783  -0.4742  -0.4659  -0.4006  -0.3806  -0.3641  -0.3577  -0.3555
    -0.3086  -0.3016  -0.2565  -0.2294  -0.2161  -0.1982  -0.1846  -0.1610
    -0.1549  -0.1199  -0.0965  -0.0910  -0.0147   0.0501   0.0598   0.0781
     0.0860   0.0943   0.1061   0.1117   0.1527   0.1672   0.1776   0.1911
     0.4027   0.5034   0.5490   0.5865   0.5980   0.5999   0.6063   0.6372
     0.6454   0.6997   0.7913   0.8088   0.8924   0.9399   0.9458   0.9750
     0.9893   1.0062   1.0528   1.0641   1.0687   1.1541   1.1904   1.1951
     1.2054   1.2067   1.3632   1.4011   1.4102   1.4252   1.4325   1.4389
     1.4594   1.5287   1.5485   1.5726   1.5993   1.6036   1.6571   1.6722
     1.6823   1.6868   1.7653   1.7877   1.8184   1.8238   1.8670   1.9238
     1.9418   1.9683   1.9802   1.9869   2.0203   2.0364   2.1016   2.1110
     2.1653   2.1673   2.1846   2.2038   2.2206   2.2305   2.2331   2.2436
     2.2450   2.3057   2.3097   2.4503   2.4551   2.4703   2.4951   2.5065
     2.5086   2.5373   2.5684   2.5750   2.5901   2.6714   2.6896   2.7149
     2.7648   2.8787   2.8876   2.9007   2.9335   3.2780   3.3189   3.8476
     4.0400   4.0753   4.1883   4.9750   5.4240   5.4883   6.1324   6.2147
     6.2507   6.3286   6.5637   7.0122   7.1731   7.3383   7.5502   7.5783
     7.6376

          k = 0.2000 0.1155 0.0000 ( 42996 PWs)   bands (ev):

    -6.1596  -5.0734  -4.4541  -4.3054  -3.9771  -3.9629  -3.7470  -3.6698
    -3.6261  -3.6233  -3.5095  -3.3988  -3.3408  -3.2459  -3.2398  -3.2321
    -3.1499  -2.9382  -2.8160  -2.8099  -2.7960  -2.7688  -2.7290  -2.6964
    -2.6682  -2.6330  -2.6311  -2.6216  -2.5327  -2.5258  -2.5150  -2.4296
    -2.4209  -2.3993  -2.3866  -2.2454  -2.1979  -2.1872  -2.1806  -2.1457
    -1.9730  -1.9010  -1.8969  -1.8430  -1.8170  -1.8052  -1.7837  -1.6883
    -1.6069  -1.5434  -1.5284  -1.5144  -1.4649  -1.4484  -1.3847  -1.2355
    -1.1420  -1.1359  -1.0787  -1.0649  -1.0343  -0.9853  -0.9618  -0.9498
    -0.9278  -0.9186  -0.8589  -0.8365  -0.7953  -0.7741  -0.7615  -0.7162
    -0.6788  -0.6699  -0.6646  -0.5945  -0.5890  -0.5723  -0.5326  -0.4864
    -0.4781  -0.4727  -0.4661  -0.4013  -0.3809  -0.3631  -0.3585  -0.3555
    -0.3098  -0.3009  -0.2568  -0.2302  -0.2162  -0.1972  -0.1832  -0.1614
    -0.1543  -0.1196  -0.0966  -0.0920  -0.0140   0.0500   0.0596   0.0788
     0.0857   0.0939   0.1055   0.1134   0.1536   0.1669   0.1785   0.1918
     0.4026   0.5040   0.5496   0.5858   0.5974   0.6000   0.6066   0.6375
     0.6441   0.7042   0.7927   0.8086   0.8917   0.9404   0.9453   0.9759
     0.9887   1.0076   1.0526   1.0639   1.0695   1.1541   1.1899   1.1950
     1.2047   1.2070   1.3570   1.4013   1.4105   1.4228   1.4325   1.4395
     1.4595   1.5275   1.5491   1.5741   1.5992   1.6040   1.6577   1.6735
     1.6822   1.6874   1.7657   1.7887   1.8179   1.8241   1.8651   1.9234
     1.9448   1.9688   1.9804   1.9881   2.0189   2.0363   2.1020   2.1110
     2.1641   2.1676   2.1842   2.2018   2.2214   2.2298   2.2332   2.2434
     2.2453   2.3055   2.3089   2.4501   2.4541   2.4712   2.4946   2.5067
     2.5086   2.5379   2.5677   2.5764   2.5903   2.6691   2.6898   2.7150
     2.7643   2.8783   2.8884   2.9009   2.9326   3.2783   3.3207   3.8458
     4.0408   4.0750   4.1876   4.9766   5.4197   5.4892   6.1358   6.2148
     6.2477   6.3296   6.5670   7.0134   7.1727   7.3380   7.5482   7.5780
     7.6375

          k = 0.2000 0.3464 0.0000 ( 43046 PWs)   bands (ev):

    -5.8745  -4.8915  -4.6278  -4.6139  -4.2174  -3.5453  -3.5413  -3.5386
    -3.5246  -3.4805  -3.4799  -3.4548  -3.3579  -3.3532  -3.1808  -2.9749
    -2.9623  -2.9574  -2.9549  -2.8914  -2.8661  -2.7370  -2.7230  -2.7114
    -2.7054  -2.6512  -2.6104  -2.5709  -2.5573  -2.5496  -2.4968  -2.4755
    -2.4563  -2.4106  -2.3942  -2.3088  -2.1898  -2.0560  -1.9670  -1.9632
    -1.9266  -1.9167  -1.9013  -1.8945  -1.8395  -1.8141  -1.7558  -1.6795
    -1.6656  -1.5792  -1.5450  -1.5388  -1.4958  -1.4855  -1.4116  -1.3894
    -1.3853  -1.2250  -1.2011  -1.1899  -1.1284  -1.1191  -1.0866  -1.0786
    -1.0625  -1.0091  -0.9759  -0.8529  -0.8468  -0.8375  -0.8255  -0.7906
    -0.7726  -0.7228  -0.6975  -0.6853  -0.6247  -0.5657  -0.5533  -0.5291
    -0.5200  -0.5050  -0.4984  -0.4661  -0.4402  -0.4377  -0.3924  -0.3812
    -0.3613  -0.3417  -0.2674  -0.2554  -0.2334  -0.2073  -0.1807  -0.1697
    -0.1527  -0.1182  -0.1044  -0.0927  -0.0916  -0.0831  -0.0733  -0.0591
    -0.0221   0.0011   0.0894   0.1132   0.1481   0.2112   0.2296   0.2356
     0.2523   0.4235   0.4417   0.4923   0.5546   0.5750   0.6115   0.6205
     0.6387   0.6526   0.6811   0.7030   0.7270   0.7377   0.7582   0.8317
     0.9204   0.9738   0.9995   1.0109   1.0347   1.0604   1.0948   1.1328
     1.2001   1.2396   1.2463   1.2644   1.3244   1.3527   1.3961   1.4497
     1.4573   1.4688   1.5224   1.5379   1.5501   1.5644   1.5685   1.5875
     1.5946   1.6032   1.6172   1.7142   1.7727   1.8063   1.9324   1.9415
     1.9648   2.0894   2.1119   2.1219   2.1277   2.2065   2.2225   2.2517
     2.2634   2.2808   2.2966   2.3125   2.3278   2.3323   2.3442   2.3826
     2.4014   2.4144   2.4850   2.5100   2.5175   2.5461   2.5541   2.5980
     2.7303   2.7600   2.7838   2.8015   2.8607   2.8667   2.8763   2.9750
     3.0182   3.3363   3.5204   3.5563   3.9104   4.0896   4.0939   4.1054
     4.5983   4.7900   4.8111   4.9598   5.0131   5.0648   5.6489   6.0950
     6.2095   6.2325   6.4180   6.7052   6.9305   6.9771   7.0107   7.0170
     7.0494

          k = 0.2000-0.5774 0.0000 ( 43014 PWs)   bands (ev):

    -5.3654  -5.3189  -4.7861  -4.5635  -4.0852  -3.8611  -3.5424  -3.4806
    -3.4061  -3.3690  -3.2576  -3.2515  -3.1561  -3.1498  -3.0579  -3.0316
    -3.0179  -2.9970  -2.9912  -2.9712  -2.8596  -2.8234  -2.8158  -2.7868
    -2.7758  -2.7736  -2.6953  -2.6010  -2.5616  -2.4481  -2.4311  -2.4178
    -2.4097  -2.3896  -2.3474  -2.2941  -2.1797  -2.1682  -2.0767  -1.9932
    -1.9805  -1.9085  -1.8439  -1.8136  -1.7872  -1.7270  -1.6599  -1.6140
    -1.5843  -1.5603  -1.5404  -1.5086  -1.4933  -1.4540  -1.3789  -1.3671
    -1.3557  -1.3450  -1.3354  -1.3289  -1.2710  -1.2647  -1.2490  -1.1382
    -1.1230  -1.0602  -1.0294  -0.9724  -0.9184  -0.9072  -0.8782  -0.8481
    -0.8259  -0.8144  -0.7478  -0.7410  -0.7182  -0.6952  -0.6624  -0.6101
    -0.5926  -0.5297  -0.5043  -0.4924  -0.4829  -0.4738  -0.3976  -0.3401
    -0.2996  -0.2967  -0.2819  -0.2469  -0.2186  -0.2172  -0.2114  -0.1820
    -0.1732  -0.1609  -0.1343  -0.0910  -0.0796  -0.0673  -0.0657  -0.0542
    -0.0478  -0.0299   0.0071   0.0337   0.0532   0.2433   0.2662   0.3406
     0.3568   0.4147   0.4510   0.4685   0.4849   0.5158   0.5505   0.5660
     0.5679   0.5842   0.6352   0.6889   0.7042   0.7230   0.7661   0.7811
     0.8407   0.8558   0.8994   0.9943   1.0369   1.1011   1.1231   1.1376
     1.1832   1.2072   1.2402   1.2567   1.2679   1.2726   1.2906   1.3042
     1.4035   1.4317   1.4354   1.4823   1.4950   1.5087   1.5230   1.5481
     1.5510   1.6879   1.7316   1.7774   1.8447   1.8652   1.9489   1.9579
     1.9956   2.0652   2.0774   2.0908   2.1742   2.1782   2.2621   2.2654
     2.2990   2.3075   2.3141   2.3439   2.3569   2.3980   2.4686   2.4713
     2.4891   2.5103   2.5165   2.5248   2.5311   2.5989   2.7034   2.7291
     2.7391   2.7447   2.7492   2.8110   2.8521   2.9330   3.0446   3.7712
     3.8968   3.9208   4.0873   4.1504   4.2231   4.2761   4.2951   4.6359
     4.8737   4.9049   5.0909   5.3546   5.3746   5.4632   5.4924   5.6557
     5.7741   5.8450   5.8918   6.1596   6.2856   6.3321   6.7896   6.9682
     6.9881

          k = 0.2000-0.3464 0.0000 ( 43046 PWs)   bands (ev):

    -5.8748  -4.8941  -4.6274  -4.6140  -4.2172  -3.5455  -3.5413  -3.5385
    -3.5239  -3.4804  -3.4798  -3.4557  -3.3581  -3.3532  -3.1779  -2.9751
    -2.9632  -2.9570  -2.9558  -2.8909  -2.8664  -2.7375  -2.7229  -2.7119
    -2.7055  -2.6475  -2.6113  -2.5709  -2.5575  -2.5500  -2.4948  -2.4755
    -2.4559  -2.4094  -2.3938  -2.3083  -2.1798  -2.0566  -1.9677  -1.9631
    -1.9275  -1.9167  -1.9017  -1.8948  -1.8395  -1.8144  -1.7555  -1.6795
    -1.6660  -1.5785  -1.5453  -1.5429  -1.4956  -1.4852  -1.4138  -1.3892
    -1.3823  -1.2263  -1.2024  -1.1895  -1.1298  -1.1195  -1.0866  -1.0791
    -1.0628  -1.0093  -0.9755  -0.8524  -0.8487  -0.8373  -0.8260  -0.7895
    -0.7724  -0.7231  -0.6986  -0.6848  -0.6251  -0.5670  -0.5537  -0.5299
    -0.5193  -0.5052  -0.4979  -0.4660  -0.4419  -0.4387  -0.3934  -0.3812
    -0.3602  -0.3437  -0.2675  -0.2563  -0.2338  -0.2068  -0.1806  -0.1703
    -0.1503  -0.1193  -0.1044  -0.0938  -0.0921  -0.0831  -0.0731  -0.0584
    -0.0206   0.0002   0.0891   0.1110   0.1482   0.2126   0.2298   0.2356
     0.2522   0.4236   0.4417   0.4884   0.5564   0.5746   0.6125   0.6201
     0.6400   0.6520   0.6827   0.7017   0.7271   0.7372   0.7578   0.8305
     0.9234   0.9736   0.9990   1.0117   1.0358   1.0602   1.0938   1.1331
     1.1996   1.2416   1.2464   1.2675   1.3243   1.3544   1.3965   1.4486
     1.4561   1.4682   1.5230   1.5389   1.5491   1.5647   1.5682   1.5872
     1.5945   1.6032   1.6162   1.7122   1.7723   1.8059   1.9316   1.9420
     1.9650   2.0915   2.1103   2.1214   2.1278   2.2061   2.2238   2.2513
     2.2627   2.2803   2.2971   2.3128   2.3277   2.3326   2.3448   2.3828
     2.4011   2.4133   2.4857   2.5101   2.5180   2.5461   2.5536   2.5983
     2.7289   2.7568   2.7828   2.8015   2.8604   2.8663   2.8760   2.9738
     3.0181   3.3407   3.5232   3.5561   3.9136   4.0887   4.0939   4.1043
     4.5986   4.7894   4.8119   4.9625   5.0136   5.0642   5.6510   6.0974
     6.2099   6.2295   6.4152   6.7001   6.9288   6.9781   7.0102   7.0183
     7.0492

          k = 0.4000-0.2309 0.0000 ( 43046 PWs)   bands (ev):

    -5.7398  -5.1205  -4.7618  -4.2213  -4.0114  -3.9989  -3.7855  -3.6246
    -3.4876  -3.3623  -3.2839  -3.2815  -3.2144  -3.1177  -3.0774  -3.0657
    -3.0601  -3.0500  -2.9091  -2.8958  -2.8879  -2.8483  -2.8404  -2.8039
    -2.7371  -2.7111  -2.7072  -2.5636  -2.4539  -2.4481  -2.4409  -2.4277
    -2.4245  -2.3214  -2.2005  -2.1904  -2.1709  -2.1424  -2.1384  -2.0405
    -1.9377  -1.8683  -1.8568  -1.8441  -1.8125  -1.7853  -1.7454  -1.7138
    -1.7076  -1.6770  -1.6412  -1.5253  -1.5008  -1.4966  -1.4644  -1.4056
    -1.3367  -1.3063  -1.2755  -1.2691  -1.2451  -1.1179  -1.0674  -1.0510
    -1.0492  -1.0314  -0.9455  -0.9369  -0.9115  -0.8167  -0.8038  -0.8008
    -0.7424  -0.6878  -0.6847  -0.6593  -0.6560  -0.6120  -0.5889  -0.5714
    -0.5590  -0.5532  -0.5377  -0.5330  -0.5290  -0.4993  -0.4032  -0.3958
    -0.3928  -0.3675  -0.3622  -0.3578  -0.3271  -0.2384  -0.2103  -0.2024
    -0.1531  -0.1339  -0.1146  -0.0924  -0.0741  -0.0591   0.0237   0.0600
     0.0890   0.1038   0.1418   0.1545   0.1819   0.3192   0.3476   0.3973
     0.4219   0.4760   0.5098   0.5180   0.5359   0.5405   0.5455   0.5788
     0.6145   0.6476   0.6556   0.6651   0.6867   0.7079   0.7158   0.7434
     0.7610   0.8556   0.8785   0.8969   0.9629   0.9992   1.0809   1.0840
     1.1888   1.1969   1.2412   1.2886   1.3557   1.3654   1.4008   1.4225
     1.4571   1.4596   1.4932   1.5173   1.5585   1.5717   1.6136   1.6654
     1.6734   1.7114   1.7266   1.7413   1.7465   1.8073   1.8783   1.9180
     1.9749   2.0082   2.0140   2.0332   2.0832   2.1264   2.1360   2.2114
     2.2164   2.2273   2.2357   2.2886   2.3219   2.3262   2.3421   2.4559
     2.4614   2.4779   2.4886   2.4928   2.4958   2.5193   2.5240   2.7038
     2.7249   2.7348   2.7397   2.7455   2.9067   2.9559   3.2210   3.3263
     3.3897   3.5646   3.7827   3.7871   4.0757   4.1694   4.2842   4.4900
     4.7888   5.0020   5.0042   5.0936   5.2170   5.2462   5.3667   5.3888
     5.5998   5.6540   6.1849   6.2918   6.6948   6.8126   7.1947   7.2899
     7.7638

          k = 0.4000-0.0000 0.0000 ( 43046 PWs)   bands (ev):

    -5.8760  -4.9041  -4.6262  -4.6136  -4.2138  -3.5462  -3.5404  -3.5391
    -3.5213  -3.4802  -3.4795  -3.4574  -3.3593  -3.3528  -3.1664  -2.9769
    -2.9664  -2.9574  -2.9560  -2.8905  -2.8662  -2.7416  -2.7236  -2.7138
    -2.7055  -2.6368  -2.6128  -2.5715  -2.5568  -2.5548  -2.4898  -2.4752
    -2.4560  -2.4060  -2.3928  -2.3076  -2.1440  -2.0578  -1.9716  -1.9615
    -1.9288  -1.9154  -1.9027  -1.8948  -1.8404  -1.8136  -1.7696  -1.6769
    -1.6663  -1.5774  -1.5493  -1.5432  -1.4950  -1.4843  -1.4185  -1.3871
    -1.3723  -1.2266  -1.2057  -1.1840  -1.1282  -1.1204  -1.0881  -1.0785
    -1.0631  -1.0118  -0.9798  -0.8543  -0.8500  -0.8421  -0.8271  -0.7848
    -0.7742  -0.7248  -0.6964  -0.6839  -0.6274  -0.5702  -0.5540  -0.5335
    -0.5138  -0.5042  -0.4981  -0.4699  -0.4546  -0.4348  -0.3984  -0.3820
    -0.3620  -0.3511  -0.2664  -0.2614  -0.2324  -0.2083  -0.1787  -0.1717
    -0.1466  -0.1233  -0.1060  -0.0987  -0.0944  -0.0847  -0.0707  -0.0581
    -0.0142  -0.0033   0.0840   0.1125   0.1473   0.2126   0.2282   0.2369
     0.2530   0.4274   0.4430   0.4755   0.5628   0.5713   0.6147   0.6180
     0.6442   0.6496   0.6923   0.6962   0.7325   0.7362   0.7577   0.8261
     0.9348   0.9686   0.9984   1.0132   1.0410   1.0597   1.0899   1.1341
     1.1995   1.2414   1.2508   1.2846   1.3218   1.3596   1.4020   1.4383
     1.4473   1.4661   1.5272   1.5363   1.5442   1.5677   1.5707   1.5850
     1.5942   1.6024   1.6133   1.6978   1.7735   1.8043   1.9287   1.9433
     1.9684   2.0987   2.1039   2.1218   2.1282   2.2124   2.2288   2.2493
     2.2603   2.2783   2.2986   2.3121   2.3274   2.3329   2.3438   2.3826
     2.4000   2.4123   2.4873   2.5127   2.5182   2.5461   2.5516   2.5993
     2.7133   2.7467   2.7841   2.8062   2.8605   2.8666   2.8745   2.9719
     3.0168   3.3542   3.5326   3.5538   3.9302   4.0856   4.0912   4.1015
     4.6005   4.7873   4.8147   4.9760   5.0152   5.0624   5.6653   6.1165
     6.2091   6.2160   6.4022   6.6721   6.9181   6.9804   7.0088   7.0208
     7.0483

          k = 0.4000 0.2309 0.0000 ( 43046 PWs)   bands (ev):

    -5.7394  -5.1186  -4.7600  -4.2217  -4.0111  -3.9977  -3.7867  -3.6262
    -3.4877  -3.3625  -3.2840  -3.2813  -3.2164  -3.1184  -3.0756  -3.0650
    -3.0594  -3.0499  -2.9090  -2.8955  -2.8872  -2.8484  -2.8404  -2.8049
    -2.7376  -2.7112  -2.7070  -2.5777  -2.4539  -2.4479  -2.4405  -2.4280
    -2.4245  -2.3249  -2.2007  -2.1903  -2.1708  -2.1429  -2.1384  -2.0408
    -1.9380  -1.8689  -1.8567  -1.8437  -1.8114  -1.7854  -1.7439  -1.7140
    -1.7076  -1.6772  -1.6415  -1.5243  -1.5004  -1.4960  -1.4644  -1.4029
    -1.3367  -1.3062  -1.2758  -1.2684  -1.2453  -1.1181  -1.0658  -1.0518
    -1.0495  -1.0322  -0.9472  -0.9359  -0.9101  -0.8158  -0.8054  -0.8020
    -0.7410  -0.6876  -0.6838  -0.6594  -0.6555  -0.6105  -0.5872  -0.5719
    -0.5578  -0.5535  -0.5380  -0.5328  -0.5285  -0.4995  -0.4042  -0.3971
    -0.3930  -0.3673  -0.3619  -0.3565  -0.3277  -0.2298  -0.2103  -0.2031
    -0.1537  -0.1358  -0.1155  -0.0925  -0.0730  -0.0597   0.0237   0.0616
     0.0892   0.1060   0.1402   0.1558   0.1831   0.3194   0.3474   0.4000
     0.4222   0.4774   0.5073   0.5189   0.5361   0.5411   0.5453   0.5809
     0.6152   0.6481   0.6561   0.6632   0.6887   0.7076   0.7137   0.7430
     0.7604   0.8556   0.8784   0.8978   0.9626   0.9970   1.0801   1.0834
     1.1882   1.1957   1.2402   1.2885   1.3560   1.3647   1.4017   1.4216
     1.4568   1.4603   1.4925   1.5174   1.5595   1.5723   1.6146   1.6652
     1.6749   1.7126   1.7276   1.7404   1.7474   1.8045   1.8791   1.9196
     1.9775   2.0089   2.0154   2.0328   2.0816   2.1269   2.1365   2.2088
     2.2157   2.2274   2.2361   2.2878   2.3206   2.3264   2.3421   2.4563
     2.4608   2.4781   2.4890   2.4929   2.4961   2.5199   2.5244   2.7037
     2.7250   2.7351   2.7403   2.7468   2.9062   2.9558   3.2166   3.3280
     3.3878   3.5658   3.7819   3.7873   4.0739   4.1689   4.2838   4.4879
     4.7849   5.0020   5.0043   5.0958   5.2166   5.2473   5.3646   5.3893
     5.6002   5.6536   6.1864   6.2915   6.6973   6.8131   7.1904   7.2915
     7.7607

          k = 0.4000-0.6928 0.0000 ( 43014 PWs)   bands (ev):

    -5.3711  -5.3199  -4.7747  -4.5827  -4.0824  -3.8459  -3.5451  -3.4848
    -3.4062  -3.3706  -3.2587  -3.2529  -3.1550  -3.1506  -3.0562  -3.0315
    -3.0166  -2.9945  -2.9918  -2.9719  -2.8519  -2.8241  -2.8160  -2.7885
    -2.7756  -2.7740  -2.6890  -2.5996  -2.5611  -2.4491  -2.4255  -2.4165
    -2.4086  -2.3874  -2.3467  -2.2889  -2.1806  -2.1716  -2.0711  -1.9919
    -1.9772  -1.9146  -1.8436  -1.8111  -1.7847  -1.7324  -1.6535  -1.6178
    -1.5868  -1.5620  -1.5416  -1.5088  -1.4909  -1.4502  -1.3813  -1.3736
    -1.3548  -1.3443  -1.3367  -1.3269  -1.2750  -1.2614  -1.2472  -1.1362
    -1.1190  -1.0639  -1.0322  -0.9636  -0.9203  -0.9046  -0.8797  -0.8465
    -0.8247  -0.8194  -0.7539  -0.7431  -0.7195  -0.6960  -0.6626  -0.6118
    -0.5857  -0.5295  -0.5103  -0.4891  -0.4813  -0.4756  -0.4072  -0.3449
    -0.3017  -0.2968  -0.2777  -0.2536  -0.2189  -0.2170  -0.2086  -0.1798
    -0.1767  -0.1663  -0.1360  -0.0890  -0.0790  -0.0715  -0.0670  -0.0554
    -0.0460  -0.0316  -0.0050   0.0368   0.0501   0.2340   0.2638   0.3403
     0.3578   0.4258   0.4542   0.4658   0.4908   0.5119   0.5512   0.5676
     0.5703   0.5872   0.6443   0.6881   0.7034   0.7247   0.7694   0.7817
     0.8400   0.8551   0.8916   0.9811   1.0406   1.1068   1.1206   1.1418
     1.1912   1.2051   1.2344   1.2527   1.2667   1.2711   1.2923   1.3044
     1.3985   1.4362   1.4404   1.4824   1.4917   1.5116   1.5161   1.5416
     1.5506   1.6967   1.7314   1.7760   1.8338   1.8716   1.9477   1.9594
     2.0052   2.0659   2.0751   2.0919   2.1716   2.1840   2.2587   2.2754
     2.2939   2.3083   2.3109   2.3390   2.3586   2.3969   2.4687   2.4702
     2.4955   2.5069   2.5167   2.5254   2.5320   2.5995   2.7003   2.7303
     2.7385   2.7431   2.7485   2.8090   2.8484   2.9298   3.0321   3.7858
     3.8969   3.9186   4.0943   4.1482   4.2367   4.2737   4.2982   4.6427
     4.8686   4.9082   5.1109   5.3576   5.3716   5.4521   5.4974   5.6636
     5.7704   5.8366   5.8971   6.1587   6.2672   6.3387   6.7934   6.9575
     6.9897

          k = 0.4000-0.4619 0.0000 ( 43014 PWs)   bands (ev):

    -5.3722  -5.3202  -4.7727  -4.5871  -4.0822  -3.8427  -3.5457  -3.4850
    -3.4059  -3.3709  -3.2591  -3.2534  -3.1550  -3.1504  -3.0561  -3.0318
    -3.0163  -2.9945  -2.9919  -2.9721  -2.8505  -2.8239  -2.8158  -2.7888
    -2.7766  -2.7741  -2.6862  -2.5970  -2.5607  -2.4474  -2.4248  -2.4152
    -2.4093  -2.3867  -2.3464  -2.2881  -2.1809  -2.1724  -2.0696  -1.9916
    -1.9768  -1.9152  -1.8438  -1.8101  -1.7841  -1.7331  -1.6530  -1.6176
    -1.5879  -1.5623  -1.5429  -1.5097  -1.4901  -1.4483  -1.3815  -1.3747
    -1.3560  -1.3445  -1.3361  -1.3265  -1.2770  -1.2609  -1.2458  -1.1367
    -1.1193  -1.0643  -1.0324  -0.9638  -0.9210  -0.9043  -0.8804  -0.8464
    -0.8248  -0.8190  -0.7544  -0.7439  -0.7197  -0.6964  -0.6625  -0.6134
    -0.5852  -0.5286  -0.5139  -0.4888  -0.4806  -0.4759  -0.4090  -0.3444
    -0.3028  -0.2970  -0.2780  -0.2561  -0.2187  -0.2167  -0.2075  -0.1805
    -0.1753  -0.1668  -0.1352  -0.0898  -0.0796  -0.0716  -0.0662  -0.0555
    -0.0459  -0.0325  -0.0066   0.0374   0.0505   0.2351   0.2639   0.3404
     0.3583   0.4284   0.4546   0.4641   0.4910   0.5107   0.5515   0.5681
     0.5709   0.5869   0.6448   0.6878   0.7039   0.7264   0.7696   0.7808
     0.8398   0.8552   0.8902   0.9764   1.0420   1.1079   1.1194   1.1418
     1.1916   1.2062   1.2341   1.2521   1.2671   1.2705   1.2925   1.3044
     1.3979   1.4365   1.4405   1.4836   1.4910   1.5092   1.5171   1.5413
     1.5510   1.6983   1.7337   1.7759   1.8314   1.8724   1.9473   1.9593
     2.0072   2.0655   2.0745   2.0920   2.1706   2.1856   2.2584   2.2773
     2.2927   2.3089   2.3108   2.3381   2.3583   2.3965   2.4687   2.4700
     2.4966   2.5074   2.5161   2.5256   2.5320   2.5995   2.7012   2.7296
     2.7385   2.7427   2.7472   2.8090   2.8473   2.9288   3.0292   3.7894
     3.8967   3.9186   4.0960   4.1473   4.2402   4.2738   4.2990   4.6435
     4.8666   4.9088   5.1154   5.3573   5.3724   5.4498   5.4987   5.6643
     5.7694   5.8336   5.8989   6.1572   6.2638   6.3407   6.7941   6.9533
     6.9902

     the Fermi energy is     2.5124 ev

!    total energy              =  -27755.48723726 Ry
     total all-electron energy =  -1326642.252654 Ry
     estimated scf accuracy    <       0.00000056 Ry
     smearing contrib. (-TS)   =       0.00344845 Ry
     internal energy E=F+TS    =  -27755.49068571 Ry

     The total energy is F=E-TS. E is the sum of the following terms:
     one-electron contribution =  -20670.94146626 Ry
     hartree contribution      =   10642.61933110 Ry
     xc contribution           =    -890.70181902 Ry
     ewald contribution        =    8637.51024844 Ry
     one-center paw contrib.   =  -25473.97697996 Ry

     convergence has been achieved in  16 iterations

     negative rho (up, down):  3.149E-03 0.000E+00

     Forces acting on atoms (cartesian axes, Ry/au):

     atom    1 type  1   force =    -0.00026684   -0.00000281   -0.00304213
     atom    2 type  1   force =     0.00023524   -0.00002348   -0.00304134
     atom    3 type  1   force =    -0.00001653    0.00114293   -0.00368430
     atom    4 type  1   force =    -0.00004107    0.00032375   -0.00297095
     atom    5 type  1   force =    -0.00005929   -0.00007180   -0.00355728
     atom    6 type  1   force =     0.00007715   -0.00005242   -0.00353700
     atom    7 type  1   force =     0.00036741   -0.00020338   -0.00316872
     atom    8 type  1   force =     0.00001990    0.00006701   -0.00344994
     atom    9 type  1   force =    -0.00049628   -0.00025701   -0.00323095
     atom   10 type  1   force =    -0.00001149   -0.00015207    0.00706882
     atom   11 type  1   force =    -0.00046039   -0.00116813    0.00346012
     atom   12 type  1   force =     0.00051702   -0.00121604    0.00364832
     atom   13 type  1   force =    -0.00130215    0.00006425    0.00456774
     atom   14 type  1   force =     0.00006804   -0.00015251    0.00223797
     atom   15 type  1   force =     0.00132466    0.00007964    0.00452016
     atom   16 type  1   force =    -0.00045191    0.00071702    0.00409066
     atom   17 type  1   force =     0.00046387    0.00064711    0.00386317
     atom   18 type  1   force =     0.00000938    0.00035607    0.00112567
     atom   19 type  1   force =     0.00003091    0.00017511    0.00007108
     atom   20 type  1   force =    -0.00000922    0.00017697    0.00006775
     atom   21 type  1   force =     0.00001536    0.00018795   -0.00001094
     atom   22 type  1   force =     0.00000705    0.00058325   -0.00044765
     atom   23 type  1   force =     0.00002652    0.00019039   -0.00000632
     atom   24 type  1   force =    -0.00000705    0.00018541   -0.00000840
     atom   25 type  1   force =     0.00008662    0.00031553    0.00005423
     atom   26 type  1   force =     0.00000885    0.00020442    0.00012001
     atom   27 type  1   force =    -0.00006295    0.00031262    0.00004990
     atom   28 type  1   force =    -0.00001047    0.00051234    0.00057026
     atom   29 type  1   force =     0.00004175    0.00051181    0.00052170
     atom   30 type  1   force =     0.00000909    0.00050620    0.00001203
     atom   31 type  1   force =     0.00002695    0.00071503   -0.00048657
     atom   32 type  1   force =     0.00005017    0.00049462    0.00008586
     atom   33 type  1   force =    -0.00000851    0.00051476    0.00007837
     atom   34 type  1   force =     0.00006447    0.00046177    0.00008312
     atom   35 type  1   force =     0.00003063    0.00030801    0.00000731
     atom   36 type  1   force =    -0.00003525    0.00046684    0.00008423
     atom   37 type  2   force =    -0.00024167   -0.00692119   -0.00574600
     The non-local contrib.  to forces
     atom    1 type  1   force =     0.00056310    0.00028795   -0.01797165
     atom    2 type  1   force =    -0.00051246    0.00024238   -0.01790388
     atom    3 type  1   force =    -0.00005562   -0.00100319   -0.01840146
     atom    4 type  1   force =    -0.00002141   -0.00078509   -0.01816222
     atom    5 type  1   force =     0.00000373    0.00007200   -0.01790544
     atom    6 type  1   force =     0.00003144    0.00006771   -0.01785497
     atom    7 type  1   force =    -0.00025255    0.00040386   -0.01872660
     atom    8 type  1   force =     0.00000303   -0.00013040   -0.01806062
     atom    9 type  1   force =     0.00028814    0.00049297   -0.01871648
     atom   10 type  1   force =     0.00003523   -0.00026010    0.00032344
     atom   11 type  1   force =    -0.00103362    0.00067192    0.00039425
     atom   12 type  1   force =     0.00106390    0.00069715    0.00048250
     atom   13 type  1   force =     0.00036348   -0.00099559    0.00055096
     atom   14 type  1   force =     0.00005505   -0.00005069   -0.00088069
     atom   15 type  1   force =    -0.00031093   -0.00103123    0.00060778
     atom   16 type  1   force =     0.00108441    0.00006437    0.00037778
     atom   17 type  1   force =    -0.00105323    0.00010261    0.00035634
     atom   18 type  1   force =     0.00013265   -0.00047773    0.00055625
     atom   19 type  1   force =    -0.00145193    0.00077589    0.00339406
     atom   20 type  1   force =     0.00158821    0.00067847    0.00315430
     atom   21 type  1   force =    -0.00004360    0.00133966    0.00247880
     atom   22 type  1   force =    -0.00007198    0.00376092   -0.00193349
     atom   23 type  1   force =     0.00140401   -0.00026536    0.00248025
     atom   24 type  1   force =    -0.00134289   -0.00017389    0.00245340
     atom   25 type  1   force =    -0.00183703   -0.00055317    0.00050137
     atom   26 type  1   force =     0.00015009   -0.00199569    0.00193124
     atom   27 type  1   force =     0.00157242   -0.00045576    0.00094929
     atom   28 type  1   force =     0.03684766    0.02648016    0.01845061
     atom   29 type  1   force =    -0.03927192    0.02723503    0.02165856
     atom   30 type  1   force =    -0.00016392    0.00012759    0.01539996
     atom   31 type  1   force =    -0.00056319   -0.03066742   -0.00533714
     atom   32 type  1   force =    -0.00436520   -0.00131602    0.01842889
     atom   33 type  1   force =     0.00510335   -0.00169851    0.01875227
     atom   34 type  1   force =    -0.00005399   -0.00022359    0.01609556
     atom   35 type  1   force =     0.00002790    0.00153905    0.01684586
     atom   36 type  1   force =     0.00005721   -0.00002331    0.01595265
     atom   37 type  2   force =    -0.00061292    0.00812230   -0.01925006
     The ionic contribution  to forces
     atom    1 type  1   force =     0.00323090    0.00295350  -93.38667656
     atom    2 type  1   force =    -0.00384108    0.00303811  -93.38771602
     atom    3 type  1   force =     0.00061804   -0.00705402  -93.39429702
     atom    4 type  1   force =    -0.00023021   -0.00302536  -93.38432856
     atom    5 type  1   force =    -0.00985619   -0.00458930  -93.40296388
     atom    6 type  1   force =     0.01008787   -0.00510603  -93.40254102
     atom    7 type  1   force =    -0.00690877    0.00230831  -93.39191978
     atom    8 type  1   force =    -0.00033047    0.00964606  -93.40425479
     atom    9 type  1   force =     0.00723938    0.00178588  -93.39272660
     atom   10 type  1   force =    -0.00279805    0.00818090  -31.45599828
     atom   11 type  1   force =    -0.06551877   -0.02508481  -31.52121137
     atom   12 type  1   force =     0.06880067   -0.02834530  -31.51577870
     atom   13 type  1   force =    -0.06544042   -0.03146132  -31.51213810
     atom   14 type  1   force =     0.00018663   -0.00197342  -31.61646712
     atom   15 type  1   force =     0.06635255   -0.03633990  -31.51040628
     atom   16 type  1   force =    -0.00311835    0.06165402  -31.52598771
     atom   17 type  1   force =    -0.00204653    0.06050120  -31.52958753
     atom   18 type  1   force =     0.00707560   -0.02234491  -31.43588105
     atom   19 type  1   force =     0.10930609   -0.06342983   31.37561523
     atom   20 type  1   force =    -0.11106197   -0.05791497   31.35350829
     atom   21 type  1   force =     0.00138603   -0.07279035   30.69149238
     atom   22 type  1   force =     0.00181916    0.05187449   31.08893440
     atom   23 type  1   force =    -0.05836872    0.02851556   30.72434417
     atom   24 type  1   force =     0.05766655    0.02669329   30.71728838
     atom   25 type  1   force =    -0.03542835   -0.00415011   31.00079540
     atom   26 type  1   force =    -0.00581902    0.12888001   31.28827479
     atom   27 type  1   force =     0.04068642   -0.00501021   30.95463327
     atom   28 type  1   force =    -0.43362240   -0.32235732   92.76456765
     atom   29 type  1   force =     0.38915957   -0.26677348   92.70270760
     atom   30 type  1   force =    -0.00132172    0.00075255   92.58687034
     atom   31 type  1   force =     0.02516429    0.76299326   92.71700114
     atom   32 type  1   force =    -0.02113467   -0.00170281   92.44483798
     atom   33 type  1   force =     0.01558048    0.00020831   92.42542914
     atom   34 type  1   force =     0.01917011    0.02244806   92.54955523
     atom   35 type  1   force =    -0.00197349    0.02113749   92.51268931
     atom   36 type  1   force =    -0.01770441    0.02456791   92.55637971
     atom   37 type  2   force =     0.02299325   -0.25868548   11.71595596
     The local contribution  to forces
     atom    1 type  1   force =    -0.00413417   -0.00328734   93.38433350
     atom    2 type  1   force =     0.00466534   -0.00328953   93.38528497
     atom    3 type  1   force =    -0.00058139    0.00919503   93.39168885
     atom    4 type  1   force =     0.00026231    0.00412205   93.38225178
     atom    5 type  1   force =     0.00982041    0.00442226   93.40007524
     atom    6 type  1   force =    -0.01012450    0.00493425   93.39958321
     atom    7 type  1   force =     0.00748670   -0.00281529   93.39021802
     atom    8 type  1   force =     0.00029683   -0.00944749   93.40154516
     atom    9 type  1   force =    -0.00793836   -0.00240885   93.39087766
     atom   10 type  1   force =     0.00279294   -0.00801746   31.46225320
     atom   11 type  1   force =     0.06611717    0.02322243   31.52350719
     atom   12 type  1   force =    -0.06940859    0.02627810   31.51815775
     atom   13 type  1   force =     0.06373010    0.03246783   31.51548182
     atom   14 type  1   force =    -0.00029425    0.00171042   31.61850670
     atom   15 type  1   force =    -0.06454179    0.03737548   31.51356137
     atom   16 type  1   force =     0.00142623   -0.06093392   31.52884645
     atom   17 type  1   force =     0.00362860   -0.05980118   31.53217578
     atom   18 type  1   force =    -0.00709697    0.02322142   31.43611065
     atom   19 type  1   force =    -0.10768777    0.06269904  -31.37596971
     atom   20 type  1   force =     0.10945289    0.05738614  -31.35363801
     atom   21 type  1   force =    -0.00144649    0.07147622  -30.69157195
     atom   22 type  1   force =    -0.00157157   -0.05478766  -31.08503916
     atom   23 type  1   force =     0.05681349   -0.02816573  -30.72440369
     atom   24 type  1   force =    -0.05630920   -0.02638622  -30.71726318
     atom   25 type  1   force =     0.03701858    0.00494982  -30.99890483
     atom   26 type  1   force =     0.00565179   -0.12640759  -31.28713535
     atom   27 type  1   force =    -0.04194747    0.00587737  -30.95315686
     atom   28 type  1   force =     0.39332277    0.29387979  -92.76934271
     atom   29 type  1   force =    -0.34689873    0.23811708  -92.71035225
     atom   30 type  1   force =     0.00148805   -0.00023399  -92.58557163
     atom   31 type  1   force =    -0.02429525   -0.72328777  -92.70179657
     atom   32 type  1   force =     0.02482419    0.00321215  -92.44666041
     atom   33 type  1   force =    -0.02002274    0.00168828  -92.42748465
     atom   34 type  1   force =    -0.01898702   -0.02186799  -92.54879892
     atom   35 type  1   force =     0.00193194   -0.02178351  -92.51281855
     atom   36 type  1   force =     0.01759288   -0.02414364  -92.55539981
     atom   37 type  2   force =    -0.02261390    0.24363372  -11.70253265
     The core correction contribution to forces
     atom    1 type  1   force =    -0.00003150   -0.00002143    0.01727559
     atom    2 type  1   force =     0.00003189   -0.00002073    0.01727884
     atom    3 type  1   force =     0.00000215   -0.00001006    0.01740258
     atom    4 type  1   force =     0.00000088    0.00003852    0.01726399
     atom    5 type  1   force =     0.00000813   -0.00002611    0.01728461
     atom    6 type  1   force =    -0.00000576   -0.00002301    0.01728685
     atom    7 type  1   force =     0.00003099   -0.00002229    0.01730519
     atom    8 type  1   force =     0.00000403   -0.00000186    0.01728192
     atom    9 type  1   force =    -0.00002446   -0.00002052    0.01731940
     atom   10 type  1   force =     0.00000705   -0.00002150    0.00086193
     atom   11 type  1   force =     0.00010031    0.00005584    0.00117330
     atom   12 type  1   force =    -0.00010984    0.00006706    0.00114876
     atom   13 type  1   force =     0.00012922    0.00006945    0.00110553
     atom   14 type  1   force =    -0.00000135    0.00000715    0.00144915
     atom   15 type  1   force =    -0.00013475    0.00007250    0.00109831
     atom   16 type  1   force =    -0.00001467   -0.00009377    0.00118486
     atom   17 type  1   force =     0.00002013   -0.00008701    0.00120096
     atom   18 type  1   force =    -0.00001640    0.00007668    0.00067134
     atom   19 type  1   force =    -0.00019773    0.00010509   -0.00247039
     atom   20 type  1   force =     0.00019609    0.00009735   -0.00245997
     atom   21 type  1   force =     0.00000314    0.00008871   -0.00191867
     atom   22 type  1   force =    -0.00000426   -0.00023444   -0.00189324
     atom   23 type  1   force =     0.00005095   -0.00002906   -0.00190861
     atom   24 type  1   force =    -0.00005505   -0.00003631   -0.00191357
     atom   25 type  1   force =     0.00022156    0.00007132   -0.00187286
     atom   26 type  1   force =     0.00000595   -0.00022624   -0.00242626
     atom   27 type  1   force =    -0.00023846    0.00007666   -0.00186052
     atom   28 type  1   force =     0.00331382    0.00245146   -0.01291801
     atom   29 type  1   force =    -0.00278563    0.00193776   -0.01331781
     atom   30 type  1   force =    -0.00002649   -0.00009649   -0.01652252
     atom   31 type  1   force =    -0.00021088   -0.00820235   -0.01025308
     atom   32 type  1   force =     0.00079127    0.00028261   -0.01636477
     atom   33 type  1   force =    -0.00080787    0.00030819   -0.01634910
     atom   34 type  1   force =    -0.00007463    0.00008588   -0.01657560
     atom   35 type  1   force =     0.00001702   -0.00069276   -0.01640957
     atom   36 type  1   force =     0.00005647    0.00010572   -0.01657201
     atom   37 type  2   force =     0.00000000    0.00000000    0.00000000
     The Hubbard contrib.    to forces
     atom    1 type  1   force =     0.00000000    0.00000000    0.00000000
     atom    2 type  1   force =     0.00000000    0.00000000    0.00000000
     atom    3 type  1   force =     0.00000000    0.00000000    0.00000000
     atom    4 type  1   force =     0.00000000    0.00000000    0.00000000
     atom    5 type  1   force =     0.00000000    0.00000000    0.00000000
     atom    6 type  1   force =     0.00000000    0.00000000    0.00000000
     atom    7 type  1   force =     0.00000000    0.00000000    0.00000000
     atom    8 type  1   force =     0.00000000    0.00000000    0.00000000
     atom    9 type  1   force =     0.00000000    0.00000000    0.00000000
     atom   10 type  1   force =     0.00000000    0.00000000    0.00000000
     atom   11 type  1   force =     0.00000000    0.00000000    0.00000000
     atom   12 type  1   force =     0.00000000    0.00000000    0.00000000
     atom   13 type  1   force =     0.00000000    0.00000000    0.00000000
     atom   14 type  1   force =     0.00000000    0.00000000    0.00000000
     atom   15 type  1   force =     0.00000000    0.00000000    0.00000000
     atom   16 type  1   force =     0.00000000    0.00000000    0.00000000
     atom   17 type  1   force =     0.00000000    0.00000000    0.00000000
     atom   18 type  1   force =     0.00000000    0.00000000    0.00000000
     atom   19 type  1   force =     0.00000000    0.00000000    0.00000000
     atom   20 type  1   force =     0.00000000    0.00000000    0.00000000
     atom   21 type  1   force =     0.00000000    0.00000000    0.00000000
     atom   22 type  1   force =     0.00000000    0.00000000    0.00000000
     atom   23 type  1   force =     0.00000000    0.00000000    0.00000000
     atom   24 type  1   force =     0.00000000    0.00000000    0.00000000
     atom   25 type  1   force =     0.00000000    0.00000000    0.00000000
     atom   26 type  1   force =     0.00000000    0.00000000    0.00000000
     atom   27 type  1   force =     0.00000000    0.00000000    0.00000000
     atom   28 type  1   force =     0.00000000    0.00000000    0.00000000
     atom   29 type  1   force =     0.00000000    0.00000000    0.00000000
     atom   30 type  1   force =     0.00000000    0.00000000    0.00000000
     atom   31 type  1   force =     0.00000000    0.00000000    0.00000000
     atom   32 type  1   force =     0.00000000    0.00000000    0.00000000
     atom   33 type  1   force =     0.00000000    0.00000000    0.00000000
     atom   34 type  1   force =     0.00000000    0.00000000    0.00000000
     atom   35 type  1   force =     0.00000000    0.00000000    0.00000000
     atom   36 type  1   force =     0.00000000    0.00000000    0.00000000
     atom   37 type  2   force =     0.00000000    0.00000000    0.00000000
     The SCF correction term to forces
     atom    1 type  1   force =     0.00000000    0.00000000   -0.00000000
     atom    2 type  1   force =    -0.00000000    0.00000000   -0.00000000
     atom    3 type  1   force =     0.00000000    0.00000000   -0.00000000
     atom    4 type  1   force =    -0.00000000   -0.00000000   -0.00000000
     atom    5 type  1   force =    -0.00000000    0.00000000   -0.00000000
     atom    6 type  1   force =     0.00000000    0.00000000   -0.00000000
     atom    7 type  1   force =     0.00000000   -0.00000000   -0.00000000
     atom    8 type  1   force =     0.00000000    0.00000000   -0.00000000
     atom    9 type  1   force =    -0.00000000   -0.00000000   -0.00000000
     atom   10 type  1   force =    -0.00000000   -0.00000000   -0.00000000
     atom   11 type  1   force =    -0.00000000   -0.00000000   -0.00000000
     atom   12 type  1   force =     0.00000000    0.00000000   -0.00000000
     atom   13 type  1   force =    -0.00000000   -0.00000000   -0.00000000
     atom   14 type  1   force =     0.00000000    0.00000000   -0.00000000
     atom   15 type  1   force =    -0.00000000    0.00000000   -0.00000000
     atom   16 type  1   force =     0.00000000    0.00000000   -0.00000000
     atom   17 type  1   force =    -0.00000000   -0.00000000   -0.00000000
     atom   18 type  1   force =    -0.00000000   -0.00000000   -0.00000000
     atom   19 type  1   force =     0.00006308    0.00002481   -0.00058612
     atom   20 type  1   force =    -0.00018361   -0.00007013   -0.00058488
     atom   21 type  1   force =     0.00011712    0.00007359   -0.00057952
     atom   22 type  1   force =    -0.00016347   -0.00003017   -0.00060417
     atom   23 type  1   force =     0.00012761    0.00013486   -0.00060645
     atom   24 type  1   force =     0.00003437    0.00008842   -0.00066145
     atom   25 type  1   force =     0.00011270   -0.00000245   -0.00055287
     atom   26 type  1   force =     0.00002087   -0.00004620   -0.00061242
     atom   27 type  1   force =    -0.00013503   -0.00017555   -0.00060330
     atom   28 type  1   force =     0.00012850    0.00005813   -0.00027531
     atom   29 type  1   force =    -0.00016071   -0.00000470   -0.00026241
     atom   30 type  1   force =     0.00003399   -0.00004357   -0.00025215
     atom   31 type  1   force =    -0.00006719   -0.00012081   -0.00018893
     atom   32 type  1   force =    -0.00006458    0.00001858   -0.00024384
     atom   33 type  1   force =     0.00013910    0.00000837   -0.00035731
     atom   34 type  1   force =     0.00001083    0.00001930   -0.00028116
     atom   35 type  1   force =     0.00002810    0.00010762   -0.00038777
     atom   36 type  1   force =    -0.00003657   -0.00003997   -0.00036433
     atom   37 type  2   force =    -0.00000728    0.00000815   -0.00000727

     Total force =     0.009229     Total SCF correction =     0.002082
     SCF correction compared to forces is large: reduce conv_thr to get better values

     Writing all to output data dir ./pwscf.save/

     init_run     :     10.28s CPU     10.60s WALL (       1 calls)
     electrons    :    387.34s CPU    406.87s WALL (       1 calls)
     forces       :      3.41s CPU      4.01s WALL (       1 calls)

     Called by init_run:
     wfcinit      :      5.63s CPU      5.83s WALL (       1 calls)
     potinit      :      3.11s CPU      3.18s WALL (       1 calls)
     hinit0       :      0.94s CPU      0.96s WALL (       1 calls)

     Called by electrons:
     c_bands      :    344.77s CPU    360.74s WALL (      17 calls)
     sum_band     :     24.75s CPU     25.53s WALL (      17 calls)
     v_of_rho     :      8.57s CPU     10.16s WALL (      17 calls)
     newd         :      3.56s CPU      4.25s WALL (      17 calls)
     PAW_pot      :      4.39s CPU      4.60s WALL (      17 calls)
     mix_rho      :      3.30s CPU      3.37s WALL (      17 calls)
     vdW_kernel   :      1.72s CPU      1.74s WALL (       1 calls)

     Called by c_bands:
     init_us_2    :      2.53s CPU      2.57s WALL (     468 calls)
     init_us_2:cp :      2.52s CPU      2.57s WALL (     468 calls)
     cegterg      :    337.38s CPU    353.04s WALL (     221 calls)

     Called by *egterg:
     cdiaghg      :     66.20s CPU     67.88s WALL (    1216 calls)
     h_psi        :    176.41s CPU    187.05s WALL (    1242 calls)
     s_psi        :     14.02s CPU     15.28s WALL (    1242 calls)
     g_psi        :      0.42s CPU      0.43s WALL (    1008 calls)

     Called by h_psi:
     h_psi:calbec :     24.44s CPU     26.32s WALL (    1242 calls)
     vloc_psi     :    136.56s CPU    144.07s WALL (    1242 calls)
     add_vuspsi   :     14.35s CPU     15.59s WALL (    1242 calls)

     General routines
     calbec       :     31.06s CPU     33.09s WALL (    1515 calls)
     fft          :      6.06s CPU      7.81s WALL (    1131 calls)
     ffts         :      2.09s CPU      2.13s WALL (    3905 calls)
     fftw         :    132.02s CPU    137.48s WALL (  290813 calls)
     interpolate  :      0.77s CPU      0.83s WALL (      17 calls)

     Parallel routines

     PWSCF        :   6m42.68s CPU   7m 5.77s WALL


   This run was terminated on:   9:38:14  23Feb2025            

=------------------------------------------------------------------------------=
   JOB DONE.
=------------------------------------------------------------------------------=
