
     Program PWSCF v.7.1 starts on  7Nov2025 at 13: 8:26 
        Git branch: heads/qe-7.1
        Last git commit: 48ba0178f8fede6d020eb786884699a9f063f55d-dirty
        Last git commit date: Fri Jan 27 14:22:33 2023 +0000
        Last git commit subject: Merge branch 'fix_hubbard' into 'develop'

     This program is part of the open-source Quantum ESPRESSO suite
     for quantum simulation of materials; please cite
         "P. Giannozzi et al., J. Phys.:Condens. Matter 21 395502 (2009);
         "P. Giannozzi et al., J. Phys.:Condens. Matter 29 465901 (2017);
         "P. Giannozzi et al., J. Chem. Phys. 152 154105 (2020);
          URL http://www.quantum-espresso.org", 
     in publications or presentations arising from this work. More details at
     http://www.quantum-espresso.org/quote

     Parallel version (MPI), running on    48 processors

     MPI processes distributed on     1 nodes
     271636 MiB available memory on the printing compute node when the environment starts

     Reading input from espresso.pwi
Warning: card &CELL ignored
Warning: card / ignored
Warning: card &FCP ignored
Warning: card / ignored
Warning: card &RISM ignored
Warning: card / ignored

     Current dimensions of program PWSCF are:
     Max number of different atomic species (ntypx) = 10
     Max number of k-points (npk) =  40000
     Max angular momentum in pseudopotentials (lmaxx) =  4
     file Pt.pbe-n-kjpaw_psl.1.0.0.UPF: wavefunction(s)  6S 5D renormalized
     file C.pbe-n-kjpaw_psl.1.0.0.UPF: wavefunction(s)  2S 2P renormalized
     file H.pbe-kjpaw_psl.1.0.0.UPF: wavefunction(s)  1S renormalized

     **************************************************************************
     Initializing libbeef V0.1.2 with the BEEF-vdW functional.
     Citation: Wellendorff et al., PRB 85, 235149 (2012).
     **************************************************************************


     IMPORTANT: XC functional enforced from input :
     Exchange-correlation= BEEF-VDW
                           (   1   4  43  14   2   0   0)
     Any further DFT definition will be discarded
     Please, verify this is what you really want


     R & G space division:  proc/nbgrp/npool/nimage =      48
     Subspace diagonalization in iterative solution of the eigenvalue problem:
     one sub-group per band group will be used
     custom distributed-memory algorithm (size of sub-group:  2*  2 procs)


     Parallelization info
     --------------------
     sticks:   dense  smooth     PW     G-vecs:    dense   smooth      PW
     Min         151      59     16                29407     7165    1028
     Max         152      60     17                29420     7176    1042
     Sum        7267    2839    769              1411785   344073   49691

     Using Slab Decomposition



     bravais-lattice index     =            0
     lattice parameter (alat)  =      16.0349  a.u.
     unit-cell volume          =   10068.6169 (a.u.)^3
     number of atoms/cell      =           38
     number of atomic types    =            3
     number of electrons       =       365.00
     number of Kohn-Sham states=          220
     kinetic-energy cutoff     =      40.0000  Ry
     charge density cutoff     =     410.0000  Ry
     scf convergence threshold =      1.0E-06
     mixing beta               =       0.7000
     number of iterations used =            8  local-TF  mixing
     Exchange-correlation= BEEF-VDW
                           (   1   4  43  14   2   0   0)

     celldm(1)=  16.034858  celldm(2)=   0.000000  celldm(3)=   0.000000
     celldm(4)=   0.000000  celldm(5)=   0.000000  celldm(6)=   0.000000

     crystal axes: (cart. coord. in units of alat)
               a(1) = (   1.000000   0.000000   0.000000 )  
               a(2) = (   0.500000   0.866025   0.000000 )  
               a(3) = (   0.000000   0.000000   2.819966 )  

     reciprocal axes: (cart. coord. in units 2 pi/alat)
               b(1) = (  1.000000 -0.577350  0.000000 )  
               b(2) = (  0.000000  1.154701  0.000000 )  
               b(3) = (  0.000000  0.000000  0.354614 )  


     PseudoPot. # 1 for Pt read from file:
     /users/kbadger1/espresso/pseudo/pslibrary.1.0.0/pbe/PSEUDOPOTENTIALS/Pt.pbe-n-kjpaw_psl.1.0.0.UPF
     MD5 check sum: 2e24a0b5bf98a4ed1a57fa81bca8c143
     Pseudo is Projector augmented-wave + core cor, Zval = 10.0
     Generated using 'atomic' code by A. Dal Corso  v.7.0
     Shape of augmentation charge: PSQ
     Using radial grid of 1277 points,  6 beta functions with: 
                l(1) =   0
                l(2) =   0
                l(3) =   1
                l(4) =   1
                l(5) =   2
                l(6) =   2
     Q(r) pseudized with 0 coefficients 


     PseudoPot. # 2 for C  read from file:
     /users/kbadger1/espresso/pseudo/pslibrary.1.0.0/pbe/PSEUDOPOTENTIALS/C.pbe-n-kjpaw_psl.1.0.0.UPF
     MD5 check sum: 6408e75cdba28732cea38a4db8498ce4
     Pseudo is Projector augmented-wave + core cor, Zval =  4.0
     Generated using 'atomic' code by A. Dal Corso  v.7.0
     Shape of augmentation charge: PSQ
     Using radial grid of 1073 points,  4 beta functions with: 
                l(1) =   0
                l(2) =   0
                l(3) =   1
                l(4) =   1
     Q(r) pseudized with 0 coefficients 


     PseudoPot. # 3 for H  read from file:
     /users/kbadger1/espresso/pseudo/pslibrary.1.0.0/pbe/PSEUDOPOTENTIALS/H.pbe-kjpaw_psl.1.0.0.UPF
     MD5 check sum: fe4c6fa958fa6d3815bf5d2419cbf1df
     Pseudo is Projector augmented-wave, Zval =  1.0
     Generated using 'atomic' code by A. Dal Corso  v.7.0
     Shape of augmentation charge: PSQ
     Using radial grid of  929 points,  2 beta functions with: 
                l(1) =   0
                l(2) =   0
     Q(r) pseudized with 0 coefficients 


     atomic species   valence    mass     pseudopotential
        Pt            10.00   195.08400     Pt( 1.00)
        C              4.00    12.01100     C ( 1.00)
        H              1.00     1.00800     H ( 1.00)

     No symmetry found



   Cartesian axes

     site n.     atom                  positions (alat units)
         1           Pt  tau(   1) = (   0.0000000   0.0000000   1.0017346  )
         2           Pt  tau(   2) = (   0.3333333   0.0000000   1.0017346  )
         3           Pt  tau(   3) = (   0.6666667   0.0000000   1.0017346  )
         4           Pt  tau(   4) = (   0.1666667   0.2886751   1.0017346  )
         5           Pt  tau(   5) = (   0.5000000   0.2886751   1.0017346  )
         6           Pt  tau(   6) = (   0.8333333   0.2886751   1.0017346  )
         7           Pt  tau(   7) = (   0.3333333   0.5773503   1.0017346  )
         8           Pt  tau(   8) = (   0.6666667   0.5773503   1.0017346  )
         9           Pt  tau(   9) = (   1.0000000   0.5773503   1.0017346  )
        10           Pt  tau(  10) = (   0.1666667   0.0962250   1.2739001  )
        11           Pt  tau(  11) = (   0.5000000   0.0962250   1.2739001  )
        12           Pt  tau(  12) = (   0.8333333   0.0962250   1.2739001  )
        13           Pt  tau(  13) = (   0.3333333   0.3849002   1.2739001  )
        14           Pt  tau(  14) = (   0.6666667   0.3849002   1.2739001  )
        15           Pt  tau(  15) = (   1.0000000   0.3849002   1.2739001  )
        16           Pt  tau(  16) = (   0.5000000   0.6735753   1.2739001  )
        17           Pt  tau(  17) = (   0.8333333   0.6735753   1.2739001  )
        18           Pt  tau(  18) = (   1.1666667   0.6735753   1.2739001  )
        19           Pt  tau(  19) = (   0.0030967   0.1920996   1.5520680  )
        20           Pt  tau(  20) = (   0.3302393   0.1921033   1.5520648  )
        21           Pt  tau(  21) = (   0.6666673   0.1934896   1.5422665  )
        22           Pt  tau(  22) = (   0.1666702   0.4770456   1.5471482  )
        23           Pt  tau(  23) = (   0.4994973   0.4805845   1.5408592  )
        24           Pt  tau(  24) = (   0.8338346   0.4805829   1.5408736  )
        25           Pt  tau(  25) = (   0.3347223   0.7714389   1.5449991  )
        26           Pt  tau(  26) = (   0.6666638   0.7709042   1.5473144  )
        27           Pt  tau(  27) = (   0.9986187   0.7714338   1.5450066  )
        28           Pt  tau(  28) = (  -0.0151034  -0.0099011   1.8331747  )
        29           Pt  tau(  29) = (   0.3484352  -0.0099008   1.8331688  )
        30           Pt  tau(  30) = (   0.6666696   0.0006973   1.8174448  )
        31           Pt  tau(  31) = (   0.1666738   0.3080478   1.8631609  )
        32           Pt  tau(  32) = (   0.5020516   0.2898859   1.8153215  )
        33           Pt  tau(  33) = (   0.8312815   0.2898825   1.8153339  )
        34           Pt  tau(  34) = (   0.3340831   0.5774704   1.8143759  )
        35           Pt  tau(  35) = (   0.6666666   0.5726953   1.8130265  )
        36           Pt  tau(  36) = (   0.9992645   0.5774728   1.8144004  )
        37           C   tau(  37) = (   0.1666664   0.0862234   1.9148387  )
        38           H   tau(  38) = (   0.1666930   0.3462362   2.0429348  )

     number of k points=    13  Marzari-Vanderbilt smearing, width (Ry)=  0.0010
                       cart. coord. in units 2pi/alat
        k(    1) = (   0.0000000   0.0000000   0.0000000), wk =   0.0800000
        k(    2) = (   0.0000000   0.2309401   0.0000000), wk =   0.1600000
        k(    3) = (   0.0000000   0.4618802   0.0000000), wk =   0.1600000
        k(    4) = (   0.2000000  -0.1154701   0.0000000), wk =   0.1600000
        k(    5) = (   0.2000000   0.1154701   0.0000000), wk =   0.1600000
        k(    6) = (   0.2000000   0.3464102   0.0000000), wk =   0.1600000
        k(    7) = (   0.2000000  -0.5773503   0.0000000), wk =   0.1600000
        k(    8) = (   0.2000000  -0.3464102   0.0000000), wk =   0.1600000
        k(    9) = (   0.4000000  -0.2309401   0.0000000), wk =   0.1600000
        k(   10) = (   0.4000000  -0.0000000   0.0000000), wk =   0.1600000
        k(   11) = (   0.4000000   0.2309401   0.0000000), wk =   0.1600000
        k(   12) = (   0.4000000  -0.6928203   0.0000000), wk =   0.1600000
        k(   13) = (   0.4000000  -0.4618802   0.0000000), wk =   0.1600000

     Dense  grid:  1411785 G-vectors     FFT dimensions: ( 108, 108, 300)

     Smooth grid:   344073 G-vectors     FFT dimensions: (  72,  72, 192)

     Estimated max dynamical RAM per process >     206.88 MB

     Estimated total dynamical RAM >       9.70 GB

     Initial potential from superposition of free atoms

     starting charge     364.9938, renormalised to     365.0000

     negative rho (up, down):  3.259E-03 0.000E+00


     %%%%%%%%%%%%%%%%%%%%%%%%%%%%%%%%%%%%%%%%%%%%%%%%%%%%%%%%%%%%%%%%%%%%%%%%
     %                                                                      %
     % You are using vdW-DF, which was implemented by the Thonhauser group. %
     % Please cite the following two papers that made this development      %
     % possible and the two reviews that describe the various versions:     %
     %                                                                      %
     %   T. Thonhauser et al., PRL 115, 136402 (2015).                      %
     %   T. Thonhauser et al., PRB 76, 125112 (2007).                       %
     %   K. Berland et al., Rep. Prog. Phys. 78, 066501 (2015).             %
     %   D.C. Langreth et al., J. Phys.: Condens. Matter 21, 084203 (2009). %
     %                                                                      %
     % If you are calculating stress with vdW-DF, please also cite:         %
     %                                                                      %
     %   R. Sabatini et al., J. Phys.: Condens. Matter 24, 424209 (2012).   %
     %                                                                      %
     %%%%%%%%%%%%%%%%%%%%%%%%%%%%%%%%%%%%%%%%%%%%%%%%%%%%%%%%%%%%%%%%%%%%%%%%

     %%%%%%%%%%%%%%%%%%%%%%%%%%%%%%%%%%%%%%%%%%%%%%%%%%%%%%%%%%%%%%%%%%%%%%%%
     %                                                                      %
     %  vdW-DF NEWS:                                                        %
     %                                                                      %
     %  * vdW-DF3 is now available. DOI: 10.1021/acs.jctc.0c00471           %
     %    use with input_dft = 'vdW-DF3-opt1' or 'vdW-DF3-opt2'             %
     %                                                                      %
     %  * Unscreened and range-separated hybrid vdW-DF-cx functionals       %
     %    DOI: 10.1063/1.4986522 and 10.1088/1361-648X/ac2ad2               %
     %    use with input_dft = 'vdW-DF-cx0'    and 'vdW-DF-ahcx'            %
     %  * Unscreened and range-separated hybrid vdW-DF2-b86r functionals    %
     %    DOI: 10.1063/1.4986522 and DOI: 10.1103/PhysRevX.12.041003        %
     %    use with input_dft = 'vdW-DF2-br0' and 'vdW-DF2-ahbr'             %
     %                                                                      %
     %%%%%%%%%%%%%%%%%%%%%%%%%%%%%%%%%%%%%%%%%%%%%%%%%%%%%%%%%%%%%%%%%%%%%%%%


     Starting wfcs are  329 randomized atomic wfcs
     Checking if some PAW data can be deallocated... 

     total cpu time spent up to now is       19.5 secs

     per-process dynamical memory:   211.8 Mb

     Self-consistent Calculation

     iteration #  1     ecut=    40.00 Ry     beta= 0.70
     Davidson diagonalization with overlap
     ethr =  1.00E-02,  avg # of iterations =  2.0

     Threshold (ethr) on eigenvalues was too large:
     Diagonalizing with lowered threshold

     Davidson diagonalization with overlap
     ethr =  4.95E-04,  avg # of iterations =  4.4

     negative rho (up, down):  1.459E-02 0.000E+00

     total cpu time spent up to now is       58.8 secs

     total energy              =  -27774.07700732 Ry
     estimated scf accuracy    <       2.10096524 Ry

     iteration #  2     ecut=    40.00 Ry     beta= 0.70
     Davidson diagonalization with overlap
     ethr =  5.76E-04,  avg # of iterations =  2.0

     negative rho (up, down):  1.220E-02 0.000E+00

     total cpu time spent up to now is       80.3 secs

     total energy              =  -27774.29422736 Ry
     estimated scf accuracy    <       0.76631047 Ry

     iteration #  3     ecut=    40.00 Ry     beta= 0.70
     Davidson diagonalization with overlap
     ethr =  2.10E-04,  avg # of iterations =  2.0

     negative rho (up, down):  8.391E-03 0.000E+00

     total cpu time spent up to now is       92.8 secs

     total energy              =  -27774.35814540 Ry
     estimated scf accuracy    <       0.18905153 Ry

     iteration #  4     ecut=    40.00 Ry     beta= 0.70
     Davidson diagonalization with overlap
     ethr =  5.18E-05,  avg # of iterations = 10.4

     negative rho (up, down):  4.585E-03 0.000E+00

     total cpu time spent up to now is      136.4 secs

     total energy              =  -27774.39940109 Ry
     estimated scf accuracy    <       0.07132124 Ry

     iteration #  5     ecut=    40.00 Ry     beta= 0.70
     Davidson diagonalization with overlap
     ethr =  1.95E-05,  avg # of iterations =  4.0

     negative rho (up, down):  2.876E-03 0.000E+00

     total cpu time spent up to now is      151.9 secs

     total energy              =  -27774.40740243 Ry
     estimated scf accuracy    <       0.04282351 Ry

     iteration #  6     ecut=    40.00 Ry     beta= 0.70
     Davidson diagonalization with overlap
     ethr =  1.17E-05,  avg # of iterations =  2.0

     negative rho (up, down):  1.047E-03 0.000E+00

     total cpu time spent up to now is      173.2 secs

     total energy              =  -27774.40914293 Ry
     estimated scf accuracy    <       0.00558703 Ry

     iteration #  7     ecut=    40.00 Ry     beta= 0.70
     Davidson diagonalization with overlap
     c_bands:  2 eigenvalues not converged
     c_bands:  1 eigenvalues not converged
     c_bands:  1 eigenvalues not converged
     c_bands:  1 eigenvalues not converged
     ethr =  1.53E-06,  avg # of iterations = 16.8

     negative rho (up, down):  5.820E-04 0.000E+00

     total cpu time spent up to now is      227.2 secs

     total energy              =  -27774.41126889 Ry
     estimated scf accuracy    <       0.00191361 Ry

     iteration #  8     ecut=    40.00 Ry     beta= 0.70
     Davidson diagonalization with overlap
     c_bands:  1 eigenvalues not converged
     c_bands:  1 eigenvalues not converged
     ethr =  5.24E-07,  avg # of iterations =  5.4

     negative rho (up, down):  4.306E-04 0.000E+00

     total cpu time spent up to now is      252.4 secs

     total energy              =  -27774.41153528 Ry
     estimated scf accuracy    <       0.00030311 Ry

     iteration #  9     ecut=    40.00 Ry     beta= 0.70
     Davidson diagonalization with overlap
     c_bands:  1 eigenvalues not converged
     ethr =  8.30E-08,  avg # of iterations =  5.4

     negative rho (up, down):  3.792E-04 0.000E+00

     total cpu time spent up to now is      284.3 secs

     total energy              =  -27774.41162920 Ry
     estimated scf accuracy    <       0.00022828 Ry

     iteration # 10     ecut=    40.00 Ry     beta= 0.70
     Davidson diagonalization with overlap
     ethr =  6.25E-08,  avg # of iterations =  1.7

     negative rho (up, down):  4.060E-04 0.000E+00

     total cpu time spent up to now is      296.2 secs

     total energy              =  -27774.41164760 Ry
     estimated scf accuracy    <       0.00016084 Ry

     iteration # 11     ecut=    40.00 Ry     beta= 0.70
     Davidson diagonalization with overlap
     ethr =  4.41E-08,  avg # of iterations =  1.5

     negative rho (up, down):  5.573E-04 0.000E+00

     total cpu time spent up to now is      318.4 secs

     total energy              =  -27774.41167283 Ry
     estimated scf accuracy    <       0.00009895 Ry

     iteration # 12     ecut=    40.00 Ry     beta= 0.70
     Davidson diagonalization with overlap
     ethr =  2.71E-08,  avg # of iterations =  1.5

     negative rho (up, down):  8.552E-04 0.000E+00

     total cpu time spent up to now is      330.0 secs

     total energy              =  -27774.41169511 Ry
     estimated scf accuracy    <       0.00006095 Ry

     iteration # 13     ecut=    40.00 Ry     beta= 0.70
     Davidson diagonalization with overlap
     ethr =  1.67E-08,  avg # of iterations =  1.9

     negative rho (up, down):  1.510E-03 0.000E+00

     total cpu time spent up to now is      351.3 secs

     total energy              =  -27774.41171233 Ry
     estimated scf accuracy    <       0.00002567 Ry

     iteration # 14     ecut=    40.00 Ry     beta= 0.70
     Davidson diagonalization with overlap
     ethr =  7.03E-09,  avg # of iterations =  1.6

     negative rho (up, down):  1.746E-03 0.000E+00

     total cpu time spent up to now is      364.9 secs

     total energy              =  -27774.41171914 Ry
     estimated scf accuracy    <       0.00001154 Ry

     iteration # 15     ecut=    40.00 Ry     beta= 0.70
     Davidson diagonalization with overlap
     ethr =  3.16E-09,  avg # of iterations =  1.9

     negative rho (up, down):  2.556E-03 0.000E+00

     total cpu time spent up to now is      385.8 secs

     total energy              =  -27774.41171802 Ry
     estimated scf accuracy    <       0.00000467 Ry

     iteration # 16     ecut=    40.00 Ry     beta= 0.70
     Davidson diagonalization with overlap
     ethr =  1.28E-09,  avg # of iterations =  2.5

     negative rho (up, down):  2.889E-03 0.000E+00

     total cpu time spent up to now is      408.1 secs

     total energy              =  -27774.41171700 Ry
     estimated scf accuracy    <       0.00000249 Ry

     iteration # 17     ecut=    40.00 Ry     beta= 0.70
     Davidson diagonalization with overlap
     ethr =  6.82E-10,  avg # of iterations =  2.0

     negative rho (up, down):  3.102E-03 0.000E+00

     total cpu time spent up to now is      420.9 secs

     End of self-consistent calculation

          k = 0.0000 0.0000 0.0000 ( 42913 PWs)   bands (ev):

    -9.6637  -6.0945  -4.8146  -4.2568  -4.2405  -3.7674  -3.7472  -3.7149
    -3.7015  -3.6895  -3.6430  -3.6288  -3.5747  -3.3115  -3.1900  -3.1833
    -3.1510  -3.1206  -3.1109  -3.0032  -2.7727  -2.7686  -2.7519  -2.6877
    -2.5553  -2.5499  -2.5442  -2.5092  -2.4926  -2.4474  -2.4418  -2.4228
    -2.3402  -2.3386  -2.2839  -2.2655  -2.2236  -2.2192  -2.1986  -2.1494
    -2.1442  -2.1072  -1.9173  -1.8972  -1.7805  -1.7305  -1.7059  -1.6743
    -1.6394  -1.6377  -1.5939  -1.5064  -1.4709  -1.4659  -1.4072  -1.3816
    -1.3460  -1.2848  -1.1560  -0.9939  -0.9886  -0.8867  -0.8618  -0.8350
    -0.7772  -0.7696  -0.7596  -0.7014  -0.6814  -0.6582  -0.6522  -0.6411
    -0.6274  -0.6172  -0.6089  -0.5791  -0.5443  -0.5355  -0.5286  -0.5254
    -0.4923  -0.4902  -0.4768  -0.4655  -0.4328  -0.4178  -0.3810  -0.3168
    -0.2609  -0.2608  -0.2434  -0.2235  -0.1912  -0.1570  -0.1285  -0.1233
    -0.1015  -0.0870  -0.0214  -0.0057  -0.0010   0.0354   0.0403   0.0466
     0.1017   0.1159   0.1805   0.1909   0.1999   0.2385   0.3989   0.4778
     0.4994   0.5492   0.6163   0.6395   0.6775   0.6865   0.7062   0.7359
     0.8193   0.8297   0.8361   0.8915   0.9036   0.9159   0.9164   0.9214
     0.9578   1.0352   1.1448   1.1465   1.1709   1.1891   1.1957   1.2435
     1.2572   1.2997   1.3632   1.3855   1.4363   1.4441   1.4711   1.4928
     1.4943   1.5768   1.6040   1.6589   1.6930   1.7050   1.7190   1.7515
     1.8045   1.8541   1.8549   1.8737   1.8771   1.8858   1.8912   1.9061
     1.9179   1.9232   1.9582   1.9586   1.9664   2.0041   2.0083   2.0376
     2.0755   2.0806   2.0967   2.1036   2.1092   2.1508   2.1642   2.1868
     2.2404   2.2414   2.2415   2.2536   2.2604   2.2964   2.3135   2.3377
     2.3712   2.3714   2.4035   2.4105   2.5420   2.5421   2.6374   2.6606
     2.6671   2.6934   2.6950   2.7292   2.8818   3.0021   3.3368   3.3622
     3.5561   3.5586   3.6171   4.4035   4.6432   4.8143   5.6226   5.6452
     5.8301   5.9193   6.1278   6.2054   6.6137   7.4800   7.5060   7.5234
     7.5250   7.5647   7.7443   7.7693

          k = 0.0000 0.2309 0.0000 ( 42996 PWs)   bands (ev):

    -9.6552  -5.9538  -4.7103  -4.3515  -4.2167  -4.0676  -3.7979  -3.7194
    -3.6151  -3.5409  -3.5167  -3.4721  -3.4170  -3.3297  -3.2212  -3.1891
    -3.1118  -3.0989  -3.0368  -2.9527  -2.8052  -2.7401  -2.6995  -2.6764
    -2.6074  -2.5932  -2.5591  -2.5333  -2.4752  -2.4649  -2.4227  -2.4195
    -2.3712  -2.3692  -2.2934  -2.2922  -2.2570  -2.2313  -2.1334  -2.0679
    -2.0397  -2.0235  -1.8774  -1.8723  -1.8266  -1.8147  -1.7690  -1.7352
    -1.7085  -1.7049  -1.6270  -1.5611  -1.4528  -1.4394  -1.3802  -1.3588
    -1.3268  -1.2855  -1.1895  -1.0777  -1.0622  -1.0164  -1.0140  -0.9498
    -0.9332  -0.9080  -0.8837  -0.8603  -0.7944  -0.7800  -0.7320  -0.7093
    -0.6955  -0.6660  -0.6433  -0.6030  -0.5673  -0.5412  -0.5071  -0.4950
    -0.4737  -0.4720  -0.4358  -0.4095  -0.3815  -0.3800  -0.3454  -0.3233
    -0.2752  -0.2606  -0.2510  -0.2115  -0.2038  -0.1976  -0.1683  -0.1262
    -0.0805  -0.0794  -0.0585  -0.0407  -0.0298  -0.0081   0.0008   0.0715
     0.0796   0.1546   0.1641   0.2031   0.2278   0.2360   0.2704   0.2826
     0.2852   0.3442   0.4006   0.4628   0.5385   0.5745   0.6165   0.6790
     0.7098   0.7112   0.7423   0.7491   0.8718   0.8734   0.9370   0.9384
     1.0130   1.0229   1.0390   1.0503   1.0770   1.1020   1.1478   1.1738
     1.2236   1.2983   1.3081   1.3157   1.3640   1.3857   1.4019   1.4450
     1.4872   1.5190   1.5316   1.6014   1.6179   1.6396   1.6561   1.7014
     1.7053   1.7413   1.7876   1.8428   1.8434   1.8816   1.8895   1.9304
     1.9553   1.9970   2.0323   2.0640   2.0680   2.0985   2.1374   2.1531
     2.1990   2.2327   2.2460   2.2664   2.3157   2.3251   2.3344   2.3515
     2.3680   2.4108   2.4134   2.4489   2.4712   2.5371   2.5535   2.5783
     2.6075   2.6196   2.6422   2.6807   2.6870   2.7076   2.7510   2.7611
     2.8229   2.8257   2.9225   2.9666   3.0116   3.2992   3.3125   3.4888
     3.7713   4.0146   4.1960   4.2375   4.8519   4.9694   5.3622   5.4905
     5.8103   5.8878   6.3470   6.5086   6.5671   6.6039   6.8451   7.3120
     7.5214   7.6610   7.7562   7.8288

          k = 0.0000 0.4619 0.0000 ( 43046 PWs)   bands (ev):

    -9.6415  -5.5528  -4.9479  -4.4423  -4.1502  -4.1006  -3.8306  -3.6822
    -3.6624  -3.4859  -3.3451  -3.2435  -3.2108  -3.1409  -3.1198  -3.1081
    -2.9902  -2.9498  -2.9165  -2.8920  -2.8663  -2.8120  -2.7483  -2.7221
    -2.7060  -2.6887  -2.6677  -2.6425  -2.5780  -2.5431  -2.4475  -2.3889
    -2.3197  -2.3161  -2.2946  -2.2334  -2.1959  -2.1420  -2.1198  -2.0639
    -2.0526  -2.0252  -1.9884  -1.8862  -1.8378  -1.7865  -1.7628  -1.7486
    -1.6549  -1.6354  -1.6015  -1.5854  -1.5510  -1.5398  -1.4920  -1.4556
    -1.3993  -1.3523  -1.2811  -1.2240  -1.2037  -1.1865  -1.1441  -1.1267
    -1.0273  -1.0045  -0.9737  -0.9427  -0.8935  -0.8715  -0.8489  -0.8267
    -0.7599  -0.7262  -0.7070  -0.6860  -0.6292  -0.6096  -0.5522  -0.5459
    -0.5219  -0.4949  -0.4916  -0.4653  -0.4258  -0.4245  -0.4021  -0.3890
    -0.3657  -0.3277  -0.3063  -0.2837  -0.2490  -0.2251  -0.2049  -0.2043
    -0.1407  -0.1032  -0.0997  -0.0779  -0.0308  -0.0229   0.0043   0.0186
     0.0455   0.0866   0.1354   0.1807   0.2034   0.2472   0.2592   0.2995
     0.3664   0.3696   0.4473   0.4569   0.5093   0.5251   0.5748   0.6019
     0.6288   0.6562   0.6692   0.7307   0.7457   0.7654   0.7786   0.7954
     0.8165   0.9012   0.9076   0.9497   0.9633   0.9833   1.0622   1.0757
     1.1349   1.2255   1.2360   1.2842   1.3073   1.3537   1.3630   1.4020
     1.4668   1.4696   1.5521   1.5584   1.5710   1.5965   1.6184   1.6426
     1.7115   1.7460   1.7753   1.7875   1.8478   1.8523   1.9054   1.9068
     1.9558   2.0065   2.0355   2.0793   2.1312   2.1361   2.2171   2.2383
     2.2589   2.2998   2.3331   2.3498   2.3729   2.3928   2.4454   2.4788
     2.4911   2.5308   2.5433   2.5787   2.5939   2.6475   2.6619   2.7170
     2.7697   2.8304   2.8372   2.8514   2.8888   2.9214   3.0738   3.2509
     3.2966   3.3392   3.5573   3.7615   3.8212   4.0283   4.1032   4.3879
     4.4449   4.6379   4.6752   4.7885   5.1114   5.1439   5.2561   5.3473
     5.4692   5.5055   5.5968   6.0310   6.1584   6.2478   6.5136   6.9098
     6.9557   7.2206   7.4833   7.5513

          k = 0.2000-0.1155 0.0000 ( 42996 PWs)   bands (ev):

    -9.6547  -5.9543  -4.7126  -4.3702  -4.1955  -4.0590  -3.7746  -3.7444
    -3.6141  -3.5370  -3.5190  -3.4629  -3.4300  -3.3319  -3.2521  -3.1628
    -3.1201  -3.0790  -3.0488  -2.9465  -2.8233  -2.7449  -2.6896  -2.6686
    -2.6177  -2.5778  -2.5559  -2.5180  -2.4804  -2.4670  -2.4300  -2.4205
    -2.3780  -2.3607  -2.3156  -2.2937  -2.2568  -2.1957  -2.1716  -2.0905
    -2.0445  -2.0103  -1.9016  -1.8512  -1.8120  -1.7992  -1.7700  -1.7383
    -1.7210  -1.6861  -1.6353  -1.5372  -1.4562  -1.4226  -1.3790  -1.3612
    -1.3241  -1.2928  -1.2058  -1.0913  -1.0526  -1.0133  -1.0069  -0.9761
    -0.9237  -0.9002  -0.8895  -0.8458  -0.8008  -0.7631  -0.7355  -0.7089
    -0.6852  -0.6744  -0.6576  -0.6124  -0.5744  -0.5553  -0.5246  -0.4876
    -0.4667  -0.4417  -0.4164  -0.4066  -0.3973  -0.3701  -0.3521  -0.3237
    -0.3033  -0.2827  -0.2485  -0.2300  -0.2102  -0.1772  -0.1563  -0.1300
    -0.0994  -0.0775  -0.0554  -0.0425  -0.0266  -0.0106   0.0046   0.0618
     0.0745   0.1266   0.1662   0.2099   0.2323   0.2433   0.2720   0.2853
     0.3239   0.3650   0.4051   0.4772   0.5269   0.5381   0.6204   0.6417
     0.6729   0.7114   0.7323   0.7884   0.8711   0.8995   0.9235   0.9566
     0.9985   1.0297   1.0590   1.0819   1.0928   1.1104   1.1192   1.1477
     1.2367   1.2860   1.3026   1.3202   1.3397   1.3873   1.4151   1.4345
     1.4775   1.5276   1.5418   1.5846   1.6274   1.6668   1.6824   1.6991
     1.7129   1.7461   1.8128   1.8441   1.8598   1.8675   1.9100   1.9306
     1.9603   1.9821   2.0238   2.0634   2.0823   2.1142   2.1429   2.1620
     2.2024   2.2118   2.2372   2.2586   2.3031   2.3181   2.3343   2.3563
     2.3689   2.4010   2.4173   2.4445   2.4877   2.5392   2.5551   2.5751
     2.6031   2.6138   2.6391   2.6718   2.6831   2.7030   2.7451   2.7593
     2.8244   2.8851   2.9455   2.9634   3.0005   3.1528   3.3116   3.6341
     3.7874   3.9221   4.2183   4.3762   4.6410   4.9631   5.3061   5.6453
     5.7745   6.0129   6.2569   6.4017   6.5552   6.6746   6.7823   7.3131
     7.5067   7.6319   7.7299   7.8138

          k = 0.2000 0.1155 0.0000 ( 42996 PWs)   bands (ev):

    -9.6547  -5.9543  -4.7126  -4.3702  -4.1954  -4.0590  -3.7746  -3.7444
    -3.6141  -3.5370  -3.5190  -3.4629  -3.4300  -3.3319  -3.2521  -3.1627
    -3.1201  -3.0790  -3.0488  -2.9465  -2.8233  -2.7449  -2.6895  -2.6686
    -2.6177  -2.5778  -2.5559  -2.5180  -2.4804  -2.4670  -2.4300  -2.4205
    -2.3780  -2.3608  -2.3156  -2.2937  -2.2568  -2.1957  -2.1716  -2.0905
    -2.0446  -2.0103  -1.9015  -1.8512  -1.8120  -1.7992  -1.7700  -1.7383
    -1.7210  -1.6861  -1.6353  -1.5372  -1.4562  -1.4226  -1.3790  -1.3611
    -1.3241  -1.2928  -1.2058  -1.0913  -1.0525  -1.0133  -1.0069  -0.9761
    -0.9237  -0.9002  -0.8895  -0.8458  -0.8008  -0.7631  -0.7355  -0.7089
    -0.6852  -0.6745  -0.6576  -0.6124  -0.5744  -0.5553  -0.5246  -0.4876
    -0.4667  -0.4417  -0.4164  -0.4066  -0.3973  -0.3701  -0.3521  -0.3237
    -0.3033  -0.2827  -0.2485  -0.2300  -0.2102  -0.1773  -0.1563  -0.1300
    -0.0994  -0.0776  -0.0553  -0.0425  -0.0266  -0.0106   0.0046   0.0618
     0.0745   0.1266   0.1662   0.2098   0.2323   0.2432   0.2720   0.2853
     0.3239   0.3650   0.4051   0.4772   0.5269   0.5381   0.6204   0.6416
     0.6729   0.7114   0.7323   0.7884   0.8711   0.8995   0.9235   0.9566
     0.9985   1.0297   1.0590   1.0819   1.0929   1.1103   1.1192   1.1477
     1.2367   1.2860   1.3026   1.3202   1.3397   1.3873   1.4150   1.4344
     1.4775   1.5276   1.5418   1.5846   1.6274   1.6668   1.6824   1.6992
     1.7129   1.7461   1.8127   1.8441   1.8598   1.8675   1.9100   1.9306
     1.9603   1.9821   2.0238   2.0634   2.0823   2.1142   2.1429   2.1620
     2.2023   2.2118   2.2372   2.2586   2.3031   2.3181   2.3343   2.3562
     2.3689   2.4010   2.4173   2.4445   2.4877   2.5392   2.5551   2.5751
     2.6032   2.6139   2.6391   2.6718   2.6831   2.7030   2.7451   2.7593
     2.8244   2.8850   2.9455   2.9634   3.0005   3.1528   3.3116   3.6341
     3.7874   3.9221   4.2183   4.3762   4.6410   4.9632   5.3061   5.6453
     5.7745   6.0129   6.2569   6.4017   6.5552   6.6746   6.7823   7.3131
     7.5067   7.6319   7.7298   7.8135

          k = 0.2000 0.3464 0.0000 ( 43046 PWs)   bands (ev):

    -9.6436  -5.6821  -4.6465  -4.5239  -4.3793  -4.0499  -4.0088  -3.4721
    -3.4142  -3.4058  -3.3716  -3.3363  -3.3194  -3.2574  -3.2317  -3.2012
    -3.1319  -3.0321  -2.8907  -2.8527  -2.8248  -2.7751  -2.7567  -2.6887
    -2.6578  -2.6325  -2.5819  -2.5355  -2.5103  -2.4900  -2.4608  -2.4516
    -2.3921  -2.3641  -2.3334  -2.2897  -2.2580  -2.2457  -2.1672  -2.1181
    -2.0163  -1.9471  -1.8828  -1.8583  -1.8273  -1.7924  -1.7483  -1.7269
    -1.6795  -1.6466  -1.5981  -1.5619  -1.5385  -1.4805  -1.4562  -1.3741
    -1.3550  -1.3185  -1.2623  -1.2315  -1.1942  -1.1418  -1.1350  -1.0549
    -1.0306  -0.9745  -0.9606  -0.9483  -0.9126  -0.8768  -0.8168  -0.7918
    -0.7539  -0.7304  -0.7073  -0.6953  -0.6244  -0.6064  -0.5728  -0.5366
    -0.5096  -0.4859  -0.4709  -0.4639  -0.4404  -0.4125  -0.3680  -0.3483
    -0.3183  -0.2978  -0.2897  -0.2582  -0.2220  -0.2101  -0.1893  -0.1497
    -0.1306  -0.1108  -0.0781  -0.0504  -0.0321  -0.0107   0.0017   0.0152
     0.0518   0.0788   0.0902   0.1327   0.1592   0.1912   0.2217   0.2664
     0.2885   0.3306   0.3587   0.4552   0.4968   0.5559   0.5908   0.5965
     0.6500   0.6789   0.7088   0.7285   0.7662   0.7846   0.8006   0.8503
     0.8633   0.8839   0.9344   0.9680   1.0215   1.0845   1.0961   1.1182
     1.1634   1.2341   1.2560   1.2749   1.2948   1.3116   1.3311   1.4340
     1.4469   1.4907   1.5226   1.5398   1.6054   1.6284   1.6350   1.6635
     1.6883   1.7069   1.7279   1.7448   1.7790   1.8081   1.8783   1.9591
     1.9993   2.0413   2.1142   2.1463   2.1895   2.2199   2.2429   2.2768
     2.3140   2.3496   2.3644   2.4019   2.4197   2.4352   2.4474   2.4663
     2.4932   2.5097   2.5287   2.5682   2.5916   2.6223   2.6437   2.6963
     2.7171   2.7454   2.7983   2.8470   2.8987   2.9086   2.9660   2.9917
     3.0755   3.1137   3.4112   3.6187   3.6856   3.8465   3.9102   4.0707
     4.1903   4.3338   4.6498   4.7295   4.9146   5.1267   5.2530   5.3011
     5.4318   5.9382   6.0808   6.2565   6.3856   6.5976   6.6574   6.9528
     7.0808   7.1485   7.2264   7.5212

          k = 0.2000-0.5774 0.0000 ( 43014 PWs)   bands (ev):

    -9.6366  -5.2296  -5.1169  -4.6231  -4.3040  -4.0142  -3.8600  -3.7190
    -3.4117  -3.3891  -3.2713  -3.2129  -3.1613  -3.1089  -3.0715  -3.0472
    -2.9675  -2.9059  -2.8961  -2.8702  -2.8520  -2.8403  -2.7899  -2.7727
    -2.7045  -2.6874  -2.6588  -2.6335  -2.6145  -2.5452  -2.4898  -2.4112
    -2.4013  -2.3793  -2.3544  -2.2774  -2.2357  -2.2210  -2.1885  -2.0847
    -2.0488  -2.0190  -1.9108  -1.8676  -1.8322  -1.7825  -1.7640  -1.7178
    -1.6899  -1.5827  -1.5501  -1.4764  -1.4746  -1.4179  -1.4038  -1.3818
    -1.3543  -1.3397  -1.2977  -1.2721  -1.2432  -1.1933  -1.1767  -1.1562
    -1.1227  -1.0989  -1.0395  -1.0176  -0.9554  -0.9437  -0.8823  -0.8487
    -0.8338  -0.7935  -0.7808  -0.7584  -0.7232  -0.7120  -0.6494  -0.6206
    -0.5824  -0.5406  -0.5330  -0.5123  -0.4818  -0.4435  -0.4055  -0.3788
    -0.3458  -0.3127  -0.3052  -0.2409  -0.1926  -0.1774  -0.1523  -0.1290
    -0.1134  -0.0900  -0.0740  -0.0543  -0.0345  -0.0002   0.0181   0.0338
     0.0528   0.0775   0.0943   0.1067   0.1225   0.1580   0.1617   0.1882
     0.2312   0.3104   0.3820   0.4486   0.4847   0.5121   0.5316   0.5834
     0.6128   0.6418   0.6599   0.6684   0.7140   0.7431   0.7645   0.7959
     0.8461   0.8909   0.9188   0.9407   0.9728   1.0247   1.0914   1.1546
     1.1706   1.2300   1.2494   1.2739   1.3102   1.3428   1.3522   1.3610
     1.3977   1.4306   1.4637   1.4937   1.4995   1.5590   1.5806   1.6178
     1.6349   1.6957   1.7487   1.7714   1.8002   1.9059   1.9158   2.0142
     2.0324   2.0760   2.0949   2.1730   2.1740   2.2230   2.2631   2.2833
     2.3466   2.3539   2.3947   2.4142   2.4372   2.4685   2.4977   2.5177
     2.5394   2.5548   2.5779   2.6289   2.6377   2.6775   2.7305   2.7680
     2.8163   2.8581   2.8647   2.8889   2.9073   2.9185   3.0931   3.1787
     3.4086   3.7163   3.9771   4.0046   4.1017   4.2497   4.2662   4.4475
     4.5561   4.5975   4.8611   5.0215   5.0854   5.1683   5.4202   5.5223
     5.5636   5.7393   5.7827   5.9130   6.1404   6.2145   6.3023   6.4268
     6.6852   6.9197   7.0924   7.1388

          k = 0.2000-0.3464 0.0000 ( 43046 PWs)   bands (ev):

    -9.6436  -5.6821  -4.6465  -4.5239  -4.3792  -4.0499  -4.0088  -3.4721
    -3.4142  -3.4058  -3.3716  -3.3363  -3.3194  -3.2574  -3.2317  -3.2013
    -3.1319  -3.0321  -2.8907  -2.8526  -2.8248  -2.7751  -2.7567  -2.6888
    -2.6578  -2.6325  -2.5820  -2.5355  -2.5103  -2.4900  -2.4608  -2.4516
    -2.3921  -2.3641  -2.3335  -2.2897  -2.2580  -2.2456  -2.1671  -2.1181
    -2.0163  -1.9470  -1.8827  -1.8583  -1.8273  -1.7924  -1.7483  -1.7268
    -1.6796  -1.6466  -1.5981  -1.5620  -1.5385  -1.4805  -1.4562  -1.3741
    -1.3550  -1.3185  -1.2623  -1.2315  -1.1942  -1.1418  -1.1350  -1.0549
    -1.0306  -0.9745  -0.9606  -0.9483  -0.9126  -0.8768  -0.8168  -0.7918
    -0.7539  -0.7303  -0.7073  -0.6952  -0.6244  -0.6064  -0.5728  -0.5366
    -0.5095  -0.4859  -0.4709  -0.4639  -0.4404  -0.4125  -0.3679  -0.3483
    -0.3183  -0.2978  -0.2896  -0.2582  -0.2220  -0.2101  -0.1893  -0.1497
    -0.1306  -0.1108  -0.0781  -0.0504  -0.0321  -0.0107   0.0017   0.0152
     0.0518   0.0788   0.0902   0.1327   0.1592   0.1912   0.2217   0.2664
     0.2885   0.3306   0.3587   0.4552   0.4968   0.5559   0.5908   0.5965
     0.6500   0.6790   0.7088   0.7285   0.7662   0.7846   0.8006   0.8503
     0.8633   0.8839   0.9344   0.9680   1.0215   1.0844   1.0961   1.1183
     1.1634   1.2341   1.2561   1.2749   1.2948   1.3116   1.3312   1.4340
     1.4468   1.4907   1.5226   1.5398   1.6054   1.6284   1.6350   1.6635
     1.6883   1.7069   1.7279   1.7448   1.7790   1.8082   1.8783   1.9591
     1.9993   2.0413   2.1143   2.1463   2.1895   2.2199   2.2429   2.2768
     2.3140   2.3496   2.3644   2.4019   2.4197   2.4352   2.4474   2.4663
     2.4931   2.5097   2.5287   2.5682   2.5916   2.6223   2.6437   2.6963
     2.7171   2.7454   2.7983   2.8470   2.8987   2.9086   2.9660   2.9917
     3.0755   3.1138   3.4112   3.6187   3.6856   3.8465   3.9102   4.0707
     4.1903   4.3338   4.6497   4.7295   4.9146   5.1267   5.2530   5.3011
     5.4318   5.9381   6.0808   6.2565   6.3856   6.5976   6.6575   6.9528
     7.0808   7.1486   7.2265   7.5213

          k = 0.4000-0.2309 0.0000 ( 43046 PWs)   bands (ev):

    -9.6400  -5.5549  -4.9581  -4.4448  -4.1190  -4.1007  -3.8162  -3.7164
    -3.6301  -3.4906  -3.3577  -3.2520  -3.2029  -3.1540  -3.1231  -3.0842
    -2.9844  -2.9662  -2.9330  -2.8925  -2.8400  -2.8086  -2.7644  -2.7305
    -2.7083  -2.6947  -2.6614  -2.6220  -2.5623  -2.5350  -2.4821  -2.3858
    -2.3712  -2.3183  -2.2875  -2.2393  -2.2211  -2.1497  -2.1321  -2.0872
    -2.0460  -2.0026  -1.9810  -1.8931  -1.8270  -1.7785  -1.7472  -1.7126
    -1.6466  -1.6360  -1.6074  -1.5680  -1.5425  -1.5339  -1.4911  -1.4442
    -1.3961  -1.3634  -1.2614  -1.2371  -1.2056  -1.1938  -1.1684  -1.0964
    -1.0336  -1.0200  -0.9729  -0.9505  -0.8915  -0.8831  -0.8431  -0.8176
    -0.7722  -0.7123  -0.6999  -0.6731  -0.6360  -0.6037  -0.5888  -0.5453
    -0.5280  -0.4956  -0.4765  -0.4717  -0.4516  -0.4285  -0.3940  -0.3883
    -0.3742  -0.3453  -0.3253  -0.2835  -0.2406  -0.2353  -0.2052  -0.1804
    -0.1588  -0.1337  -0.0845  -0.0617  -0.0511  -0.0265  -0.0001   0.0341
     0.0543   0.1095   0.1389   0.1749   0.2171   0.2478   0.2652   0.3209
     0.3440   0.3960   0.4076   0.4714   0.5250   0.5539   0.5762   0.5882
     0.6046   0.6531   0.6821   0.7045   0.7203   0.7514   0.7686   0.7804
     0.8139   0.8980   0.9285   0.9494   0.9651   0.9835   1.0194   1.0731
     1.1420   1.2010   1.2301   1.2616   1.3187   1.3587   1.3693   1.4422
     1.4984   1.5156   1.5313   1.5667   1.5772   1.5890   1.6367   1.6554
     1.7037   1.7568   1.7747   1.8157   1.8429   1.8613   1.8921   1.9154
     1.9743   2.0143   2.0457   2.0908   2.1293   2.1935   2.2193   2.2388
     2.2585   2.2848   2.3200   2.3616   2.3789   2.3961   2.4307   2.4597
     2.5137   2.5295   2.5518   2.5720   2.5903   2.6396   2.6630   2.7141
     2.7744   2.8161   2.8337   2.8611   2.9075   2.9487   3.0721   3.1025
     3.3119   3.4583   3.6103   3.7916   3.8800   4.0328   4.0732   4.3211
     4.4830   4.5532   4.6439   4.8726   4.9974   5.1443   5.2007   5.2792
     5.4892   5.5493   5.6378   5.9972   6.1379   6.2706   6.4049   6.7970
     7.0215   7.1685   7.4821   7.5711

          k = 0.4000-0.0000 0.0000 ( 43046 PWs)   bands (ev):

    -9.6427  -5.6835  -4.6644  -4.5098  -4.3762  -4.0411  -4.0043  -3.4823
    -3.4256  -3.3899  -3.3544  -3.3199  -3.3102  -3.2729  -3.2497  -3.2247
    -3.1338  -3.0333  -2.8892  -2.8432  -2.8158  -2.7897  -2.7375  -2.6810
    -2.6748  -2.6374  -2.5814  -2.5500  -2.5079  -2.4858  -2.4613  -2.4195
    -2.3971  -2.3625  -2.3444  -2.3038  -2.2475  -2.2323  -2.1964  -2.1818
    -2.0067  -1.9290  -1.8680  -1.8406  -1.8253  -1.7940  -1.7484  -1.6966
    -1.6804  -1.6265  -1.5895  -1.5771  -1.5661  -1.4703  -1.4581  -1.3747
    -1.3603  -1.3280  -1.2680  -1.2392  -1.1811  -1.1410  -1.1091  -1.0762
    -1.0528  -0.9839  -0.9610  -0.9257  -0.8996  -0.8801  -0.8083  -0.7946
    -0.7536  -0.7250  -0.7101  -0.7011  -0.6505  -0.5942  -0.5809  -0.5294
    -0.5238  -0.4951  -0.4495  -0.4428  -0.4288  -0.4028  -0.3791  -0.3672
    -0.3316  -0.2990  -0.2633  -0.2380  -0.2224  -0.2074  -0.1948  -0.1689
    -0.1278  -0.0996  -0.0837  -0.0663  -0.0308  -0.0100  -0.0005   0.0368
     0.0404   0.0505   0.0785   0.1172   0.1255   0.1913   0.2472   0.2874
     0.2948   0.3251   0.3825   0.4661   0.4850   0.5424   0.5565   0.5833
     0.6265   0.6458   0.7032   0.7376   0.7713   0.7989   0.8293   0.8445
     0.8534   0.9061   0.9259   0.9556   1.0211   1.0849   1.1014   1.1581
     1.1741   1.1921   1.2607   1.2792   1.2932   1.3115   1.3592   1.4080
     1.4179   1.4695   1.5553   1.5810   1.6145   1.6466   1.6508   1.6589
     1.6779   1.7077   1.7314   1.7420   1.7736   1.8397   1.8729   1.9465
     2.0037   2.0311   2.1274   2.1689   2.2094   2.2241   2.2610   2.2776
     2.3239   2.3478   2.3616   2.3833   2.4168   2.4399   2.4554   2.4596
     2.4943   2.5020   2.5311   2.5497   2.5948   2.6047   2.6545   2.7073
     2.7217   2.7879   2.8143   2.8287   2.8820   2.9141   2.9848   3.0195
     3.0748   3.1330   3.3214   3.6275   3.6661   3.8514   3.8899   4.1445
     4.1896   4.3841   4.5902   4.8057   4.9843   4.9940   5.1918   5.2857
     5.3793   5.9099   6.0738   6.2357   6.4449   6.5893   6.6268   6.8978
     7.0888   7.1793   7.2144   7.5196

          k = 0.4000 0.2309 0.0000 ( 43046 PWs)   bands (ev):

    -9.6400  -5.5549  -4.9581  -4.4448  -4.1190  -4.1007  -3.8162  -3.7164
    -3.6301  -3.4906  -3.3578  -3.2520  -3.2029  -3.1540  -3.1231  -3.0842
    -2.9844  -2.9662  -2.9330  -2.8925  -2.8400  -2.8086  -2.7644  -2.7305
    -2.7084  -2.6946  -2.6614  -2.6220  -2.5623  -2.5350  -2.4821  -2.3857
    -2.3713  -2.3183  -2.2876  -2.2393  -2.2211  -2.1497  -2.1321  -2.0872
    -2.0460  -2.0026  -1.9810  -1.8931  -1.8270  -1.7786  -1.7472  -1.7126
    -1.6466  -1.6360  -1.6074  -1.5679  -1.5425  -1.5339  -1.4911  -1.4442
    -1.3960  -1.3634  -1.2614  -1.2370  -1.2056  -1.1938  -1.1684  -1.0964
    -1.0335  -1.0200  -0.9729  -0.9506  -0.8915  -0.8831  -0.8431  -0.8176
    -0.7722  -0.7123  -0.6999  -0.6731  -0.6360  -0.6038  -0.5889  -0.5453
    -0.5279  -0.4956  -0.4765  -0.4716  -0.4516  -0.4286  -0.3941  -0.3883
    -0.3742  -0.3453  -0.3254  -0.2835  -0.2406  -0.2352  -0.2052  -0.1804
    -0.1588  -0.1337  -0.0845  -0.0617  -0.0511  -0.0264  -0.0001   0.0341
     0.0543   0.1095   0.1389   0.1749   0.2170   0.2478   0.2652   0.3208
     0.3439   0.3960   0.4076   0.4714   0.5249   0.5539   0.5762   0.5882
     0.6046   0.6531   0.6820   0.7045   0.7203   0.7514   0.7686   0.7804
     0.8139   0.8980   0.9285   0.9494   0.9651   0.9835   1.0193   1.0731
     1.1420   1.2010   1.2301   1.2616   1.3187   1.3587   1.3693   1.4422
     1.4984   1.5156   1.5313   1.5667   1.5772   1.5890   1.6368   1.6554
     1.7037   1.7567   1.7747   1.8157   1.8429   1.8613   1.8922   1.9154
     1.9743   2.0143   2.0456   2.0909   2.1293   2.1935   2.2192   2.2388
     2.2585   2.2848   2.3200   2.3616   2.3788   2.3961   2.4307   2.4597
     2.5137   2.5295   2.5519   2.5720   2.5903   2.6397   2.6630   2.7141
     2.7745   2.8161   2.8337   2.8611   2.9075   2.9487   3.0721   3.1025
     3.3119   3.4583   3.6103   3.7916   3.8799   4.0328   4.0732   4.3211
     4.4830   4.5532   4.6439   4.8726   4.9974   5.1443   5.2007   5.2792
     5.4893   5.5493   5.6378   5.9973   6.1379   6.2706   6.4049   6.7970
     7.0216   7.1686   7.4821   7.5711

          k = 0.4000-0.6928 0.0000 ( 43014 PWs)   bands (ev):

    -9.6357  -5.2286  -5.1270  -4.6169  -4.3004  -4.0059  -3.8529  -3.7296
    -3.4185  -3.3654  -3.2855  -3.2014  -3.1629  -3.1221  -3.0606  -3.0328
    -2.9908  -2.9231  -2.8901  -2.8668  -2.8587  -2.8369  -2.7998  -2.7463
    -2.7120  -2.6722  -2.6512  -2.6385  -2.5960  -2.5681  -2.5041  -2.4405
    -2.4066  -2.3951  -2.3539  -2.2742  -2.2484  -2.2128  -2.1774  -2.0792
    -2.0669  -2.0330  -1.9003  -1.8509  -1.8326  -1.7861  -1.7632  -1.6917
    -1.6585  -1.5730  -1.5561  -1.5027  -1.4710  -1.4325  -1.4038  -1.3746
    -1.3557  -1.3279  -1.2970  -1.2793  -1.2329  -1.1895  -1.1688  -1.1583
    -1.1290  -1.0651  -1.0508  -1.0188  -0.9649  -0.9464  -0.9151  -0.8616
    -0.8368  -0.7939  -0.7734  -0.7514  -0.7421  -0.7131  -0.6451  -0.6133
    -0.5789  -0.5542  -0.5306  -0.5151  -0.4565  -0.4391  -0.3932  -0.3760
    -0.3572  -0.3077  -0.2814  -0.2465  -0.1961  -0.1876  -0.1660  -0.1369
    -0.1138  -0.0904  -0.0686  -0.0632  -0.0491  -0.0170   0.0070   0.0426
     0.0599   0.0683   0.0847   0.1035   0.1329   0.1496   0.1713   0.2117
     0.2817   0.3289   0.3629   0.4218   0.4758   0.4968   0.5421   0.5700
     0.6042   0.6222   0.6518   0.6909   0.7194   0.7306   0.7647   0.7920
     0.8571   0.8851   0.9246   0.9410   0.9472   1.0575   1.0711   1.1264
     1.1428   1.2384   1.2586   1.2760   1.3014   1.3502   1.3658   1.3802
     1.3987   1.4252   1.4683   1.4866   1.5294   1.5556   1.5905   1.6333
     1.6519   1.6844   1.7421   1.7666   1.8284   1.9012   1.9518   1.9711
     2.0298   2.0711   2.0892   2.1760   2.2087   2.2298   2.2602   2.2822
     2.3170   2.3701   2.4028   2.4266   2.4520   2.4743   2.5000   2.5166
     2.5516   2.5637   2.5732   2.6197   2.6413   2.6802   2.7304   2.7681
     2.8038   2.8474   2.8646   2.8813   2.9151   2.9261   3.0814   3.3060
     3.3659   3.7102   3.9264   4.0084   4.1350   4.2106   4.2846   4.4027
     4.5738   4.7362   4.8360   5.0344   5.0901   5.1472   5.2240   5.5184
     5.6064   5.7034   5.8428   5.9172   5.9830   6.1623   6.3569   6.4981
     6.6405   6.8497   7.0993   7.2076

          k = 0.4000-0.4619 0.0000 ( 43014 PWs)   bands (ev):

    -9.6357  -5.2285  -5.1271  -4.6169  -4.3004  -4.0060  -3.8530  -3.7296
    -3.4185  -3.3655  -3.2855  -3.2014  -3.1628  -3.1221  -3.0606  -3.0329
    -2.9908  -2.9231  -2.8901  -2.8668  -2.8587  -2.8369  -2.7998  -2.7463
    -2.7120  -2.6723  -2.6512  -2.6385  -2.5959  -2.5681  -2.5041  -2.4406
    -2.4066  -2.3951  -2.3538  -2.2742  -2.2484  -2.2128  -2.1774  -2.0792
    -2.0669  -2.0330  -1.9003  -1.8508  -1.8326  -1.7861  -1.7632  -1.6917
    -1.6585  -1.5729  -1.5561  -1.5028  -1.4710  -1.4326  -1.4039  -1.3746
    -1.3557  -1.3279  -1.2970  -1.2793  -1.2329  -1.1895  -1.1688  -1.1583
    -1.1290  -1.0651  -1.0508  -1.0188  -0.9649  -0.9464  -0.9152  -0.8616
    -0.8368  -0.7939  -0.7734  -0.7514  -0.7421  -0.7131  -0.6451  -0.6133
    -0.5789  -0.5542  -0.5306  -0.5151  -0.4566  -0.4392  -0.3932  -0.3760
    -0.3572  -0.3077  -0.2814  -0.2465  -0.1961  -0.1876  -0.1660  -0.1369
    -0.1138  -0.0904  -0.0686  -0.0632  -0.0491  -0.0169   0.0070   0.0426
     0.0599   0.0683   0.0847   0.1036   0.1329   0.1496   0.1713   0.2117
     0.2817   0.3289   0.3630   0.4218   0.4758   0.4968   0.5421   0.5700
     0.6042   0.6222   0.6518   0.6909   0.7194   0.7306   0.7647   0.7919
     0.8570   0.8851   0.9246   0.9410   0.9472   1.0575   1.0712   1.1265
     1.1428   1.2384   1.2586   1.2760   1.3014   1.3502   1.3658   1.3802
     1.3987   1.4253   1.4683   1.4866   1.5294   1.5557   1.5905   1.6332
     1.6519   1.6844   1.7421   1.7666   1.8284   1.9012   1.9517   1.9711
     2.0298   2.0711   2.0892   2.1760   2.2087   2.2298   2.2602   2.2822
     2.3170   2.3701   2.4028   2.4266   2.4520   2.4743   2.5000   2.5166
     2.5516   2.5637   2.5732   2.6197   2.6413   2.6802   2.7304   2.7681
     2.8038   2.8474   2.8646   2.8813   2.9151   2.9261   3.0814   3.3061
     3.3659   3.7102   3.9264   4.0084   4.1349   4.2106   4.2846   4.4027
     4.5739   4.7362   4.8359   5.0344   5.0901   5.1472   5.2240   5.5184
     5.6064   5.7034   5.8428   5.9172   5.9829   6.1622   6.3569   6.4981
     6.6405   6.8497   7.0993   7.2076

     the Fermi energy is     2.6283 ev

!    total energy              =  -27774.41171579 Ry
     total all-electron energy =  -1326718.941230 Ry
     estimated scf accuracy    <       0.00000051 Ry
     smearing contrib. (-TS)   =      -0.00001224 Ry
     internal energy E=F+TS    =  -27774.41170356 Ry

     The total energy is F=E-TS. E is the sum of the following terms:
     one-electron contribution =  -20710.82442930 Ry
     hartree contribution      =   10665.20272196 Ry
     xc contribution           =    -895.58019138 Ry
     ewald contribution        =    8647.40803588 Ry
     one-center paw contrib.   =  -25480.61784072 Ry

     convergence has been achieved in  17 iterations

     negative rho (up, down):  3.102E-03 0.000E+00

     Forces acting on atoms (cartesian axes, Ry/au):

     atom    1 type  1   force =    -0.00039214   -0.00037015   -0.00462257
     atom    2 type  1   force =     0.00038195   -0.00035094   -0.00464667
     atom    3 type  1   force =     0.00000614   -0.00296606   -0.00987814
     atom    4 type  1   force =     0.00000378    0.00030024   -0.00343244
     atom    5 type  1   force =    -0.00137302   -0.00135667   -0.00521171
     atom    6 type  1   force =     0.00137447   -0.00137225   -0.00518067
     atom    7 type  1   force =    -0.00103810    0.00163128   -0.00773271
     atom    8 type  1   force =    -0.00000815    0.00137791   -0.00584238
     atom    9 type  1   force =     0.00104773    0.00163141   -0.00773800
     atom   10 type  1   force =    -0.00001181    0.00329751    0.02343000
     atom   11 type  1   force =     0.00018109   -0.00125522    0.00604413
     atom   12 type  1   force =    -0.00017120   -0.00125938    0.00603440
     atom   13 type  1   force =    -0.00226946   -0.00193127    0.00745141
     atom   14 type  1   force =    -0.00000133   -0.00025013   -0.00240900
     atom   15 type  1   force =     0.00227556   -0.00195321    0.00746963
     atom   16 type  1   force =    -0.00192529    0.00113574    0.00264626
     atom   17 type  1   force =     0.00191082    0.00113389    0.00266117
     atom   18 type  1   force =     0.00001449   -0.00099146   -0.00112205
     atom   19 type  1   force =     0.00015961   -0.00013325    0.00036154
     atom   20 type  1   force =    -0.00016014   -0.00013942    0.00036002
     atom   21 type  1   force =    -0.00000250   -0.00014217    0.00005051
     atom   22 type  1   force =    -0.00000162   -0.00007863   -0.00037906
     atom   23 type  1   force =    -0.00000037   -0.00028313   -0.00008816
     atom   24 type  1   force =    -0.00000051   -0.00028352   -0.00009055
     atom   25 type  1   force =     0.00005414   -0.00008520   -0.00013503
     atom   26 type  1   force =     0.00000321   -0.00025892    0.00004391
     atom   27 type  1   force =    -0.00005567   -0.00007297   -0.00013869
     atom   28 type  1   force =     0.00041365   -0.00027296    0.00022930
     atom   29 type  1   force =    -0.00040896   -0.00027404    0.00023352
     atom   30 type  1   force =    -0.00000418   -0.00050392   -0.00016742
     atom   31 type  1   force =    -0.00000168    0.00056186    0.00175089
     atom   32 type  1   force =    -0.00010481   -0.00050584    0.00010629
     atom   33 type  1   force =     0.00010862   -0.00050611    0.00010674
     atom   34 type  1   force =     0.00013042   -0.00029334   -0.00045058
     atom   35 type  1   force =    -0.00000144   -0.00053168   -0.00006740
     atom   36 type  1   force =    -0.00013387   -0.00029423   -0.00044726
     atom   37 type  2   force =     0.00000229    0.00039880    0.00005046
     atom   38 type  3   force =    -0.00000172    0.00724744    0.00075031
     The non-local contrib.  to forces
     atom    1 type  1   force =     0.00046770    0.00023402   -0.01888191
     atom    2 type  1   force =    -0.00047885    0.00025190   -0.01890338
     atom    3 type  1   force =     0.00000752   -0.00039948   -0.01712151
     atom    4 type  1   force =     0.00000100   -0.00004326   -0.01812333
     atom    5 type  1   force =    -0.00028306   -0.00003747   -0.02029340
     atom    6 type  1   force =     0.00028695   -0.00005396   -0.02026784
     atom    7 type  1   force =    -0.00114892    0.00022529   -0.02095620
     atom    8 type  1   force =    -0.00000797    0.00072062   -0.02201463
     atom    9 type  1   force =     0.00115916    0.00022374   -0.02095828
     atom   10 type  1   force =    -0.00001174    0.00108660    0.00612506
     atom   11 type  1   force =    -0.00337788    0.00354140    0.00122211
     atom   12 type  1   force =     0.00338777    0.00352821    0.00121464
     atom   13 type  1   force =     0.00140258   -0.00379436    0.00112093
     atom   14 type  1   force =    -0.00000940    0.00061326   -0.00520216
     atom   15 type  1   force =    -0.00138841   -0.00381918    0.00112243
     atom   16 type  1   force =     0.00323610   -0.00017456   -0.00151127
     atom   17 type  1   force =    -0.00325644   -0.00017170   -0.00150912
     atom   18 type  1   force =     0.00002068   -0.00224800    0.00353555
     atom   19 type  1   force =    -0.01392646   -0.00532874    0.00371285
     atom   20 type  1   force =     0.01392725   -0.00531857    0.00371384
     atom   21 type  1   force =    -0.00000647    0.00280774    0.00703148
     atom   22 type  1   force =     0.00001406    0.01745787   -0.00369626
     atom   23 type  1   force =     0.00397939    0.00065982    0.00625980
     atom   24 type  1   force =    -0.00399652    0.00065652    0.00625436
     atom   25 type  1   force =    -0.00316744   -0.00538651    0.00336768
     atom   26 type  1   force =    -0.00000635   -0.00506541    0.01611285
     atom   27 type  1   force =     0.00317541   -0.00536411    0.00336443
     atom   28 type  1   force =     0.07760045    0.03921133   -0.01248136
     atom   29 type  1   force =    -0.07759873    0.03922715   -0.01246837
     atom   30 type  1   force =     0.00000279    0.00043185    0.01175678
     atom   31 type  1   force =    -0.00000594   -0.10101541   -0.12874435
     atom   32 type  1   force =    -0.01887407   -0.00583576    0.02384543
     atom   33 type  1   force =     0.01887202   -0.00584364    0.02386556
     atom   34 type  1   force =    -0.00053734   -0.00665237    0.01608726
     atom   35 type  1   force =    -0.00000983    0.02381637    0.02136916
     atom   36 type  1   force =     0.00053998   -0.00665285    0.01612151
     atom   37 type  2   force =     0.00000747    0.05099447   -0.12491411
     atom   38 type  3   force =    -0.00000444   -0.00844916   -0.04136236
     The ionic contribution  to forces
     atom    1 type  1   force =     0.01486334    0.02688595  -93.85323354
     atom    2 type  1   force =    -0.01482119    0.02681361  -93.85314865
     atom    3 type  1   force =    -0.00004202   -0.00804699  -93.88494653
     atom    4 type  1   force =    -0.00004275   -0.02144012  -93.83014888
     atom    5 type  1   force =    -0.03731305   -0.02536073  -93.89803562
     atom    6 type  1   force =     0.03735585   -0.02528420  -93.89794711
     atom    7 type  1   force =    -0.02241902   -0.00103008  -93.88834992
     atom    8 type  1   force =     0.00008654    0.02849285  -93.92727688
     atom    9 type  1   force =     0.02233241   -0.00103318  -93.88818623
     atom   10 type  1   force =     0.00010450    0.14083391  -32.17857132
     atom   11 type  1   force =    -0.26534027    0.02400675  -32.39595887
     atom   12 type  1   force =     0.26524120    0.02464224  -32.39623402
     atom   13 type  1   force =    -0.23036235   -0.24034253  -32.41512270
     atom   14 type  1   force =     0.00054774   -0.08016462  -32.83225096
     atom   15 type  1   force =     0.22981800   -0.23997381  -32.41424632
     atom   16 type  1   force =    -0.00622220    0.22325814  -32.56206476
     atom   17 type  1   force =     0.00672016    0.22300330  -32.56103645
     atom   18 type  1   force =    -0.00046456   -0.07630496  -32.32551818
     atom   19 type  1   force =     0.47923066    0.00423042   31.05672445
     atom   20 type  1   force =    -0.47948764    0.00262334   31.05574700
     atom   21 type  1   force =     0.00024313   -0.22933522   28.56052240
     atom   22 type  1   force =    -0.00138065   -0.28699308   29.65147581
     atom   23 type  1   force =    -0.22985514   -0.00658024   28.28673583
     atom   24 type  1   force =     0.23129340   -0.00624753   28.28976946
     atom   25 type  1   force =    -0.07275509    0.02504219   28.83475485
     atom   26 type  1   force =     0.00106132    0.44534429   29.86603354
     atom   27 type  1   force =     0.07163516    0.02445260   28.83610421
     atom   28 type  1   force =    -2.27985404   -1.22000631   90.91661861
     atom   29 type  1   force =     2.28011995   -1.22029881   90.91520446
     atom   30 type  1   force =    -0.00037752    0.24329427   90.91067585
     atom   31 type  1   force =    -0.00056960    2.08378747   93.19903112
     atom   32 type  1   force =     0.44233007    0.09942263   90.29482967
     atom   33 type  1   force =    -0.44164352    0.10029734   90.29648402
     atom   34 type  1   force =     0.27294892    0.05358602   89.86794120
     atom   35 type  1   force =     0.00067140   -0.29914398   90.29623891
     atom   36 type  1   force =    -0.27387422    0.05321301   89.87140806
     atom   37 type  2   force =     0.00001352   -0.39107122   43.66267614
     atom   38 type  3   force =     0.00020758    0.52542727   12.33330137
     The local contribution  to forces
     atom    1 type  1   force =    -0.01577618   -0.02740136   93.85026920
     atom    2 type  1   force =     0.01577564   -0.02736144   93.85021711
     atom    3 type  1   force =     0.00000170    0.00542435   93.87476627
     atom    4 type  1   force =     0.00003384    0.02186672   93.82755350
     atom    5 type  1   force =     0.03631081    0.02387439   93.89611280
     atom    6 type  1   force =    -0.03634698    0.02385031   93.89602747
     atom    7 type  1   force =     0.02241536    0.00240662   93.88424634
     atom    8 type  1   force =    -0.00003907   -0.02793738   93.92639914
     atom    9 type  1   force =    -0.02237740    0.00242681   93.88411260
     atom   10 type  1   force =    -0.00006849   -0.13825810   32.19651973
     atom   11 type  1   force =     0.26844833   -0.02878136   32.40110054
     atom   12 type  1   force =    -0.26838483   -0.02933824   32.40138971
     atom   13 type  1   force =     0.22599682    0.24169706   32.42143465
     atom   14 type  1   force =    -0.00049016    0.07900464   32.83358337
     atom   15 type  1   force =    -0.22551174    0.24141137   32.42060927
     atom   16 type  1   force =     0.00077302   -0.22140123   32.56582789
     atom   17 type  1   force =    -0.00118019   -0.22116861   32.56483569
     atom   18 type  1   force =     0.00037345    0.07748434   32.32160328
     atom   19 type  1   force =    -0.46445283    0.00093937  -31.05661705
     atom   20 type  1   force =     0.46469029    0.00244950  -31.05565302
     atom   21 type  1   force =    -0.00022406    0.22527964  -28.56579819
     atom   22 type  1   force =     0.00127979    0.26983951  -29.64572801
     atom   23 type  1   force =     0.22536375    0.00577833  -28.29119414
     atom   24 type  1   force =    -0.22669830    0.00547973  -28.29425165
     atom   25 type  1   force =     0.07506338   -0.01990367  -28.83704002
     atom   26 type  1   force =    -0.00099108   -0.43970334  -29.87899121
     atom   27 type  1   force =    -0.07401351   -0.01938428  -28.83842752
     atom   28 type  1   force =     2.18265624    1.17073927  -90.89944569
     atom   29 type  1   force =    -2.18291172    1.17098353  -90.89805450
     atom   30 type  1   force =     0.00035961   -0.24402016  -90.90616051
     atom   31 type  1   force =     0.00055167   -1.96649897  -93.08401237
     atom   32 type  1   force =    -0.42457078   -0.09509837  -90.30161645
     atom   33 type  1   force =     0.42391752   -0.09593290  -90.30332027
     atom   34 type  1   force =    -0.27233901   -0.04750265  -89.86859962
     atom   35 type  1   force =    -0.00062139    0.27652361  -90.30024466
     atom   36 type  1   force =     0.27321510   -0.04714341  -89.87215149
     atom   37 type  2   force =    -0.00002088    0.34165761  -43.54000429
     atom   38 type  3   force =    -0.00020557   -0.50971511  -12.29124507
     The core correction contribution to forces
     atom    1 type  1   force =    -0.00005799   -0.00000559    0.01705397
     atom    2 type  1   force =     0.00005796   -0.00000557    0.01705398
     atom    3 type  1   force =     0.00000015    0.00005916    0.01739799
     atom    4 type  1   force =     0.00000006   -0.00006117    0.01714375
     atom    5 type  1   force =    -0.00008804    0.00000443    0.01690439
     atom    6 type  1   force =     0.00008783    0.00000421    0.01690395
     atom    7 type  1   force =    -0.00003465    0.00007985    0.01718862
     atom    8 type  1   force =    -0.00000035    0.00009688    0.01683311
     atom    9 type  1   force =     0.00003490    0.00007984    0.01718793
     atom   10 type  1   force =     0.00000002   -0.00022884   -0.00054413
     atom   11 type  1   force =     0.00066415   -0.00013046   -0.00008918
     atom   12 type  1   force =    -0.00066410   -0.00013194   -0.00008829
     atom   13 type  1   force =     0.00059244    0.00050321    0.00025029
     atom   14 type  1   force =    -0.00000151    0.00002451    0.00169451
     atom   15 type  1   force =    -0.00059099    0.00050251    0.00024766
     atom   16 type  1   force =     0.00003436   -0.00049662    0.00057394
     atom   17 type  1   force =    -0.00003537   -0.00049560    0.00057081
     atom   18 type  1   force =     0.00000092    0.00020575   -0.00039884
     atom   19 type  1   force =    -0.00083537    0.00017226   -0.00305451
     atom   20 type  1   force =     0.00083648    0.00017669   -0.00305399
     atom   21 type  1   force =    -0.00000055    0.00083445   -0.00139408
     atom   22 type  1   force =     0.00000354   -0.00020356   -0.00195964
     atom   23 type  1   force =     0.00031901   -0.00023014   -0.00146892
     atom   24 type  1   force =    -0.00032287   -0.00023092   -0.00146662
     atom   25 type  1   force =     0.00053790    0.00019850   -0.00075355
     atom   26 type  1   force =    -0.00000270   -0.00081196   -0.00266375
     atom   27 type  1   force =    -0.00053458    0.00019908   -0.00075194
     atom   28 type  1   force =     0.01962146    0.00966560   -0.00398860
     atom   29 type  1   force =    -0.01962177    0.00966579   -0.00398759
     atom   30 type  1   force =     0.00000099   -0.00034430   -0.01600723
     atom   31 type  1   force =     0.00000374   -0.01544376    0.01565361
     atom   32 type  1   force =     0.00106585    0.00092583   -0.01639595
     atom   33 type  1   force =    -0.00106848    0.00092350   -0.01639476
     atom   34 type  1   force =    -0.00015016    0.00040261   -0.01538358
     atom   35 type  1   force =    -0.00000192   -0.00178880   -0.01676537
     atom   36 type  1   force =     0.00015336    0.00040392   -0.01538200
     atom   37 type  2   force =    -0.00000014   -0.00120213    0.00244843
     atom   38 type  3   force =     0.00000000    0.00000000    0.00000000
     The Hubbard contrib.    to forces
     atom    1 type  1   force =     0.00000000    0.00000000    0.00000000
     atom    2 type  1   force =     0.00000000    0.00000000    0.00000000
     atom    3 type  1   force =     0.00000000    0.00000000    0.00000000
     atom    4 type  1   force =     0.00000000    0.00000000    0.00000000
     atom    5 type  1   force =     0.00000000    0.00000000    0.00000000
     atom    6 type  1   force =     0.00000000    0.00000000    0.00000000
     atom    7 type  1   force =     0.00000000    0.00000000    0.00000000
     atom    8 type  1   force =     0.00000000    0.00000000    0.00000000
     atom    9 type  1   force =     0.00000000    0.00000000    0.00000000
     atom   10 type  1   force =     0.00000000    0.00000000    0.00000000
     atom   11 type  1   force =     0.00000000    0.00000000    0.00000000
     atom   12 type  1   force =     0.00000000    0.00000000    0.00000000
     atom   13 type  1   force =     0.00000000    0.00000000    0.00000000
     atom   14 type  1   force =     0.00000000    0.00000000    0.00000000
     atom   15 type  1   force =     0.00000000    0.00000000    0.00000000
     atom   16 type  1   force =     0.00000000    0.00000000    0.00000000
     atom   17 type  1   force =     0.00000000    0.00000000    0.00000000
     atom   18 type  1   force =     0.00000000    0.00000000    0.00000000
     atom   19 type  1   force =     0.00000000    0.00000000    0.00000000
     atom   20 type  1   force =     0.00000000    0.00000000    0.00000000
     atom   21 type  1   force =     0.00000000    0.00000000    0.00000000
     atom   22 type  1   force =     0.00000000    0.00000000    0.00000000
     atom   23 type  1   force =     0.00000000    0.00000000    0.00000000
     atom   24 type  1   force =     0.00000000    0.00000000    0.00000000
     atom   25 type  1   force =     0.00000000    0.00000000    0.00000000
     atom   26 type  1   force =     0.00000000    0.00000000    0.00000000
     atom   27 type  1   force =     0.00000000    0.00000000    0.00000000
     atom   28 type  1   force =     0.00000000    0.00000000    0.00000000
     atom   29 type  1   force =     0.00000000    0.00000000    0.00000000
     atom   30 type  1   force =     0.00000000    0.00000000    0.00000000
     atom   31 type  1   force =     0.00000000    0.00000000    0.00000000
     atom   32 type  1   force =     0.00000000    0.00000000    0.00000000
     atom   33 type  1   force =     0.00000000    0.00000000    0.00000000
     atom   34 type  1   force =     0.00000000    0.00000000    0.00000000
     atom   35 type  1   force =     0.00000000    0.00000000    0.00000000
     atom   36 type  1   force =     0.00000000    0.00000000    0.00000000
     atom   37 type  2   force =     0.00000000    0.00000000    0.00000000
     atom   38 type  3   force =     0.00000000    0.00000000    0.00000000
     The SCF correction term to forces
     atom    1 type  1   force =     0.00000000   -0.00000000    0.00000000
     atom    2 type  1   force =    -0.00000000   -0.00000000    0.00000000
     atom    3 type  1   force =     0.00000000   -0.00000000   -0.00000000
     atom    4 type  1   force =     0.00000000   -0.00000000    0.00000000
     atom    5 type  1   force =     0.00000000    0.00000000    0.00000000
     atom    6 type  1   force =    -0.00000000    0.00000000    0.00000000
     atom    7 type  1   force =     0.00000000   -0.00000000    0.00000000
     atom    8 type  1   force =    -0.00000000    0.00000000    0.00000000
     atom    9 type  1   force =    -0.00000000   -0.00000000    0.00000000
     atom   10 type  1   force =    -0.00000000   -0.00000000   -0.00000000
     atom   11 type  1   force =    -0.00000000    0.00000000   -0.00000000
     atom   12 type  1   force =     0.00000000    0.00000000   -0.00000000
     atom   13 type  1   force =     0.00000000    0.00000000   -0.00000000
     atom   14 type  1   force =    -0.00000000    0.00000000   -0.00000000
     atom   15 type  1   force =    -0.00000000   -0.00000000   -0.00000000
     atom   16 type  1   force =     0.00000000   -0.00000000   -0.00000000
     atom   17 type  1   force =    -0.00000000   -0.00000000   -0.00000000
     atom   18 type  1   force =     0.00000000   -0.00000000   -0.00000000
     atom   19 type  1   force =     0.00014359   -0.00014688   -0.00049088
     atom   20 type  1   force =    -0.00012654   -0.00007070   -0.00048050
     atom   21 type  1   force =    -0.00001456    0.00027090   -0.00039779
     atom   22 type  1   force =     0.00008162   -0.00017970   -0.00055765
     atom   23 type  1   force =     0.00019260    0.00008878   -0.00050740
     atom   24 type  1   force =    -0.00027625    0.00005835   -0.00048279
     atom   25 type  1   force =     0.00037537   -0.00003603   -0.00055069
     atom   26 type  1   force =    -0.00005799   -0.00002284   -0.00053420
     atom   27 type  1   force =    -0.00031817    0.00002342   -0.00051455
     atom   28 type  1   force =     0.00038952    0.00011683   -0.00056035
     atom   29 type  1   force =    -0.00039671    0.00014798   -0.00054716
     atom   30 type  1   force =     0.00000993    0.00013411   -0.00051901
     atom   31 type  1   force =     0.00001843   -0.00026779   -0.00026381
     atom   32 type  1   force =    -0.00005590    0.00007950   -0.00064309
     atom   33 type  1   force =     0.00003106    0.00004927   -0.00061450
     atom   34 type  1   force =     0.00020799   -0.00012727   -0.00058252
     atom   35 type  1   force =    -0.00003971    0.00006081   -0.00075214
     atom   36 type  1   force =    -0.00016810   -0.00011522   -0.00053003
     atom   37 type  2   force =     0.00000230    0.00001976   -0.00024239
     atom   38 type  3   force =     0.00000068   -0.00001589   -0.00003031

     Total force =     0.007732     Total SCF correction =     0.002525
     SCF correction compared to forces is large: reduce conv_thr to get better values

     Writing all to output data dir ./pwscf.save/

     init_run     :     16.87s CPU     19.20s WALL (       1 calls)
     electrons    :    381.63s CPU    401.68s WALL (       1 calls)
     forces       :      4.12s CPU      4.64s WALL (       1 calls)

     Called by init_run:
     wfcinit      :     11.97s CPU     14.16s WALL (       1 calls)
     potinit      :      3.23s CPU      3.32s WALL (       1 calls)
     hinit0       :      1.07s CPU      1.08s WALL (       1 calls)

     Called by electrons:
     c_bands      :    315.10s CPU    330.83s WALL (      18 calls)
     sum_band     :     36.59s CPU     37.74s WALL (      18 calls)
     v_of_rho     :     12.64s CPU     14.58s WALL (      18 calls)
     newd         :      4.74s CPU      5.47s WALL (      18 calls)
     PAW_pot      :     10.70s CPU     10.96s WALL (      18 calls)
     mix_rho      :      3.65s CPU      3.72s WALL (      18 calls)
     vdW_kernel   :      1.72s CPU      1.73s WALL (       1 calls)

     Called by c_bands:
     init_us_2    :      2.64s CPU      2.68s WALL (     494 calls)
     init_us_2:cp :      2.64s CPU      2.67s WALL (     494 calls)
     cegterg      :    306.93s CPU    322.35s WALL (     234 calls)

     Called by *egterg:
     cdiaghg      :     75.58s CPU     80.70s WALL (    1116 calls)
     h_psi        :    144.18s CPU    152.83s WALL (    1142 calls)
     s_psi        :     13.95s CPU     15.64s WALL (    1142 calls)
     g_psi        :      0.41s CPU      0.42s WALL (     895 calls)

     Called by h_psi:
     h_psi:calbec :     23.70s CPU     24.51s WALL (    1142 calls)
     vloc_psi     :    105.53s CPU    113.17s WALL (    1142 calls)
     add_vuspsi   :     13.90s CPU     14.09s WALL (    1142 calls)

     General routines
     calbec       :     32.52s CPU     33.57s WALL (    1428 calls)
     fft          :      9.84s CPU     11.72s WALL (    1194 calls)
     ffts         :      2.26s CPU      2.29s WALL (    4168 calls)
     fftw         :    109.21s CPU    115.21s WALL (  299752 calls)
     interpolate  :      0.89s CPU      0.95s WALL (      18 calls)

     Parallel routines

     PWSCF        :   6m47.24s CPU   7m18.09s WALL


   This run was terminated on:  13:15:44   7Nov2025            

=------------------------------------------------------------------------------=
   JOB DONE.
=------------------------------------------------------------------------------=
