
     Program PWSCF v.7.1 starts on  4Dec2025 at 20: 6:52 
        Git branch: heads/qe-7.1
        Last git commit: 48ba0178f8fede6d020eb786884699a9f063f55d-dirty
        Last git commit date: Fri Jan 27 14:22:33 2023 +0000
        Last git commit subject: Merge branch 'fix_hubbard' into 'develop'

     This program is part of the open-source Quantum ESPRESSO suite
     for quantum simulation of materials; please cite
         "P. Giannozzi et al., J. Phys.:Condens. Matter 21 395502 (2009);
         "P. Giannozzi et al., J. Phys.:Condens. Matter 29 465901 (2017);
         "P. Giannozzi et al., J. Chem. Phys. 152 154105 (2020);
          URL http://www.quantum-espresso.org", 
     in publications or presentations arising from this work. More details at
     http://www.quantum-espresso.org/quote

     Parallel version (MPI), running on    96 processors

     MPI processes distributed on     2 nodes
     38184 MiB available memory on the printing compute node when the environment starts

     Reading input from espresso.pwi
Warning: card &CELL ignored
Warning: card / ignored
Warning: card &FCP ignored
Warning: card / ignored
Warning: card &RISM ignored
Warning: card / ignored

     Current dimensions of program PWSCF are:
     Max number of different atomic species (ntypx) = 10
     Max number of k-points (npk) =  40000
     Max angular momentum in pseudopotentials (lmaxx) =  4
     file Co.pbe-n-kjpaw_psl.1.0.0.UPF: wavefunction(s)  4S 3D renormalized
     file C.pbe-n-kjpaw_psl.1.0.0.UPF: wavefunction(s)  2S 2P renormalized
     file O.pbe-nl-kjpaw_psl.1.0.0.UPF: wavefunction(s)  2S 2P renormalized
     file H.pbe-kjpaw_psl.1.0.0.UPF: wavefunction(s)  1S renormalized

     **************************************************************************
     Initializing libbeef V0.1.2 with the BEEF-vdW functional.
     Citation: Wellendorff et al., PRB 85, 235149 (2012).
     **************************************************************************


     IMPORTANT: XC functional enforced from input :
     Exchange-correlation= BEEF-VDW
                           (   1   4  43  14   2   0   0)
     Any further DFT definition will be discarded
     Please, verify this is what you really want


     R & G space division:  proc/nbgrp/npool/nimage =      96
     Subspace diagonalization in iterative solution of the eigenvalue problem:
     one sub-group per band group will be used
     custom distributed-memory algorithm (size of sub-group:  2*  2 procs)


     Parallelization info
     --------------------
     sticks:   dense  smooth     PW     G-vecs:    dense   smooth      PW
     Min          43      23      6                 7829     3049     440
     Max          44      24      7                 7845     3068     465
     Sum        4153    2221    613               752179   293251   42993

     Using Slab Decomposition



     bravais-lattice index     =            0
     lattice parameter (alat)  =      14.1729  a.u.
     unit-cell volume          =    8574.3059 (a.u.)^3
     number of atoms/cell      =           39
     number of atomic types    =            4
     number of electrons       =       335.00
     number of Kohn-Sham states=          202
     kinetic-energy cutoff     =      40.0000  Ry
     charge density cutoff     =     300.0000  Ry
     scf convergence threshold =      1.0E-06
     mixing beta               =       0.7000
     number of iterations used =            8  local-TF  mixing
     Exchange-correlation= BEEF-VDW
                           (   1   4  43  14   2   0   0)

     celldm(1)=  14.172946  celldm(2)=   0.000000  celldm(3)=   0.000000
     celldm(4)=   0.000000  celldm(5)=   0.000000  celldm(6)=   0.000000

     crystal axes: (cart. coord. in units of alat)
               a(1) = (   1.000000   0.000000   0.000000 )  
               a(2) = (   0.500000   0.866025   0.000000 )  
               a(3) = (   0.000000   0.000000   3.477667 )  

     reciprocal axes: (cart. coord. in units 2 pi/alat)
               b(1) = (  1.000000 -0.577350  0.000000 )  
               b(2) = (  0.000000  1.154701  0.000000 )  
               b(3) = (  0.000000  0.000000  0.287549 )  


     PseudoPot. # 1 for Co read from file:
     /users/kbadger1/espresso/pseudo/pslibrary.1.0.0/pbe/PSEUDOPOTENTIALS/Co.pbe-n-kjpaw_psl.1.0.0.UPF
     MD5 check sum: 88af6ec42553d4236c267fdfcb472151
     Pseudo is Projector augmented-wave + core cor, Zval =  9.0
     Generated using 'atomic' code by A. Dal Corso  v.7.0
     Shape of augmentation charge: PSQ
     Using radial grid of 1193 points,  6 beta functions with: 
                l(1) =   0
                l(2) =   0
                l(3) =   1
                l(4) =   1
                l(5) =   2
                l(6) =   2
     Q(r) pseudized with 0 coefficients 


     PseudoPot. # 2 for C  read from file:
     /users/kbadger1/espresso/pseudo/pslibrary.1.0.0/pbe/PSEUDOPOTENTIALS/C.pbe-n-kjpaw_psl.1.0.0.UPF
     MD5 check sum: 6408e75cdba28732cea38a4db8498ce4
     Pseudo is Projector augmented-wave + core cor, Zval =  4.0
     Generated using 'atomic' code by A. Dal Corso  v.7.0
     Shape of augmentation charge: PSQ
     Using radial grid of 1073 points,  4 beta functions with: 
                l(1) =   0
                l(2) =   0
                l(3) =   1
                l(4) =   1
     Q(r) pseudized with 0 coefficients 


     PseudoPot. # 3 for O  read from file:
     /users/kbadger1/espresso/pseudo/pslibrary.1.0.0/pbe/PSEUDOPOTENTIALS/O.pbe-nl-kjpaw_psl.1.0.0.UPF
     MD5 check sum: f0439fab3598ca4e468f064226030408
     Pseudo is Projector augmented-wave + core cor, Zval =  6.0
     Generated using 'atomic' code by A. Dal Corso  v.7.0
     Shape of augmentation charge: PSQ
     Using radial grid of 1095 points,  4 beta functions with: 
                l(1) =   0
                l(2) =   0
                l(3) =   1
                l(4) =   1
     Q(r) pseudized with 0 coefficients 


     PseudoPot. # 4 for H  read from file:
     /users/kbadger1/espresso/pseudo/pslibrary.1.0.0/pbe/PSEUDOPOTENTIALS/H.pbe-kjpaw_psl.1.0.0.UPF
     MD5 check sum: fe4c6fa958fa6d3815bf5d2419cbf1df
     Pseudo is Projector augmented-wave, Zval =  1.0
     Generated using 'atomic' code by A. Dal Corso  v.7.0
     Shape of augmentation charge: PSQ
     Using radial grid of  929 points,  2 beta functions with: 
                l(1) =   0
                l(2) =   0
     Q(r) pseudized with 0 coefficients 


     atomic species   valence    mass     pseudopotential
        Co             9.00    58.93319     Co( 1.00)
        C              4.00    12.00000     C ( 1.00)
        O              6.00    15.99491     O ( 1.00)
        H              1.00     1.00783     H ( 1.00)

     Starting magnetic structure 
     atomic species   magnetization
        Co           1.000
        C            1.000
        O            0.000
        H            0.000

     No symmetry found



   Cartesian axes

     site n.     atom                  positions (alat units)
         1           Co  tau(   1) = (   0.0000000   0.1924501   1.3333333  )
         2           Co  tau(   2) = (   0.3333333   0.1924501   1.3333333  )
         3           Co  tau(   3) = (   0.6666667   0.1924501   1.3333333  )
         4           Co  tau(   4) = (   0.1666667   0.4811252   1.3333333  )
         5           Co  tau(   5) = (   0.5000000   0.4811252   1.3333333  )
         6           Co  tau(   6) = (   0.8333333   0.4811252   1.3333333  )
         7           Co  tau(   7) = (   0.3333333   0.7698004   1.3333333  )
         8           Co  tau(   8) = (   0.6666667   0.7698004   1.3333333  )
         9           Co  tau(   9) = (   1.0000000   0.7698004   1.3333333  )
        10           Co  tau(  10) = (   0.0000000   0.0000000   1.6036667  )
        11           Co  tau(  11) = (   0.3333333   0.0000000   1.6036667  )
        12           Co  tau(  12) = (   0.6666667   0.0000000   1.6036667  )
        13           Co  tau(  13) = (   0.1666667   0.2886751   1.6036667  )
        14           Co  tau(  14) = (   0.5000000   0.2886751   1.6036667  )
        15           Co  tau(  15) = (   0.8333333   0.2886751   1.6036667  )
        16           Co  tau(  16) = (   0.3333333   0.5773503   1.6036667  )
        17           Co  tau(  17) = (   0.6666667   0.5773503   1.6036667  )
        18           Co  tau(  18) = (   1.0000000   0.5773503   1.6036667  )
        19           Co  tau(  19) = (   0.0000000   0.1924501   1.8740000  )
        20           Co  tau(  20) = (   0.3333333   0.1924501   1.8740000  )
        21           Co  tau(  21) = (   0.6666667   0.1924501   1.8740000  )
        22           Co  tau(  22) = (   0.1666667   0.4811252   1.8740000  )
        23           Co  tau(  23) = (   0.5000000   0.4811252   1.8740000  )
        24           Co  tau(  24) = (   0.8333333   0.4811252   1.8740000  )
        25           Co  tau(  25) = (   0.3333333   0.7698004   1.8740000  )
        26           Co  tau(  26) = (   0.6666667   0.7698004   1.8740000  )
        27           Co  tau(  27) = (   1.0000000   0.7698004   1.8740000  )
        28           Co  tau(  28) = (   0.0000000   0.0000000   2.1443333  )
        29           Co  tau(  29) = (   0.3333333   0.0000000   2.1443333  )
        30           Co  tau(  30) = (   0.6666667   0.0000000   2.1443333  )
        31           Co  tau(  31) = (   0.1666667   0.2886751   2.1443333  )
        32           Co  tau(  32) = (   0.5000000   0.2886751   2.1443333  )
        33           Co  tau(  33) = (   0.8333333   0.2886751   2.1443333  )
        34           Co  tau(  34) = (   0.3333333   0.5773503   2.1443333  )
        35           Co  tau(  35) = (   0.6666667   0.5773503   2.1443333  )
        36           Co  tau(  36) = (   1.0000000   0.5773503   2.1443333  )
        37           C   tau(  37) = (   0.4106308   0.1849171   2.3542271  )
        38           O   tau(  38) = (   0.3226990   0.0752046   2.4418715  )
        39           H   tau(  39) = (   0.4972314   0.2853652   2.4261291  )

     number of k points=    13  Marzari-Vanderbilt smearing, width (Ry)=  0.0010
                       cart. coord. in units 2pi/alat
        k(    1) = (   0.0000000   0.0000000   0.0000000), wk =   0.0400000
        k(    2) = (   0.0000000   0.2309401   0.0000000), wk =   0.0800000
        k(    3) = (   0.0000000   0.4618802   0.0000000), wk =   0.0800000
        k(    4) = (   0.2000000  -0.1154701   0.0000000), wk =   0.0800000
        k(    5) = (   0.2000000   0.1154701   0.0000000), wk =   0.0800000
        k(    6) = (   0.2000000   0.3464102   0.0000000), wk =   0.0800000
        k(    7) = (   0.2000000  -0.5773503   0.0000000), wk =   0.0800000
        k(    8) = (   0.2000000  -0.3464102   0.0000000), wk =   0.0800000
        k(    9) = (   0.4000000  -0.2309401   0.0000000), wk =   0.0800000
        k(   10) = (   0.4000000   0.0000000   0.0000000), wk =   0.0800000
        k(   11) = (   0.4000000   0.2309401   0.0000000), wk =   0.0800000
        k(   12) = (   0.4000000  -0.6928203   0.0000000), wk =   0.0800000
        k(   13) = (   0.4000000  -0.4618802   0.0000000), wk =   0.0800000

     Dense  grid:   752179 G-vectors     FFT dimensions: (  80,  80, 288)

     Smooth grid:   293251 G-vectors     FFT dimensions: (  60,  60, 200)

     Estimated max dynamical RAM per process >      84.82 MB

     Estimated total dynamical RAM >       7.95 GB
     Generating pointlists ...
     new r_m :   0.1034 (alat units)  1.4652 (a.u.) for type    1
     new r_m :   0.0622 (alat units)  0.8820 (a.u.) for type    2
     new r_m :   0.0683 (alat units)  0.9686 (a.u.) for type    3
     new r_m :   0.0622 (alat units)  0.8820 (a.u.) for type    4

     Initial potential from superposition of free atoms

     starting charge     334.9897, renormalised to     335.0000

     negative rho (up, down):  3.029E-03 4.714E-04


     %%%%%%%%%%%%%%%%%%%%%%%%%%%%%%%%%%%%%%%%%%%%%%%%%%%%%%%%%%%%%%%%%%%%%%%%
     %                                                                      %
     % You are using vdW-DF, which was implemented by the Thonhauser group. %
     % Please cite the following two papers that made this development      %
     % possible and the two reviews that describe the various versions:     %
     %                                                                      %
     %   T. Thonhauser et al., PRL 115, 136402 (2015).                      %
     %   T. Thonhauser et al., PRB 76, 125112 (2007).                       %
     %   K. Berland et al., Rep. Prog. Phys. 78, 066501 (2015).             %
     %   D.C. Langreth et al., J. Phys.: Condens. Matter 21, 084203 (2009). %
     %                                                                      %
     % If you are calculating stress with vdW-DF, please also cite:         %
     %                                                                      %
     %   R. Sabatini et al., J. Phys.: Condens. Matter 24, 424209 (2012).   %
     %   C.M. Frostenson et al., Electr. Struct. 4, 014001 (2022).          %
     %                                                                      %
     %%%%%%%%%%%%%%%%%%%%%%%%%%%%%%%%%%%%%%%%%%%%%%%%%%%%%%%%%%%%%%%%%%%%%%%%

     %%%%%%%%%%%%%%%%%%%%%%%%%%%%%%%%%%%%%%%%%%%%%%%%%%%%%%%%%%%%%%%%%%%%%%%%
     %                                                                      %
     %  vdW-DF NEWS:                                                        %
     %                                                                      %
     %  * vdW-DF3 is now available. DOI: 10.1021/acs.jctc.0c00471           %
     %    use with input_dft = 'vdW-DF3-opt1' or 'vdW-DF3-opt2'             %
     %                                                                      %
     %  * Unscreened and range-separated hybrid vdW-DF-cx functionals       %
     %    DOI: 10.1063/1.4986522 and 10.1088/1361-648X/ac2ad2               %
     %    use with input_dft = 'vdW-DF-cx0'    and 'vdW-DF-ahcx'            %
     %  * Unscreened and range-separated hybrid vdW-DF2-b86r functionals    %
     %    DOI: 10.1063/1.4986522 and DOI: 10.1103/PhysRevX.12.041003        %
     %    use with input_dft = 'vdW-DF2-br0' and 'vdW-DF2-ahbr'             %
     %                                                                      %
     %%%%%%%%%%%%%%%%%%%%%%%%%%%%%%%%%%%%%%%%%%%%%%%%%%%%%%%%%%%%%%%%%%%%%%%%


     Starting wfcs are  333 randomized atomic wfcs
     Checking if some PAW data can be deallocated... 

     total cpu time spent up to now is       11.3 secs

     per-process dynamical memory:   212.1 Mb

     Self-consistent Calculation

     iteration #  1     ecut=    40.00 Ry     beta= 0.70
     Davidson diagonalization with overlap
     ethr =  1.00E-02,  avg # of iterations =  2.0

     negative rho (up, down):  5.147E-05 8.913E-07

     total cpu time spent up to now is       27.9 secs

     total energy              =   -6052.96967154 Ry
     estimated scf accuracy    <      39.81242215 Ry

     total magnetization       =    69.00 Bohr mag/cell
     absolute magnetization    =    81.35 Bohr mag/cell

     iteration #  2     ecut=    40.00 Ry     beta= 0.70
     Davidson diagonalization with overlap
     ethr =  1.00E-02,  avg # of iterations =  1.0

     negative rho (up, down):  2.081E-05 5.564E-07

     total cpu time spent up to now is       39.5 secs

     total energy              =   -6052.41914387 Ry
     estimated scf accuracy    <      24.72313674 Ry

     total magnetization       =    68.52 Bohr mag/cell
     absolute magnetization    =    76.73 Bohr mag/cell

     iteration #  3     ecut=    40.00 Ry     beta= 0.70
     Davidson diagonalization with overlap
     ethr =  7.38E-03,  avg # of iterations =  1.0

     negative rho (up, down):  9.216E-07 1.716E-06

     total cpu time spent up to now is       52.7 secs

     total energy              =   -6055.02254351 Ry
     estimated scf accuracy    <      86.90852196 Ry

     total magnetization       =    65.82 Bohr mag/cell
     absolute magnetization    =    73.11 Bohr mag/cell

     iteration #  4     ecut=    40.00 Ry     beta= 0.70
     Davidson diagonalization with overlap
     ethr =  7.38E-03,  avg # of iterations =  1.0

     negative rho (up, down):  9.009E-07 3.991E-07

     total cpu time spent up to now is       64.7 secs

     total energy              =   -6056.18938027 Ry
     estimated scf accuracy    <       5.72981720 Ry

     total magnetization       =    60.36 Bohr mag/cell
     absolute magnetization    =    70.49 Bohr mag/cell

     iteration #  5     ecut=    40.00 Ry     beta= 0.70
     Davidson diagonalization with overlap
     ethr =  1.71E-03,  avg # of iterations =  1.5

     negative rho (up, down):  8.982E-07 3.535E-07

     total cpu time spent up to now is       78.5 secs

     total energy              =   -6056.24122023 Ry
     estimated scf accuracy    <       2.25656487 Ry

     total magnetization       =    60.21 Bohr mag/cell
     absolute magnetization    =    69.76 Bohr mag/cell

     iteration #  6     ecut=    40.00 Ry     beta= 0.70
     Davidson diagonalization with overlap
     ethr =  6.74E-04,  avg # of iterations =  1.6

     negative rho (up, down):  7.293E-07 3.450E-07

     total cpu time spent up to now is       91.0 secs

     total energy              =   -6056.35505940 Ry
     estimated scf accuracy    <       0.58950693 Ry

     total magnetization       =    60.20 Bohr mag/cell
     absolute magnetization    =    69.59 Bohr mag/cell

     iteration #  7     ecut=    40.00 Ry     beta= 0.70
     Davidson diagonalization with overlap
     c_bands:  2 eigenvalues not converged
     ethr =  1.76E-04,  avg # of iterations =  5.0

     negative rho (up, down):  7.102E-07 3.767E-07

     total cpu time spent up to now is      108.3 secs

     total energy              =   -6056.38891569 Ry
     estimated scf accuracy    <       0.72628614 Ry

     total magnetization       =    60.37 Bohr mag/cell
     absolute magnetization    =    69.31 Bohr mag/cell

     iteration #  8     ecut=    40.00 Ry     beta= 0.70
     Davidson diagonalization with overlap
     ethr =  1.76E-04,  avg # of iterations =  1.7

     negative rho (up, down):  2.726E-07 1.587E-07

     total cpu time spent up to now is      120.7 secs

     total energy              =   -6056.39367778 Ry
     estimated scf accuracy    <       0.14462254 Ry

     total magnetization       =    60.53 Bohr mag/cell
     absolute magnetization    =    69.27 Bohr mag/cell

     iteration #  9     ecut=    40.00 Ry     beta= 0.70
     Davidson diagonalization with overlap
     c_bands:  1 eigenvalues not converged
     c_bands:  3 eigenvalues not converged
     c_bands:  1 eigenvalues not converged
     ethr =  4.32E-05,  avg # of iterations = 12.7

     negative rho (up, down):  2.433E-07 1.458E-07

     total cpu time spent up to now is      148.4 secs

     total energy              =   -6056.41726458 Ry
     estimated scf accuracy    <       0.25776607 Ry

     total magnetization       =    61.25 Bohr mag/cell
     absolute magnetization    =    69.21 Bohr mag/cell

     iteration # 10     ecut=    40.00 Ry     beta= 0.70
     Davidson diagonalization with overlap
     ethr =  4.32E-05,  avg # of iterations =  1.4

     negative rho (up, down):  1.246E-07 6.664E-08

     total cpu time spent up to now is      160.1 secs

     total energy              =   -6056.42233152 Ry
     estimated scf accuracy    <       0.21308898 Ry

     total magnetization       =    61.24 Bohr mag/cell
     absolute magnetization    =    69.10 Bohr mag/cell

     iteration # 11     ecut=    40.00 Ry     beta= 0.70
     Davidson diagonalization with overlap
     ethr =  4.32E-05,  avg # of iterations =  1.2

     negative rho (up, down):  2.940E-08 2.253E-08

     total cpu time spent up to now is      173.0 secs

     total energy              =   -6056.41306894 Ry
     estimated scf accuracy    <       0.11518597 Ry

     total magnetization       =    61.24 Bohr mag/cell
     absolute magnetization    =    68.98 Bohr mag/cell

     iteration # 12     ecut=    40.00 Ry     beta= 0.70
     Davidson diagonalization with overlap
     ethr =  3.44E-05,  avg # of iterations =  2.0

     negative rho (up, down):  1.757E-07 4.309E-08

     total cpu time spent up to now is      186.2 secs

     total energy              =   -6056.41685627 Ry
     estimated scf accuracy    <       0.11754889 Ry

     total magnetization       =    61.09 Bohr mag/cell
     absolute magnetization    =    68.64 Bohr mag/cell

     iteration # 13     ecut=    40.00 Ry     beta= 0.70
     Davidson diagonalization with overlap
     ethr =  3.44E-05,  avg # of iterations =  1.2

     negative rho (up, down):  1.693E-08 3.179E-09

     total cpu time spent up to now is      199.0 secs

     total energy              =   -6056.41455834 Ry
     estimated scf accuracy    <       0.09620654 Ry

     total magnetization       =    61.16 Bohr mag/cell
     absolute magnetization    =    68.62 Bohr mag/cell

     iteration # 14     ecut=    40.00 Ry     beta= 0.70
     Davidson diagonalization with overlap
     ethr =  2.87E-05,  avg # of iterations =  1.3

     negative rho (up, down):  9.382E-07 7.271E-08

     total cpu time spent up to now is      210.9 secs

     total energy              =   -6056.41275532 Ry
     estimated scf accuracy    <       0.10219621 Ry

     total magnetization       =    61.25 Bohr mag/cell
     absolute magnetization    =    68.74 Bohr mag/cell

     iteration # 15     ecut=    40.00 Ry     beta= 0.70
     Davidson diagonalization with overlap
     ethr =  2.87E-05,  avg # of iterations =  1.0

     negative rho (up, down):  6.132E-04 2.049E-04

     total cpu time spent up to now is      222.1 secs

     total energy              =   -6056.41091129 Ry
     estimated scf accuracy    <       0.08264429 Ry

     total magnetization       =    61.25 Bohr mag/cell
     absolute magnetization    =    68.71 Bohr mag/cell

     iteration # 16     ecut=    40.00 Ry     beta= 0.70
     Davidson diagonalization with overlap
     ethr =  2.47E-05,  avg # of iterations =  1.1

     negative rho (up, down):  1.028E-02 8.614E-03

     total cpu time spent up to now is      235.5 secs

     total energy              =   -6056.40751764 Ry
     estimated scf accuracy    <       0.06036645 Ry

     total magnetization       =    61.25 Bohr mag/cell
     absolute magnetization    =    68.69 Bohr mag/cell

     iteration # 17     ecut=    40.00 Ry     beta= 0.70
     Davidson diagonalization with overlap
     ethr =  1.80E-05,  avg # of iterations =  2.8

     negative rho (up, down):  1.245E-02 1.080E-02

     total cpu time spent up to now is      248.5 secs

     total energy              =   -6056.40809057 Ry
     estimated scf accuracy    <       0.03165927 Ry

     total magnetization       =    61.24 Bohr mag/cell
     absolute magnetization    =    68.71 Bohr mag/cell

     iteration # 18     ecut=    40.00 Ry     beta= 0.70
     Davidson diagonalization with overlap
     c_bands:  4 eigenvalues not converged
     c_bands:  2 eigenvalues not converged
     ethr =  9.45E-06,  avg # of iterations =  3.3

     negative rho (up, down):  4.730E-03 3.677E-03

     total cpu time spent up to now is      263.6 secs

     total energy              =   -6056.40807380 Ry
     estimated scf accuracy    <       0.03499652 Ry

     total magnetization       =    61.24 Bohr mag/cell
     absolute magnetization    =    68.67 Bohr mag/cell

     iteration # 19     ecut=    40.00 Ry     beta= 0.70
     Davidson diagonalization with overlap
     ethr =  9.45E-06,  avg # of iterations =  1.1

     negative rho (up, down):  1.411E-02 1.275E-02

     total cpu time spent up to now is      275.1 secs

     total energy              =   -6056.40748905 Ry
     estimated scf accuracy    <       0.03218094 Ry

     total magnetization       =    61.24 Bohr mag/cell
     absolute magnetization    =    68.69 Bohr mag/cell

     iteration # 20     ecut=    40.00 Ry     beta= 0.70
     Davidson diagonalization with overlap
     ethr =  9.45E-06,  avg # of iterations =  1.1

     negative rho (up, down):  1.714E-02 1.586E-02

     total cpu time spent up to now is      287.9 secs

     total energy              =   -6056.40684609 Ry
     estimated scf accuracy    <       0.02053323 Ry

     total magnetization       =    61.24 Bohr mag/cell
     absolute magnetization    =    68.68 Bohr mag/cell

     iteration # 21     ecut=    40.00 Ry     beta= 0.70
     Davidson diagonalization with overlap
     ethr =  6.13E-06,  avg # of iterations =  1.2

     negative rho (up, down):  1.105E-02 9.974E-03

     total cpu time spent up to now is      300.1 secs

     total energy              =   -6056.40677144 Ry
     estimated scf accuracy    <       0.01871043 Ry

     total magnetization       =    61.24 Bohr mag/cell
     absolute magnetization    =    68.68 Bohr mag/cell

     iteration # 22     ecut=    40.00 Ry     beta= 0.70
     Davidson diagonalization with overlap
     ethr =  5.59E-06,  avg # of iterations =  1.2

     negative rho (up, down):  1.817E-02 1.722E-02

     total cpu time spent up to now is      311.4 secs

     total energy              =   -6056.40679493 Ry
     estimated scf accuracy    <       0.01333921 Ry

     total magnetization       =    61.24 Bohr mag/cell
     absolute magnetization    =    68.69 Bohr mag/cell

     iteration # 23     ecut=    40.00 Ry     beta= 0.70
     Davidson diagonalization with overlap
     c_bands:  4 eigenvalues not converged
     ethr =  3.98E-06,  avg # of iterations =  2.0

     negative rho (up, down):  2.209E-02 2.123E-02

     total cpu time spent up to now is      325.2 secs

     total energy              =   -6056.40725689 Ry
     estimated scf accuracy    <       0.00529524 Ry

     total magnetization       =    61.24 Bohr mag/cell
     absolute magnetization    =    68.69 Bohr mag/cell

     iteration # 24     ecut=    40.00 Ry     beta= 0.70
     Davidson diagonalization with overlap
     c_bands:  2 eigenvalues not converged
     ethr =  1.58E-06,  avg # of iterations =  4.5

     negative rho (up, down):  1.315E-02 1.232E-02

     total cpu time spent up to now is      339.5 secs

     total energy              =   -6056.40690554 Ry
     estimated scf accuracy    <       0.00416831 Ry

     total magnetization       =    61.24 Bohr mag/cell
     absolute magnetization    =    68.70 Bohr mag/cell

     iteration # 25     ecut=    40.00 Ry     beta= 0.70
     Davidson diagonalization with overlap
     ethr =  1.24E-06,  avg # of iterations =  1.5

     negative rho (up, down):  9.759E-03 8.971E-03

     total cpu time spent up to now is      353.0 secs

     total energy              =   -6056.40687470 Ry
     estimated scf accuracy    <       0.00394261 Ry

     total magnetization       =    61.24 Bohr mag/cell
     absolute magnetization    =    68.70 Bohr mag/cell

     iteration # 26     ecut=    40.00 Ry     beta= 0.70
     Davidson diagonalization with overlap
     ethr =  1.18E-06,  avg # of iterations =  1.3

     negative rho (up, down):  1.076E-02 1.007E-02

     total cpu time spent up to now is      365.0 secs

     total energy              =   -6056.40722840 Ry
     estimated scf accuracy    <       0.00372661 Ry

     total magnetization       =    61.24 Bohr mag/cell
     absolute magnetization    =    68.70 Bohr mag/cell

     iteration # 27     ecut=    40.00 Ry     beta= 0.70
     Davidson diagonalization with overlap
     ethr =  1.11E-06,  avg # of iterations =  1.2

     negative rho (up, down):  8.717E-03 8.037E-03

     total cpu time spent up to now is      377.9 secs

     total energy              =   -6056.40745136 Ry
     estimated scf accuracy    <       0.00122536 Ry

     total magnetization       =    61.24 Bohr mag/cell
     absolute magnetization    =    68.71 Bohr mag/cell

     iteration # 28     ecut=    40.00 Ry     beta= 0.70
     Davidson diagonalization with overlap
     ethr =  3.66E-07,  avg # of iterations =  1.7

     negative rho (up, down):  7.444E-03 6.749E-03

     total cpu time spent up to now is      390.3 secs

     total energy              =   -6056.40749389 Ry
     estimated scf accuracy    <       0.00124639 Ry

     total magnetization       =    61.24 Bohr mag/cell
     absolute magnetization    =    68.71 Bohr mag/cell

     iteration # 29     ecut=    40.00 Ry     beta= 0.70
     Davidson diagonalization with overlap
     ethr =  3.66E-07,  avg # of iterations =  1.3

     negative rho (up, down):  6.449E-03 5.721E-03

     total cpu time spent up to now is      401.7 secs

     total energy              =   -6056.40752957 Ry
     estimated scf accuracy    <       0.00035575 Ry

     total magnetization       =    61.24 Bohr mag/cell
     absolute magnetization    =    68.71 Bohr mag/cell

     iteration # 30     ecut=    40.00 Ry     beta= 0.70
     Davidson diagonalization with overlap
     ethr =  1.06E-07,  avg # of iterations =  3.3

     negative rho (up, down):  3.781E-03 2.854E-03

     total cpu time spent up to now is      417.4 secs

     total energy              =   -6056.40753454 Ry
     estimated scf accuracy    <       0.00019348 Ry

     total magnetization       =    61.24 Bohr mag/cell
     absolute magnetization    =    68.71 Bohr mag/cell

     iteration # 31     ecut=    40.00 Ry     beta= 0.70
     Davidson diagonalization with overlap
     ethr =  5.78E-08,  avg # of iterations =  2.2

     negative rho (up, down):  4.213E-03 3.351E-03

     total cpu time spent up to now is      429.7 secs

     total energy              =   -6056.40752331 Ry
     estimated scf accuracy    <       0.00019924 Ry

     total magnetization       =    61.24 Bohr mag/cell
     absolute magnetization    =    68.71 Bohr mag/cell

     iteration # 32     ecut=    40.00 Ry     beta= 0.70
     Davidson diagonalization with overlap
     ethr =  5.78E-08,  avg # of iterations =  1.4

     negative rho (up, down):  3.993E-03 3.010E-03

     total cpu time spent up to now is      443.0 secs

     total energy              =   -6056.40755867 Ry
     estimated scf accuracy    <       0.00021156 Ry

     total magnetization       =    61.24 Bohr mag/cell
     absolute magnetization    =    68.71 Bohr mag/cell

     iteration # 33     ecut=    40.00 Ry     beta= 0.70
     Davidson diagonalization with overlap
     ethr =  5.78E-08,  avg # of iterations =  1.3

     negative rho (up, down):  2.535E-03 1.441E-03

     total cpu time spent up to now is      454.8 secs

     total energy              =   -6056.40756124 Ry
     estimated scf accuracy    <       0.00011201 Ry

     total magnetization       =    61.24 Bohr mag/cell
     absolute magnetization    =    68.71 Bohr mag/cell

     iteration # 34     ecut=    40.00 Ry     beta= 0.70
     Davidson diagonalization with overlap
     ethr =  3.34E-08,  avg # of iterations =  2.0

     negative rho (up, down):  2.448E-03 1.396E-03

     total cpu time spent up to now is      468.7 secs

     total energy              =   -6056.40756476 Ry
     estimated scf accuracy    <       0.00005006 Ry

     total magnetization       =    61.24 Bohr mag/cell
     absolute magnetization    =    68.71 Bohr mag/cell

     iteration # 35     ecut=    40.00 Ry     beta= 0.70
     Davidson diagonalization with overlap
     ethr =  1.49E-08,  avg # of iterations =  2.2

     negative rho (up, down):  2.296E-03 1.243E-03

     total cpu time spent up to now is      481.8 secs

     total energy              =   -6056.40756603 Ry
     estimated scf accuracy    <       0.00000985 Ry

     total magnetization       =    61.24 Bohr mag/cell
     absolute magnetization    =    68.71 Bohr mag/cell

     iteration # 36     ecut=    40.00 Ry     beta= 0.70
     Davidson diagonalization with overlap
     ethr =  2.94E-09,  avg # of iterations =  7.0

     negative rho (up, down):  2.337E-03 1.295E-03

     total cpu time spent up to now is      500.4 secs

     total energy              =   -6056.40756695 Ry
     estimated scf accuracy    <       0.00000560 Ry

     total magnetization       =    61.24 Bohr mag/cell
     absolute magnetization    =    68.71 Bohr mag/cell

     iteration # 37     ecut=    40.00 Ry     beta= 0.70
     Davidson diagonalization with overlap
     ethr =  1.67E-09,  avg # of iterations =  2.6

     negative rho (up, down):  2.346E-03 1.273E-03

     total cpu time spent up to now is      513.5 secs

     total energy              =   -6056.40756814 Ry
     estimated scf accuracy    <       0.00002148 Ry

     total magnetization       =    61.24 Bohr mag/cell
     absolute magnetization    =    68.71 Bohr mag/cell

     iteration # 38     ecut=    40.00 Ry     beta= 0.70
     Davidson diagonalization with overlap
     ethr =  1.67E-09,  avg # of iterations =  1.2

     negative rho (up, down):  2.309E-03 1.270E-03

     total cpu time spent up to now is      524.9 secs

     total energy              =   -6056.40756713 Ry
     estimated scf accuracy    <       0.00000728 Ry

     total magnetization       =    61.24 Bohr mag/cell
     absolute magnetization    =    68.71 Bohr mag/cell

     iteration # 39     ecut=    40.00 Ry     beta= 0.70
     Davidson diagonalization with overlap
     ethr =  1.67E-09,  avg # of iterations =  1.6

     negative rho (up, down):  2.318E-03 1.260E-03

     total cpu time spent up to now is      539.2 secs

     total energy              =   -6056.40756796 Ry
     estimated scf accuracy    <       0.00000247 Ry

     total magnetization       =    61.24 Bohr mag/cell
     absolute magnetization    =    68.71 Bohr mag/cell

     iteration # 40     ecut=    40.00 Ry     beta= 0.70
     Davidson diagonalization with overlap
     ethr =  7.37E-10,  avg # of iterations =  2.1

     negative rho (up, down):  2.315E-03 1.242E-03

     total cpu time spent up to now is      551.4 secs

     total energy              =   -6056.40756841 Ry
     estimated scf accuracy    <       0.00000244 Ry

     total magnetization       =    61.24 Bohr mag/cell
     absolute magnetization    =    68.71 Bohr mag/cell

     iteration # 41     ecut=    40.00 Ry     beta= 0.70
     Davidson diagonalization with overlap
     ethr =  7.27E-10,  avg # of iterations =  1.5

     negative rho (up, down):  2.320E-03 1.240E-03

     total cpu time spent up to now is      564.9 secs

     total energy              =   -6056.40756864 Ry
     estimated scf accuracy    <       0.00000280 Ry

     total magnetization       =    61.24 Bohr mag/cell
     absolute magnetization    =    68.71 Bohr mag/cell

     iteration # 42     ecut=    40.00 Ry     beta= 0.70
     Davidson diagonalization with overlap
     ethr =  7.27E-10,  avg # of iterations =  1.1

     negative rho (up, down):  2.225E-03 1.128E-03

     Magnetic moment per site  (integrated on atomic sphere of radius R)
     atom   1 (R=0.103)  charge=  6.2585  magn=  1.7703
     atom   2 (R=0.103)  charge=  6.2595  magn=  1.7630
     atom   3 (R=0.103)  charge=  6.2589  magn=  1.7663
     atom   4 (R=0.103)  charge=  6.2589  magn=  1.7680
     atom   5 (R=0.103)  charge=  6.2591  magn=  1.7649
     atom   6 (R=0.103)  charge=  6.2582  magn=  1.7735
     atom   7 (R=0.103)  charge=  6.2587  magn=  1.7740
     atom   8 (R=0.103)  charge=  6.2585  magn=  1.7687
     atom   9 (R=0.103)  charge=  6.2587  magn=  1.7658
     atom  10 (R=0.103)  charge=  6.2654  magn=  1.6892
     atom  11 (R=0.103)  charge=  6.2658  magn=  1.6972
     atom  12 (R=0.103)  charge=  6.2654  magn=  1.6956
     atom  13 (R=0.103)  charge=  6.2656  magn=  1.6936
     atom  14 (R=0.103)  charge=  6.2663  magn=  1.6868
     atom  15 (R=0.103)  charge=  6.2657  magn=  1.6962
     atom  16 (R=0.103)  charge=  6.2657  magn=  1.6926
     atom  17 (R=0.103)  charge=  6.2659  magn=  1.6974
     atom  18 (R=0.103)  charge=  6.2655  magn=  1.6957
     atom  19 (R=0.103)  charge=  6.2637  magn=  1.7038
     atom  20 (R=0.103)  charge=  6.2628  magn=  1.7179
     atom  21 (R=0.103)  charge=  6.2645  magn=  1.6929
     atom  22 (R=0.103)  charge=  6.2653  magn=  1.7053
     atom  23 (R=0.103)  charge=  6.2647  magn=  1.6846
     atom  24 (R=0.103)  charge=  6.2646  magn=  1.6990
     atom  25 (R=0.103)  charge=  6.2647  magn=  1.7033
     atom  26 (R=0.103)  charge=  6.2630  magn=  1.7013
     atom  27 (R=0.103)  charge=  6.2649  magn=  1.7007
     atom  28 (R=0.103)  charge=  6.2618  magn=  1.7806
     atom  29 (R=0.103)  charge=  6.2716  magn=  1.6269
     atom  30 (R=0.103)  charge=  6.2630  magn=  1.7595
     atom  31 (R=0.103)  charge=  6.2677  magn=  1.7233
     atom  32 (R=0.103)  charge=  6.2933  magn=  1.2144
     atom  33 (R=0.103)  charge=  6.2598  magn=  1.7629
     atom  34 (R=0.103)  charge=  6.2604  magn=  1.7641
     atom  35 (R=0.103)  charge=  6.2616  magn=  1.7511
     atom  36 (R=0.103)  charge=  6.2580  magn=  1.7852
     atom  37 (R=0.062)  charge=  0.9082  magn= -0.0151
     atom  38 (R=0.068)  charge=  3.1233  magn=  0.0027
     atom  39 (R=0.062)  charge=  0.5052  magn=  0.0090

     total cpu time spent up to now is      576.3 secs

     End of self-consistent calculation

 ------ SPIN UP ------------


          k = 0.0000 0.0000 0.0000 ( 36693 PWs)   bands (ev):

   -21.6525 -10.5312  -7.5239  -6.8707  -6.2586  -5.7045  -5.2571  -4.6477
    -4.6159  -4.6144  -4.6139  -4.6069  -4.5968  -4.5607  -4.2546  -4.0834
    -4.0803  -4.0755  -4.0670  -4.0533  -4.0180  -3.5640  -3.5587  -3.5557
    -3.5535  -3.5400  -3.5105  -3.4350  -3.4244  -3.4219  -3.4212  -3.4162
    -3.3972  -3.3534  -3.3520  -3.0407  -3.0376  -3.0355  -3.0337  -3.0193
    -2.9775  -2.9714  -2.9667  -2.9639  -2.9608  -2.9577  -2.9563  -2.8088
    -2.8068  -2.7766  -2.7462  -2.7341  -2.7279  -2.7263  -2.7192  -2.7047
    -2.6986  -2.6938  -2.6929  -2.5998  -2.5975  -2.5942  -2.5892  -2.5797
    -2.5485  -2.2851  -2.0660  -2.0610  -2.0552  -2.0512  -2.0454  -1.9476
    -1.9330  -1.9182  -1.9021  -1.8920  -1.8901  -1.8816  -1.8744  -1.8732
    -1.8529  -1.8203  -1.8179  -1.7723  -1.7650  -1.7626  -1.7481  -1.7398
    -1.7385  -1.7312  -1.7266  -1.7251  -1.7113  -1.6988  -1.6952  -1.6898
    -1.6866  -1.6840  -1.6819  -1.6818  -1.6804  -1.6755  -1.6728  -1.6725
    -1.6684  -1.6322  -1.6291  -1.5990  -1.5940  -1.5205  -1.5166  -1.4858
    -1.3149  -1.2398  -1.2255  -1.2225  -1.2211  -1.2172  -1.2145  -1.1971
    -1.1887  -1.1873  -1.1558  -1.1496  -1.1355  -1.1006  -1.0136  -1.0120
    -0.9843  -0.9811  -0.8766  -0.8297  -0.8163  -0.8129  -0.8048  -0.7940
    -0.7418  -0.7323  -0.7284  -0.7262  -0.7253  -0.7107  -0.6185  -0.6124
    -0.5103  -0.4937  -0.4845  -0.4835  -0.4606  -0.4524  -0.4264  -0.4221
    -0.4198  -0.4152  -0.4095  -0.4056  -0.4020  -0.4009  -0.4002  -0.3948
    -0.3894  -0.3863  -0.3739  -0.3584  -0.3484  -0.3385  -0.3353  -0.3334
    -0.3219  -0.3123  -0.2980  -0.2925  -0.2884  -0.2650  -0.2625  -0.2617
    -0.2592  -0.2530  -0.2488  -0.2346  -0.2129  -0.1959  -0.1870  -0.1849
    -0.1820  -0.1770  -0.1737  -0.1699  -0.1695  -0.1542  -0.1050  -0.1003
    -0.0890  -0.0879  -0.0254  -0.0245  -0.0197  -0.0137  -0.0129   0.0045
     0.3507   1.1061

          k = 0.0000 0.2309 0.0000 ( 36641 PWs)   bands (ev):

   -21.6525 -10.5308  -7.3811  -6.8530  -6.1760  -5.6772  -5.3750  -5.2287
    -4.8630  -4.8537  -4.5012  -4.3705  -4.2730  -4.2691  -4.2036  -4.1592
    -4.1174  -4.0795  -4.0072  -3.9520  -3.9353  -3.6825  -3.5701  -3.5608
    -3.4851  -3.4695  -3.4423  -3.4349  -3.4335  -3.4266  -3.4088  -3.3933
    -3.3619  -3.3181  -3.3114  -3.2815  -3.2804  -3.0942  -3.0610  -3.0523
    -3.0218  -2.9971  -2.9953  -2.9844  -2.9188  -2.8934  -2.8636  -2.8364
    -2.8272  -2.8229  -2.7992  -2.7864  -2.7040  -2.6929  -2.6664  -2.6312
    -2.6234  -2.6009  -2.5841  -2.5682  -2.5588  -2.5370  -2.5204  -2.5123
    -2.4601  -2.3148  -2.1817  -2.1685  -2.1430  -2.1261  -2.0866  -2.0290
    -2.0198  -2.0100  -2.0067  -1.9924  -1.9835  -1.9622  -1.9406  -1.9054
    -1.8798  -1.8772  -1.8598  -1.8153  -1.8135  -1.8106  -1.8069  -1.7833
    -1.7807  -1.7711  -1.7671  -1.7655  -1.7635  -1.7353  -1.6957  -1.6781
    -1.6642  -1.6388  -1.6086  -1.5904  -1.5826  -1.5771  -1.5650  -1.5593
    -1.5522  -1.5370  -1.5275  -1.5249  -1.5173  -1.5017  -1.4786  -1.4702
    -1.4613  -1.4506  -1.4282  -1.4067  -1.3624  -1.3285  -1.2532  -1.2485
    -1.2418  -1.2390  -1.2210  -1.2199  -1.2175  -1.2090  -1.1106  -1.0734
    -1.0541  -1.0355  -0.9670  -0.9631  -0.9391  -0.8971  -0.8696  -0.8630
    -0.8032  -0.7956  -0.7673  -0.7464  -0.7298  -0.7186  -0.6786  -0.6782
    -0.6631  -0.6468  -0.6292  -0.5952  -0.5910  -0.5713  -0.5706  -0.5623
    -0.5285  -0.4929  -0.4844  -0.4805  -0.4610  -0.4448  -0.4196  -0.4149
    -0.4090  -0.4065  -0.4024  -0.3919  -0.3720  -0.3616  -0.3538  -0.3447
    -0.2928  -0.2839  -0.2682  -0.2509  -0.2350  -0.2237  -0.1976  -0.1842
    -0.1657  -0.1609  -0.1579  -0.1412  -0.1353  -0.1173  -0.1085  -0.1005
    -0.0669  -0.0276  -0.0222  -0.0143   0.0099   0.0110   0.0529   0.0572
     0.0654   0.1110   0.3352   0.3538   0.4196   0.5220   0.5980   0.6456
     0.6702   0.7884

          k = 0.0000 0.4619 0.0000 ( 36606 PWs)   bands (ev):

   -21.6525 -10.5301  -7.0234  -6.7695  -6.2259  -5.9843  -5.4862  -5.2442
    -5.0067  -4.9843  -4.8863  -4.1768  -4.1170  -4.0998  -4.0639  -4.0299
    -3.9116  -3.9096  -3.8733  -3.7786  -3.7750  -3.7694  -3.6887  -3.5965
    -3.5908  -3.5810  -3.5796  -3.5339  -3.4841  -3.4723  -3.4660  -3.3131
    -3.3088  -3.2989  -3.2848  -3.2604  -3.2589  -3.1629  -3.1530  -3.1417
    -3.1366  -3.1306  -3.0231  -2.9523  -2.9179  -2.8473  -2.8240  -2.8052
    -2.7847  -2.7626  -2.7424  -2.7386  -2.7326  -2.7073  -2.6515  -2.6437
    -2.6192  -2.5836  -2.5769  -2.4664  -2.4340  -2.4290  -2.4143  -2.3727
    -2.3250  -2.3049  -2.2972  -2.2822  -2.2440  -2.1899  -2.1500  -2.1456
    -2.1419  -2.1340  -2.1122  -2.1040  -2.0992  -2.0892  -2.0556  -2.0257
    -2.0115  -1.9884  -1.9706  -1.9441  -1.9312  -1.9121  -1.8563  -1.8276
    -1.8147  -1.8087  -1.7879  -1.7747  -1.7354  -1.7127  -1.7067  -1.7012
    -1.6871  -1.6692  -1.6621  -1.6394  -1.6353  -1.6176  -1.6009  -1.5901
    -1.5762  -1.5681  -1.5145  -1.4702  -1.4515  -1.4370  -1.4082  -1.3984
    -1.3878  -1.3720  -1.3400  -1.2982  -1.2877  -1.2751  -1.2691  -1.2634
    -1.2565  -1.2465  -1.2440  -1.2375  -1.2301  -1.2265  -1.2143  -1.1966
    -1.1802  -1.1627  -1.1060  -1.0640  -1.0368  -1.0251  -1.0104  -0.9907
    -0.9743  -0.9318  -0.9119  -0.8882  -0.8797  -0.8338  -0.8211  -0.7694
    -0.7576  -0.7296  -0.7042  -0.6880  -0.6758  -0.6618  -0.6365  -0.5943
    -0.5604  -0.5058  -0.4962  -0.4835  -0.4785  -0.4752  -0.4676  -0.4597
    -0.4474  -0.4343  -0.3869  -0.3388  -0.3328  -0.3166  -0.3096  -0.3041
    -0.2941  -0.2722  -0.2674  -0.2598  -0.2429  -0.2371  -0.1580  -0.1368
    -0.1302  -0.1260  -0.1001  -0.0822  -0.0375  -0.0281   0.0001   0.0180
     0.0373   0.0831   0.0855   0.1060   0.1086   0.1129   0.1318   0.1389
     0.2181   0.2331   0.2749   0.9512   1.0829   1.2188   1.3371   1.3655
     1.5363   1.7109

          k = 0.2000-0.1155 0.0000 ( 36641 PWs)   bands (ev):

   -21.6525 -10.5304  -7.3817  -6.8528  -6.1815  -5.6904  -5.3566  -5.2267
    -4.8656  -4.8598  -4.4993  -4.3490  -4.2723  -4.2718  -4.2013  -4.1527
    -4.1192  -4.1014  -3.9962  -3.9518  -3.9453  -3.6805  -3.5698  -3.5615
    -3.4868  -3.4633  -3.4450  -3.4357  -3.4338  -3.4195  -3.4097  -3.3976
    -3.3639  -3.3150  -3.3131  -3.2829  -3.2804  -3.1020  -3.0554  -3.0520
    -3.0031  -2.9992  -2.9937  -2.9877  -2.9233  -2.8744  -2.8668  -2.8422
    -2.8300  -2.8242  -2.7993  -2.7841  -2.6954  -2.6933  -2.6625  -2.6330
    -2.6175  -2.6022  -2.5882  -2.5748  -2.5690  -2.5429  -2.5217  -2.5135
    -2.4544  -2.3060  -2.1808  -2.1634  -2.1544  -2.1318  -2.0888  -2.0266
    -2.0170  -2.0146  -2.0007  -1.9972  -1.9824  -1.9671  -1.9486  -1.9027
    -1.8851  -1.8755  -1.8591  -1.8226  -1.8130  -1.8109  -1.8031  -1.7864
    -1.7774  -1.7702  -1.7673  -1.7650  -1.7603  -1.7274  -1.6976  -1.6854
    -1.6706  -1.6381  -1.6046  -1.5890  -1.5810  -1.5769  -1.5676  -1.5607
    -1.5467  -1.5368  -1.5330  -1.5263  -1.5226  -1.4966  -1.4857  -1.4797
    -1.4590  -1.4537  -1.4315  -1.3768  -1.3592  -1.3320  -1.2576  -1.2482
    -1.2429  -1.2347  -1.2241  -1.2200  -1.2158  -1.2115  -1.1326  -1.0786
    -1.0604  -1.0367  -0.9659  -0.9632  -0.9379  -0.8907  -0.8689  -0.8651
    -0.8266  -0.7741  -0.7530  -0.7393  -0.7259  -0.7162  -0.6855  -0.6776
    -0.6628  -0.6475  -0.6322  -0.5927  -0.5893  -0.5758  -0.5659  -0.5589
    -0.5214  -0.5009  -0.4858  -0.4804  -0.4701  -0.4452  -0.4238  -0.4201
    -0.4139  -0.4063  -0.3983  -0.3895  -0.3751  -0.3621  -0.3485  -0.3322
    -0.2997  -0.2873  -0.2743  -0.2494  -0.2295  -0.2257  -0.1944  -0.1875
    -0.1655  -0.1617  -0.1556  -0.1404  -0.1369  -0.1177  -0.1063  -0.1019
    -0.0694  -0.0267  -0.0227  -0.0137   0.0101   0.0112   0.0440   0.0528
     0.0679   0.1096   0.3451   0.3524   0.4519   0.5448   0.6016   0.6143
     0.6783   0.8386

          k = 0.2000 0.1155 0.0000 ( 36641 PWs)   bands (ev):

   -21.6525 -10.5309  -7.3812  -6.8535  -6.1735  -5.6737  -5.3588  -5.2561
    -4.8575  -4.8510  -4.5038  -4.3782  -4.2738  -4.2679  -4.2044  -4.1598
    -4.1106  -4.0783  -4.0089  -3.9501  -3.9361  -3.6833  -3.5686  -3.5644
    -3.4837  -3.4699  -3.4394  -3.4373  -3.4338  -3.4224  -3.4094  -3.3936
    -3.3633  -3.3177  -3.3112  -3.2819  -3.2797  -3.0904  -3.0534  -3.0523
    -3.0189  -2.9975  -2.9947  -2.9925  -2.9133  -2.8922  -2.8690  -2.8417
    -2.8275  -2.8239  -2.8008  -2.7914  -2.7017  -2.6918  -2.6769  -2.6357
    -2.6230  -2.5957  -2.5869  -2.5652  -2.5542  -2.5378  -2.5216  -2.5157
    -2.4617  -2.3010  -2.1855  -2.1729  -2.1492  -2.1223  -2.0845  -2.0219
    -2.0183  -2.0117  -2.0073  -1.9964  -1.9876  -1.9639  -1.9262  -1.9025
    -1.8888  -1.8737  -1.8539  -1.8232  -1.8129  -1.8097  -1.8051  -1.7813
    -1.7790  -1.7760  -1.7701  -1.7651  -1.7578  -1.7306  -1.6939  -1.6891
    -1.6655  -1.6361  -1.6002  -1.5874  -1.5801  -1.5772  -1.5601  -1.5583
    -1.5508  -1.5384  -1.5348  -1.5250  -1.5192  -1.5014  -1.4767  -1.4697
    -1.4590  -1.4561  -1.4308  -1.4081  -1.3610  -1.3316  -1.2543  -1.2472
    -1.2441  -1.2376  -1.2265  -1.2213  -1.2175  -1.2122  -1.1045  -1.0676
    -1.0540  -1.0345  -0.9709  -0.9623  -0.9355  -0.8969  -0.8729  -0.8647
    -0.8046  -0.7860  -0.7688  -0.7426  -0.7353  -0.7193  -0.6858  -0.6804
    -0.6601  -0.6489  -0.6300  -0.5885  -0.5831  -0.5796  -0.5714  -0.5575
    -0.5275  -0.4963  -0.4858  -0.4793  -0.4658  -0.4319  -0.4234  -0.4205
    -0.4131  -0.4043  -0.3949  -0.3867  -0.3730  -0.3619  -0.3558  -0.3390
    -0.2932  -0.2833  -0.2655  -0.2541  -0.2364  -0.2256  -0.1947  -0.1873
    -0.1636  -0.1617  -0.1586  -0.1398  -0.1302  -0.1183  -0.1068  -0.1009
    -0.0687  -0.0276  -0.0233  -0.0152   0.0109   0.0120   0.0506   0.0557
     0.0673   0.1052   0.3222   0.3542   0.4171   0.5181   0.5953   0.6324
     0.6836   0.7818

          k = 0.2000 0.3464 0.0000 ( 36608 PWs)   bands (ev):

   -21.6525 -10.5305  -7.1215  -6.8103  -6.0652  -5.7151  -5.6992  -5.4824
    -5.2457  -4.5751  -4.5403  -4.2873  -4.2784  -4.2336  -4.0572  -4.0523
    -3.9619  -3.9600  -3.9527  -3.8250  -3.8016  -3.6815  -3.6739  -3.6104
    -3.5634  -3.4752  -3.4725  -3.4520  -3.4265  -3.4215  -3.4133  -3.3906
    -3.3679  -3.3526  -3.3408  -3.3022  -3.2601  -3.2261  -3.2132  -3.0963
    -3.0864  -2.9995  -2.9895  -2.9597  -2.9425  -2.9376  -2.8574  -2.8323
    -2.7888  -2.7600  -2.7558  -2.7517  -2.7029  -2.6909  -2.6746  -2.6671
    -2.6514  -2.5620  -2.5334  -2.4755  -2.4666  -2.4556  -2.4315  -2.4095
    -2.4069  -2.2911  -2.2643  -2.2080  -2.1965  -2.1662  -2.1453  -2.1283
    -2.1077  -2.0986  -2.0937  -2.0753  -2.0619  -2.0470  -2.0404  -2.0257
    -2.0046  -1.9877  -1.9297  -1.9045  -1.8514  -1.8451  -1.8275  -1.8093
    -1.7912  -1.7802  -1.7583  -1.7378  -1.7290  -1.6971  -1.6876  -1.6857
    -1.6726  -1.6679  -1.6542  -1.6415  -1.6351  -1.6218  -1.6093  -1.5903
    -1.5804  -1.5503  -1.5273  -1.5106  -1.4951  -1.4910  -1.4573  -1.4485
    -1.4261  -1.4171  -1.4101  -1.3840  -1.3579  -1.3417  -1.3197  -1.2809
    -1.2754  -1.2719  -1.2656  -1.2446  -1.2313  -1.2283  -1.2084  -1.1743
    -1.1214  -1.1025  -1.0996  -1.0603  -0.9840  -0.9758  -0.9574  -0.8828
    -0.8531  -0.8340  -0.8289  -0.8164  -0.8076  -0.7981  -0.7842  -0.7806
    -0.7489  -0.7370  -0.7113  -0.6791  -0.6689  -0.6588  -0.6385  -0.6285
    -0.6088  -0.5955  -0.5601  -0.5491  -0.5434  -0.5300  -0.4622  -0.3928
    -0.3837  -0.3608  -0.3488  -0.3402  -0.3252  -0.3123  -0.3065  -0.2949
    -0.2908  -0.2812  -0.2156  -0.2006  -0.1914  -0.1817  -0.1466  -0.1399
    -0.1127  -0.1114  -0.1047  -0.0958  -0.0769  -0.0713  -0.0662  -0.0457
    -0.0365  -0.0194   0.0490   0.0573   0.0623   0.1083   0.1113   0.1218
     0.4382   0.4488   0.5110   0.5649   0.7603   0.7744   1.0281   1.2768
     1.3385   1.4854

          k = 0.2000-0.5774 0.0000 ( 36660 PWs)   bands (ev):

   -21.6525 -10.5298  -6.9315  -6.4823  -6.4401  -5.9877  -5.7635  -5.3565
    -5.1354  -5.0227  -4.5995  -4.2654  -4.0188  -3.9774  -3.8840  -3.8433
    -3.8358  -3.8232  -3.8125  -3.7893  -3.7385  -3.7295  -3.7271  -3.7196
    -3.6423  -3.6268  -3.5778  -3.5729  -3.5450  -3.5418  -3.4353  -3.4107
    -3.3912  -3.3863  -3.3633  -3.3265  -3.2362  -3.2246  -3.1234  -3.0997
    -3.0926  -3.0297  -3.0071  -2.9932  -2.9639  -2.8898  -2.8777  -2.8720
    -2.8052  -2.8000  -2.7403  -2.6956  -2.6718  -2.6537  -2.6118  -2.5988
    -2.5387  -2.5123  -2.5018  -2.4922  -2.4874  -2.4514  -2.4416  -2.3821
    -2.3235  -2.2988  -2.2873  -2.2757  -2.2541  -2.2144  -2.1886  -2.1557
    -2.1331  -2.1120  -2.1015  -2.0967  -2.0815  -2.0640  -2.0322  -2.0219
    -2.0159  -2.0038  -1.9898  -1.9635  -1.9603  -1.9353  -1.8901  -1.8763
    -1.8611  -1.8378  -1.7973  -1.7851  -1.7408  -1.7277  -1.7137  -1.6941
    -1.6845  -1.6702  -1.6652  -1.6610  -1.6519  -1.6357  -1.6068  -1.5970
    -1.5390  -1.5228  -1.5174  -1.5110  -1.5004  -1.4887  -1.4851  -1.4769
    -1.4677  -1.4621  -1.4439  -1.4156  -1.3997  -1.3617  -1.3559  -1.3300
    -1.2758  -1.2630  -1.2317  -1.2110  -1.2081  -1.1942  -1.1821  -1.1391
    -1.1098  -1.1056  -1.0926  -1.0376  -1.0074  -0.9730  -0.9544  -0.9358
    -0.9343  -0.9170  -0.9025  -0.8858  -0.8584  -0.8454  -0.8168  -0.7929
    -0.7672  -0.7556  -0.7397  -0.7283  -0.7072  -0.6858  -0.6567  -0.6441
    -0.6286  -0.6148  -0.6064  -0.5946  -0.5644  -0.5441  -0.5136  -0.4526
    -0.3506  -0.3421  -0.3375  -0.3308  -0.3215  -0.3136  -0.3064  -0.2980
    -0.2569  -0.2539  -0.2420  -0.2327  -0.2085  -0.1837  -0.1160  -0.1117
    -0.1017  -0.0836  -0.0666  -0.0602  -0.0192  -0.0061  -0.0036   0.0040
     0.0123   0.0809   0.0891   0.0966   0.1107   0.1149   0.1408   0.1680
     0.2045   0.4791   0.5401   0.8040   1.2542   1.3864   1.4886   1.7122
     1.8474   1.9101

          k = 0.2000-0.3464 0.0000 ( 36608 PWs)   bands (ev):

   -21.6525 -10.5297  -7.1216  -6.8123  -6.0774  -5.7381  -5.6953  -5.4752
    -5.2189  -4.6043  -4.5091  -4.2815  -4.2759  -4.2337  -4.0552  -4.0523
    -3.9666  -3.9559  -3.9378  -3.8242  -3.8183  -3.6782  -3.6746  -3.6133
    -3.5649  -3.4846  -3.4737  -3.4480  -3.4248  -3.4200  -3.4160  -3.3895
    -3.3714  -3.3529  -3.3453  -3.3005  -3.2618  -3.2183  -3.2111  -3.1007
    -3.0894  -2.9960  -2.9861  -2.9648  -2.9498  -2.9300  -2.8382  -2.7962
    -2.7833  -2.7705  -2.7554  -2.7483  -2.7021  -2.6940  -2.6739  -2.6673
    -2.6504  -2.5377  -2.5317  -2.4886  -2.4745  -2.4492  -2.4325  -2.4160
    -2.3994  -2.3197  -2.2845  -2.2155  -2.1994  -2.1592  -2.1450  -2.1255
    -2.1187  -2.1004  -2.0917  -2.0691  -2.0543  -2.0491  -2.0413  -2.0259
    -2.0223  -1.9941  -1.9274  -1.9001  -1.8510  -1.8432  -1.8171  -1.8107
    -1.8009  -1.7777  -1.7638  -1.7344  -1.7258  -1.7007  -1.6889  -1.6860
    -1.6781  -1.6656  -1.6533  -1.6426  -1.6328  -1.6280  -1.6002  -1.5940
    -1.5790  -1.5701  -1.5496  -1.5183  -1.4993  -1.4879  -1.4527  -1.4446
    -1.4405  -1.4218  -1.4167  -1.3703  -1.3544  -1.3380  -1.3212  -1.2949
    -1.2727  -1.2701  -1.2648  -1.2506  -1.2379  -1.2253  -1.2055  -1.1639
    -1.1344  -1.0995  -1.0959  -1.0589  -0.9870  -0.9744  -0.9572  -0.8594
    -0.8437  -0.8354  -0.8319  -0.8174  -0.8119  -0.7990  -0.7839  -0.7608
    -0.7478  -0.7296  -0.7159  -0.6902  -0.6726  -0.6552  -0.6449  -0.6267
    -0.6081  -0.5831  -0.5670  -0.5470  -0.5437  -0.5269  -0.4544  -0.3993
    -0.3825  -0.3676  -0.3485  -0.3402  -0.3328  -0.3129  -0.3052  -0.2963
    -0.2886  -0.2840  -0.2121  -0.2028  -0.1881  -0.1820  -0.1423  -0.1347
    -0.1154  -0.1108  -0.1077  -0.0904  -0.0802  -0.0702  -0.0646  -0.0501
    -0.0404  -0.0127   0.0476   0.0580   0.0643   0.1085   0.1113   0.1287
     0.4176   0.4494   0.5109   0.5840   0.7067   0.7902   1.1249   1.3101
     1.3254   1.5323

          k = 0.4000-0.2309 0.0000 ( 36606 PWs)   bands (ev):

   -21.6525 -10.5290  -7.0248  -6.7710  -6.2399  -5.9866  -5.5089  -5.2060
    -5.0067  -4.9996  -4.8598  -4.1600  -4.1200  -4.1029  -4.0858  -4.0206
    -3.9123  -3.9111  -3.8699  -3.7823  -3.7762  -3.7672  -3.6778  -3.5972
    -3.5939  -3.5821  -3.5798  -3.5319  -3.4777  -3.4703  -3.4670  -3.3161
    -3.3087  -3.2991  -3.2941  -3.2619  -3.2567  -3.1657  -3.1479  -3.1439
    -3.1319  -3.1298  -3.0185  -2.9330  -2.9192  -2.8370  -2.8215  -2.7984
    -2.7856  -2.7530  -2.7426  -2.7388  -2.7320  -2.7073  -2.6575  -2.6457
    -2.6187  -2.5838  -2.5731  -2.4760  -2.4344  -2.4276  -2.4125  -2.3803
    -2.3315  -2.3138  -2.2896  -2.2806  -2.2590  -2.1878  -2.1658  -2.1434
    -2.1384  -2.1370  -2.1249  -2.1091  -2.1024  -2.0902  -2.0464  -2.0403
    -2.0034  -1.9994  -1.9724  -1.9516  -1.9252  -1.9104  -1.8460  -1.8336
    -1.8186  -1.8094  -1.7824  -1.7693  -1.7372  -1.7114  -1.7060  -1.6994
    -1.6901  -1.6703  -1.6625  -1.6369  -1.6278  -1.6173  -1.6110  -1.5932
    -1.5748  -1.5642  -1.5158  -1.5033  -1.4495  -1.4344  -1.4198  -1.4058
    -1.3835  -1.3644  -1.3432  -1.3006  -1.2921  -1.2734  -1.2684  -1.2646
    -1.2601  -1.2535  -1.2376  -1.2351  -1.2307  -1.2229  -1.2149  -1.1975
    -1.1858  -1.1659  -1.0909  -1.0627  -1.0370  -1.0290  -1.0054  -0.9998
    -0.9674  -0.9387  -0.9081  -0.8889  -0.8815  -0.8327  -0.8172  -0.7691
    -0.7587  -0.7242  -0.7097  -0.6795  -0.6713  -0.6627  -0.6302  -0.5872
    -0.5335  -0.5078  -0.5037  -0.4898  -0.4824  -0.4789  -0.4691  -0.4581
    -0.4526  -0.4304  -0.3992  -0.3411  -0.3245  -0.3193  -0.3098  -0.3077
    -0.3027  -0.2796  -0.2626  -0.2576  -0.2472  -0.2343  -0.1575  -0.1384
    -0.1308  -0.1261  -0.1020  -0.0705  -0.0356  -0.0267   0.0022   0.0131
     0.0375   0.0811   0.0844   0.1031   0.1074   0.1135   0.1196   0.1425
     0.2184   0.2324   0.3165   0.9211   1.1568   1.2604   1.3360   1.3624
     1.5721   1.6944

          k = 0.4000 0.0000 0.0000 ( 36608 PWs)   bands (ev):

   -21.6525 -10.5298  -7.1228  -6.8111  -6.0744  -5.7334  -5.6928  -5.4752
    -5.2311  -4.5978  -4.5161  -4.2812  -4.2754  -4.2359  -4.0560  -4.0521
    -3.9661  -3.9578  -3.9397  -3.8248  -3.8143  -3.6825  -3.6725  -3.6135
    -3.5644  -3.4809  -3.4745  -3.4478  -3.4281  -3.4186  -3.4105  -3.3892
    -3.3710  -3.3516  -3.3477  -3.2973  -3.2607  -3.2147  -3.2120  -3.1019
    -3.0844  -2.9969  -2.9882  -2.9615  -2.9446  -2.9332  -2.8440  -2.8006
    -2.7885  -2.7717  -2.7553  -2.7519  -2.7065  -2.6963  -2.6766  -2.6677
    -2.6499  -2.5536  -2.5317  -2.4840  -2.4742  -2.4531  -2.4308  -2.4139
    -2.4023  -2.3113  -2.2642  -2.2129  -2.2000  -2.1611  -2.1400  -2.1195
    -2.1132  -2.1091  -2.0949  -2.0730  -2.0613  -2.0428  -2.0402  -2.0249
    -2.0170  -1.9895  -1.9318  -1.9022  -1.8514  -1.8465  -1.8282  -1.8115
    -1.7985  -1.7772  -1.7586  -1.7340  -1.7210  -1.6982  -1.6921  -1.6866
    -1.6716  -1.6656  -1.6526  -1.6486  -1.6355  -1.6288  -1.6069  -1.5895
    -1.5803  -1.5693  -1.5353  -1.5182  -1.4974  -1.4822  -1.4554  -1.4451
    -1.4371  -1.4233  -1.4137  -1.3748  -1.3574  -1.3432  -1.3201  -1.2887
    -1.2745  -1.2696  -1.2671  -1.2461  -1.2332  -1.2265  -1.2087  -1.1690
    -1.1241  -1.1027  -1.0947  -1.0607  -0.9854  -0.9701  -0.9556  -0.8815
    -0.8399  -0.8376  -0.8303  -0.8199  -0.8095  -0.7973  -0.7841  -0.7642
    -0.7535  -0.7346  -0.7113  -0.6791  -0.6675  -0.6612  -0.6385  -0.6270
    -0.6035  -0.5902  -0.5571  -0.5525  -0.5436  -0.5275  -0.4625  -0.3989
    -0.3845  -0.3555  -0.3506  -0.3438  -0.3285  -0.3165  -0.3048  -0.2974
    -0.2894  -0.2831  -0.2120  -0.2040  -0.1896  -0.1828  -0.1455  -0.1348
    -0.1140  -0.1094  -0.1045  -0.0875  -0.0780  -0.0729  -0.0650  -0.0544
    -0.0390  -0.0156   0.0490   0.0574   0.0634   0.1098   0.1134   0.1203
     0.4207   0.4494   0.5117   0.5873   0.7211   0.7897   1.0827   1.2850
     1.3483   1.5048

          k = 0.4000 0.2309 0.0000 ( 36606 PWs)   bands (ev):

   -21.6525 -10.5303  -7.0269  -6.7674  -6.2173  -5.9828  -5.4689  -5.2740
    -5.0055  -4.9736  -4.9030  -4.1803  -4.1071  -4.1007  -4.0612  -4.0315
    -3.9127  -3.9080  -3.8737  -3.7786  -3.7754  -3.7709  -3.6931  -3.5968
    -3.5923  -3.5806  -3.5785  -3.5352  -3.4844  -3.4719  -3.4624  -3.3120
    -3.3071  -3.2959  -3.2811  -3.2620  -3.2544  -3.1589  -3.1464  -3.1423
    -3.1357  -3.1302  -3.0149  -2.9579  -2.9278  -2.8577  -2.8310  -2.8036
    -2.7903  -2.7598  -2.7445  -2.7373  -2.7340  -2.7176  -2.6465  -2.6426
    -2.6222  -2.5919  -2.5762  -2.4688  -2.4302  -2.4251  -2.4198  -2.3710
    -2.3253  -2.3053  -2.2973  -2.2838  -2.2384  -2.1895  -2.1581  -2.1462
    -2.1390  -2.1353  -2.1175  -2.1037  -2.0939  -2.0911  -2.0737  -2.0223
    -2.0010  -1.9856  -1.9680  -1.9364  -1.9149  -1.9111  -1.8640  -1.8243
    -1.8168  -1.8137  -1.7856  -1.7694  -1.7280  -1.7085  -1.7004  -1.6987
    -1.6831  -1.6708  -1.6587  -1.6358  -1.6304  -1.6193  -1.5994  -1.5851
    -1.5765  -1.5626  -1.5162  -1.4818  -1.4477  -1.4349  -1.4132  -1.4036
    -1.3777  -1.3666  -1.3398  -1.3024  -1.2874  -1.2792  -1.2702  -1.2665
    -1.2601  -1.2526  -1.2422  -1.2378  -1.2347  -1.2251  -1.2130  -1.1934
    -1.1825  -1.1475  -1.1139  -1.0640  -1.0366  -1.0242  -1.0131  -0.9856
    -0.9622  -0.9448  -0.9091  -0.9012  -0.8824  -0.8318  -0.8238  -0.7822
    -0.7593  -0.7250  -0.7075  -0.6873  -0.6732  -0.6550  -0.6255  -0.5944
    -0.5668  -0.5110  -0.5010  -0.4844  -0.4806  -0.4713  -0.4665  -0.4594
    -0.4504  -0.4295  -0.3897  -0.3355  -0.3281  -0.3193  -0.3101  -0.3041
    -0.2962  -0.2669  -0.2635  -0.2571  -0.2468  -0.2373  -0.1535  -0.1362
    -0.1320  -0.1291  -0.1011  -0.0828  -0.0364  -0.0294   0.0007   0.0197
     0.0367   0.0833   0.0849   0.1078   0.1090   0.1118   0.1305   0.1452
     0.2163   0.2285   0.2704   0.9263   1.0802   1.2069   1.3343   1.3602
     1.5657   1.6959

          k = 0.4000-0.6928 0.0000 ( 36660 PWs)   bands (ev):

   -21.6525 -10.5299  -6.9349  -6.4803  -6.4321  -5.9950  -5.7618  -5.3140
    -5.1830  -5.0325  -4.5859  -4.2644  -4.0199  -3.9780  -3.8891  -3.8447
    -3.8347  -3.8235  -3.8107  -3.7930  -3.7362  -3.7300  -3.7268  -3.7195
    -3.6424  -3.6291  -3.5776  -3.5720  -3.5446  -3.5412  -3.4320  -3.4060
    -3.3915  -3.3857  -3.3602  -3.3255  -3.2401  -3.2205  -3.1246  -3.0944
    -3.0913  -3.0303  -3.0086  -2.9912  -2.9612  -2.8975  -2.8801  -2.8711
    -2.8154  -2.8034  -2.7378  -2.6995  -2.6690  -2.6582  -2.6165  -2.5953
    -2.5365  -2.5138  -2.5024  -2.4917  -2.4885  -2.4597  -2.4453  -2.3729
    -2.3232  -2.2948  -2.2886  -2.2783  -2.2443  -2.2168  -2.1858  -2.1595
    -2.1364  -2.1120  -2.1039  -2.0968  -2.0830  -2.0678  -2.0338  -2.0215
    -2.0105  -2.0017  -1.9957  -1.9638  -1.9615  -1.9255  -1.8867  -1.8721
    -1.8627  -1.8518  -1.7880  -1.7839  -1.7472  -1.7214  -1.7050  -1.6963
    -1.6771  -1.6730  -1.6648  -1.6564  -1.6493  -1.6189  -1.6105  -1.5881
    -1.5337  -1.5241  -1.5169  -1.5112  -1.4928  -1.4896  -1.4863  -1.4751
    -1.4697  -1.4599  -1.4394  -1.4228  -1.4031  -1.3697  -1.3548  -1.3362
    -1.2814  -1.2721  -1.2266  -1.2142  -1.2068  -1.1980  -1.1857  -1.1359
    -1.1146  -1.1060  -1.0983  -1.0409  -0.9968  -0.9732  -0.9581  -0.9438
    -0.9241  -0.9143  -0.9003  -0.8892  -0.8560  -0.8430  -0.8084  -0.7962
    -0.7754  -0.7555  -0.7375  -0.7300  -0.7104  -0.6809  -0.6514  -0.6411
    -0.6303  -0.6219  -0.6063  -0.5904  -0.5611  -0.5411  -0.5200  -0.4592
    -0.3537  -0.3408  -0.3361  -0.3301  -0.3242  -0.3137  -0.3071  -0.2918
    -0.2601  -0.2525  -0.2437  -0.2333  -0.2102  -0.1802  -0.1155  -0.1120
    -0.1016  -0.0821  -0.0672  -0.0574  -0.0230  -0.0078  -0.0025   0.0058
     0.0086   0.0851   0.0900   0.0940   0.1111   0.1168   0.1383   0.1654
     0.2004   0.4843   0.5382   0.8189   1.2165   1.3883   1.4825   1.7312
     1.8343   1.8946

          k = 0.4000-0.4619 0.0000 ( 36660 PWs)   bands (ev):

   -21.6525 -10.5291  -6.9317  -6.4815  -6.4531  -5.9736  -5.7706  -5.4100
    -5.0534  -5.0232  -4.6254  -4.2680  -4.0163  -3.9754  -3.8673  -3.8439
    -3.8378  -3.8165  -3.8092  -3.7902  -3.7455  -3.7301  -3.7284  -3.7195
    -3.6391  -3.6279  -3.5768  -3.5755  -3.5441  -3.5395  -3.4505  -3.4074
    -3.3901  -3.3827  -3.3670  -3.3270  -3.2388  -3.2261  -3.1197  -3.0948
    -3.0900  -3.0227  -3.0123  -2.9906  -2.9637  -2.8829  -2.8774  -2.8735
    -2.8068  -2.8016  -2.7297  -2.6927  -2.6616  -2.6534  -2.6083  -2.5970
    -2.5440  -2.5132  -2.5032  -2.4895  -2.4854  -2.4601  -2.4455  -2.3810
    -2.3354  -2.2997  -2.2790  -2.2758  -2.2489  -2.2205  -2.2053  -2.1554
    -2.1421  -2.1136  -2.1066  -2.0951  -2.0862  -2.0498  -2.0367  -2.0271
    -2.0151  -2.0068  -1.9857  -1.9689  -1.9613  -1.9530  -1.8894  -1.8761
    -1.8560  -1.8211  -1.8024  -1.7812  -1.7420  -1.7310  -1.7237  -1.6993
    -1.6804  -1.6726  -1.6655  -1.6616  -1.6472  -1.6374  -1.6117  -1.6048
    -1.5462  -1.5242  -1.5148  -1.5103  -1.4947  -1.4911  -1.4848  -1.4733
    -1.4701  -1.4631  -1.4433  -1.4103  -1.4008  -1.3626  -1.3564  -1.3281
    -1.2734  -1.2656  -1.2295  -1.2167  -1.2051  -1.1966  -1.1818  -1.1229
    -1.1116  -1.1033  -1.0951  -1.0404  -1.0195  -0.9710  -0.9603  -0.9397
    -0.9245  -0.9129  -0.9030  -0.8900  -0.8547  -0.8482  -0.8189  -0.7954
    -0.7725  -0.7566  -0.7422  -0.7241  -0.7099  -0.6777  -0.6522  -0.6387
    -0.6288  -0.6159  -0.6066  -0.5855  -0.5600  -0.5406  -0.5225  -0.4502
    -0.3538  -0.3461  -0.3371  -0.3296  -0.3201  -0.3177  -0.3095  -0.2976
    -0.2611  -0.2510  -0.2377  -0.2332  -0.2101  -0.1837  -0.1174  -0.1107
    -0.0976  -0.0851  -0.0683  -0.0617  -0.0190  -0.0065  -0.0026   0.0070
     0.0125   0.0756   0.0886   0.0921   0.1109   0.1148   0.1409   0.1678
     0.2592   0.4574   0.5185   0.7932   1.3259   1.3793   1.5226   1.6604
     1.8585   1.9372

 ------ SPIN DOWN ----------


          k = 0.0000 0.0000 0.0000 ( 36693 PWs)   bands (ev):

   -21.6504 -10.5544  -7.6437  -6.8243  -6.3077  -5.6844  -5.2843  -4.4436
    -4.4176  -4.4134  -4.4118  -4.4050  -4.3918  -4.2915  -3.5451  -3.5394
    -3.5355  -3.5224  -3.5132  -3.4996  -3.3820  -2.5966  -2.5904  -2.5855
    -2.5803  -2.5696  -2.5185  -2.1691  -2.1267  -2.1232  -2.1176  -2.1124
    -2.1082  -1.9335  -1.9181  -1.8565  -1.8454  -1.8319  -1.8251  -1.8062
    -1.7342  -1.7310  -1.6837  -1.6799  -1.6285  -1.5856  -1.5793  -1.5696
    -1.5535  -1.4753  -1.3621  -1.3256  -1.3088  -1.3030  -1.2888  -1.2856
    -1.2814  -1.2806  -1.2687  -1.2344  -1.2243  -1.2060  -1.2040  -1.1987
    -1.1861  -1.0650  -0.7218  -0.6432  -0.6331  -0.6253  -0.6235  -0.4723
    -0.4328  -0.3394  -0.3107  -0.3021  -0.2988  -0.2931  -0.2833  -0.2716
    -0.2428  -0.2224  -0.2101  -0.2055  -0.2030  -0.1995  -0.1682  -0.1401
    -0.1176  -0.1136  -0.1001  -0.0987  -0.0698  -0.0504  -0.0446  -0.0441
    -0.0399  -0.0372  -0.0148  -0.0135  -0.0110  -0.0093   0.0552   0.0832
     0.1249   0.1454   0.1588   0.1683   0.1992   0.2093   0.2144   0.2166
     0.2186   0.2215   0.2236   0.2248   0.2950   0.2958   0.3541   0.3711
     0.3858   0.3986   0.4026   0.4083   0.5946   0.6045   0.6355   0.6585
     0.6860   0.6923   0.7027   0.7039   0.7443   0.9813   0.9979   1.0428
     1.0440   1.1725   1.2054   1.2241   1.2473   1.2613   1.2683   1.2712
     1.3689   1.4069   1.4265   1.4321   1.4391   1.4418   1.4553   1.4662
     1.4857   1.4941   1.5214   1.5265   1.5423   1.5614   1.5724   1.5857
     1.5917   1.5929   1.5952   1.6104   1.6480   1.6665   1.6728   1.6765
     1.6956   1.7090   1.7129   1.7175   1.7202   1.7239   1.7294   1.7661
     1.7666   1.7892   1.7944   1.8018   1.8100   1.8118   1.8196   1.8208
     1.8540   1.8589   1.8636   1.8653   1.8692   1.8706   1.8780   1.8806
     1.8912   1.9036   1.9437   1.9448   2.0915   2.0972   2.0998   2.1024
     2.1032   2.1044

          k = 0.0000 0.2309 0.0000 ( 36641 PWs)   bands (ev):

   -21.6504 -10.5539  -7.4969  -6.8056  -6.2176  -5.6794  -5.3915  -5.2558
    -4.7958  -4.7826  -4.2781  -4.1662  -3.8683  -3.8612  -3.7726  -3.7211
    -3.5744  -3.3221  -3.1917  -3.1682  -3.0884  -2.8239  -2.6041  -2.5756
    -2.5372  -2.4880  -2.4660  -2.2517  -2.1706  -2.1599  -2.1534  -2.1368
    -2.1119  -2.0677  -2.0616  -2.0421  -2.0237  -1.9084  -1.8801  -1.8404
    -1.7958  -1.7838  -1.7323  -1.6288  -1.6031  -1.5956  -1.5578  -1.5002
    -1.4504  -1.4178  -1.3815  -1.3603  -1.3373  -1.3184  -1.2992  -1.2931
    -1.2852  -1.2450  -1.2161  -1.1740  -1.1565  -1.1404  -1.1194  -1.0979
    -1.0352  -0.9590  -0.7793  -0.6896  -0.6796  -0.6653  -0.6353  -0.5716
    -0.5388  -0.5099  -0.4593  -0.4445  -0.3525  -0.3268  -0.3142  -0.3032
    -0.2777  -0.2693  -0.2595  -0.2448  -0.2287  -0.2230  -0.1861  -0.1511
    -0.1237  -0.0995  -0.0937  -0.0810  -0.0681  -0.0421  -0.0300  -0.0141
    -0.0106  -0.0021   0.0069   0.0088   0.0150   0.0164   0.0334   0.0600
     0.0942   0.1007   0.1115   0.1156   0.1438   0.1583   0.1678   0.1840
     0.2239   0.2341   0.2655   0.2846   0.3126   0.3287   0.3320   0.3624
     0.4879   0.4942   0.5547   0.5702   0.5831   0.6197   0.6282   0.6370
     0.6561   0.6735   0.6814   0.6829   0.8575   0.9575   0.9845   1.0092
     1.0113   1.0295   1.0489   1.0548   1.0911   1.1143   1.1858   1.1999
     1.2069   1.2804   1.2907   1.3146   1.3292   1.3532   1.3784   1.3814
     1.4346   1.4722   1.4873   1.4954   1.5038   1.5246   1.5488   1.5515
     1.5808   1.6002   1.6314   1.6539   1.6725   1.6845   1.6951   1.7161
     1.7382   1.7502   1.7582   1.7652   1.7764   1.7873   1.8361   1.8433
     1.8503   1.8540   1.8975   1.9031   1.9097   1.9259   1.9401   1.9517
     1.9597   1.9944   1.9996   2.0031   2.0296   2.0341   2.0397   2.0552
     2.0642   2.0902   2.0950   2.1091   2.1837   2.1932   2.2005   2.2187
     2.2726   2.2909

          k = 0.0000 0.4619 0.0000 ( 36606 PWs)   bands (ev):

   -21.6504 -10.5532  -7.0871  -6.7694  -6.3121  -5.9987  -5.5248  -5.2756
    -5.0151  -4.9834  -4.8735  -3.9374  -3.8956  -3.7940  -3.3248  -3.2457
    -3.2400  -3.1265  -2.9835  -2.9264  -2.7966  -2.7877  -2.6451  -2.6411
    -2.5858  -2.5644  -2.5196  -2.5081  -2.3975  -2.3931  -2.3521  -2.3243
    -2.3143  -2.1214  -2.1042  -2.0608  -2.0236  -1.9563  -1.9064  -1.8994
    -1.8901  -1.8844  -1.7497  -1.5998  -1.5932  -1.5631  -1.5465  -1.4905
    -1.3744  -1.3677  -1.3559  -1.3368  -1.3225  -1.3105  -1.3020  -1.2919
    -1.2299  -1.1983  -1.1809  -1.1761  -1.1474  -1.1172  -1.0180  -0.9657
    -0.8643  -0.8292  -0.7957  -0.7306  -0.7009  -0.6673  -0.6460  -0.6262
    -0.6127  -0.5944  -0.5636  -0.5254  -0.5168  -0.4700  -0.4505  -0.4220
    -0.3967  -0.3676  -0.3442  -0.3358  -0.3303  -0.2840  -0.2372  -0.1936
    -0.1534  -0.1434  -0.1150  -0.0796  -0.0634  -0.0426  -0.0255   0.0011
     0.0219   0.0374   0.0447   0.0623   0.0642   0.0718   0.0890   0.1098
     0.1254   0.1548   0.1661   0.1689   0.1737   0.1792   0.1953   0.2236
     0.2308   0.2480   0.2803   0.3695   0.3756   0.3818   0.4162   0.4308
     0.4347   0.4524   0.4640   0.5254   0.5392   0.5454   0.5672   0.5867
     0.6037   0.6332   0.6472   0.6569   0.6879   0.7112   0.8232   0.8452
     0.8693   0.8952   0.9602   1.0493   1.0770   1.0882   1.1091   1.1201
     1.1293   1.1743   1.1866   1.2145   1.2264   1.2586   1.3440   1.3951
     1.4127   1.4447   1.4720   1.4869   1.5148   1.5301   1.5497   1.5751
     1.6000   1.6126   1.6349   1.6870   1.7191   1.7325   1.7423   1.7620
     1.7702   1.7760   1.8021   1.8193   1.8369   1.8496   1.8650   1.8776
     1.8983   1.9155   1.9751   1.9933   2.0068   2.0318   2.0379   2.0510
     2.0552   2.0608   2.0924   2.0982   2.1019   2.1236   2.1291   2.1320
     2.1383   2.1802   2.2791   2.3463   2.3771   2.4661   2.4922   2.7949
     2.8631   2.9039

          k = 0.2000-0.1155 0.0000 ( 36641 PWs)   bands (ev):

   -21.6504 -10.5535  -7.4974  -6.8051  -6.2233  -5.6969  -5.3743  -5.2440
    -4.8007  -4.7913  -4.2782  -4.1326  -3.8674  -3.8633  -3.7743  -3.7498
    -3.5699  -3.3203  -3.1908  -3.1831  -3.0769  -2.8046  -2.6076  -2.5923
    -2.5279  -2.4864  -2.4738  -2.2625  -2.1692  -2.1605  -2.1499  -2.1191
    -2.1099  -2.0691  -2.0618  -2.0404  -2.0268  -1.9154  -1.8798  -1.8243
    -1.7966  -1.7888  -1.6861  -1.6565  -1.6064  -1.5972  -1.5809  -1.4809
    -1.4578  -1.4211  -1.3888  -1.3656  -1.3384  -1.3199  -1.2999  -1.2911
    -1.2859  -1.2731  -1.2087  -1.1709  -1.1588  -1.1413  -1.1131  -1.0981
    -1.0300  -0.9636  -0.7817  -0.6920  -0.6779  -0.6684  -0.6252  -0.5695
    -0.5340  -0.5141  -0.4623  -0.4447  -0.3452  -0.3287  -0.3212  -0.3020
    -0.2797  -0.2695  -0.2585  -0.2434  -0.2377  -0.2243  -0.1861  -0.1480
    -0.1147  -0.1022  -0.0937  -0.0854  -0.0665  -0.0431  -0.0307  -0.0143
    -0.0086  -0.0031   0.0052   0.0092   0.0119   0.0159   0.0396   0.0586
     0.0953   0.1012   0.1112   0.1129   0.1465   0.1592   0.1766   0.1806
     0.2186   0.2366   0.2487   0.2799   0.3188   0.3260   0.3309   0.3617
     0.4799   0.5083   0.5611   0.5729   0.5988   0.6109   0.6259   0.6517
     0.6615   0.6704   0.6766   0.6841   0.8582   0.9548   0.9974   1.0094
     1.0162   1.0290   1.0482   1.0561   1.1039   1.1311   1.1765   1.1998
     1.2167   1.2701   1.2895   1.3082   1.3368   1.3441   1.3776   1.3970
     1.4337   1.4578   1.4795   1.4975   1.5066   1.5230   1.5454   1.5523
     1.5741   1.5964   1.6349   1.6456   1.6618   1.6826   1.6916   1.7110
     1.7461   1.7533   1.7561   1.7612   1.7861   1.7882   1.8385   1.8468
     1.8504   1.8538   1.8945   1.9015   1.9101   1.9260   1.9440   1.9493
     1.9629   1.9896   1.9992   2.0032   2.0304   2.0353   2.0364   2.0627
     2.0681   2.0886   2.0914   2.1113   2.1793   2.1977   2.2006   2.2347
     2.2706   2.2895

          k = 0.2000 0.1155 0.0000 ( 36641 PWs)   bands (ev):

   -21.6504 -10.5540  -7.4969  -6.8064  -6.2150  -5.6741  -5.3769  -5.2841
    -4.7872  -4.7821  -4.2808  -4.1758  -3.8675  -3.8626  -3.7636  -3.7179
    -3.5759  -3.3216  -3.1902  -3.1710  -3.0885  -2.8273  -2.6020  -2.5721
    -2.5327  -2.4900  -2.4694  -2.2496  -2.1786  -2.1550  -2.1513  -2.1308
    -2.1133  -2.0680  -2.0613  -2.0362  -2.0257  -1.9109  -1.8797  -1.8420
    -1.7960  -1.7895  -1.7241  -1.6548  -1.6055  -1.5975  -1.5355  -1.4771
    -1.4623  -1.4294  -1.3860  -1.3676  -1.3383  -1.3063  -1.3021  -1.2925
    -1.2857  -1.2455  -1.2216  -1.1822  -1.1561  -1.1366  -1.1166  -1.0964
    -1.0306  -0.9481  -0.7933  -0.6885  -0.6789  -0.6539  -0.6265  -0.5784
    -0.5482  -0.5155  -0.4515  -0.4427  -0.3543  -0.3205  -0.3179  -0.3036
    -0.2707  -0.2661  -0.2593  -0.2433  -0.2330  -0.2147  -0.2005  -0.1572
    -0.1177  -0.0981  -0.0920  -0.0877  -0.0704  -0.0401  -0.0286  -0.0146
    -0.0101  -0.0020   0.0012   0.0081   0.0101   0.0221   0.0371   0.0601
     0.0964   0.1005   0.1150   0.1161   0.1409   0.1617   0.1750   0.1787
     0.2225   0.2338   0.2602   0.2835   0.3171   0.3231   0.3325   0.3623
     0.4923   0.5130   0.5394   0.5694   0.5861   0.6198   0.6284   0.6412
     0.6538   0.6691   0.6808   0.6845   0.8413   0.9566   0.9862   1.0003
     1.0127   1.0289   1.0460   1.0546   1.0879   1.1258   1.1853   1.2071
     1.2141   1.2757   1.2883   1.3185   1.3406   1.3461   1.3767   1.3827
     1.4383   1.4688   1.4877   1.4958   1.5030   1.5249   1.5466   1.5533
     1.5709   1.6031   1.6304   1.6455   1.6650   1.6865   1.6994   1.7277
     1.7437   1.7537   1.7539   1.7648   1.7743   1.7856   1.8392   1.8427
     1.8468   1.8533   1.8951   1.9042   1.9120   1.9274   1.9366   1.9508
     1.9602   1.9972   1.9996   2.0065   2.0297   2.0354   2.0386   2.0578
     2.0643   2.0901   2.0936   2.1093   2.1792   2.1949   2.2050   2.2171
     2.2744   2.2884

          k = 0.2000 0.3464 0.0000 ( 36608 PWs)   bands (ev):

   -21.6504 -10.5536  -7.2150  -6.7801  -6.0803  -5.7884  -5.7734  -5.4949
    -5.2757  -4.5235  -4.4581  -4.0659  -4.0523  -3.9504  -3.2253  -3.2170
    -3.2104  -3.2034  -3.1007  -3.0113  -2.9185  -2.9039  -2.8983  -2.5434
    -2.4742  -2.4585  -2.4532  -2.3731  -2.3602  -2.3377  -2.2595  -2.2532
    -2.2456  -2.2357  -2.2269  -2.0942  -2.0609  -1.9672  -1.8597  -1.8554
    -1.8208  -1.7948  -1.7318  -1.7234  -1.6424  -1.5671  -1.5212  -1.5018
    -1.3986  -1.3743  -1.3405  -1.3386  -1.3325  -1.3130  -1.2849  -1.2759
    -1.2611  -1.2318  -1.1904  -1.1555  -1.1110  -1.0573  -1.0044  -0.9564
    -0.8924  -0.8591  -0.7927  -0.7524  -0.6671  -0.6369  -0.6268  -0.5989
    -0.5757  -0.5563  -0.5470  -0.5232  -0.4729  -0.4531  -0.4345  -0.4178
    -0.3980  -0.3795  -0.3650  -0.3577  -0.3114  -0.2331  -0.1978  -0.1847
    -0.1697  -0.1553  -0.1176  -0.0986  -0.0814  -0.0721  -0.0536  -0.0421
    -0.0226  -0.0049   0.0098   0.0227   0.0337   0.0534   0.0772   0.0942
     0.1080   0.1130   0.1322   0.1501   0.1535   0.1633   0.1824   0.1866
     0.2068   0.2711   0.2806   0.3030   0.4030   0.4222   0.4343   0.4521
     0.4723   0.4863   0.5188   0.5556   0.5864   0.6002   0.6061   0.6124
     0.6250   0.6382   0.6741   0.7068   0.7554   0.7912   0.9075   0.9260
     0.9885   1.0226   1.0390   1.0518   1.0797   1.0894   1.1036   1.1120
     1.1308   1.1453   1.1615   1.1856   1.2003   1.2485   1.3132   1.3305
     1.3554   1.3637   1.4036   1.4118   1.4303   1.4471   1.4904   1.5079
     1.5711   1.6253   1.6845   1.7219   1.7322   1.7445   1.7644   1.7825
     1.7940   1.7967   1.8087   1.8232   1.8364   1.8919   1.8994   1.9029
     1.9159   1.9486   1.9609   1.9660   1.9801   2.0039   2.0120   2.0351
     2.0398   2.0490   2.0519   2.0753   2.0815   2.0940   2.1263   2.1541
     2.1763   2.1873   2.2840   2.3059   2.3327   2.4176   2.4527   2.5874
     2.7058   2.7725

          k = 0.2000-0.5774 0.0000 ( 36660 PWs)   bands (ev):

   -21.6504 -10.5528  -6.8968  -6.5940  -6.5201  -6.0084  -5.8206  -5.4004
    -5.1727  -5.0360  -4.5597  -4.1123  -3.5937  -3.4706  -3.2500  -3.2455
    -3.2128  -3.0240  -2.9895  -2.8382  -2.8298  -2.8230  -2.6989  -2.6876
    -2.6801  -2.6613  -2.6433  -2.6265  -2.4503  -2.3142  -2.2973  -2.2825
    -2.2646  -2.2541  -2.2093  -2.2062  -2.1150  -2.0879  -1.9204  -1.8197
    -1.7554  -1.7457  -1.7395  -1.6655  -1.6199  -1.5605  -1.5073  -1.4952
    -1.4495  -1.4438  -1.4305  -1.3357  -1.2919  -1.2736  -1.2614  -1.2312
    -1.2027  -1.1405  -1.1141  -1.0968  -1.0441  -1.0299  -1.0115  -0.9360
    -0.9134  -0.8543  -0.7562  -0.7223  -0.7182  -0.6708  -0.6471  -0.6386
    -0.5899  -0.5687  -0.5506  -0.5198  -0.4874  -0.4661  -0.4358  -0.4208
    -0.4003  -0.3851  -0.3775  -0.3579  -0.3550  -0.3404  -0.3114  -0.2893
    -0.2830  -0.2589  -0.2328  -0.2035  -0.1531  -0.1316  -0.0946  -0.0799
    -0.0298  -0.0052   0.0080   0.0391   0.0483   0.0735   0.0809   0.0992
     0.1176   0.1573   0.1793   0.1912   0.2024   0.2121   0.2878   0.3103
     0.3265   0.3517   0.3580   0.3719   0.3756   0.4184   0.4419   0.4639
     0.4743   0.4925   0.5305   0.5625   0.5805   0.5952   0.6099   0.6326
     0.6504   0.6568   0.6625   0.6984   0.7196   0.7310   0.7390   0.7734
     0.8174   0.8994   0.9893   1.0085   1.0262   1.0310   1.0611   1.0767
     1.0852   1.1078   1.1177   1.1565   1.2279   1.2617   1.2771   1.2868
     1.3171   1.3412   1.3676   1.4024   1.4163   1.4378   1.4822   1.5118
     1.5502   1.6559   1.6821   1.7024   1.7386   1.7834   1.7992   1.8119
     1.8260   1.8360   1.8471   1.8633   1.8799   1.9070   1.9094   1.9226
     1.9474   1.9758   1.9978   2.0083   2.0113   2.0140   2.0233   2.0269
     2.0426   2.0734   2.0832   2.1134   2.1196   2.1385   2.1413   2.1586
     2.1751   2.2330   2.3248   2.4781   2.6476   2.7490   2.9222   2.9924
     3.0326   3.0399

          k = 0.2000-0.3464 0.0000 ( 36608 PWs)   bands (ev):

   -21.6504 -10.5527  -7.2158  -6.7803  -6.0937  -5.8135  -5.7676  -5.4876
    -5.2454  -4.5509  -4.4268  -4.0587  -4.0520  -3.9496  -3.2255  -3.2205
    -3.2123  -3.2064  -3.0977  -3.0232  -2.9363  -2.9033  -2.8725  -2.5442
    -2.4721  -2.4625  -2.4525  -2.3776  -2.3649  -2.3393  -2.2698  -2.2527
    -2.2502  -2.2341  -2.2269  -2.0949  -2.0502  -1.9012  -1.8729  -1.8565
    -1.8254  -1.7851  -1.7431  -1.7268  -1.6368  -1.5742  -1.5216  -1.4963
    -1.4132  -1.3691  -1.3458  -1.3395  -1.3360  -1.3116  -1.3009  -1.2810
    -1.2655  -1.2319  -1.1899  -1.1660  -1.1153  -1.0740  -1.0051  -0.9656
    -0.8959  -0.8638  -0.7768  -0.7482  -0.6637  -0.6358  -0.6290  -0.6069
    -0.5741  -0.5593  -0.5403  -0.5007  -0.4764  -0.4440  -0.4365  -0.4134
    -0.4079  -0.3761  -0.3631  -0.3581  -0.3153  -0.2450  -0.1988  -0.1927
    -0.1765  -0.1653  -0.1112  -0.1001  -0.0780  -0.0710  -0.0521  -0.0356
    -0.0267  -0.0055   0.0046   0.0233   0.0385   0.0455   0.0785   0.0965
     0.1036   0.1090   0.1225   0.1506   0.1586   0.1720   0.1750   0.1842
     0.2065   0.2720   0.2901   0.2950   0.4141   0.4233   0.4272   0.4676
     0.4742   0.5165   0.5205   0.5744   0.5927   0.5990   0.6049   0.6140
     0.6210   0.6338   0.6654   0.7182   0.7563   0.8147   0.8995   0.9204
     0.9791   1.0150   1.0524   1.0600   1.0827   1.0903   1.1059   1.1146
     1.1228   1.1516   1.1593   1.1880   1.2056   1.2360   1.3197   1.3358
     1.3466   1.3693   1.3916   1.4098   1.4265   1.4432   1.4979   1.5148
     1.5663   1.6138   1.6797   1.7171   1.7285   1.7431   1.7621   1.7772
     1.7869   1.7997   1.8192   1.8284   1.8312   1.8936   1.9013   1.9044
     1.9113   1.9484   1.9589   1.9648   1.9827   2.0057   2.0117   2.0353
     2.0454   2.0472   2.0528   2.0771   2.0826   2.1032   2.1294   2.1448
     2.1793   2.1875   2.2632   2.3070   2.3453   2.4312   2.4603   2.5960
     2.6852   2.7783

          k = 0.4000-0.2309 0.0000 ( 36606 PWs)   bands (ev):

   -21.6504 -10.5521  -7.0884  -6.7695  -6.3242  -6.0070  -5.5472  -5.2294
    -5.0113  -5.0027  -4.8484  -3.9262  -3.9023  -3.8117  -3.3061  -3.2467
    -3.2429  -3.1243  -2.9824  -2.9161  -2.7992  -2.7918  -2.6473  -2.6408
    -2.5924  -2.5801  -2.5222  -2.5008  -2.4038  -2.3939  -2.3490  -2.3238
    -2.3184  -2.1246  -2.1040  -2.0282  -2.0226  -1.9451  -1.9076  -1.9026
    -1.8886  -1.8726  -1.6922  -1.6349  -1.5923  -1.5642  -1.5487  -1.5291
    -1.3877  -1.3709  -1.3515  -1.3502  -1.3368  -1.3084  -1.3030  -1.2916
    -1.2583  -1.1951  -1.1861  -1.1773  -1.1581  -1.1271  -1.0129  -0.9468
    -0.8769  -0.8272  -0.7734  -0.7282  -0.7001  -0.6688  -0.6445  -0.6278
    -0.6127  -0.6001  -0.5675  -0.5359  -0.5073  -0.4694  -0.4533  -0.4194
    -0.3918  -0.3698  -0.3472  -0.3364  -0.3255  -0.2912  -0.2286  -0.1928
    -0.1560  -0.1447  -0.1215  -0.0814  -0.0629  -0.0431  -0.0300   0.0067
     0.0203   0.0356   0.0468   0.0639   0.0683   0.0716   0.0780   0.1132
     0.1251   0.1556   0.1611   0.1678   0.1759   0.1789   0.2026   0.2142
     0.2298   0.2489   0.2837   0.3696   0.3771   0.3847   0.4173   0.4316
     0.4337   0.4530   0.4615   0.5251   0.5395   0.5502   0.5770   0.5865
     0.6071   0.6309   0.6461   0.6496   0.6884   0.7672   0.8329   0.8446
     0.8706   0.9174   0.9602   1.0497   1.0784   1.0835   1.1083   1.1215
     1.1283   1.1664   1.1916   1.2142   1.2227   1.2818   1.3209   1.4037
[...]
     atom    9 type  1   force =     0.00129417    0.00157824   -0.10336384
     atom   10 type  1   force =     0.00143545    0.00141919   -0.01159601
     atom   11 type  1   force =    -0.00031111   -0.00077803   -0.00878317
     atom   12 type  1   force =    -0.00101696    0.00074691   -0.01015541
     atom   13 type  1   force =    -0.00178513   -0.00011192   -0.01073142
     atom   14 type  1   force =     0.00138055    0.00140471   -0.01043602
     atom   15 type  1   force =    -0.00009922   -0.00008772   -0.01010128
     atom   16 type  1   force =     0.00043788   -0.00168697   -0.00952097
     atom   17 type  1   force =    -0.00059545   -0.00089653   -0.00978878
     atom   18 type  1   force =     0.00057307    0.00017434   -0.01208003
     atom   19 type  1   force =    -0.00090517   -0.00023531    0.01250818
     atom   20 type  1   force =    -0.00462009    0.00413613    0.00307533
     atom   21 type  1   force =     0.00292282   -0.00545153    0.01001025
     atom   22 type  1   force =     0.00188306    0.00025359    0.01665306
     atom   23 type  1   force =    -0.00109077    0.00533732    0.00752623
     atom   24 type  1   force =    -0.00069227    0.00117204    0.01754080
     atom   25 type  1   force =     0.00028125    0.00049782    0.01848293
     atom   26 type  1   force =    -0.00500998   -0.00439822    0.00446682
     atom   27 type  1   force =     0.00691608   -0.00142682    0.00549848
     atom   28 type  1   force =     0.01711094    0.00230331    0.12496478
     atom   29 type  1   force =     0.00631797    0.05232286    0.17064416
     atom   30 type  1   force =    -0.02406037    0.00843668    0.12874380
     atom   31 type  1   force =     0.03037456   -0.03833604    0.15157152
     atom   32 type  1   force =     0.00749649    0.01079016    0.16303864
     atom   33 type  1   force =    -0.00503620    0.00101907    0.11065258
     atom   34 type  1   force =     0.00005622   -0.00646982    0.11211245
     atom   35 type  1   force =    -0.00200959   -0.00235876    0.12466527
     atom   36 type  1   force =    -0.00144140    0.00333950    0.10694574
     atom   37 type  2   force =    -0.15261790   -0.18924316    0.21241595
     atom   38 type  3   force =     1.32399135    1.59796163   -1.62019348
     atom   39 type  4   force =    -0.03958579   -0.04596507   -0.03460160
     The ionic contribution  to forces
     atom    1 type  1   force =    -0.00646337    0.00138654 -111.15905880
     atom    2 type  1   force =    -0.00296625    0.00280816 -111.17796654
     atom    3 type  1   force =     0.00942953    0.00110388 -111.16494555
     atom    4 type  1   force =    -0.00348334    0.00493294 -111.15806040
     atom    5 type  1   force =     0.00178616    0.00734826 -111.16148330
     atom    6 type  1   force =     0.00169722   -0.00149483 -111.15455872
     atom    7 type  1   force =     0.00121251   -0.00127678 -111.15405271
     atom    8 type  1   force =    -0.00591639   -0.00605931 -111.16338190
     atom    9 type  1   force =     0.00470391   -0.00874885 -111.16583454
     atom   10 type  1   force =    -0.04236913   -0.01667883  -40.10075174
     atom   11 type  1   force =    -0.01499699   -0.05362862  -40.21628284
     atom   12 type  1   force =     0.05735486   -0.03201376  -40.12917203
     atom   13 type  1   force =    -0.05978899    0.04066520  -40.16182881
     atom   14 type  1   force =     0.03978967    0.04655133  -40.20381508
     atom   15 type  1   force =     0.02001534    0.01282833  -40.08477642
     atom   16 type  1   force =    -0.00569208    0.03827857  -40.09016950
     atom   17 type  1   force =     0.00158039   -0.00814190  -40.09708236
     atom   18 type  1   force =     0.00410990   -0.02785921  -40.08669238
     atom   19 type  1   force =    -0.31049268    0.06695302   31.50427819
     atom   20 type  1   force =    -0.17486096    0.15676622   30.48600827
     atom   21 type  1   force =     0.48163068    0.05066938   31.21835113
     atom   22 type  1   force =    -0.16420797    0.23438787   31.55276390
     atom   23 type  1   force =     0.09125528    0.36346800   31.38958602
     atom   24 type  1   force =     0.07366629   -0.06788989   31.69098000
     atom   25 type  1   force =     0.04983351   -0.05599079   31.71437039
     atom   26 type  1   force =    -0.29155131   -0.30493778   31.29010435
     atom   27 type  1   force =     0.24243479   -0.44274702   31.17724674
     atom   28 type  1   force =    -1.63567545   -0.55110923  103.73679084
     atom   29 type  1   force =    -0.93295941   -3.79393391   97.82714476
     atom   30 type  1   force =     2.38577397   -1.31987980  103.11530457
     atom   31 type  1   force =    -3.00182153    2.08567155  101.79394169
     atom   32 type  1   force =     2.88123106    3.37722684   98.37820342
     atom   33 type  1   force =     0.67702837    0.35267960  104.27934333
     atom   34 type  1   force =    -0.23589488    1.27501841  104.16291504
     atom   35 type  1   force =    -0.00703766   -0.34521977  103.97720242
     atom   36 type  1   force =     0.23545121   -0.94605078  104.19199743
     atom   37 type  2   force =     3.18383597    4.15946880   54.51732027
     atom   38 type  3   force =    -4.97951920   -5.97311083   88.59471114
     atom   39 type  4   force =     1.43187695    1.67855898   15.03134973
     The local contribution  to forces
     atom    1 type  1   force =     0.00799691   -0.00168615  111.26697166
     atom    2 type  1   force =     0.00255684   -0.00380315  111.28125001
     atom    3 type  1   force =    -0.01020774    0.00022437  111.27153605
     atom    4 type  1   force =     0.00092415   -0.00542624  111.26608646
     atom    5 type  1   force =    -0.00126795   -0.01042238  111.26905725
     atom    6 type  1   force =     0.00022981    0.00165419  111.25806908
     atom    7 type  1   force =    -0.00159780    0.00168228  111.26064051
     atom    8 type  1   force =     0.00756914    0.00873533  111.26792171
     atom    9 type  1   force =    -0.00628107    0.00736881  111.27075285
     atom   10 type  1   force =     0.04149731    0.01487187   40.09079219
     atom   11 type  1   force =     0.01467405    0.05470416   40.20439824
     atom   12 type  1   force =    -0.05636078    0.03141354   40.12108892
     atom   13 type  1   force =     0.06186702   -0.04194085   40.15305541
     atom   14 type  1   force =    -0.04077595   -0.04727447   40.19156599
     atom   15 type  1   force =    -0.02017910   -0.01283098   40.07509267
     atom   16 type  1   force =     0.00626519   -0.03628603   40.08009747
     atom   17 type  1   force =    -0.00159968    0.00926057   40.08748167
     atom   18 type  1   force =    -0.00485240    0.02779373   40.07770374
     atom   19 type  1   force =     0.31052957   -0.06573394  -31.49378574
     atom   20 type  1   force =     0.17785263   -0.16218864  -30.46997693
     atom   21 type  1   force =    -0.48157804   -0.04678599  -31.20820688
     atom   22 type  1   force =     0.16114789   -0.23397149  -31.54631124
     atom   23 type  1   force =    -0.08988253   -0.36447363  -31.37853809
     atom   24 type  1   force =    -0.07178925    0.06674135  -31.68608970
     atom   25 type  1   force =    -0.05070430    0.05521934  -31.70640631
     atom   26 type  1   force =     0.29861141    0.30849349  -31.27108828
     atom   27 type  1   force =    -0.25013452    0.44343302  -31.16197939
     atom   28 type  1   force =     1.61059170    0.54681341 -103.87089740
     atom   29 type  1   force =     0.92009328    3.72085140  -98.00452735
     atom   30 type  1   force =    -2.34873517    1.30388113 -103.25443131
     atom   31 type  1   force =     2.95825923   -2.03651648 -101.95541974
     atom   32 type  1   force =    -2.88044455   -3.37734486  -98.53813396
     atom   33 type  1   force =    -0.66433904   -0.35234786 -104.40141588
     atom   34 type  1   force =     0.23193822   -1.25867044 -104.28434881
     atom   35 type  1   force =     0.01062787    0.34803196 -104.11592801
     atom   36 type  1   force =    -0.23295605    0.93714256 -104.30912871
     atom   37 type  2   force =    -3.03327664   -3.97249226  -54.72770657
     atom   38 type  3   force =     3.66660068    4.38853852  -86.98867152
     atom   39 type  4   force =    -1.39217172   -1.63243103  -14.99647931
     The core correction contribution to forces
     atom    1 type  1   force =     0.00018612    0.00003460    0.01031555
     atom    2 type  1   force =    -0.00021764   -0.00028763    0.01028785
     atom    3 type  1   force =    -0.00000397    0.00008520    0.01039792
     atom    4 type  1   force =    -0.00022570   -0.00012449    0.01019687
     atom    5 type  1   force =     0.00006538   -0.00019103    0.01035552
     atom    6 type  1   force =     0.00008592   -0.00003732    0.00994380
     atom    7 type  1   force =    -0.00009637   -0.00001095    0.01056139
     atom    8 type  1   force =     0.00019209    0.00030836    0.01054896
     atom    9 type  1   force =    -0.00010235   -0.00009944    0.01030987
     atom   10 type  1   force =    -0.00025176   -0.00008321   -0.00204137
     atom   11 type  1   force =    -0.00008706   -0.00002982   -0.00153794
     atom   12 type  1   force =     0.00042014   -0.00001526   -0.00197690
     atom   13 type  1   force =     0.00005190   -0.00006598   -0.00162251
     atom   14 type  1   force =     0.00015827    0.00002499   -0.00210077
     atom   15 type  1   force =     0.00004359    0.00000405   -0.00152357
     atom   16 type  1   force =     0.00013274    0.00032543   -0.00188675
     atom   17 type  1   force =     0.00001443    0.00006080   -0.00167804
     atom   18 type  1   force =    -0.00012664   -0.00013770   -0.00180417
     atom   19 type  1   force =    -0.00056351   -0.00025230    0.00162042
     atom   20 type  1   force =     0.00051046   -0.00012550    0.00199945
     atom   21 type  1   force =     0.00000498    0.00002079    0.00106134
     atom   22 type  1   force =    -0.00035692   -0.00007590    0.00179492
     atom   23 type  1   force =    -0.00006328    0.00010477    0.00118701
     atom   24 type  1   force =     0.00000227    0.00004846    0.00190428
     atom   25 type  1   force =     0.00036684    0.00009261    0.00218017
     atom   26 type  1   force =    -0.00042661   -0.00042685    0.00130150
     atom   27 type  1   force =    -0.00026674   -0.00026003    0.00094837
     atom   28 type  1   force =     0.00062752   -0.00008283   -0.00928684
     atom   29 type  1   force =     0.00441948    0.01356073    0.00493227
     atom   30 type  1   force =    -0.00367974    0.00403867   -0.00835652
     atom   31 type  1   force =     0.00715890   -0.00225892   -0.00606273
     atom   32 type  1   force =    -0.00768903   -0.00936290    0.01147119
     atom   33 type  1   force =    -0.00213732   -0.00023973   -0.00981325
     atom   34 type  1   force =     0.00140387   -0.00278866   -0.00922181
     atom   35 type  1   force =    -0.00064984   -0.00057755   -0.00902760
     atom   36 type  1   force =    -0.00026644    0.00012591   -0.01045836
     atom   37 type  2   force =     0.00150968    0.00154264   -0.00170840
     atom   38 type  3   force =    -0.01072076   -0.01279693    0.01374268
     atom   39 type  4   force =     0.00000000    0.00000000    0.00000000
     The Hubbard contrib.    to forces
     atom    1 type  1   force =     0.00000000    0.00000000    0.00000000
     atom    2 type  1   force =     0.00000000    0.00000000    0.00000000
     atom    3 type  1   force =     0.00000000    0.00000000    0.00000000
     atom    4 type  1   force =     0.00000000    0.00000000    0.00000000
     atom    5 type  1   force =     0.00000000    0.00000000    0.00000000
     atom    6 type  1   force =     0.00000000    0.00000000    0.00000000
     atom    7 type  1   force =     0.00000000    0.00000000    0.00000000
     atom    8 type  1   force =     0.00000000    0.00000000    0.00000000
     atom    9 type  1   force =     0.00000000    0.00000000    0.00000000
     atom   10 type  1   force =     0.00000000    0.00000000    0.00000000
     atom   11 type  1   force =     0.00000000    0.00000000    0.00000000
     atom   12 type  1   force =     0.00000000    0.00000000    0.00000000
     atom   13 type  1   force =     0.00000000    0.00000000    0.00000000
     atom   14 type  1   force =     0.00000000    0.00000000    0.00000000
     atom   15 type  1   force =     0.00000000    0.00000000    0.00000000
     atom   16 type  1   force =     0.00000000    0.00000000    0.00000000
     atom   17 type  1   force =     0.00000000    0.00000000    0.00000000
     atom   18 type  1   force =     0.00000000    0.00000000    0.00000000
     atom   19 type  1   force =     0.00000000    0.00000000    0.00000000
     atom   20 type  1   force =     0.00000000    0.00000000    0.00000000
     atom   21 type  1   force =     0.00000000    0.00000000    0.00000000
     atom   22 type  1   force =     0.00000000    0.00000000    0.00000000
     atom   23 type  1   force =     0.00000000    0.00000000    0.00000000
     atom   24 type  1   force =     0.00000000    0.00000000    0.00000000
     atom   25 type  1   force =     0.00000000    0.00000000    0.00000000
     atom   26 type  1   force =     0.00000000    0.00000000    0.00000000
     atom   27 type  1   force =     0.00000000    0.00000000    0.00000000
     atom   28 type  1   force =     0.00000000    0.00000000    0.00000000
     atom   29 type  1   force =     0.00000000    0.00000000    0.00000000
     atom   30 type  1   force =     0.00000000    0.00000000    0.00000000
     atom   31 type  1   force =     0.00000000    0.00000000    0.00000000
     atom   32 type  1   force =     0.00000000    0.00000000    0.00000000
     atom   33 type  1   force =     0.00000000    0.00000000    0.00000000
     atom   34 type  1   force =     0.00000000    0.00000000    0.00000000
     atom   35 type  1   force =     0.00000000    0.00000000    0.00000000
     atom   36 type  1   force =     0.00000000    0.00000000    0.00000000
     atom   37 type  2   force =     0.00000000    0.00000000    0.00000000
     atom   38 type  3   force =     0.00000000    0.00000000    0.00000000
     atom   39 type  4   force =     0.00000000    0.00000000    0.00000000
     The SCF correction term to forces
     atom    1 type  1   force =     0.00000000   -0.00000000    0.00000000
     atom    2 type  1   force =    -0.00000000   -0.00000000    0.00000000
     atom    3 type  1   force =     0.00000000    0.00000000    0.00000000
     atom    4 type  1   force =    -0.00000000   -0.00000000    0.00000000
     atom    5 type  1   force =     0.00000000    0.00000000    0.00000000
     atom    6 type  1   force =    -0.00000000   -0.00000000    0.00000000
     atom    7 type  1   force =     0.00000000    0.00000000    0.00000000
     atom    8 type  1   force =    -0.00000000    0.00000000    0.00000000
     atom    9 type  1   force =    -0.00000000   -0.00000000    0.00000000
     atom   10 type  1   force =    -0.00000000    0.00000000   -0.00000000
     atom   11 type  1   force =    -0.00000000    0.00000000   -0.00000000
     atom   12 type  1   force =     0.00000000    0.00000000    0.00000000
     atom   13 type  1   force =     0.00000000   -0.00000000   -0.00000000
     atom   14 type  1   force =     0.00000000   -0.00000000    0.00000000
     atom   15 type  1   force =    -0.00000000   -0.00000000    0.00000000
     atom   16 type  1   force =     0.00000000    0.00000000    0.00000000
     atom   17 type  1   force =    -0.00000000   -0.00000000   -0.00000000
     atom   18 type  1   force =    -0.00000000   -0.00000000    0.00000000
     atom   19 type  1   force =    -0.00000000    0.00000000   -0.00000000
     atom   20 type  1   force =     0.00000000    0.00000000   -0.00000000
     atom   21 type  1   force =    -0.00000000    0.00000000   -0.00000000
     atom   22 type  1   force =     0.00000000   -0.00000000   -0.00000000
     atom   23 type  1   force =     0.00000000   -0.00000000   -0.00000000
     atom   24 type  1   force =    -0.00000000   -0.00000000   -0.00000000
     atom   25 type  1   force =    -0.00000000    0.00000000   -0.00000000
     atom   26 type  1   force =     0.00000000   -0.00000000   -0.00000000
     atom   27 type  1   force =    -0.00000000    0.00000000   -0.00000000
     atom   28 type  1   force =     0.00000000    0.00000000   -0.00000000
     atom   29 type  1   force =     0.00000000    0.00000000   -0.00000000
     atom   30 type  1   force =    -0.00000000    0.00000000   -0.00000000
     atom   31 type  1   force =     0.00000000   -0.00000000   -0.00000000
     atom   32 type  1   force =    -0.00000000   -0.00000000   -0.00000000
     atom   33 type  1   force =    -0.00000000    0.00000000   -0.00000000
     atom   34 type  1   force =     0.00000000   -0.00000000   -0.00000000
     atom   35 type  1   force =     0.00000000   -0.00000000   -0.00000000
     atom   36 type  1   force =    -0.00000000   -0.00000000   -0.00000000
     atom   37 type  2   force =    -0.00000604   -0.00000057   -0.00020396
     atom   38 type  3   force =     0.00002281    0.00000998   -0.00016800
     atom   39 type  4   force =    -0.00000107   -0.00000254   -0.00003497

     Total force =     0.001329     Total SCF correction =     0.000268
     SCF correction compared to forces is large: reduce conv_thr to get better values

     Writing all to output data dir ./pwscf.save/

     init_run     :     10.58s CPU     11.00s WALL (       1 calls)
     electrons    :    557.72s CPU    565.13s WALL (       1 calls)
     forces       :      2.90s CPU      2.95s WALL (       1 calls)

     Called by init_run:
     wfcinit      :      7.30s CPU      7.60s WALL (       1 calls)
     potinit      :      2.14s CPU      2.23s WALL (       1 calls)
     hinit0       :      0.88s CPU      0.89s WALL (       1 calls)

     Called by electrons:
     c_bands      :    467.71s CPU    473.66s WALL (      42 calls)
     sum_band     :     64.53s CPU     65.44s WALL (      42 calls)
     v_of_rho     :      6.63s CPU      6.78s WALL (      43 calls)
     newd         :      2.23s CPU      2.27s WALL (      43 calls)
     PAW_pot      :     10.71s CPU     10.83s WALL (      43 calls)
     mix_rho      :      7.33s CPU      7.51s WALL (      42 calls)
     vdW_kernel   :      1.10s CPU      1.11s WALL (       1 calls)

     Called by c_bands:
     init_us_2    :      5.33s CPU      5.44s WALL (    2236 calls)
     init_us_2:cp :      5.31s CPU      5.43s WALL (    2236 calls)
     cegterg      :    452.80s CPU    458.26s WALL (    1092 calls)

     Called by *egterg:
     cdiaghg      :    159.54s CPU    160.69s WALL (    3448 calls)
     h_psi        :    206.16s CPU    209.57s WALL (    3474 calls)
     s_psi        :     23.06s CPU     23.34s WALL (    3474 calls)
     g_psi        :      0.46s CPU      0.47s WALL (    2356 calls)

     Called by h_psi:
     h_psi:calbec :     31.57s CPU     32.14s WALL (    3474 calls)
     vloc_psi     :    149.28s CPU    151.80s WALL (    3474 calls)
     add_vuspsi   :     24.12s CPU     24.43s WALL (    3474 calls)

     General routines
     calbec       :     47.75s CPU     48.50s WALL (    4670 calls)
     fft          :      3.72s CPU      3.81s WALL (    3904 calls)
     ffts         :      4.72s CPU      4.83s WALL (   13303 calls)
     fftw         :    175.15s CPU    178.01s WALL ( 1134882 calls)
     interpolate  :      0.48s CPU      0.48s WALL (      86 calls)

     Parallel routines

     PWSCF        :   9m37.11s CPU   9m49.32s WALL


   This run was terminated on:  20:16:42   4Dec2025            

=------------------------------------------------------------------------------=
   JOB DONE.
=------------------------------------------------------------------------------=
