
     Program PWSCF v.7.1 starts on  8Dec2025 at 13:29:32 
        Git branch: heads/qe-7.1
        Last git commit: 48ba0178f8fede6d020eb786884699a9f063f55d-dirty
        Last git commit date: Fri Jan 27 14:22:33 2023 +0000
        Last git commit subject: Merge branch 'fix_hubbard' into 'develop'

     This program is part of the open-source Quantum ESPRESSO suite
     for quantum simulation of materials; please cite
         "P. Giannozzi et al., J. Phys.:Condens. Matter 21 395502 (2009);
         "P. Giannozzi et al., J. Phys.:Condens. Matter 29 465901 (2017);
         "P. Giannozzi et al., J. Chem. Phys. 152 154105 (2020);
          URL http://www.quantum-espresso.org", 
     in publications or presentations arising from this work. More details at
     http://www.quantum-espresso.org/quote

     Parallel version (MPI), running on    96 processors

     MPI processes distributed on     2 nodes
     89268 MiB available memory on the printing compute node when the environment starts

     Reading input from espresso.pwi
Warning: card &CELL ignored
Warning: card / ignored
Warning: card &FCP ignored
Warning: card / ignored
Warning: card &RISM ignored
Warning: card / ignored

     Current dimensions of program PWSCF are:
     Max number of different atomic species (ntypx) = 10
     Max number of k-points (npk) =  40000
     Max angular momentum in pseudopotentials (lmaxx) =  4
     file Co.pbe-n-kjpaw_psl.1.0.0.UPF: wavefunction(s)  4S 3D renormalized
     file C.pbe-n-kjpaw_psl.1.0.0.UPF: wavefunction(s)  2S 2P renormalized
     file O.pbe-nl-kjpaw_psl.1.0.0.UPF: wavefunction(s)  2S 2P renormalized
     file H.pbe-kjpaw_psl.1.0.0.UPF: wavefunction(s)  1S renormalized

     **************************************************************************
     Initializing libbeef V0.1.2 with the BEEF-vdW functional.
     Citation: Wellendorff et al., PRB 85, 235149 (2012).
     **************************************************************************


     IMPORTANT: XC functional enforced from input :
     Exchange-correlation= BEEF-VDW
                           (   1   4  43  14   2   0   0)
     Any further DFT definition will be discarded
     Please, verify this is what you really want


     R & G space division:  proc/nbgrp/npool/nimage =      96
     Subspace diagonalization in iterative solution of the eigenvalue problem:
     one sub-group per band group will be used
     custom distributed-memory algorithm (size of sub-group:  2*  2 procs)


     Parallelization info
     --------------------
     sticks:   dense  smooth     PW     G-vecs:    dense   smooth      PW
     Min          43      28      7                 7829     4248     595
     Max          44      29      8                 7845     4281     630
     Sum        4153    2773    757               752179   409445   59217

     Using Slab Decomposition



     bravais-lattice index     =            0
     lattice parameter (alat)  =      14.1729  a.u.
     unit-cell volume          =    8574.3059 (a.u.)^3
     number of atoms/cell      =           39
     number of atomic types    =            4
     number of electrons       =       335.00
     number of Kohn-Sham states=          202
     kinetic-energy cutoff     =      50.0000  Ry
     charge density cutoff     =     300.0000  Ry
     scf convergence threshold =      1.0E-08
     mixing beta               =       0.7000
     number of iterations used =            8  local-TF  mixing
     Exchange-correlation= BEEF-VDW
                           (   1   4  43  14   2   0   0)

     celldm(1)=  14.172946  celldm(2)=   0.000000  celldm(3)=   0.000000
     celldm(4)=   0.000000  celldm(5)=   0.000000  celldm(6)=   0.000000

     crystal axes: (cart. coord. in units of alat)
               a(1) = (   1.000000   0.000000   0.000000 )  
               a(2) = (   0.500000   0.866025   0.000000 )  
               a(3) = (   0.000000   0.000000   3.477667 )  

     reciprocal axes: (cart. coord. in units 2 pi/alat)
               b(1) = (  1.000000 -0.577350  0.000000 )  
               b(2) = (  0.000000  1.154701  0.000000 )  
               b(3) = (  0.000000  0.000000  0.287549 )  


     PseudoPot. # 1 for Co read from file:
     /users/kbadger1/espresso/pseudo/pslibrary.1.0.0/pbe/PSEUDOPOTENTIALS/Co.pbe-n-kjpaw_psl.1.0.0.UPF
     MD5 check sum: 88af6ec42553d4236c267fdfcb472151
     Pseudo is Projector augmented-wave + core cor, Zval =  9.0
     Generated using 'atomic' code by A. Dal Corso  v.7.0
     Shape of augmentation charge: PSQ
     Using radial grid of 1193 points,  6 beta functions with: 
                l(1) =   0
                l(2) =   0
                l(3) =   1
                l(4) =   1
                l(5) =   2
                l(6) =   2
     Q(r) pseudized with 0 coefficients 


     PseudoPot. # 2 for C  read from file:
     /users/kbadger1/espresso/pseudo/pslibrary.1.0.0/pbe/PSEUDOPOTENTIALS/C.pbe-n-kjpaw_psl.1.0.0.UPF
     MD5 check sum: 6408e75cdba28732cea38a4db8498ce4
     Pseudo is Projector augmented-wave + core cor, Zval =  4.0
     Generated using 'atomic' code by A. Dal Corso  v.7.0
     Shape of augmentation charge: PSQ
     Using radial grid of 1073 points,  4 beta functions with: 
                l(1) =   0
                l(2) =   0
                l(3) =   1
                l(4) =   1
     Q(r) pseudized with 0 coefficients 


     PseudoPot. # 3 for O  read from file:
     /users/kbadger1/espresso/pseudo/pslibrary.1.0.0/pbe/PSEUDOPOTENTIALS/O.pbe-nl-kjpaw_psl.1.0.0.UPF
     MD5 check sum: f0439fab3598ca4e468f064226030408
     Pseudo is Projector augmented-wave + core cor, Zval =  6.0
     Generated using 'atomic' code by A. Dal Corso  v.7.0
     Shape of augmentation charge: PSQ
     Using radial grid of 1095 points,  4 beta functions with: 
                l(1) =   0
                l(2) =   0
                l(3) =   1
                l(4) =   1
     Q(r) pseudized with 0 coefficients 


     PseudoPot. # 4 for H  read from file:
     /users/kbadger1/espresso/pseudo/pslibrary.1.0.0/pbe/PSEUDOPOTENTIALS/H.pbe-kjpaw_psl.1.0.0.UPF
     MD5 check sum: fe4c6fa958fa6d3815bf5d2419cbf1df
     Pseudo is Projector augmented-wave, Zval =  1.0
     Generated using 'atomic' code by A. Dal Corso  v.7.0
     Shape of augmentation charge: PSQ
     Using radial grid of  929 points,  2 beta functions with: 
                l(1) =   0
                l(2) =   0
     Q(r) pseudized with 0 coefficients 


     atomic species   valence    mass     pseudopotential
        Co             9.00    58.93319     Co( 1.00)
        C              4.00    12.01100     C ( 1.00)
        O              6.00    15.99900     O ( 1.00)
        H              1.00     1.00800     H ( 1.00)

     Starting magnetic structure 
     atomic species   magnetization
        Co           1.000
        C            1.000
        O            0.000
        H            0.000

     No symmetry found



   Cartesian axes

     site n.     atom                  positions (alat units)
         1           Co  tau(   1) = (   0.0000000   0.1924501   1.3333333  )
         2           Co  tau(   2) = (   0.3333333   0.1924501   1.3333333  )
         3           Co  tau(   3) = (   0.6666667   0.1924501   1.3333333  )
         4           Co  tau(   4) = (   0.1666667   0.4811252   1.3333333  )
         5           Co  tau(   5) = (   0.5000000   0.4811252   1.3333333  )
         6           Co  tau(   6) = (   0.8333333   0.4811252   1.3333333  )
         7           Co  tau(   7) = (   0.3333333   0.7698004   1.3333333  )
         8           Co  tau(   8) = (   0.6666667   0.7698004   1.3333333  )
         9           Co  tau(   9) = (   1.0000000   0.7698004   1.3333333  )
        10           Co  tau(  10) = (   0.0000000   0.0000000   1.6036667  )
        11           Co  tau(  11) = (   0.3333333   0.0000000   1.6036667  )
        12           Co  tau(  12) = (   0.6666667   0.0000000   1.6036667  )
        13           Co  tau(  13) = (   0.1666667   0.2886751   1.6036667  )
        14           Co  tau(  14) = (   0.5000000   0.2886751   1.6036667  )
        15           Co  tau(  15) = (   0.8333333   0.2886751   1.6036667  )
        16           Co  tau(  16) = (   0.3333333   0.5773503   1.6036667  )
        17           Co  tau(  17) = (   0.6666667   0.5773503   1.6036667  )
        18           Co  tau(  18) = (   1.0000000   0.5773503   1.6036667  )
        19           Co  tau(  19) = (   0.0000000   0.1924501   1.8740000  )
        20           Co  tau(  20) = (   0.3333333   0.1924501   1.8740000  )
        21           Co  tau(  21) = (   0.6666667   0.1924501   1.8740000  )
        22           Co  tau(  22) = (   0.1666667   0.4811252   1.8740000  )
        23           Co  tau(  23) = (   0.5000000   0.4811252   1.8740000  )
        24           Co  tau(  24) = (   0.8333333   0.4811252   1.8740000  )
        25           Co  tau(  25) = (   0.3333333   0.7698004   1.8740000  )
        26           Co  tau(  26) = (   0.6666667   0.7698004   1.8740000  )
        27           Co  tau(  27) = (   1.0000000   0.7698004   1.8740000  )
        28           Co  tau(  28) = (   0.0000000   0.0000000   2.1443333  )
        29           Co  tau(  29) = (   0.3333333   0.0000000   2.1443333  )
        30           Co  tau(  30) = (   0.6666667   0.0000000   2.1443333  )
        31           Co  tau(  31) = (   0.1666667   0.2886751   2.1443333  )
        32           Co  tau(  32) = (   0.5000000   0.2886751   2.1443333  )
        33           Co  tau(  33) = (   0.8333333   0.2886751   2.1443333  )
        34           Co  tau(  34) = (   0.3333333   0.5773503   2.1443333  )
        35           Co  tau(  35) = (   0.6666667   0.5773503   2.1443333  )
        36           Co  tau(  36) = (   1.0000000   0.5773503   2.1443333  )
        37           C   tau(  37) = (   0.1986399  -0.0157595   2.3549470  )
        38           O   tau(  38) = (   0.0596263  -0.0304064   2.4433679  )
        39           H   tau(  39) = (   0.3308957   0.0006224   2.4258637  )

     number of k points=    13  Marzari-Vanderbilt smearing, width (Ry)=  0.0010
                       cart. coord. in units 2pi/alat
        k(    1) = (   0.0000000   0.0000000   0.0000000), wk =   0.0400000
        k(    2) = (   0.0000000   0.2309401   0.0000000), wk =   0.0800000
        k(    3) = (   0.0000000   0.4618802   0.0000000), wk =   0.0800000
        k(    4) = (   0.2000000  -0.1154701   0.0000000), wk =   0.0800000
        k(    5) = (   0.2000000   0.1154701   0.0000000), wk =   0.0800000
        k(    6) = (   0.2000000   0.3464102   0.0000000), wk =   0.0800000
        k(    7) = (   0.2000000  -0.5773503   0.0000000), wk =   0.0800000
        k(    8) = (   0.2000000  -0.3464102   0.0000000), wk =   0.0800000
        k(    9) = (   0.4000000  -0.2309401   0.0000000), wk =   0.0800000
        k(   10) = (   0.4000000   0.0000000   0.0000000), wk =   0.0800000
        k(   11) = (   0.4000000   0.2309401   0.0000000), wk =   0.0800000
        k(   12) = (   0.4000000  -0.6928203   0.0000000), wk =   0.0800000
        k(   13) = (   0.4000000  -0.4618802   0.0000000), wk =   0.0800000

     Dense  grid:   752179 G-vectors     FFT dimensions: (  80,  80, 288)

     Smooth grid:   409445 G-vectors     FFT dimensions: (  64,  64, 225)

     Estimated max dynamical RAM per process >      99.02 MB

     Estimated total dynamical RAM >       9.28 GB
     Generating pointlists ...
     new r_m :   0.1033 (alat units)  1.4645 (a.u.) for type    1
     new r_m :   0.0623 (alat units)  0.8826 (a.u.) for type    2
     new r_m :   0.0682 (alat units)  0.9670 (a.u.) for type    3
     new r_m :   0.0623 (alat units)  0.8826 (a.u.) for type    4

     Initial potential from superposition of free atoms

     starting charge     334.9897, renormalised to     335.0000

     negative rho (up, down):  3.024E-03 4.716E-04


     %%%%%%%%%%%%%%%%%%%%%%%%%%%%%%%%%%%%%%%%%%%%%%%%%%%%%%%%%%%%%%%%%%%%%%%%
     %                                                                      %
     % You are using vdW-DF, which was implemented by the Thonhauser group. %
     % Please cite the following two papers that made this development      %
     % possible and the two reviews that describe the various versions:     %
     %                                                                      %
     %   T. Thonhauser et al., PRL 115, 136402 (2015).                      %
     %   T. Thonhauser et al., PRB 76, 125112 (2007).                       %
     %   K. Berland et al., Rep. Prog. Phys. 78, 066501 (2015).             %
     %   D.C. Langreth et al., J. Phys.: Condens. Matter 21, 084203 (2009). %
     %                                                                      %
     % If you are calculating stress with vdW-DF, please also cite:         %
     %                                                                      %
     %   R. Sabatini et al., J. Phys.: Condens. Matter 24, 424209 (2012).   %
     %   C.M. Frostenson et al., Electr. Struct. 4, 014001 (2022).          %
     %                                                                      %
     %%%%%%%%%%%%%%%%%%%%%%%%%%%%%%%%%%%%%%%%%%%%%%%%%%%%%%%%%%%%%%%%%%%%%%%%

     %%%%%%%%%%%%%%%%%%%%%%%%%%%%%%%%%%%%%%%%%%%%%%%%%%%%%%%%%%%%%%%%%%%%%%%%
     %                                                                      %
     %  vdW-DF NEWS:                                                        %
     %                                                                      %
     %  * vdW-DF3 is now available. DOI: 10.1021/acs.jctc.0c00471           %
     %    use with input_dft = 'vdW-DF3-opt1' or 'vdW-DF3-opt2'             %
     %                                                                      %
     %  * Unscreened and range-separated hybrid vdW-DF-cx functionals       %
     %    DOI: 10.1063/1.4986522 and 10.1088/1361-648X/ac2ad2               %
     %    use with input_dft = 'vdW-DF-cx0'    and 'vdW-DF-ahcx'            %
     %  * Unscreened and range-separated hybrid vdW-DF2-b86r functionals    %
     %    DOI: 10.1063/1.4986522 and DOI: 10.1103/PhysRevX.12.041003        %
     %    use with input_dft = 'vdW-DF2-br0' and 'vdW-DF2-ahbr'             %
     %                                                                      %
     %%%%%%%%%%%%%%%%%%%%%%%%%%%%%%%%%%%%%%%%%%%%%%%%%%%%%%%%%%%%%%%%%%%%%%%%


     Starting wfcs are  333 randomized atomic wfcs
     Checking if some PAW data can be deallocated... 

     total cpu time spent up to now is       13.2 secs

     per-process dynamical memory:   231.9 Mb

     Self-consistent Calculation

     iteration #  1     ecut=    50.00 Ry     beta= 0.70
     Davidson diagonalization with overlap
     ethr =  1.00E-02,  avg # of iterations =  2.0

     negative rho (up, down):  2.408E-05 4.033E-08

     total cpu time spent up to now is       33.2 secs

     total energy              =   -6053.08103549 Ry
     estimated scf accuracy    <      39.72979736 Ry

     total magnetization       =    69.00 Bohr mag/cell
     absolute magnetization    =    81.30 Bohr mag/cell

     iteration #  2     ecut=    50.00 Ry     beta= 0.70
     Davidson diagonalization with overlap
     ethr =  1.00E-02,  avg # of iterations =  1.0

     negative rho (up, down):  2.738E-06 3.665E-09

     total cpu time spent up to now is       47.7 secs

     total energy              =   -6052.54612510 Ry
     estimated scf accuracy    <      24.45489472 Ry

     total magnetization       =    68.52 Bohr mag/cell
     absolute magnetization    =    76.69 Bohr mag/cell

     iteration #  3     ecut=    50.00 Ry     beta= 0.70
     Davidson diagonalization with overlap
     ethr =  7.30E-03,  avg # of iterations =  1.0

     negative rho (up, down):  2.580E-08 0.000E+00

     total cpu time spent up to now is       62.0 secs

     total energy              =   -6055.13062642 Ry
     estimated scf accuracy    <      87.58695902 Ry

     total magnetization       =    65.77 Bohr mag/cell
     absolute magnetization    =    73.06 Bohr mag/cell

     iteration #  4     ecut=    50.00 Ry     beta= 0.70
     Davidson diagonalization with overlap
     ethr =  7.30E-03,  avg # of iterations =  1.0

     total cpu time spent up to now is       75.6 secs

     total energy              =   -6056.29713616 Ry
     estimated scf accuracy    <       5.87259669 Ry

     total magnetization       =    60.36 Bohr mag/cell
     absolute magnetization    =    70.46 Bohr mag/cell

     iteration #  5     ecut=    50.00 Ry     beta= 0.70
     Davidson diagonalization with overlap
     ethr =  1.75E-03,  avg # of iterations =  1.4

     total cpu time spent up to now is       90.3 secs

     total energy              =   -6056.34320073 Ry
     estimated scf accuracy    <       2.29887627 Ry

     total magnetization       =    60.24 Bohr mag/cell
     absolute magnetization    =    69.78 Bohr mag/cell

     iteration #  6     ecut=    50.00 Ry     beta= 0.70
     Davidson diagonalization with overlap
     ethr =  6.86E-04,  avg # of iterations =  1.7

     total cpu time spent up to now is      105.5 secs

     total energy              =   -6056.46512645 Ry
     estimated scf accuracy    <       0.60311572 Ry

     total magnetization       =    60.20 Bohr mag/cell
     absolute magnetization    =    69.60 Bohr mag/cell

     iteration #  7     ecut=    50.00 Ry     beta= 0.70
     Davidson diagonalization with overlap
     ethr =  1.80E-04,  avg # of iterations =  4.2

     total cpu time spent up to now is      122.8 secs

     total energy              =   -6056.49760582 Ry
     estimated scf accuracy    <       0.72131034 Ry

     total magnetization       =    60.20 Bohr mag/cell
     absolute magnetization    =    69.27 Bohr mag/cell

     iteration #  8     ecut=    50.00 Ry     beta= 0.70
     Davidson diagonalization with overlap
     ethr =  1.80E-04,  avg # of iterations =  1.8

     total cpu time spent up to now is      138.0 secs

     total energy              =   -6056.50644653 Ry
     estimated scf accuracy    <       0.14510561 Ry

     total magnetization       =    60.38 Bohr mag/cell
     absolute magnetization    =    69.25 Bohr mag/cell

     iteration #  9     ecut=    50.00 Ry     beta= 0.70
     Davidson diagonalization with overlap
     c_bands:  1 eigenvalues not converged
     c_bands:  1 eigenvalues not converged
     c_bands:  1 eigenvalues not converged
     ethr =  4.33E-05,  avg # of iterations = 12.9

     total cpu time spent up to now is      168.7 secs

     total energy              =   -6056.53369654 Ry
     estimated scf accuracy    <       0.26194658 Ry

     total magnetization       =    61.25 Bohr mag/cell
     absolute magnetization    =    69.25 Bohr mag/cell

     iteration # 10     ecut=    50.00 Ry     beta= 0.70
     Davidson diagonalization with overlap
     ethr =  4.33E-05,  avg # of iterations =  1.5

     total cpu time spent up to now is      183.6 secs

     total energy              =   -6056.53894847 Ry
     estimated scf accuracy    <       0.20768561 Ry

     total magnetization       =    61.24 Bohr mag/cell
     absolute magnetization    =    69.14 Bohr mag/cell

     iteration # 11     ecut=    50.00 Ry     beta= 0.70
     Davidson diagonalization with overlap
     ethr =  4.33E-05,  avg # of iterations =  1.0

     total cpu time spent up to now is      197.2 secs

     total energy              =   -6056.52389746 Ry
     estimated scf accuracy    <       0.11047694 Ry

     total magnetization       =    61.24 Bohr mag/cell
     absolute magnetization    =    69.05 Bohr mag/cell

     iteration # 12     ecut=    50.00 Ry     beta= 0.70
     Davidson diagonalization with overlap
     ethr =  3.30E-05,  avg # of iterations =  2.0

     total cpu time spent up to now is      212.3 secs

     total energy              =   -6056.52866500 Ry
     estimated scf accuracy    <       0.14270540 Ry

     total magnetization       =    60.99 Bohr mag/cell
     absolute magnetization    =    68.61 Bohr mag/cell

     iteration # 13     ecut=    50.00 Ry     beta= 0.70
     Davidson diagonalization with overlap
     ethr =  3.30E-05,  avg # of iterations =  1.1

     total cpu time spent up to now is      226.2 secs

     total energy              =   -6056.52544859 Ry
     estimated scf accuracy    <       0.11097661 Ry

     total magnetization       =    61.07 Bohr mag/cell
     absolute magnetization    =    68.59 Bohr mag/cell

     iteration # 14     ecut=    50.00 Ry     beta= 0.70
     Davidson diagonalization with overlap
     ethr =  3.30E-05,  avg # of iterations =  1.3

     total cpu time spent up to now is      240.6 secs

     total energy              =   -6056.52362040 Ry
     estimated scf accuracy    <       0.10104663 Ry

     total magnetization       =    61.25 Bohr mag/cell
     absolute magnetization    =    68.77 Bohr mag/cell

     iteration # 15     ecut=    50.00 Ry     beta= 0.70
     Davidson diagonalization with overlap
     ethr =  3.02E-05,  avg # of iterations =  1.0

     negative rho (up, down):  3.193E-05 1.506E-06

     total cpu time spent up to now is      254.4 secs

     total energy              =   -6056.52215326 Ry
     estimated scf accuracy    <       0.09368906 Ry

     total magnetization       =    61.16 Bohr mag/cell
     absolute magnetization    =    68.67 Bohr mag/cell

     iteration # 16     ecut=    50.00 Ry     beta= 0.70
     Davidson diagonalization with overlap
     ethr =  2.80E-05,  avg # of iterations =  1.1

     negative rho (up, down):  5.961E-03 5.052E-03

     total cpu time spent up to now is      268.3 secs

     total energy              =   -6056.51686454 Ry
     estimated scf accuracy    <       0.06661359 Ry

     total magnetization       =    61.22 Bohr mag/cell
     absolute magnetization    =    68.70 Bohr mag/cell

     iteration # 17     ecut=    50.00 Ry     beta= 0.70
     Davidson diagonalization with overlap
     ethr =  1.99E-05,  avg # of iterations =  1.8

     negative rho (up, down):  1.332E-02 1.204E-02

     total cpu time spent up to now is      283.5 secs

     total energy              =   -6056.51575247 Ry
     estimated scf accuracy    <       0.03058400 Ry

     total magnetization       =    61.24 Bohr mag/cell
     absolute magnetization    =    68.75 Bohr mag/cell

     iteration # 18     ecut=    50.00 Ry     beta= 0.70
     Davidson diagonalization with overlap
     ethr =  9.13E-06,  avg # of iterations =  3.0

     negative rho (up, down):  5.019E-03 4.097E-03

     total cpu time spent up to now is      299.9 secs

     total energy              =   -6056.51596680 Ry
     estimated scf accuracy    <       0.08209944 Ry

     total magnetization       =    61.25 Bohr mag/cell
     absolute magnetization    =    68.69 Bohr mag/cell

     iteration # 19     ecut=    50.00 Ry     beta= 0.70
     Davidson diagonalization with overlap
     ethr =  9.13E-06,  avg # of iterations =  1.2

     negative rho (up, down):  8.096E-03 7.042E-03

     total cpu time spent up to now is      313.9 secs

     total energy              =   -6056.51559731 Ry
     estimated scf accuracy    <       0.02822395 Ry

     total magnetization       =    61.24 Bohr mag/cell
     absolute magnetization    =    68.71 Bohr mag/cell

     iteration # 20     ecut=    50.00 Ry     beta= 0.70
     Davidson diagonalization with overlap
     ethr =  8.43E-06,  avg # of iterations =  1.1

     negative rho (up, down):  9.544E-03 8.480E-03

     total cpu time spent up to now is      327.9 secs

     total energy              =   -6056.51455177 Ry
     estimated scf accuracy    <       0.02794749 Ry

     total magnetization       =    61.24 Bohr mag/cell
     absolute magnetization    =    68.71 Bohr mag/cell

     iteration # 21     ecut=    50.00 Ry     beta= 0.70
     Davidson diagonalization with overlap
     c_bands:  4 eigenvalues not converged
     ethr =  8.34E-06,  avg # of iterations =  1.8

     negative rho (up, down):  1.098E-02 9.940E-03

     total cpu time spent up to now is      342.3 secs

     total energy              =   -6056.51401135 Ry
     estimated scf accuracy    <       0.01994997 Ry

     total magnetization       =    61.25 Bohr mag/cell
     absolute magnetization    =    68.72 Bohr mag/cell

     iteration # 22     ecut=    50.00 Ry     beta= 0.70
     Davidson diagonalization with overlap
     c_bands:  4 eigenvalues not converged
     ethr =  5.96E-06,  avg # of iterations =  1.8

     negative rho (up, down):  2.246E-02 2.143E-02

     total cpu time spent up to now is      357.7 secs

     total energy              =   -6056.51272710 Ry
     estimated scf accuracy    <       0.01066616 Ry

     total magnetization       =    61.25 Bohr mag/cell
     absolute magnetization    =    68.72 Bohr mag/cell

     iteration # 23     ecut=    50.00 Ry     beta= 0.70
     Davidson diagonalization with overlap
     ethr =  3.18E-06,  avg # of iterations =  2.8

     negative rho (up, down):  2.076E-02 1.991E-02

     total cpu time spent up to now is      373.5 secs

     total energy              =   -6056.51247734 Ry
     estimated scf accuracy    <       0.00326881 Ry

     total magnetization       =    61.25 Bohr mag/cell
     absolute magnetization    =    68.72 Bohr mag/cell

     iteration # 24     ecut=    50.00 Ry     beta= 0.70
     Davidson diagonalization with overlap
     ethr =  9.76E-07,  avg # of iterations =  3.0

     negative rho (up, down):  1.605E-02 1.527E-02

     total cpu time spent up to now is      389.6 secs

     total energy              =   -6056.51210163 Ry
     estimated scf accuracy    <       0.00935274 Ry

     total magnetization       =    61.25 Bohr mag/cell
     absolute magnetization    =    68.73 Bohr mag/cell

     iteration # 25     ecut=    50.00 Ry     beta= 0.70
     Davidson diagonalization with overlap
     ethr =  9.76E-07,  avg # of iterations =  1.4

     negative rho (up, down):  1.220E-02 1.146E-02

     total cpu time spent up to now is      404.2 secs

     total energy              =   -6056.51223188 Ry
     estimated scf accuracy    <       0.00358284 Ry

     total magnetization       =    61.25 Bohr mag/cell
     absolute magnetization    =    68.74 Bohr mag/cell

     iteration # 26     ecut=    50.00 Ry     beta= 0.70
     Davidson diagonalization with overlap
     ethr =  9.76E-07,  avg # of iterations =  1.5

     negative rho (up, down):  1.373E-02 1.308E-02

     total cpu time spent up to now is      419.1 secs

     total energy              =   -6056.51249204 Ry
     estimated scf accuracy    <       0.00432575 Ry

     total magnetization       =    61.24 Bohr mag/cell
     absolute magnetization    =    68.74 Bohr mag/cell

     iteration # 27     ecut=    50.00 Ry     beta= 0.70
     Davidson diagonalization with overlap
     ethr =  9.76E-07,  avg # of iterations =  1.2

     negative rho (up, down):  9.267E-03 8.661E-03

     total cpu time spent up to now is      433.3 secs

     total energy              =   -6056.51268015 Ry
     estimated scf accuracy    <       0.00075720 Ry

     total magnetization       =    61.25 Bohr mag/cell
     absolute magnetization    =    68.74 Bohr mag/cell

     iteration # 28     ecut=    50.00 Ry     beta= 0.70
     Davidson diagonalization with overlap
     ethr =  2.26E-07,  avg # of iterations =  3.1

     negative rho (up, down):  7.003E-03 6.356E-03

     total cpu time spent up to now is      449.4 secs

     total energy              =   -6056.51259799 Ry
     estimated scf accuracy    <       0.00068874 Ry

     total magnetization       =    61.25 Bohr mag/cell
     absolute magnetization    =    68.75 Bohr mag/cell

     iteration # 29     ecut=    50.00 Ry     beta= 0.70
     Davidson diagonalization with overlap
     ethr =  2.06E-07,  avg # of iterations =  1.9

     negative rho (up, down):  4.260E-03 3.401E-03

     total cpu time spent up to now is      464.4 secs

     total energy              =   -6056.51263507 Ry
     estimated scf accuracy    <       0.00032354 Ry

     total magnetization       =    61.25 Bohr mag/cell
     absolute magnetization    =    68.75 Bohr mag/cell

     iteration # 30     ecut=    50.00 Ry     beta= 0.70
     Davidson diagonalization with overlap
     ethr =  9.66E-08,  avg # of iterations =  2.5

     negative rho (up, down):  4.427E-03 3.583E-03

     total cpu time spent up to now is      480.6 secs

     total energy              =   -6056.51262612 Ry
     estimated scf accuracy    <       0.00091189 Ry

     total magnetization       =    61.25 Bohr mag/cell
     absolute magnetization    =    68.75 Bohr mag/cell

     iteration # 31     ecut=    50.00 Ry     beta= 0.70
     Davidson diagonalization with overlap
     ethr =  9.66E-08,  avg # of iterations =  1.1

     negative rho (up, down):  4.644E-03 3.777E-03

     total cpu time spent up to now is      494.8 secs

     total energy              =   -6056.51266980 Ry
     estimated scf accuracy    <       0.00026278 Ry

     total magnetization       =    61.25 Bohr mag/cell
     absolute magnetization    =    68.75 Bohr mag/cell

     iteration # 32     ecut=    50.00 Ry     beta= 0.70
     Davidson diagonalization with overlap
     ethr =  7.84E-08,  avg # of iterations =  1.2

     negative rho (up, down):  4.007E-03 3.009E-03

     total cpu time spent up to now is      508.9 secs

     total energy              =   -6056.51267956 Ry
     estimated scf accuracy    <       0.00006368 Ry

     total magnetization       =    61.25 Bohr mag/cell
     absolute magnetization    =    68.75 Bohr mag/cell

     iteration # 33     ecut=    50.00 Ry     beta= 0.70
     Davidson diagonalization with overlap
     ethr =  1.90E-08,  avg # of iterations =  4.0

     negative rho (up, down):  3.162E-03 2.064E-03

     total cpu time spent up to now is      525.9 secs

     total energy              =   -6056.51266676 Ry
     estimated scf accuracy    <       0.00005157 Ry

     total magnetization       =    61.25 Bohr mag/cell
     absolute magnetization    =    68.75 Bohr mag/cell

     iteration # 34     ecut=    50.00 Ry     beta= 0.70
     Davidson diagonalization with overlap
     ethr =  1.54E-08,  avg # of iterations =  2.3

     negative rho (up, down):  3.368E-03 2.284E-03

     total cpu time spent up to now is      542.0 secs

     total energy              =   -6056.51266608 Ry
     estimated scf accuracy    <       0.00008306 Ry

     total magnetization       =    61.25 Bohr mag/cell
     absolute magnetization    =    68.75 Bohr mag/cell

     iteration # 35     ecut=    50.00 Ry     beta= 0.70
     Davidson diagonalization with overlap
     ethr =  1.54E-08,  avg # of iterations =  1.2

     negative rho (up, down):  3.163E-03 2.122E-03

     total cpu time spent up to now is      556.3 secs

     total energy              =   -6056.51267009 Ry
     estimated scf accuracy    <       0.00006643 Ry

     total magnetization       =    61.25 Bohr mag/cell
     absolute magnetization    =    68.75 Bohr mag/cell

     iteration # 36     ecut=    50.00 Ry     beta= 0.70
     Davidson diagonalization with overlap
     ethr =  1.54E-08,  avg # of iterations =  1.8

     negative rho (up, down):  2.840E-03 1.744E-03

     total cpu time spent up to now is      571.8 secs

     total energy              =   -6056.51266492 Ry
     estimated scf accuracy    <       0.00004222 Ry

     total magnetization       =    61.25 Bohr mag/cell
     absolute magnetization    =    68.75 Bohr mag/cell

     iteration # 37     ecut=    50.00 Ry     beta= 0.70
     Davidson diagonalization with overlap
     ethr =  1.26E-08,  avg # of iterations =  1.7

     negative rho (up, down):  2.782E-03 1.771E-03

     total cpu time spent up to now is      587.2 secs

     total energy              =   -6056.51266150 Ry
     estimated scf accuracy    <       0.00028456 Ry

     total magnetization       =    61.25 Bohr mag/cell
     absolute magnetization    =    68.75 Bohr mag/cell

     iteration # 38     ecut=    50.00 Ry     beta= 0.70
     Davidson diagonalization with overlap
     ethr =  1.26E-08,  avg # of iterations =  1.8

     negative rho (up, down):  2.661E-03 1.629E-03

     total cpu time spent up to now is      602.8 secs

     total energy              =   -6056.51266893 Ry
     estimated scf accuracy    <       0.00000513 Ry

     total magnetization       =    61.25 Bohr mag/cell
     absolute magnetization    =    68.75 Bohr mag/cell

     iteration # 39     ecut=    50.00 Ry     beta= 0.70
     Davidson diagonalization with overlap
     c_bands:  1 eigenvalues not converged
     ethr =  1.53E-09,  avg # of iterations =  7.8

     negative rho (up, down):  2.463E-03 1.383E-03

     total cpu time spent up to now is      626.0 secs

     total energy              =   -6056.51266893 Ry
     estimated scf accuracy    <       0.00001414 Ry

     total magnetization       =    61.25 Bohr mag/cell
     absolute magnetization    =    68.75 Bohr mag/cell

     iteration # 40     ecut=    50.00 Ry     beta= 0.70
     Davidson diagonalization with overlap
     ethr =  1.53E-09,  avg # of iterations =  1.8

     negative rho (up, down):  2.443E-03 1.360E-03

     total cpu time spent up to now is      640.9 secs

     total energy              =   -6056.51266915 Ry
     estimated scf accuracy    <       0.00001477 Ry

     total magnetization       =    61.25 Bohr mag/cell
     absolute magnetization    =    68.75 Bohr mag/cell

     iteration # 41     ecut=    50.00 Ry     beta= 0.70
     Davidson diagonalization with overlap
     ethr =  1.53E-09,  avg # of iterations =  1.0

     negative rho (up, down):  2.429E-03 1.351E-03

     total cpu time spent up to now is      655.5 secs

     total energy              =   -6056.51266904 Ry
     estimated scf accuracy    <       0.00000593 Ry

     total magnetization       =    61.25 Bohr mag/cell
     absolute magnetization    =    68.75 Bohr mag/cell

     iteration # 42     ecut=    50.00 Ry     beta= 0.70
     Davidson diagonalization with overlap
     ethr =  1.53E-09,  avg # of iterations =  1.0

     negative rho (up, down):  2.380E-03 1.287E-03

     total cpu time spent up to now is      669.7 secs

     total energy              =   -6056.51266916 Ry
     estimated scf accuracy    <       0.00000383 Ry

     total magnetization       =    61.25 Bohr mag/cell
     absolute magnetization    =    68.75 Bohr mag/cell

     iteration # 43     ecut=    50.00 Ry     beta= 0.70
     Davidson diagonalization with overlap
     ethr =  1.14E-09,  avg # of iterations =  1.5

     negative rho (up, down):  2.371E-03 1.276E-03

     total cpu time spent up to now is      684.6 secs

     total energy              =   -6056.51266941 Ry
     estimated scf accuracy    <       0.00000514 Ry

     total magnetization       =    61.25 Bohr mag/cell
     absolute magnetization    =    68.75 Bohr mag/cell

     iteration # 44     ecut=    50.00 Ry     beta= 0.70
     Davidson diagonalization with overlap
     ethr =  1.14E-09,  avg # of iterations =  1.0

     negative rho (up, down):  2.294E-03 1.201E-03

     total cpu time spent up to now is      698.5 secs

     total energy              =   -6056.51266937 Ry
     estimated scf accuracy    <       0.00000347 Ry

     total magnetization       =    61.25 Bohr mag/cell
     absolute magnetization    =    68.75 Bohr mag/cell

     iteration # 45     ecut=    50.00 Ry     beta= 0.70
     Davidson diagonalization with overlap
     ethr =  1.04E-09,  avg # of iterations =  1.0

     negative rho (up, down):  2.269E-03 1.175E-03

     total cpu time spent up to now is      712.6 secs

     total energy              =   -6056.51266940 Ry
     estimated scf accuracy    <       0.00000131 Ry

     total magnetization       =    61.25 Bohr mag/cell
     absolute magnetization    =    68.75 Bohr mag/cell

     iteration # 46     ecut=    50.00 Ry     beta= 0.70
     Davidson diagonalization with overlap
     ethr =  3.91E-10,  avg # of iterations =  1.3

     negative rho (up, down):  2.315E-03 1.223E-03

     total cpu time spent up to now is      727.4 secs

     total energy              =   -6056.51266941 Ry
     estimated scf accuracy    <       0.00000077 Ry

     total magnetization       =    61.25 Bohr mag/cell
     absolute magnetization    =    68.75 Bohr mag/cell

     iteration # 47     ecut=    50.00 Ry     beta= 0.70
     Davidson diagonalization with overlap
     ethr =  2.29E-10,  avg # of iterations =  1.8

     negative rho (up, down):  2.216E-03 1.122E-03

     total cpu time spent up to now is      742.5 secs

     total energy              =   -6056.51266931 Ry
     estimated scf accuracy    <       0.00000185 Ry

     total magnetization       =    61.25 Bohr mag/cell
     absolute magnetization    =    68.75 Bohr mag/cell

     iteration # 48     ecut=    50.00 Ry     beta= 0.70
     Davidson diagonalization with overlap
     ethr =  2.29E-10,  avg # of iterations =  1.5

     negative rho (up, down):  2.213E-03 1.119E-03

     total cpu time spent up to now is      757.4 secs

     total energy              =   -6056.51266937 Ry
     estimated scf accuracy    <       0.00000030 Ry

     total magnetization       =    61.25 Bohr mag/cell
     absolute magnetization    =    68.75 Bohr mag/cell

     iteration # 49     ecut=    50.00 Ry     beta= 0.70
     Davidson diagonalization with overlap
     ethr =  9.00E-11,  avg # of iterations =  3.8

     negative rho (up, down):  2.210E-03 1.116E-03

     total cpu time spent up to now is      774.8 secs

     total energy              =   -6056.51266938 Ry
     estimated scf accuracy    <       0.00000005 Ry

     total magnetization       =    61.25 Bohr mag/cell
     absolute magnetization    =    68.75 Bohr mag/cell

     iteration # 50     ecut=    50.00 Ry     beta= 0.70
     Davidson diagonalization with overlap
     ethr =  1.44E-11,  avg # of iterations =  7.0

     negative rho (up, down):  2.207E-03 1.113E-03

     total cpu time spent up to now is      797.5 secs

     total energy              =   -6056.51266938 Ry
     estimated scf accuracy    <       0.00000005 Ry

     total magnetization       =    61.25 Bohr mag/cell
     absolute magnetization    =    68.75 Bohr mag/cell

     iteration # 51     ecut=    50.00 Ry     beta= 0.70
     Davidson diagonalization with overlap
     ethr =  1.44E-11,  avg # of iterations =  1.8

     negative rho (up, down):  2.209E-03 1.115E-03

     total cpu time spent up to now is      812.7 secs

     total energy              =   -6056.51266939 Ry
     estimated scf accuracy    <       0.00000003 Ry

     total magnetization       =    61.25 Bohr mag/cell
     absolute magnetization    =    68.75 Bohr mag/cell

     iteration # 52     ecut=    50.00 Ry     beta= 0.70
     Davidson diagonalization with overlap
     ethr =  9.97E-12,  avg # of iterations =  1.2

     negative rho (up, down):  2.216E-03 1.121E-03

     total cpu time spent up to now is      827.1 secs

     total energy              =   -6056.51266940 Ry
     estimated scf accuracy    <       0.00000003 Ry

     total magnetization       =    61.25 Bohr mag/cell
     absolute magnetization    =    68.75 Bohr mag/cell

     iteration # 53     ecut=    50.00 Ry     beta= 0.70
     Davidson diagonalization with overlap
     ethr =  7.92E-12,  avg # of iterations =  2.0

     negative rho (up, down):  2.224E-03 1.129E-03

     Magnetic moment per site  (integrated on atomic sphere of radius R)
     atom   1 (R=0.103)  charge=  6.2589  magn=  1.7662
     atom   2 (R=0.103)  charge=  6.2590  magn=  1.7664
     atom   3 (R=0.103)  charge=  6.2584  magn=  1.7734
     atom   4 (R=0.103)  charge=  6.2588  magn=  1.7738
     atom   5 (R=0.103)  charge=  6.2587  magn=  1.7701
     atom   6 (R=0.103)  charge=  6.2590  magn=  1.7685
     atom   7 (R=0.103)  charge=  6.2588  magn=  1.7687
     atom   8 (R=0.103)  charge=  6.2597  magn=  1.7635
     atom   9 (R=0.103)  charge=  6.2593  magn=  1.7647
     atom  10 (R=0.103)  charge=  6.2654  magn=  1.6982
     atom  11 (R=0.103)  charge=  6.2661  magn=  1.6873
     atom  12 (R=0.103)  charge=  6.2658  magn=  1.6982
     atom  13 (R=0.103)  charge=  6.2654  magn=  1.6965
     atom  14 (R=0.103)  charge=  6.2659  magn=  1.6969
     atom  15 (R=0.103)  charge=  6.2653  magn=  1.6968
     atom  16 (R=0.103)  charge=  6.2658  magn=  1.6897
     atom  17 (R=0.103)  charge=  6.2656  magn=  1.6946
     atom  18 (R=0.103)  charge=  6.2659  magn=  1.6934
     atom  19 (R=0.103)  charge=  6.2640  magn=  1.7047
     atom  20 (R=0.103)  charge=  6.2645  magn=  1.6946
     atom  21 (R=0.103)  charge=  6.2645  magn=  1.6996
     atom  22 (R=0.103)  charge=  6.2651  magn=  1.7042
     atom  23 (R=0.103)  charge=  6.2642  magn=  1.7056
     atom  24 (R=0.103)  charge=  6.2653  magn=  1.7057
     atom  25 (R=0.103)  charge=  6.2629  magn=  1.7017
     atom  26 (R=0.103)  charge=  6.2622  magn=  1.7174
     atom  27 (R=0.103)  charge=  6.2648  magn=  1.6839
     atom  28 (R=0.103)  charge=  6.2726  magn=  1.6270
     atom  29 (R=0.103)  charge=  6.2937  magn=  1.2120
     atom  30 (R=0.103)  charge=  6.2619  magn=  1.7507
     atom  31 (R=0.103)  charge=  6.2638  magn=  1.7543
     atom  32 (R=0.103)  charge=  6.2602  magn=  1.7648
     atom  33 (R=0.103)  charge=  6.2583  magn=  1.7846
     atom  34 (R=0.103)  charge=  6.2606  magn=  1.7800
     atom  35 (R=0.103)  charge=  6.2670  magn=  1.7339
     atom  36 (R=0.103)  charge=  6.2605  magn=  1.7628
     atom  37 (R=0.062)  charge=  0.9107  magn= -0.0145
     atom  38 (R=0.068)  charge=  3.1169  magn=  0.0005
     atom  39 (R=0.062)  charge=  0.5052  magn=  0.0091

     total cpu time spent up to now is      842.7 secs

     End of self-consistent calculation

 ------ SPIN UP ------------


          k = 0.0000 0.0000 0.0000 ( 51087 PWs)   bands (ev):

   -21.6769 -10.5328  -7.5152  -6.8706  -6.2568  -5.7063  -5.2488  -4.6467
    -4.6118  -4.6107  -4.6099  -4.6028  -4.5961  -4.5575  -4.2576  -4.0829
    -4.0797  -4.0750  -4.0667  -4.0554  -4.0178  -3.5659  -3.5616  -3.5588
    -3.5559  -3.5431  -3.5156  -3.4411  -3.4300  -3.4269  -3.4263  -3.4216
    -3.4032  -3.3591  -3.3575  -3.0442  -3.0426  -3.0405  -3.0385  -3.0255
    -2.9808  -2.9770  -2.9721  -2.9686  -2.9671  -2.9627  -2.9611  -2.8117
    -2.8098  -2.7823  -2.7504  -2.7403  -2.7337  -2.7320  -2.7263  -2.7108
    -2.7049  -2.6991  -2.6982  -2.6050  -2.6031  -2.5994  -2.5946  -2.5830
    -2.5577  -2.2883  -2.0709  -2.0665  -2.0607  -2.0573  -2.0505  -1.9555
    -1.9421  -1.9248  -1.9095  -1.9002  -1.8976  -1.8874  -1.8822  -1.8806
    -1.8576  -1.8285  -1.8256  -1.7787  -1.7712  -1.7651  -1.7523  -1.7448
    -1.7442  -1.7366  -1.7323  -1.7305  -1.7191  -1.7035  -1.7007  -1.6964
    -1.6939  -1.6911  -1.6896  -1.6885  -1.6884  -1.6841  -1.6789  -1.6785
    -1.6745  -1.6404  -1.6356  -1.6060  -1.6011  -1.5282  -1.5242  -1.4855
    -1.3207  -1.2427  -1.2336  -1.2300  -1.2291  -1.2250  -1.2222  -1.2023
    -1.1956  -1.1945  -1.1601  -1.1546  -1.1380  -1.1148  -1.0225  -1.0208
    -0.9921  -0.9886  -0.8808  -0.8323  -0.8209  -0.8165  -0.8093  -0.7988
    -0.7501  -0.7405  -0.7363  -0.7342  -0.7333  -0.7203  -0.6275  -0.6209
    -0.5205  -0.5018  -0.4926  -0.4917  -0.4670  -0.4602  -0.4339  -0.4283
    -0.4263  -0.4217  -0.4172  -0.4126  -0.4096  -0.4087  -0.4084  -0.4030
    -0.3978  -0.3943  -0.3807  -0.3653  -0.3574  -0.3459  -0.3431  -0.3419
    -0.3277  -0.3200  -0.3018  -0.3003  -0.2966  -0.2726  -0.2695  -0.2692
    -0.2670  -0.2587  -0.2564  -0.2423  -0.2207  -0.2048  -0.1955  -0.1907
    -0.1906  -0.1854  -0.1821  -0.1785  -0.1776  -0.1623  -0.1138  -0.1081
    -0.0977  -0.0964  -0.0343  -0.0334  -0.0287  -0.0222  -0.0216  -0.0032
     0.3480   1.1067

          k = 0.0000 0.2309 0.0000 ( 51134 PWs)   bands (ev):

   -21.6769 -10.5320  -7.3731  -6.8532  -6.1806  -5.6900  -5.3475  -5.2225
    -4.8600  -4.8551  -4.4986  -4.3456  -4.2709  -4.2703  -4.2020  -4.1545
    -4.1171  -4.1017  -3.9986  -3.9533  -3.9474  -3.6852  -3.5735  -3.5653
    -3.4906  -3.4645  -3.4472  -3.4408  -3.4394  -3.4220  -3.4143  -3.4028
    -3.3695  -3.3209  -3.3187  -3.2871  -3.2844  -3.1056  -3.0600  -3.0566
    -3.0070  -3.0035  -2.9977  -2.9935  -2.9282  -2.8811  -2.8726  -2.8481
    -2.8343  -2.8288  -2.8046  -2.7899  -2.7027  -2.6987  -2.6684  -2.6379
    -2.6226  -2.6081  -2.5944  -2.5802  -2.5744  -2.5495  -2.5265  -2.5188
    -2.4605  -2.3094  -2.1848  -2.1689  -2.1603  -2.1380  -2.0952  -2.0334
    -2.0240  -2.0220  -2.0072  -2.0034  -1.9892  -1.9732  -1.9559  -1.9076
    -1.8914  -1.8807  -1.8663  -1.8320  -1.8205  -1.8178  -1.8110  -1.7932
    -1.7839  -1.7779  -1.7751  -1.7725  -1.7679  -1.7334  -1.7044  -1.6903
    -1.6758  -1.6433  -1.6070  -1.5959  -1.5883  -1.5830  -1.5743  -1.5671
    -1.5536  -1.5434  -1.5386  -1.5319  -1.5280  -1.5016  -1.4917  -1.4867
    -1.4657  -1.4608  -1.4397  -1.3814  -1.3618  -1.3401  -1.2644  -1.2562
    -1.2510  -1.2436  -1.2317  -1.2274  -1.2230  -1.2197  -1.1388  -1.0830
    -1.0684  -1.0454  -0.9733  -0.9710  -0.9461  -0.8984  -0.8768  -0.8733
    -0.8330  -0.7794  -0.7596  -0.7464  -0.7330  -0.7238  -0.6927  -0.6855
    -0.6692  -0.6567  -0.6412  -0.6004  -0.5965  -0.5832  -0.5736  -0.5667
    -0.5314  -0.5102  -0.4940  -0.4890  -0.4788  -0.4531  -0.4313  -0.4283
    -0.4218  -0.4144  -0.4065  -0.3970  -0.3835  -0.3705  -0.3565  -0.3396
    -0.3090  -0.2959  -0.2818  -0.2566  -0.2374  -0.2331  -0.2036  -0.1961
    -0.1745  -0.1704  -0.1651  -0.1489  -0.1456  -0.1263  -0.1145  -0.1099
    -0.0784  -0.0353  -0.0309  -0.0225   0.0014   0.0026   0.0365   0.0450
     0.0611   0.1013   0.3402   0.3467   0.4496   0.5433   0.5994   0.6133
     0.6759   0.8384

          k = 0.0000 0.4619 0.0000 ( 51204 PWs)   bands (ev):

   -21.6769 -10.5307  -7.0195  -6.7687  -6.2348  -5.9861  -5.5036  -5.2000
    -5.0003  -4.9941  -4.8554  -4.1569  -4.1162  -4.1010  -4.0901  -4.0240
    -3.9134  -3.9120  -3.8730  -3.7867  -3.7796  -3.7711  -3.6788  -3.6018
    -3.5988  -3.5853  -3.5828  -3.5365  -3.4811  -3.4742  -3.4710  -3.3176
    -3.3104  -3.3027  -3.2980  -3.2658  -3.2609  -3.1686  -3.1513  -3.1476
    -3.1376  -3.1351  -3.0241  -2.9367  -2.9251  -2.8408  -2.8262  -2.8040
    -2.7911  -2.7620  -2.7481  -2.7441  -2.7372  -2.7139  -2.6622  -2.6518
    -2.6246  -2.5889  -2.5785  -2.4813  -2.4395  -2.4324  -2.4180  -2.3882
    -2.3398  -2.3206  -2.2956  -2.2875  -2.2662  -2.1943  -2.1698  -2.1505
    -2.1446  -2.1430  -2.1312  -2.1153  -2.1085  -2.0974  -2.0538  -2.0464
    -2.0097  -2.0060  -1.9795  -1.9570  -1.9313  -1.9182  -1.8512  -1.8400
    -1.8260  -1.8161  -1.7897  -1.7767  -1.7430  -1.7188  -1.7131  -1.7069
    -1.6966  -1.6777  -1.6694  -1.6449  -1.6343  -1.6250  -1.6179  -1.6007
    -1.5816  -1.5714  -1.5239  -1.5102  -1.4555  -1.4430  -1.4285  -1.4137
    -1.3897  -1.3689  -1.3493  -1.3063  -1.2996  -1.2798  -1.2755  -1.2713
    -1.2678  -1.2610  -1.2452  -1.2423  -1.2392  -1.2284  -1.2210  -1.2053
    -1.1926  -1.1707  -1.0981  -1.0712  -1.0442  -1.0363  -1.0132  -1.0059
    -0.9717  -0.9453  -0.9160  -0.8961  -0.8895  -0.8407  -0.8251  -0.7763
    -0.7667  -0.7319  -0.7176  -0.6872  -0.6797  -0.6713  -0.6385  -0.5958
    -0.5408  -0.5167  -0.5112  -0.4989  -0.4906  -0.4874  -0.4767  -0.4665
    -0.4610  -0.4396  -0.4075  -0.3498  -0.3330  -0.3275  -0.3190  -0.3169
    -0.3114  -0.2879  -0.2708  -0.2656  -0.2554  -0.2426  -0.1668  -0.1472
    -0.1393  -0.1341  -0.1110  -0.0794  -0.0440  -0.0347  -0.0061   0.0048
     0.0287   0.0722   0.0761   0.0943   0.0988   0.1046   0.1125   0.1363
     0.2102   0.2242   0.3127   0.9185   1.1570   1.2594   1.3328   1.3591
     1.5789   1.6893

          k = 0.2000-0.1155 0.0000 ( 51134 PWs)   bands (ev):

   -21.6769 -10.5325  -7.3725  -6.8533  -6.1747  -5.6761  -5.3655  -5.2266
    -4.8564  -4.8489  -4.5005  -4.3693  -4.2714  -4.2676  -4.2043  -4.1617
    -4.1150  -4.0779  -4.0104  -3.9535  -3.9368  -3.6870  -3.5741  -3.5646
    -3.4880  -3.4708  -3.4444  -3.4402  -3.4386  -3.4310  -3.4139  -3.3974
    -3.3675  -3.3237  -3.3173  -3.2857  -3.2845  -3.0997  -3.0648  -3.0569
    -3.0267  -3.0011  -2.9989  -2.9901  -2.9257  -2.8982  -2.8697  -2.8420
    -2.8313  -2.8277  -2.8039  -2.7924  -2.7110  -2.6986  -2.6722  -2.6362
    -2.6292  -2.6060  -2.5901  -2.5722  -2.5651  -2.5434  -2.5255  -2.5175
    -2.4669  -2.3194  -2.1865  -2.1747  -2.1474  -2.1321  -2.0930  -2.0353
    -2.0272  -2.0174  -2.0135  -1.9990  -1.9904  -1.9676  -1.9453  -1.9100
    -1.8858  -1.8831  -1.8673  -1.8249  -1.8211  -1.8186  -1.8142  -1.7901
    -1.7874  -1.7785  -1.7752  -1.7742  -1.7715  -1.7401  -1.7005  -1.6848
    -1.6700  -1.6395  -1.6129  -1.5973  -1.5889  -1.5850  -1.5715  -1.5661
    -1.5586  -1.5440  -1.5331  -1.5303  -1.5213  -1.5081  -1.4831  -1.4751
    -1.4684  -1.4570  -1.4366  -1.4128  -1.3661  -1.3369  -1.2600  -1.2563
    -1.2499  -1.2473  -1.2286  -1.2273  -1.2256  -1.2175  -1.1126  -1.0792
    -1.0620  -1.0442  -0.9745  -0.9711  -0.9471  -0.9055  -0.8782  -0.8714
    -0.8086  -0.8017  -0.7740  -0.7544  -0.7378  -0.7267  -0.6860  -0.6856
    -0.6710  -0.6552  -0.6377  -0.6030  -0.5982  -0.5790  -0.5782  -0.5705
    -0.5388  -0.5018  -0.4926  -0.4889  -0.4702  -0.4505  -0.4277  -0.4226
    -0.4158  -0.4148  -0.4106  -0.3996  -0.3806  -0.3697  -0.3625  -0.3527
    -0.3007  -0.2918  -0.2759  -0.2580  -0.2425  -0.2320  -0.2056  -0.1945
    -0.1743  -0.1700  -0.1664  -0.1494  -0.1434  -0.1261  -0.1172  -0.1083
    -0.0757  -0.0357  -0.0302  -0.0234   0.0009   0.0027   0.0456   0.0500
     0.0583   0.1029   0.3288   0.3480   0.4130   0.5182   0.5963   0.6469
     0.6663   0.7831

          k = 0.2000 0.1155 0.0000 ( 51134 PWs)   bands (ev):

   -21.6769 -10.5325  -7.3726  -6.8537  -6.1731  -5.6742  -5.3543  -5.2446
    -4.8519  -4.8481  -4.5023  -4.3742  -4.2722  -4.2668  -4.2049  -4.1619
    -4.1105  -4.0775  -4.0114  -3.9523  -3.9375  -3.6883  -3.5720  -3.5679
    -3.4878  -3.4714  -3.4428  -3.4412  -3.4388  -3.4268  -3.4141  -3.3978
    -3.3693  -3.3234  -3.3168  -3.2861  -3.2840  -3.0948  -3.0579  -3.0570
    -3.0242  -3.0014  -2.9988  -2.9964  -2.9179  -2.8985  -2.8738  -2.8470
    -2.8318  -2.8289  -2.8064  -2.7970  -2.7080  -2.6973  -2.6814  -2.6401
    -2.6276  -2.6023  -2.5928  -2.5697  -2.5613  -2.5455  -2.5266  -2.5212
    -2.4673  -2.3058  -2.1891  -2.1782  -2.1545  -2.1284  -2.0914  -2.0287
    -2.0256  -2.0186  -2.0142  -2.0033  -1.9936  -1.9695  -1.9331  -1.9062
    -1.8940  -1.8816  -1.8623  -1.8315  -1.8204  -1.8172  -1.8124  -1.7885
    -1.7867  -1.7831  -1.7775  -1.7725  -1.7660  -1.7374  -1.6988  -1.6945
    -1.6710  -1.6421  -1.6048  -1.5946  -1.5865  -1.5850  -1.5665  -1.5649
    -1.5574  -1.5454  -1.5397  -1.5307  -1.5235  -1.5060  -1.4813  -1.4754
    -1.4660  -1.4615  -1.4367  -1.4155  -1.3650  -1.3398  -1.2618  -1.2547
    -1.2515  -1.2456  -1.2334  -1.2287  -1.2252  -1.2201  -1.1127  -1.0753
    -1.0612  -1.0433  -0.9778  -0.9699  -0.9438  -0.9047  -0.8808  -0.8726
    -0.8110  -0.7911  -0.7748  -0.7508  -0.7425  -0.7270  -0.6933  -0.6877
    -0.6676  -0.6573  -0.6387  -0.5963  -0.5909  -0.5870  -0.5787  -0.5660
    -0.5375  -0.5049  -0.4937  -0.4878  -0.4733  -0.4405  -0.4308  -0.4288
    -0.4214  -0.4131  -0.4025  -0.3947  -0.3806  -0.3698  -0.3644  -0.3471
    -0.3019  -0.2920  -0.2742  -0.2613  -0.2433  -0.2338  -0.2019  -0.1972
    -0.1725  -0.1695  -0.1674  -0.1480  -0.1393  -0.1271  -0.1153  -0.1085
    -0.0777  -0.0358  -0.0315  -0.0242   0.0020   0.0036   0.0425   0.0478
     0.0593   0.0973   0.3176   0.3489   0.4175   0.5162   0.5941   0.6353
     0.6773   0.7798

          k = 0.2000 0.3464 0.0000 ( 51202 PWs)   bands (ev):

   -21.6769 -10.5315  -7.1153  -6.8110  -6.0767  -5.7261  -5.6851  -5.4720
    -5.2244  -4.5935  -4.5103  -4.2774  -4.2722  -4.2353  -4.0580  -4.0545
    -3.9703  -3.9610  -3.9428  -3.8249  -3.8158  -3.6877  -3.6778  -3.6186
    -3.5683  -3.4812  -3.4789  -3.4497  -3.4309  -3.4217  -3.4146  -3.3919
    -3.3749  -3.3573  -3.3525  -3.3019  -3.2627  -3.2204  -3.2174  -3.1042
    -3.0889  -3.0010  -2.9913  -2.9668  -2.9495  -2.9383  -2.8495  -2.8052
    -2.7936  -2.7786  -2.7605  -2.7579  -2.7115  -2.7024  -2.6822  -2.6733
    -2.6550  -2.5562  -2.5375  -2.4920  -2.4803  -2.4591  -2.4344  -2.4193
    -2.4091  -2.3192  -2.2707  -2.2181  -2.2069  -2.1670  -2.1460  -2.1256
    -2.1200  -2.1162  -2.1021  -2.0783  -2.0679  -2.0494  -2.0472  -2.0300
    -2.0229  -1.9987  -1.9385  -1.9087  -1.8590  -1.8535  -1.8330  -1.8185
    -1.8062  -1.7856  -1.7642  -1.7416  -1.7259  -1.7047  -1.6985  -1.6944
    -1.6797  -1.6727  -1.6588  -1.6562  -1.6419  -1.6355  -1.6140  -1.5952
    -1.5866  -1.5753  -1.5444  -1.5245  -1.5042  -1.4910  -1.4631  -1.4529
    -1.4445  -1.4299  -1.4207  -1.3801  -1.3628  -1.3509  -1.3275  -1.2954
    -1.2823  -1.2774  -1.2745  -1.2532  -1.2399  -1.2341  -1.2155  -1.1767
    -1.1300  -1.1097  -1.1023  -1.0685  -0.9922  -0.9780  -0.9640  -0.8868
    -0.8478  -0.8450  -0.8381  -0.8276  -0.8173  -0.8034  -0.7916  -0.7711
    -0.7595  -0.7422  -0.7191  -0.6880  -0.6744  -0.6704  -0.6467  -0.6348
    -0.6126  -0.5983  -0.5642  -0.5616  -0.5518  -0.5377  -0.4711  -0.4071
    -0.3928  -0.3640  -0.3589  -0.3527  -0.3376  -0.3252  -0.3131  -0.3062
    -0.2978  -0.2911  -0.2185  -0.2115  -0.1982  -0.1900  -0.1545  -0.1435
    -0.1228  -0.1183  -0.1130  -0.0959  -0.0863  -0.0817  -0.0742  -0.0626
    -0.0474  -0.0220   0.0404   0.0492   0.0550   0.1011   0.1053   0.1122
     0.4129   0.4432   0.5074   0.5828   0.7134   0.7866   1.0906   1.2873
     1.3460   1.5090

          k = 0.2000-0.5774 0.0000 ( 51262 PWs)   bands (ev):

   -21.6769 -10.5308  -6.9307  -6.4728  -6.4487  -5.9746  -5.7638  -5.4032
    -5.0459  -5.0209  -4.6206  -4.2635  -4.0192  -3.9799  -3.8639  -3.8468
    -3.8407  -3.8210  -3.8128  -3.7917  -3.7455  -3.7302  -3.7287  -3.7236
    -3.6414  -3.6339  -3.5799  -3.5781  -3.5494  -3.5447  -3.4520  -3.4105
    -3.3928  -3.3855  -3.3703  -3.3315  -3.2416  -3.2300  -3.1226  -3.1001
    -3.0953  -3.0269  -3.0168  -2.9961  -2.9689  -2.8894  -2.8826  -2.8794
    -2.8122  -2.8066  -2.7363  -2.6990  -2.6659  -2.6592  -2.6128  -2.6024
    -2.5489  -2.5191  -2.5098  -2.4960  -2.4907  -2.4644  -2.4507  -2.3888
    -2.3438  -2.3064  -2.2860  -2.2833  -2.2534  -2.2288  -2.2126  -2.1606
    -2.1477  -2.1206  -2.1126  -2.1008  -2.0938  -2.0563  -2.0435  -2.0345
    -2.0209  -2.0139  -1.9914  -1.9747  -1.9674  -1.9598  -1.8965  -1.8820
    -1.8642  -1.8249  -1.8089  -1.7880  -1.7492  -1.7382  -1.7297  -1.7071
    -1.6865  -1.6795  -1.6725  -1.6683  -1.6545  -1.6440  -1.6187  -1.6122
    -1.5524  -1.5306  -1.5224  -1.5180  -1.5022  -1.4983  -1.4928  -1.4798
    -1.4764  -1.4693  -1.4513  -1.4166  -1.4102  -1.3698  -1.3646  -1.3357
    -1.2810  -1.2718  -1.2383  -1.2236  -1.2121  -1.2046  -1.1893  -1.1296
    -1.1185  -1.1105  -1.1024  -1.0460  -1.0275  -0.9786  -0.9659  -0.9486
    -0.9313  -0.9196  -0.9106  -0.8992  -0.8625  -0.8561  -0.8260  -0.8044
    -0.7794  -0.7641  -0.7497  -0.7331  -0.7183  -0.6855  -0.6595  -0.6451
    -0.6357  -0.6237  -0.6143  -0.5913  -0.5681  -0.5511  -0.5311  -0.4602
    -0.3640  -0.3541  -0.3451  -0.3379  -0.3296  -0.3259  -0.3178  -0.3072
    -0.2696  -0.2601  -0.2460  -0.2412  -0.2178  -0.1926  -0.1265  -0.1196
    -0.1049  -0.0935  -0.0768  -0.0701  -0.0276  -0.0149  -0.0107  -0.0015
     0.0040   0.0679   0.0801   0.0832   0.1023   0.1065   0.1324   0.1598
     0.2555   0.4512   0.5137   0.7891   1.3281   1.3748   1.5245   1.6535
     1.8545   1.9361

          k = 0.2000-0.3464 0.0000 ( 51202 PWs)   bands (ev):

   -21.6769 -10.5314  -7.1144  -6.8118  -6.0787  -5.7289  -5.6870  -5.4721
    -5.2164  -4.5979  -4.5056  -4.2778  -4.2727  -4.2331  -4.0572  -4.0546
    -3.9701  -3.9604  -3.9414  -3.8243  -3.8184  -3.6832  -3.6798  -3.6183
    -3.5685  -3.4830  -3.4784  -3.4500  -3.4277  -3.4234  -3.4199  -3.3908
    -3.3751  -3.3584  -3.3495  -3.3051  -3.2640  -3.2242  -3.2171  -3.1053
    -3.0935  -3.0009  -2.9904  -2.9683  -2.9554  -2.9358  -2.8433  -2.8040
    -2.7896  -2.7765  -2.7610  -2.7545  -2.7078  -2.6985  -2.6803  -2.6733
    -2.6556  -2.5445  -2.5366  -2.4929  -2.4804  -2.4543  -2.4392  -2.4212
    -2.4067  -2.3261  -2.2888  -2.2208  -2.2067  -2.1650  -2.1495  -2.1318
    -2.1253  -2.1078  -2.0991  -2.0750  -2.0599  -2.0548  -2.0483  -2.0313
    -2.0282  -2.0031  -1.9342  -1.9057  -1.8580  -1.8509  -1.8245  -1.8188
    -1.8073  -1.7855  -1.7695  -1.7414  -1.7319  -1.7061  -1.6962  -1.6932
    -1.6849  -1.6729  -1.6600  -1.6477  -1.6389  -1.6342  -1.6068  -1.5998
    -1.5858  -1.5727  -1.5562  -1.5252  -1.5059  -1.4961  -1.4606  -1.4526
    -1.4456  -1.4280  -1.4238  -1.3759  -1.3599  -1.3451  -1.3283  -1.3014
    -1.2806  -1.2780  -1.2725  -1.2576  -1.2443  -1.2331  -1.2126  -1.1723
    -1.1398  -1.1072  -1.1036  -1.0673  -0.9940  -0.9819  -0.9656  -0.8691
    -0.8517  -0.8428  -0.8397  -0.8251  -0.8197  -0.8070  -0.7897  -0.7681
    -0.7545  -0.7383  -0.7236  -0.6980  -0.6792  -0.6643  -0.6526  -0.6343
    -0.6170  -0.5927  -0.5741  -0.5558  -0.5523  -0.5366  -0.4641  -0.4083
    -0.3916  -0.3756  -0.3568  -0.3483  -0.3408  -0.3218  -0.3138  -0.3046
    -0.2961  -0.2922  -0.2205  -0.2101  -0.1973  -0.1890  -0.1512  -0.1439
    -0.1238  -0.1194  -0.1162  -0.0992  -0.0888  -0.0784  -0.0736  -0.0589
    -0.0491  -0.0197   0.0391   0.0500   0.0559   0.1000   0.1031   0.1207
     0.4132   0.4433   0.5064   0.5797   0.7054   0.7867   1.1163   1.3092
     1.3250   1.5270

          k = 0.4000-0.2309 0.0000 ( 51204 PWs)   bands (ev):

   -21.6769 -10.5318  -7.0185  -6.7669  -6.2187  -5.9846  -5.4777  -5.2428
    -4.9999  -4.9776  -4.8844  -4.1757  -4.1133  -4.1010  -4.0615  -4.0344
    -3.9126  -3.9105  -3.8766  -3.7822  -3.7785  -3.7738  -3.6900  -3.6012
    -3.5955  -3.5840  -3.5825  -3.5385  -3.4870  -3.4765  -3.4704  -3.3154
    -3.3111  -3.3030  -3.2869  -3.2649  -3.2632  -3.1678  -3.1560  -3.1459
    -3.1419  -3.1359  -3.0301  -2.9563  -2.9233  -2.8517  -2.8288  -2.8097
    -2.7905  -2.7699  -2.7481  -2.7443  -2.7384  -2.7135  -2.6570  -2.6498
    -2.6252  -2.5895  -2.5826  -2.4707  -2.4395  -2.4334  -2.4203  -2.3792
    -2.3314  -2.3106  -2.3035  -2.2890  -2.2504  -2.1956  -2.1570  -2.1522
    -2.1484  -2.1408  -2.1179  -2.1098  -2.1045  -2.0947  -2.0644  -2.0311
    -2.0161  -1.9941  -1.9785  -1.9493  -1.9397  -1.9172  -1.8627  -1.8345
    -1.8217  -1.8170  -1.7945  -1.7836  -1.7421  -1.7198  -1.7135  -1.7085
    -1.6932  -1.6768  -1.6674  -1.6465  -1.6428  -1.6257  -1.6060  -1.5978
    -1.5835  -1.5737  -1.5227  -1.4760  -1.4570  -1.4453  -1.4156  -1.4042
    -1.3925  -1.3767  -1.3465  -1.3047  -1.2934  -1.2811  -1.2764  -1.2710
    -1.2647  -1.2548  -1.2512  -1.2448  -1.2365  -1.2331  -1.2204  -1.2045
    -1.1846  -1.1675  -1.1158  -1.0725  -1.0444  -1.0326  -1.0184  -0.9940
    -0.9794  -0.9432  -0.9201  -0.8961  -0.8878  -0.8416  -0.8290  -0.7782
    -0.7654  -0.7369  -0.7124  -0.6960  -0.6839  -0.6701  -0.6437  -0.6071
    -0.5703  -0.5138  -0.5051  -0.4915  -0.4864  -0.4828  -0.4754  -0.4682
    -0.4553  -0.4435  -0.3938  -0.3468  -0.3416  -0.3251  -0.3179  -0.3127
    -0.3022  -0.2803  -0.2755  -0.2683  -0.2504  -0.2450  -0.1668  -0.1449
    -0.1387  -0.1342  -0.1084  -0.0918  -0.0461  -0.0360  -0.0084   0.0107
     0.0283   0.0744   0.0772   0.0973   0.1001   0.1038   0.1253   0.1328
     0.2099   0.2251   0.2676   0.9501   1.0784   1.2115   1.3342   1.3618
     1.5359   1.7115

          k = 0.4000 0.0000 0.0000 ( 51202 PWs)   bands (ev):

   -21.6769 -10.5322  -7.1141  -6.8100  -6.0670  -5.7062  -5.6919  -5.4794
    -5.2409  -4.5687  -4.5366  -4.2860  -4.2749  -4.2315  -4.0592  -4.0545
    -3.9654  -3.9630  -3.9573  -3.8251  -3.8021  -3.6863  -3.6794  -3.6153
    -3.5670  -3.4796  -3.4710  -3.4537  -3.4291  -3.4251  -3.4167  -3.3947
    -3.3715  -3.3578  -3.3467  -3.3073  -3.2623  -3.2319  -3.2190  -3.1007
    -3.0907  -3.0032  -2.9929  -2.9636  -2.9494  -2.9425  -2.8626  -2.8364
    -2.7945  -2.7662  -2.7614  -2.7577  -2.7073  -2.6961  -2.6806  -2.6729
    -2.6565  -2.5657  -2.5397  -2.4816  -2.4738  -2.4616  -2.4370  -2.4154
    -2.4135  -2.2971  -2.2719  -2.2137  -2.2012  -2.1722  -2.1518  -2.1344
    -2.1143  -2.1048  -2.1010  -2.0804  -2.0685  -2.0543  -2.0469  -2.0322
    -2.0106  -1.9940  -1.9361  -1.9098  -1.8596  -1.8532  -1.8332  -1.8159
    -1.7972  -1.7879  -1.7645  -1.7452  -1.7358  -1.7034  -1.6949  -1.6922
    -1.6798  -1.6750  -1.6617  -1.6474  -1.6410  -1.6272  -1.6155  -1.5965
    -1.5861  -1.5546  -1.5324  -1.5165  -1.5024  -1.5004  -1.4653  -1.4563
    -1.4332  -1.4218  -1.4184  -1.3894  -1.3639  -1.3496  -1.3269  -1.2891
    -1.2829  -1.2798  -1.2734  -1.2509  -1.2384  -1.2351  -1.2156  -1.1824
    -1.1263  -1.1107  -1.1085  -1.0699  -0.9902  -0.9841  -0.9659  -0.8904
    -0.8611  -0.8418  -0.8363  -0.8234  -0.8154  -0.8052  -0.7923  -0.7866
    -0.7563  -0.7452  -0.7200  -0.6859  -0.6783  -0.6669  -0.6462  -0.6359
    -0.6168  -0.6042  -0.5680  -0.5576  -0.5524  -0.5397  -0.4705  -0.4005
    -0.3921  -0.3692  -0.3569  -0.3487  -0.3347  -0.3213  -0.3151  -0.3035
    -0.2983  -0.2896  -0.2224  -0.2082  -0.1999  -0.1898  -0.1546  -0.1492
    -0.1210  -0.1201  -0.1131  -0.1039  -0.0850  -0.0799  -0.0754  -0.0540
    -0.0444  -0.0262   0.0403   0.0491   0.0540   0.0996   0.1030   0.1141
     0.4333   0.4427   0.5053   0.5610   0.7568   0.7696   1.0243   1.2754
     1.3371   1.4836

          k = 0.4000 0.2309 0.0000 ( 51204 PWs)   bands (ev):

   -21.6769 -10.5320  -7.0209  -6.7654  -6.2132  -5.9835  -5.4663  -5.2622
    -4.9988  -4.9709  -4.8957  -4.1777  -4.1061  -4.1027  -4.0596  -4.0354
    -3.9135  -3.9094  -3.8768  -3.7827  -3.7796  -3.7747  -3.6932  -3.6015
    -3.5969  -3.5838  -3.5818  -3.5397  -3.4885  -3.4763  -3.4672  -3.3142
    -3.3098  -3.2996  -3.2843  -3.2669  -3.2589  -3.1614  -3.1506  -3.1465
    -3.1406  -3.1354  -3.0194  -2.9612  -2.9318  -2.8620  -2.8348  -2.8096
    -2.7957  -2.7667  -2.7499  -2.7431  -2.7391  -2.7232  -2.6526  -2.6483
    -2.6278  -2.5957  -2.5810  -2.4732  -2.4350  -2.4306  -2.4243  -2.3787
    -2.3338  -2.3129  -2.3031  -2.2900  -2.2465  -2.1962  -2.1613  -2.1527
    -2.1456  -2.1418  -2.1221  -2.1093  -2.0993  -2.0972  -2.0818  -2.0301
    -2.0061  -1.9925  -1.9758  -1.9440  -1.9221  -1.9184  -1.8712  -1.8306
    -1.8233  -1.8192  -1.7925  -1.7766  -1.7347  -1.7151  -1.7077  -1.7064
    -1.6894  -1.6791  -1.6657  -1.6439  -1.6371  -1.6269  -1.6070  -1.5933
    -1.5843  -1.5678  -1.5241  -1.4906  -1.4558  -1.4427  -1.4208  -1.4115
    -1.3856  -1.3712  -1.3457  -1.3102  -1.2944  -1.2855  -1.2768  -1.2739
    -1.2676  -1.2598  -1.2491  -1.2448  -1.2424  -1.2305  -1.2194  -1.2015
    -1.1891  -1.1538  -1.1213  -1.0725  -1.0443  -1.0322  -1.0205  -0.9930
    -0.9656  -0.9529  -0.9176  -0.9084  -0.8901  -0.8397  -0.8311  -0.7888
    -0.7669  -0.7328  -0.7158  -0.6950  -0.6812  -0.6634  -0.6342  -0.6028
    -0.5752  -0.5182  -0.5093  -0.4923  -0.4885  -0.4796  -0.4748  -0.4674
    -0.4593  -0.4368  -0.3973  -0.3437  -0.3361  -0.3279  -0.3188  -0.3127
    -0.3050  -0.2755  -0.2721  -0.2661  -0.2543  -0.2456  -0.1627  -0.1446
    -0.1396  -0.1375  -0.1099  -0.0912  -0.0448  -0.0372  -0.0076   0.0127
     0.0278   0.0747   0.0763   0.0989   0.1003   0.1028   0.1229   0.1367
     0.2084   0.2206   0.2667   0.9270   1.0743   1.2065   1.3321   1.3594
     1.5655   1.6946

          k = 0.4000-0.6928 0.0000 ( 51262 PWs)   bands (ev):

   -21.6769 -10.5316  -6.9332  -6.4730  -6.4279  -5.9945  -5.7558  -5.3147
    -5.1683  -5.0276  -4.5831  -4.2601  -4.0230  -3.9822  -3.8855  -3.8466
    -3.8371  -3.8273  -3.8158  -3.7947  -3.7370  -3.7311  -3.7282  -3.7213
    -3.6452  -3.6341  -3.5804  -3.5756  -3.5500  -3.5463  -3.4330  -3.4108
    -3.3945  -3.3892  -3.3644  -3.3304  -3.2420  -3.2242  -3.1270  -3.0998
    -3.0966  -3.0335  -3.0131  -2.9964  -2.9664  -2.9044  -2.8856  -2.8769
    -2.8205  -2.8078  -2.7430  -2.7050  -2.6743  -2.6626  -2.6220  -2.6009
    -2.5420  -2.5198  -2.5081  -2.4977  -2.4940  -2.4633  -2.4495  -2.3801
    -2.3324  -2.3021  -2.2960  -2.2851  -2.2528  -2.2226  -2.1913  -2.1657
    -2.1411  -2.1183  -2.1098  -2.1029  -2.0889  -2.0756  -2.0405  -2.0281
    -2.0174  -2.0079  -2.0007  -1.9702  -1.9675  -1.9353  -1.8943  -1.8786
    -1.8670  -1.8581  -1.7950  -1.7900  -1.7532  -1.7290  -1.7125  -1.7025
    -1.6844  -1.6797  -1.6712  -1.6633  -1.6562  -1.6270  -1.6173  -1.5974
    -1.5411  -1.5314  -1.5242  -1.5197  -1.5004  -1.4970  -1.4944  -1.4816
    -1.4766  -1.4660  -1.4475  -1.4305  -1.4097  -1.3768  -1.3628  -1.3435
    -1.2886  -1.2789  -1.2339  -1.2217  -1.2138  -1.2059  -1.1938  -1.1423
    -1.1216  -1.1133  -1.1036  -1.0496  -1.0040  -0.9806  -0.9648  -0.9507
    -0.9326  -0.9209  -0.9088  -0.8977  -0.8631  -0.8511  -0.8168  -0.8032
    -0.7823  -0.7636  -0.7461  -0.7376  -0.7181  -0.6907  -0.6586  -0.6476
    -0.6378  -0.6290  -0.6150  -0.5965  -0.5707  -0.5489  -0.5282  -0.4680
    -0.3620  -0.3497  -0.3447  -0.3388  -0.3327  -0.3222  -0.3155  -0.3003
    -0.2690  -0.2615  -0.2524  -0.2412  -0.2178  -0.1892  -0.1244  -0.1209
    -0.1082  -0.0907  -0.0760  -0.0658  -0.0318  -0.0161  -0.0109  -0.0025
     0.0000   0.0767   0.0813   0.0866   0.1025   0.1085   0.1301   0.1576
     0.1972   0.4779   0.5328   0.8111   1.2184   1.3848   1.4821   1.7264
     1.8351   1.8938

          k = 0.4000-0.4619 0.0000 ( 51262 PWs)   bands (ev):

   -21.6769 -10.5315  -6.9310  -6.4744  -6.4330  -5.9903  -5.7565  -5.3425
    -5.1367  -5.0215  -4.5921  -4.2606  -4.0221  -3.9818  -3.8817  -3.8457
    -3.8379  -3.8279  -3.8168  -3.7919  -3.7387  -3.7299  -3.7276  -3.7220
    -3.6454  -3.6321  -3.5807  -3.5757  -3.5503  -3.5473  -3.4351  -3.4136
    -3.3942  -3.3891  -3.3670  -3.3313  -3.2396  -3.2280  -3.1292  -3.1047
    -3.0981  -3.0329  -3.0116  -2.9994  -2.9689  -2.8951  -2.8832  -2.8778
    -2.8101  -2.8053  -2.7473  -2.7017  -2.6775  -2.6595  -2.6177  -2.6046
    -2.5429  -2.5184  -2.5084  -2.4978  -2.4938  -2.4559  -2.4463  -2.3891
    -2.3302  -2.3056  -2.2945  -2.2827  -2.2582  -2.2211  -2.1965  -2.1620
    -2.1401  -2.1181  -2.1072  -2.1032  -2.0867  -2.0708  -2.0392  -2.0275
    -2.0224  -2.0101  -1.9948  -1.9701  -1.9663  -1.9415  -1.8974  -1.8840
    -1.8696  -1.8460  -1.8039  -1.7899  -1.7483  -1.7342  -1.7189  -1.7008
    -1.6907  -1.6773  -1.6707  -1.6680  -1.6580  -1.6414  -1.6130  -1.6030
    -1.5439  -1.5298  -1.5241  -1.5187  -1.5083  -1.4965  -1.4932  -1.4839
    -1.4737  -1.4681  -1.4516  -1.4232  -1.4081  -1.3692  -1.3642  -1.3387
    -1.2839  -1.2688  -1.2397  -1.2178  -1.2151  -1.2019  -1.1904  -1.1459
    -1.1169  -1.1136  -1.0998  -1.0460  -1.0123  -0.9807  -0.9609  -0.9435
    -0.9426  -0.9243  -0.9102  -0.8946  -0.8665  -0.8533  -0.8234  -0.8010
    -0.7731  -0.7619  -0.7474  -0.7376  -0.7155  -0.6958  -0.6650  -0.6514
    -0.6358  -0.6236  -0.6130  -0.6022  -0.5736  -0.5525  -0.5220  -0.4625
    -0.3605  -0.3498  -0.3462  -0.3391  -0.3305  -0.3216  -0.3151  -0.3062
    -0.2656  -0.2628  -0.2502  -0.2406  -0.2166  -0.1928  -0.1246  -0.1208
    -0.1096  -0.0923  -0.0752  -0.0684  -0.0279  -0.0143  -0.0118  -0.0046
     0.0037   0.0731   0.0804   0.0888   0.1022   0.1067   0.1323   0.1601
     0.1972   0.4749   0.5374   0.8034   1.2440   1.3829   1.4848   1.7109
     1.8434   1.9051

 ------ SPIN DOWN ----------


          k = 0.0000 0.0000 0.0000 ( 51087 PWs)   bands (ev):

   -21.6785 -10.5545  -7.6425  -6.8267  -6.3109  -5.6905  -5.2827  -4.4450
    -4.4183  -4.4139  -4.4124  -4.4052  -4.3953  -4.2940  -3.5466  -3.5410
    -3.5372  -3.5237  -3.5170  -3.5030  -3.3860  -2.5995  -2.5948  -2.5893
    -2.5830  -2.5737  -2.5241  -2.1747  -2.1325  -2.1304  -2.1242  -2.1189
    -2.1140  -1.9386  -1.9241  -1.8658  -1.8497  -1.8376  -1.8306  -1.8113
    -1.7398  -1.7361  -1.6893  -1.6851  -1.6300  -1.5920  -1.5864  -1.5760
    -1.5613  -1.4797  -1.3647  -1.3314  -1.3151  -1.3088  -1.2945  -1.2923
    -1.2870  -1.2861  -1.2751  -1.2395  -1.2300  -1.2118  -1.2100  -1.2048
    -1.1918  -1.0667  -0.7244  -0.6493  -0.6370  -0.6308  -0.6291  -0.4763
    -0.4389  -0.3456  -0.3159  -0.3082  -0.3054  -0.2982  -0.2893  -0.2796
    -0.2508  -0.2277  -0.2161  -0.2115  -0.2092  -0.2045  -0.1798  -0.1472
    -0.1237  -0.1193  -0.1072  -0.1059  -0.0760  -0.0565  -0.0506  -0.0500
    -0.0456  -0.0430  -0.0212  -0.0201  -0.0176  -0.0158   0.0497   0.0819
     0.1194   0.1417   0.1536   0.1598   0.1914   0.2023   0.2078   0.2098
     0.2122   0.2144   0.2172   0.2180   0.2880   0.2889   0.3484   0.3681
     0.3809   0.3944   0.3979   0.4052   0.5882   0.5982   0.6277   0.6519
     0.6793   0.6856   0.6957   0.6966   0.7384   0.9748   0.9917   1.0361
     1.0371   1.1633   1.1988   1.2166   1.2406   1.2534   1.2611   1.2638
     1.3619   1.3992   1.4202   1.4260   1.4327   1.4348   1.4482   1.4595
     1.4777   1.4888   1.5157   1.5203   1.5359   1.5541   1.5657   1.5789
     1.5851   1.5864   1.5884   1.6059   1.6401   1.6603   1.6672   1.6697
     1.6889   1.7021   1.7064   1.7111   1.7139   1.7173   1.7232   1.7595
     1.7606   1.7830   1.7869   1.7952   1.8042   1.8057   1.8129   1.8130
     1.8469   1.8516   1.8563   1.8568   1.8614   1.8634   1.8711   1.8737
     1.8842   1.8978   1.9363   1.9375   2.0840   2.0902   2.0920   2.0951
     2.0957   2.0970

          k = 0.0000 0.2309 0.0000 ( 51134 PWs)   bands (ev):

   -21.6785 -10.5536  -7.4961  -6.8081  -6.2265  -5.7014  -5.3729  -5.2449
    -4.8011  -4.7923  -4.2805  -4.1344  -3.8689  -3.8648  -3.7754  -3.7524
    -3.5720  -3.3251  -3.1937  -3.1865  -3.0802  -2.8070  -2.6101  -2.5962
    -2.5325  -2.4906  -2.4795  -2.2682  -2.1746  -2.1657  -2.1548  -2.1248
    -2.1166  -2.0746  -2.0673  -2.0468  -2.0330  -1.9212  -1.8847  -1.8303
    -1.8019  -1.7942  -1.6966  -1.6581  -1.6123  -1.6022  -1.5871  -1.4860
    -1.4641  -1.4263  -1.3944  -1.3716  -1.3441  -1.3253  -1.3059  -1.2966
    -1.2920  -1.2783  -1.2141  -1.1772  -1.1635  -1.1470  -1.1183  -1.1047
    -1.0335  -0.9693  -0.7833  -0.6982  -0.6840  -0.6748  -0.6305  -0.5736
    -0.5409  -0.5196  -0.4702  -0.4508  -0.3517  -0.3339  -0.3274  -0.3085
    -0.2850  -0.2753  -0.2656  -0.2492  -0.2438  -0.2309  -0.1920  -0.1554
    -0.1245  -0.1077  -0.0998  -0.0908  -0.0738  -0.0490  -0.0377  -0.0202
    -0.0141  -0.0092  -0.0008   0.0025   0.0061   0.0100   0.0323   0.0519
     0.0894   0.0955   0.1049   0.1060   0.1404   0.1530   0.1711   0.1737
     0.2130   0.2338   0.2399   0.2731   0.3122   0.3187   0.3240   0.3547
     0.4746   0.5055   0.5551   0.5664   0.5959   0.6049   0.6204   0.6448
     0.6555   0.6629   0.6700   0.6771   0.8504   0.9488   0.9907   1.0020
     1.0108   1.0224   1.0413   1.0493   1.0992   1.1271   1.1691   1.1919
     1.2082   1.2619   1.2825   1.3009   1.3304   1.3379   1.3700   1.3875
     1.4267   1.4505   1.4727   1.4908   1.4993   1.5169   1.5393   1.5456
     1.5683   1.5892   1.6280   1.6394   1.6558   1.6760   1.6843   1.7050
     1.7389   1.7470   1.7496   1.7542   1.7800   1.7812   1.8318   1.8393
     1.8433   1.8463   1.8875   1.8943   1.9032   1.9195   1.9372   1.9424
     1.9556   1.9828   1.9922   1.9962   2.0232   2.0284   2.0292   2.0564
     2.0616   2.0817   2.0842   2.1046   2.1737   2.1905   2.1944   2.2289
     2.2632   2.2828

          k = 0.0000 0.4619 0.0000 ( 51204 PWs)   bands (ev):

   -21.6785 -10.5522  -7.0873  -6.7728  -6.3251  -6.0107  -5.5482  -5.2294
    -5.0110  -5.0042  -4.8503  -3.9266  -3.9030  -3.8152  -3.3090  -3.2492
    -3.2451  -3.1285  -2.9878  -2.9206  -2.8033  -2.7956  -2.6511  -2.6443
    -2.5942  -2.5832  -2.5266  -2.5085  -2.4086  -2.3987  -2.3536  -2.3288
    -2.3232  -2.1297  -2.1092  -2.0334  -2.0294  -1.9491  -1.9129  -1.9089
    -1.8942  -1.8796  -1.7031  -1.6326  -1.5983  -1.5699  -1.5559  -1.5372
    -1.3925  -1.3767  -1.3573  -1.3548  -1.3430  -1.3139  -1.3090  -1.2972
    -1.2644  -1.2008  -1.1925  -1.1829  -1.1644  -1.1330  -1.0186  -0.9546
    -0.8810  -0.8322  -0.7733  -0.7355  -0.7058  -0.6749  -0.6508  -0.6340
    -0.6188  -0.6061  -0.5752  -0.5421  -0.5137  -0.4761  -0.4622  -0.4249
    -0.3992  -0.3755  -0.3535  -0.3428  -0.3337  -0.2965  -0.2342  -0.2026
    -0.1627  -0.1506  -0.1295  -0.0879  -0.0685  -0.0502  -0.0358   0.0006
     0.0146   0.0297   0.0407   0.0567   0.0623   0.0657   0.0720   0.1069
     0.1192   0.1503   0.1555   0.1607   0.1699   0.1731   0.1980   0.2083
     0.2228   0.2428   0.2770   0.3635   0.3704   0.3808   0.4105   0.4243
     0.4270   0.4467   0.4545   0.5182   0.5322   0.5433   0.5708   0.5793
     0.6011   0.6243   0.6395   0.6424   0.6811   0.7616   0.8260   0.8368
     0.8654   0.9169   0.9533   1.0433   1.0715   1.0761   1.1008   1.1145
     1.1202   1.1595   1.1872   1.2069   1.2160   1.2695   1.3125   1.3960
     1.4075   1.4310   1.4572   1.4846   1.5024   1.5160   1.5422   1.5559
     1.5917   1.6037   1.6324   1.6782   1.7050   1.7191   1.7258   1.7552
     1.7645   1.7727   1.8012   1.8233   1.8379   1.8459   1.8498   1.8832
     1.8950   1.9329   1.9571   1.9843   2.0026   2.0230   2.0287   2.0420
     2.0490   2.0690   2.0822   2.0868   2.0924   2.1175   2.1227   2.1279
     2.1297   2.1727   2.2727   2.3385   2.3497   2.4569   2.5312   2.7806
     2.8483   2.8871

          k = 0.2000-0.1155 0.0000 ( 51134 PWs)   bands (ev):

   -21.6785 -10.5540  -7.4956  -6.8088  -6.2204  -5.6830  -5.3892  -5.2603
    -4.7951  -4.7830  -4.2799  -4.1715  -3.8697  -3.8627  -3.7732  -3.7214
    -3.5768  -3.3270  -3.1945  -3.1709  -3.0923  -2.8272  -2.6067  -2.5785
    -2.5412  -2.4930  -2.4714  -2.2564  -2.1769  -2.1652  -2.1584  -2.1428
    -2.1192  -2.0736  -2.0672  -2.0473  -2.0303  -1.9132  -1.8853  -1.8512
    -1.8014  -1.7912  -1.7318  -1.6356  -1.6085  -1.6009  -1.5646  -1.5028
    -1.4573  -1.4232  -1.3856  -1.3676  -1.3430  -1.3238  -1.3050  -1.2987
    -1.2906  -1.2474  -1.2224  -1.1812  -1.1615  -1.1465  -1.1244  -1.1048
    -1.0400  -0.9633  -0.7804  -0.6955  -0.6857  -0.6714  -0.6418  -0.5760
    -0.5457  -0.5164  -0.4664  -0.4510  -0.3595  -0.3323  -0.3197  -0.3099
    -0.2839  -0.2747  -0.2664  -0.2502  -0.2344  -0.2280  -0.1912  -0.1595
    -0.1319  -0.1053  -0.0998  -0.0856  -0.0755  -0.0488  -0.0368  -0.0191
    -0.0166  -0.0085   0.0006   0.0023   0.0090   0.0108   0.0261   0.0534
     0.0883   0.0947   0.1054   0.1091   0.1379   0.1523   0.1610   0.1771
     0.2186   0.2303   0.2573   0.2783   0.3057   0.3218   0.3253   0.3557
     0.4830   0.4904   0.5483   0.5631   0.5769   0.6159   0.6216   0.6302
     0.6484   0.6664   0.6744   0.6761   0.8478   0.9511   0.9764   1.0025
     1.0048   1.0233   1.0417   1.0477   1.0840   1.1054   1.1827   1.1930
     1.1999   1.2738   1.2835   1.3080   1.3237   1.3462   1.3716   1.3741
     1.4281   1.4667   1.4811   1.4890   1.4962   1.5171   1.5421   1.5446
     1.5739   1.5928   1.6263   1.6484   1.6646   1.6784   1.6879   1.7100
     1.7324   1.7443   1.7503   1.7582   1.7706   1.7790   1.8288   1.8366
     1.8431   1.8469   1.8908   1.8962   1.9032   1.9195   1.9334   1.9448
     1.9524   1.9882   1.9930   1.9962   2.0227   2.0269   2.0331   2.0493
     2.0568   2.0829   2.0877   2.1024   2.1774   2.1864   2.1944   2.2123
     2.2657   2.2835

          k = 0.2000 0.1155 0.0000 ( 51134 PWs)   bands (ev):

   -21.6785 -10.5541  -7.4956  -6.8093  -6.2186  -5.6798  -5.3790  -5.2790
    -4.7897  -4.7826  -4.2817  -4.1778  -3.8691  -3.8636  -3.7672  -3.7193
    -3.5781  -3.3266  -3.1936  -3.1730  -3.0924  -2.8298  -2.6054  -2.5753
    -2.5384  -2.4944  -2.4739  -2.2571  -2.1836  -2.1604  -2.1558  -2.1366
    -2.1193  -2.0738  -2.0670  -2.0426  -2.0315  -1.9167  -1.8848  -1.8471
    -1.8018  -1.7949  -1.7312  -1.6565  -1.6111  -1.6029  -1.5422  -1.4829
    -1.4676  -1.4354  -1.3924  -1.3722  -1.3440  -1.3122  -1.3074  -1.2980
    -1.2910  -1.2531  -1.2264  -1.1881  -1.1612  -1.1417  -1.1227  -1.1037
    -1.0346  -0.9550  -0.7923  -0.6947  -0.6847  -0.6607  -0.6338  -0.5827
    -0.5531  -0.5244  -0.4580  -0.4479  -0.3605  -0.3262  -0.3231  -0.3106
    -0.2766  -0.2723  -0.2659  -0.2494  -0.2387  -0.2211  -0.2066  -0.1648
    -0.1246  -0.1048  -0.0986  -0.0939  -0.0773  -0.0473  -0.0355  -0.0208
    -0.0162  -0.0082  -0.0040   0.0017   0.0041   0.0164   0.0295   0.0537
     0.0902   0.0942   0.1082   0.1098   0.1354   0.1535   0.1686   0.1727
     0.2170   0.2277   0.2538   0.2768   0.3102   0.3167   0.3257   0.3554
     0.4852   0.5091   0.5380   0.5635   0.5835   0.6138   0.6223   0.6349
     0.6476   0.6622   0.6741   0.6773   0.8346   0.9500   0.9793   0.9939
     1.0055   1.0229   1.0389   1.0471   1.0853   1.1175   1.1798   1.2006
     1.2061   1.2682   1.2814   1.3118   1.3333   1.3382   1.3703   1.3759
     1.4303   1.4597   1.4799   1.4883   1.4959   1.5184   1.5394   1.5465
     1.5656   1.5969   1.6243   1.6382   1.6592   1.6802   1.6921   1.7222
     1.7376   1.7460   1.7481   1.7575   1.7693   1.7774   1.8325   1.8362
     1.8397   1.8459   1.8879   1.8970   1.9053   1.9203   1.9298   1.9443
     1.9529   1.9904   1.9925   1.9992   2.0229   2.0285   2.0323   2.0514
     2.0570   2.0827   2.0861   2.1024   2.1727   2.1884   2.1980   2.2101
     2.2670   2.2827

          k = 0.2000 0.3464 0.0000 ( 51202 PWs)   bands (ev):

   -21.6785 -10.5530  -7.2149  -6.7838  -6.0953  -5.8089  -5.7655  -5.4905
    -5.2568  -4.5461  -4.4334  -4.0614  -4.0505  -3.9554  -3.2290  -3.2202
    -3.2171  -3.2102  -3.1018  -3.0220  -2.9407  -2.9083  -2.8748  -2.5457
    -2.4765  -2.4663  -2.4541  -2.3831  -2.3708  -2.3470  -2.2719  -2.2587
    -2.2463  -2.2435  -2.2322  -2.1003  -2.0499  -1.9180  -1.8840  -1.8678
    -1.8303  -1.7921  -1.7426  -1.7315  -1.6389  -1.5653  -1.5223  -1.5033
    -1.4437  -1.3848  -1.3515  -1.3468  -1.3374  -1.3220  -1.3075  -1.2809
    -1.2674  -1.2428  -1.2068  -1.1707  -1.1206  -1.0636  -1.0091  -0.9637
    -0.8920  -0.8751  -0.7794  -0.7522  -0.6671  -0.6487  -0.6295  -0.5982
    -0.5795  -0.5705  -0.5542  -0.5315  -0.4769  -0.4594  -0.4391  -0.4200
    -0.4139  -0.3846  -0.3748  -0.3662  -0.3165  -0.2424  -0.2050  -0.1904
    -0.1775  -0.1612  -0.1233  -0.1050  -0.0896  -0.0747  -0.0562  -0.0473
    -0.0239  -0.0160  -0.0010   0.0201   0.0283   0.0365   0.0742   0.0840
     0.0989   0.1049   0.1149   0.1438   0.1520   0.1594   0.1769   0.1798
     0.1953   0.2694   0.2797   0.2891   0.4003   0.4128   0.4282   0.4558
     0.4686   0.4925   0.5139   0.5678   0.5793   0.5941   0.5993   0.6104
     0.6174   0.6298   0.6828   0.7085   0.7487   0.7939   0.9066   0.9137
     0.9703   1.0097   1.0384   1.0599   1.0699   1.0825   1.1003   1.1084
     1.1210   1.1424   1.1526   1.1813   1.2104   1.2373   1.2958   1.3227
     1.3480   1.3586   1.3770   1.4082   1.4207   1.4415   1.4921   1.5022
     1.5519   1.5978   1.6816   1.7101   1.7234   1.7378   1.7573   1.7697
     1.7890   1.7953   1.8075   1.8201   1.8277   1.8826   1.8924   1.9020
     1.9085   1.9404   1.9498   1.9554   1.9752   1.9996   2.0030   2.0244
     2.0344   2.0431   2.0464   2.0703   2.0752   2.0956   2.1220   2.1453
     2.1704   2.1841   2.2593   2.3004   2.3356   2.4168   2.4564   2.5687
     2.7126   2.7638

          k = 0.2000-0.5774 0.0000 ( 51262 PWs)   bands (ev):

   -21.6785 -10.5523  -6.8968  -6.5957  -6.5320  -5.9953  -5.8332  -5.4579
    -5.0829  -5.0382  -4.5892  -4.1176  -3.5759  -3.4614  -3.2510  -3.2463
    -3.2269  -3.0399  -2.9976  -2.8393  -2.8342  -2.8288  -2.6944  -2.6876
    -2.6845  -2.6624  -2.6510  -2.6447  -2.4549  -2.3212  -2.2980  -2.2876
    -2.2753  -2.2639  -2.2189  -2.2058  -2.1119  -2.0908  -1.9054  -1.8038
    -1.7658  -1.7493  -1.7453  -1.6722  -1.6372  -1.5512  -1.5156  -1.5088
    -1.4639  -1.4534  -1.4399  -1.3350  -1.3117  -1.2849  -1.2706  -1.2628
    -1.2121  -1.1577  -1.1231  -1.1142  -1.0602  -1.0288  -1.0227  -0.9272
    -0.9042  -0.8427  -0.7578  -0.7281  -0.7154  -0.6905  -0.6552  -0.6472
    -0.5987  -0.5819  -0.5591  -0.5274  -0.4899  -0.4784  -0.4426  -0.4259
[...]
     atom    9 type  1   force =     0.00176717   -0.00120731   -0.10542315
     atom   10 type  1   force =    -0.00076878    0.00038797   -0.00858008
     atom   11 type  1   force =     0.00193679    0.00046868   -0.01058911
     atom   12 type  1   force =    -0.00103796    0.00004752   -0.00963461
     atom   13 type  1   force =    -0.00010218   -0.00132625   -0.00994978
     atom   14 type  1   force =    -0.00013478   -0.00005701   -0.01005001
     atom   15 type  1   force =     0.00065862    0.00022957   -0.01195560
     atom   16 type  1   force =     0.00192880    0.00042586   -0.01146206
     atom   17 type  1   force =    -0.00099446   -0.00142647   -0.01079477
     atom   18 type  1   force =    -0.00124565    0.00108858   -0.00943942
     atom   19 type  1   force =     0.00223385    0.00664630    0.00552825
     atom   20 type  1   force =    -0.00346011    0.00547829    0.01007582
     atom   21 type  1   force =     0.00084929   -0.00127086    0.01737651
     atom   22 type  1   force =     0.00039205   -0.00022267    0.01837118
     atom   23 type  1   force =    -0.00044113   -0.00033492    0.01333216
     atom   24 type  1   force =     0.00109998    0.00130338    0.01694218
     atom   25 type  1   force =    -0.00641543   -0.00211906    0.00444842
     atom   26 type  1   force =     0.00120534   -0.00643085    0.00245774
     atom   27 type  1   force =     0.00424735   -0.00353545    0.00725515
     atom   28 type  1   force =     0.04919418   -0.01365992    0.16996601
     atom   29 type  1   force =     0.01418810    0.00146703    0.16463516
     atom   30 type  1   force =    -0.00333457   -0.00013069    0.12614484
     atom   31 type  1   force =    -0.00612045   -0.02784271    0.13246235
     atom   32 type  1   force =    -0.00200782   -0.00475167    0.11187763
     atom   33 type  1   force =     0.00299158   -0.00406204    0.11004255
     atom   34 type  1   force =     0.00812230    0.01144186    0.12223208
     atom   35 type  1   force =    -0.01490762    0.04154843    0.14786485
     atom   36 type  1   force =    -0.00487442    0.00319997    0.11275387
     atom   37 type  2   force =    -0.23552875   -0.02387258    0.21402064
     atom   38 type  3   force =     2.05257041    0.24036472   -1.63693912
     atom   39 type  4   force =    -0.06001629   -0.00741155   -0.03392557
     The ionic contribution  to forces
     atom    1 type  1   force =    -0.00538897    0.00829345 -111.16223688
     atom    2 type  1   force =     0.00591113    0.00755036 -111.16119508
     atom    3 type  1   force =    -0.00052214    0.00238478 -111.15047816
     atom    4 type  1   force =    -0.00038221    0.00217125 -111.14992550
     atom    5 type  1   force =    -0.00174715   -0.00584652 -111.15413285
     atom    6 type  1   force =     0.00212936   -0.00502033 -111.15336885
     atom    7 type  1   force =    -0.00804040   -0.00249052 -111.15882455
     atom    8 type  1   force =     0.00090686   -0.00463160 -111.17315913
     atom    9 type  1   force =     0.00713352   -0.00241088 -111.15701002
     atom   10 type  1   force =    -0.05375917    0.00878931  -40.21237578
     atom   11 type  1   force =     0.06002575    0.00703414  -40.19989914
     atom   12 type  1   force =    -0.00626037    0.00346716  -40.09350127
     atom   13 type  1   force =     0.00167847    0.06718513  -40.13042882
     atom   14 type  1   force =     0.02276060    0.01382617  -40.08130188
     atom   15 type  1   force =    -0.02444092    0.02000035  -40.08465597
     atom   16 type  1   force =    -0.03304134   -0.02684390  -40.09372371
     atom   17 type  1   force =     0.00457462   -0.07127925  -40.15104571
     atom   18 type  1   force =     0.02846474   -0.02217776  -40.08462793
     atom   19 type  1   force =    -0.27214741    0.42639694   31.14273922
     atom   20 type  1   force =     0.29857164    0.39041628   31.19254838
     atom   21 type  1   force =    -0.02588638    0.10489355   31.68481135
     atom   22 type  1   force =    -0.01800297    0.09309126   31.71052651
     atom   23 type  1   force =    -0.08378852   -0.27905680   31.53566340
     atom   24 type  1   force =     0.10183691   -0.23623217   31.57281761
     atom   25 type  1   force =    -0.40052303   -0.11966333   31.30505172
     atom   26 type  1   force =     0.04592128   -0.26636407   30.51939829
     atom   27 type  1   force =     0.35352178   -0.11583836   31.39969018
     atom   28 type  1   force =    -3.76113862    0.70048726   97.74487064
     atom   29 type  1   force =     4.37364466    0.50429306   98.33194082
     atom   30 type  1   force =    -0.30545540    0.10683370  103.95786225
     atom   31 type  1   force =     0.08474058    2.88587233  102.91946639
     atom   32 type  1   force =     0.70370752    0.50729684  104.26006658
     atom   33 type  1   force =    -0.79638268    0.77512111  104.12369016
     atom   34 type  1   force =    -1.17410870   -1.07151166  103.82955887
     atom   35 type  1   force =     0.25350903   -3.46394747  102.08800169
     atom   36 type  1   force =     0.91571751   -0.77994101  104.18882420
     atom   37 type  2   force =     5.21002311    0.48514703   54.45180779
     atom   38 type  3   force =    -7.69944272   -0.91442753   88.57638870
     atom   39 type  4   force =     2.19568003    0.26713174   15.01616650
     The local contribution  to forces
     atom    1 type  1   force =     0.00331271   -0.00900562  111.26817840
     atom    2 type  1   force =    -0.00489645   -0.00887930  111.26904241
     atom    3 type  1   force =     0.00144874   -0.00064799  111.25509208
     atom    4 type  1   force =     0.00078317   -0.00243399  111.25783882
     atom    5 type  1   force =     0.00215866    0.00717776  111.26344246
     atom    6 type  1   force =    -0.00403591    0.00304138  111.26231359
     atom    7 type  1   force =     0.01097984    0.00242933  111.26455081
     atom    8 type  1   force =    -0.00185171    0.00472933  111.27772624
     atom    9 type  1   force =    -0.00959098    0.00450787  111.26580230
     atom   10 type  1   force =     0.05460009   -0.00966737   40.20035568
     atom   11 type  1   force =    -0.06124753   -0.00751028   40.18790650
     atom   12 type  1   force =     0.00723291   -0.00414710   40.08392318
     atom   13 type  1   force =    -0.00151157   -0.06618735   40.12222158
     atom   14 type  1   force =    -0.02278516   -0.01401842   40.07163874
     atom   15 type  1   force =     0.02381426   -0.02047400   40.07567916
     atom   16 type  1   force =     0.03105151    0.02713817   40.08362034
     atom   17 type  1   force =    -0.00454614    0.07372787   40.14244914
     atom   18 type  1   force =    -0.02646707    0.02178471   40.07446959
     atom   19 type  1   force =     0.26888818   -0.43351630  -31.12771955
     atom   20 type  1   force =    -0.29499386   -0.39284768  -31.18269231
     atom   21 type  1   force =     0.02550444   -0.10262524  -31.68015824
     atom   22 type  1   force =     0.01695943   -0.09340316  -31.70298115
     atom   23 type  1   force =     0.08486472    0.27819866  -31.52620557
     atom   24 type  1   force =    -0.10299605    0.23353809  -31.56708724
     atom   25 type  1   force =     0.40752137    0.12410458  -31.28611057
     atom   26 type  1   force =    -0.04909681    0.27204597  -30.50286772
     atom   27 type  1   force =    -0.35401468    0.11762071  -31.38888019
     atom   28 type  1   force =     3.69085134   -0.68386191  -97.92234911
     atom   29 type  1   force =    -4.37508717   -0.50424635  -98.49319876
     atom   30 type  1   force =     0.30996308   -0.10570015 -104.09825176
     atom   31 type  1   force =    -0.07839882   -2.84317474 -103.06261890
     atom   32 type  1   force =    -0.69626974   -0.49604057 -104.38351992
     atom   33 type  1   force =     0.78877994   -0.76686421 -104.24457674
     atom   34 type  1   force =     1.16094431    1.05446589 -103.96083946
     atom   35 type  1   force =    -0.23662235    3.40578270 -102.24662476
     atom   36 type  1   force =    -0.90477299    0.76875740 -104.31120102
     atom   37 type  2   force =    -4.97582319   -0.46188602  -54.66405383
     atom   38 type  3   force =     5.66328997    0.67606851  -86.95331685
     atom   39 type  4   force =    -2.13565583   -0.25970839  -14.98225639
     The core correction contribution to forces
     atom    1 type  1   force =    -0.00014294   -0.00010062    0.01011808
     atom    2 type  1   force =     0.00003191   -0.00010820    0.01021999
     atom    3 type  1   force =     0.00005535    0.00008968    0.00977884
     atom    4 type  1   force =    -0.00007538   -0.00010994    0.01041479
     atom    5 type  1   force =     0.00016279    0.00015135    0.01014014
     atom    6 type  1   force =    -0.00024484   -0.00012844    0.01000411
     atom    7 type  1   force =     0.00040644    0.00009545    0.01040207
     atom    8 type  1   force =    -0.00034181    0.00001424    0.01013120
     atom    9 type  1   force =    -0.00020157    0.00020321    0.01017353
     atom   10 type  1   force =    -0.00005128    0.00002376   -0.00155628
     atom   11 type  1   force =     0.00000190    0.00014331   -0.00210263
     atom   12 type  1   force =     0.00011667    0.00004529   -0.00168497
     atom   13 type  1   force =     0.00010136    0.00022820   -0.00197259
     atom   14 type  1   force =     0.00007086   -0.00002363   -0.00151573
     atom   15 type  1   force =    -0.00013589   -0.00009065   -0.00183035
     atom   16 type  1   force =    -0.00014353   -0.00010066   -0.00204843
     atom   17 type  1   force =     0.00000697    0.00013215   -0.00162274
     atom   18 type  1   force =     0.00026380   -0.00007089   -0.00186294
     atom   19 type  1   force =    -0.00038250   -0.00019114    0.00092798
     atom   20 type  1   force =    -0.00003767   -0.00019077    0.00107649
     atom   21 type  1   force =     0.00015230   -0.00004462    0.00188841
     atom   22 type  1   force =     0.00014566    0.00021984    0.00220518
     atom   23 type  1   force =    -0.00040148   -0.00030990    0.00161356
     atom   24 type  1   force =    -0.00020595   -0.00030971    0.00182370
     atom   25 type  1   force =    -0.00051536   -0.00002561    0.00130806
     atom   26 type  1   force =     0.00014321    0.00056452    0.00197360
     atom   27 type  1   force =     0.00002596   -0.00009331    0.00120521
     atom   28 type  1   force =     0.01410918   -0.00188626    0.00533109
     atom   29 type  1   force =    -0.01200981   -0.00098712    0.01168356
     atom   30 type  1   force =    -0.00080613   -0.00024858   -0.00881703
     atom   31 type  1   force =     0.00168404   -0.00551087   -0.00796547
     atom   32 type  1   force =    -0.00138319   -0.00191141   -0.00958520
     atom   33 type  1   force =    -0.00001047   -0.00035708   -0.01016130
     atom   34 type  1   force =     0.00014518    0.00054720   -0.00931800
     atom   35 type  1   force =     0.00166104    0.00686990   -0.00643646
     atom   36 type  1   force =    -0.00153753    0.00246939   -0.00908100
     atom   37 type  2   force =     0.00133319    0.00062661   -0.00181206
     atom   38 type  3   force =    -0.01641967   -0.00199391    0.01381634
     atom   39 type  4   force =     0.00000000    0.00000000    0.00000000
     The Hubbard contrib.    to forces
     atom    1 type  1   force =     0.00000000    0.00000000    0.00000000
     atom    2 type  1   force =     0.00000000    0.00000000    0.00000000
     atom    3 type  1   force =     0.00000000    0.00000000    0.00000000
     atom    4 type  1   force =     0.00000000    0.00000000    0.00000000
     atom    5 type  1   force =     0.00000000    0.00000000    0.00000000
     atom    6 type  1   force =     0.00000000    0.00000000    0.00000000
     atom    7 type  1   force =     0.00000000    0.00000000    0.00000000
     atom    8 type  1   force =     0.00000000    0.00000000    0.00000000
     atom    9 type  1   force =     0.00000000    0.00000000    0.00000000
     atom   10 type  1   force =     0.00000000    0.00000000    0.00000000
     atom   11 type  1   force =     0.00000000    0.00000000    0.00000000
     atom   12 type  1   force =     0.00000000    0.00000000    0.00000000
     atom   13 type  1   force =     0.00000000    0.00000000    0.00000000
     atom   14 type  1   force =     0.00000000    0.00000000    0.00000000
     atom   15 type  1   force =     0.00000000    0.00000000    0.00000000
     atom   16 type  1   force =     0.00000000    0.00000000    0.00000000
     atom   17 type  1   force =     0.00000000    0.00000000    0.00000000
     atom   18 type  1   force =     0.00000000    0.00000000    0.00000000
     atom   19 type  1   force =     0.00000000    0.00000000    0.00000000
     atom   20 type  1   force =     0.00000000    0.00000000    0.00000000
     atom   21 type  1   force =     0.00000000    0.00000000    0.00000000
     atom   22 type  1   force =     0.00000000    0.00000000    0.00000000
     atom   23 type  1   force =     0.00000000    0.00000000    0.00000000
     atom   24 type  1   force =     0.00000000    0.00000000    0.00000000
     atom   25 type  1   force =     0.00000000    0.00000000    0.00000000
     atom   26 type  1   force =     0.00000000    0.00000000    0.00000000
     atom   27 type  1   force =     0.00000000    0.00000000    0.00000000
     atom   28 type  1   force =     0.00000000    0.00000000    0.00000000
     atom   29 type  1   force =     0.00000000    0.00000000    0.00000000
     atom   30 type  1   force =     0.00000000    0.00000000    0.00000000
     atom   31 type  1   force =     0.00000000    0.00000000    0.00000000
     atom   32 type  1   force =     0.00000000    0.00000000    0.00000000
     atom   33 type  1   force =     0.00000000    0.00000000    0.00000000
     atom   34 type  1   force =     0.00000000    0.00000000    0.00000000
     atom   35 type  1   force =     0.00000000    0.00000000    0.00000000
     atom   36 type  1   force =     0.00000000    0.00000000    0.00000000
     atom   37 type  2   force =     0.00000000    0.00000000    0.00000000
     atom   38 type  3   force =     0.00000000    0.00000000    0.00000000
     atom   39 type  4   force =     0.00000000    0.00000000    0.00000000
     The SCF correction term to forces
     atom    1 type  1   force =     0.00000000   -0.00000000   -0.00000000
     atom    2 type  1   force =    -0.00000000   -0.00000000   -0.00000000
     atom    3 type  1   force =     0.00000000   -0.00000000   -0.00000000
     atom    4 type  1   force =    -0.00000000    0.00000000   -0.00000000
     atom    5 type  1   force =    -0.00000000    0.00000000   -0.00000000
     atom    6 type  1   force =     0.00000000    0.00000000   -0.00000000
     atom    7 type  1   force =     0.00000000   -0.00000000   -0.00000000
     atom    8 type  1   force =    -0.00000000    0.00000000   -0.00000000
     atom    9 type  1   force =     0.00000000   -0.00000000   -0.00000000
     atom   10 type  1   force =    -0.00000000   -0.00000000   -0.00000000
     atom   11 type  1   force =     0.00000000   -0.00000000   -0.00000000
     atom   12 type  1   force =     0.00000000   -0.00000000   -0.00000000
     atom   13 type  1   force =    -0.00000000    0.00000000   -0.00000000
     atom   14 type  1   force =     0.00000000    0.00000000   -0.00000000
     atom   15 type  1   force =     0.00000000   -0.00000000   -0.00000000
     atom   16 type  1   force =    -0.00000000    0.00000000   -0.00000000
     atom   17 type  1   force =    -0.00000000    0.00000000   -0.00000000
     atom   18 type  1   force =     0.00000000    0.00000000   -0.00000000
     atom   19 type  1   force =    -0.00000000    0.00000000   -0.00000000
     atom   20 type  1   force =     0.00000000    0.00000000   -0.00000000
     atom   21 type  1   force =     0.00000000   -0.00000000   -0.00000000
     atom   22 type  1   force =     0.00000000    0.00000000   -0.00000000
     atom   23 type  1   force =    -0.00000000    0.00000000   -0.00000000
     atom   24 type  1   force =     0.00000000   -0.00000000   -0.00000000
     atom   25 type  1   force =    -0.00000000   -0.00000000   -0.00000000
     atom   26 type  1   force =    -0.00000000   -0.00000000   -0.00000000
     atom   27 type  1   force =     0.00000000   -0.00000000   -0.00000000
     atom   28 type  1   force =    -0.00000000   -0.00000000    0.00000000
     atom   29 type  1   force =     0.00000000   -0.00000000    0.00000000
     atom   30 type  1   force =     0.00000000   -0.00000000    0.00000000
     atom   31 type  1   force =    -0.00000000    0.00000000    0.00000000
     atom   32 type  1   force =     0.00000000    0.00000000    0.00000000
     atom   33 type  1   force =    -0.00000000    0.00000000    0.00000000
     atom   34 type  1   force =    -0.00000000   -0.00000000    0.00000000
     atom   35 type  1   force =     0.00000000   -0.00000000    0.00000000
     atom   36 type  1   force =     0.00000000   -0.00000000    0.00000000
     atom   37 type  2   force =    -0.00000338   -0.00000352    0.00003352
     atom   38 type  3   force =    -0.00000232   -0.00000261    0.00004563
     atom   39 type  4   force =    -0.00000046   -0.00000051    0.00000669

     Total force =     0.000021     Total SCF correction =     0.000057
     SCF correction compared to forces is large: reduce conv_thr to get better values

     Writing all to output data dir ./pwscf.save/

     init_run     :     12.48s CPU     12.93s WALL (       1 calls)
     electrons    :    818.68s CPU    829.61s WALL (       1 calls)
     forces       :      4.04s CPU      4.09s WALL (       1 calls)

     Called by init_run:
     wfcinit      :      9.31s CPU      9.65s WALL (       1 calls)
     potinit      :      2.01s CPU      2.09s WALL (       1 calls)
     hinit0       :      0.90s CPU      0.92s WALL (       1 calls)

     Called by electrons:
     c_bands      :    682.16s CPU    690.81s WALL (      53 calls)
     sum_band     :     92.19s CPU     93.64s WALL (      53 calls)
     v_of_rho     :      8.38s CPU      8.53s WALL (      54 calls)
     newd         :      3.11s CPU      3.16s WALL (      54 calls)
     PAW_pot      :     13.64s CPU     13.79s WALL (      54 calls)
     mix_rho      :     20.51s CPU     20.85s WALL (      53 calls)
     vdW_kernel   :      1.13s CPU      1.14s WALL (       1 calls)

     Called by c_bands:
     init_us_2    :      9.68s CPU      9.87s WALL (    2808 calls)
     init_us_2:cp :      9.66s CPU      9.87s WALL (    2808 calls)
     cegterg      :    658.34s CPU    666.30s WALL (    1378 calls)

     Called by *egterg:
     cdiaghg      :    203.25s CPU    204.77s WALL (    4366 calls)
     h_psi        :    301.69s CPU    306.46s WALL (    4392 calls)
     s_psi        :     38.50s CPU     38.99s WALL (    4392 calls)
     g_psi        :      0.96s CPU      0.99s WALL (    2988 calls)

     Called by h_psi:
     h_psi:calbec :     63.70s CPU     64.57s WALL (    4392 calls)
     vloc_psi     :    197.25s CPU    200.66s WALL (    4392 calls)
     add_vuspsi   :     38.27s CPU     38.73s WALL (    4392 calls)

     General routines
     calbec       :     95.14s CPU     96.38s WALL (    5874 calls)
     fft          :      6.01s CPU      6.11s WALL (    4883 calls)
     ffts         :     11.15s CPU     11.34s WALL (   23044 calls)
     fftw         :    225.66s CPU    229.54s WALL ( 1429926 calls)
     interpolate  :      0.37s CPU      0.37s WALL (     108 calls)

     Parallel routines

     PWSCF        :  14m 0.97s CPU  14m18.72s WALL


   This run was terminated on:  13:43:51   8Dec2025            

=------------------------------------------------------------------------------=
   JOB DONE.
=------------------------------------------------------------------------------=
