
     Program PWSCF v.7.1 starts on 17Dec2025 at 10:41:36 
        Git branch: heads/qe-7.1
        Last git commit: 48ba0178f8fede6d020eb786884699a9f063f55d-dirty
        Last git commit date: Fri Jan 27 14:22:33 2023 +0000
        Last git commit subject: Merge branch 'fix_hubbard' into 'develop'

     This program is part of the open-source Quantum ESPRESSO suite
     for quantum simulation of materials; please cite
         "P. Giannozzi et al., J. Phys.:Condens. Matter 21 395502 (2009);
         "P. Giannozzi et al., J. Phys.:Condens. Matter 29 465901 (2017);
         "P. Giannozzi et al., J. Chem. Phys. 152 154105 (2020);
          URL http://www.quantum-espresso.org", 
     in publications or presentations arising from this work. More details at
     http://www.quantum-espresso.org/quote

     Parallel version (MPI), running on    96 processors

     MPI processes distributed on     2 nodes
     49103 MiB available memory on the printing compute node when the environment starts

     Reading input from espresso.pwi
Warning: card &CELL ignored
Warning: card / ignored
Warning: card &FCP ignored
Warning: card / ignored
Warning: card &RISM ignored
Warning: card / ignored

     Current dimensions of program PWSCF are:
     Max number of different atomic species (ntypx) = 10
     Max number of k-points (npk) =  40000
     Max angular momentum in pseudopotentials (lmaxx) =  4
     file Co.pbe-n-kjpaw_psl.1.0.0.UPF: wavefunction(s)  4S 3D renormalized
     file C.pbe-n-kjpaw_psl.1.0.0.UPF: wavefunction(s)  2S 2P renormalized
     file O.pbe-nl-kjpaw_psl.1.0.0.UPF: wavefunction(s)  2S 2P renormalized
     file H.pbe-kjpaw_psl.1.0.0.UPF: wavefunction(s)  1S renormalized

     **************************************************************************
     Initializing libbeef V0.1.2 with the BEEF-vdW functional.
     Citation: Wellendorff et al., PRB 85, 235149 (2012).
     **************************************************************************


     IMPORTANT: XC functional enforced from input :
     Exchange-correlation= BEEF-VDW
                           (   1   4  43  14   2   0   0)
     Any further DFT definition will be discarded
     Please, verify this is what you really want


     R & G space division:  proc/nbgrp/npool/nimage =      96
     Subspace diagonalization in iterative solution of the eigenvalue problem:
     one sub-group per band group will be used
     custom distributed-memory algorithm (size of sub-group:  2*  2 procs)


     Parallelization info
     --------------------
     sticks:   dense  smooth     PW     G-vecs:    dense   smooth      PW
     Min          43      28      7                 7829     4248     595
     Max          44      29      8                 7845     4281     630
     Sum        4153    2773    757               752179   409445   59217

     Using Slab Decomposition



     bravais-lattice index     =            0
     lattice parameter (alat)  =      14.1729  a.u.
     unit-cell volume          =    8574.3059 (a.u.)^3
     number of atoms/cell      =           39
     number of atomic types    =            4
     number of electrons       =       335.00
     number of Kohn-Sham states=          202
     kinetic-energy cutoff     =      50.0000  Ry
     charge density cutoff     =     300.0000  Ry
     scf convergence threshold =      1.0E-08
     mixing beta               =       0.7000
     number of iterations used =            8  local-TF  mixing
     Exchange-correlation= BEEF-VDW
                           (   1   4  43  14   2   0   0)

     celldm(1)=  14.172946  celldm(2)=   0.000000  celldm(3)=   0.000000
     celldm(4)=   0.000000  celldm(5)=   0.000000  celldm(6)=   0.000000

     crystal axes: (cart. coord. in units of alat)
               a(1) = (   1.000000   0.000000   0.000000 )  
               a(2) = (   0.500000   0.866025   0.000000 )  
               a(3) = (   0.000000   0.000000   3.477667 )  

     reciprocal axes: (cart. coord. in units 2 pi/alat)
               b(1) = (  1.000000 -0.577350  0.000000 )  
               b(2) = (  0.000000  1.154701  0.000000 )  
               b(3) = (  0.000000  0.000000  0.287549 )  


     PseudoPot. # 1 for Co read from file:
     /users/kbadger1/espresso/pseudo/pslibrary.1.0.0/pbe/PSEUDOPOTENTIALS/Co.pbe-n-kjpaw_psl.1.0.0.UPF
     MD5 check sum: 88af6ec42553d4236c267fdfcb472151
     Pseudo is Projector augmented-wave + core cor, Zval =  9.0
     Generated using 'atomic' code by A. Dal Corso  v.7.0
     Shape of augmentation charge: PSQ
     Using radial grid of 1193 points,  6 beta functions with: 
                l(1) =   0
                l(2) =   0
                l(3) =   1
                l(4) =   1
                l(5) =   2
                l(6) =   2
     Q(r) pseudized with 0 coefficients 


     PseudoPot. # 2 for C  read from file:
     /users/kbadger1/espresso/pseudo/pslibrary.1.0.0/pbe/PSEUDOPOTENTIALS/C.pbe-n-kjpaw_psl.1.0.0.UPF
     MD5 check sum: 6408e75cdba28732cea38a4db8498ce4
     Pseudo is Projector augmented-wave + core cor, Zval =  4.0
     Generated using 'atomic' code by A. Dal Corso  v.7.0
     Shape of augmentation charge: PSQ
     Using radial grid of 1073 points,  4 beta functions with: 
                l(1) =   0
                l(2) =   0
                l(3) =   1
                l(4) =   1
     Q(r) pseudized with 0 coefficients 


     PseudoPot. # 3 for O  read from file:
     /users/kbadger1/espresso/pseudo/pslibrary.1.0.0/pbe/PSEUDOPOTENTIALS/O.pbe-nl-kjpaw_psl.1.0.0.UPF
     MD5 check sum: f0439fab3598ca4e468f064226030408
     Pseudo is Projector augmented-wave + core cor, Zval =  6.0
     Generated using 'atomic' code by A. Dal Corso  v.7.0
     Shape of augmentation charge: PSQ
     Using radial grid of 1095 points,  4 beta functions with: 
                l(1) =   0
                l(2) =   0
                l(3) =   1
                l(4) =   1
     Q(r) pseudized with 0 coefficients 


     PseudoPot. # 4 for H  read from file:
     /users/kbadger1/espresso/pseudo/pslibrary.1.0.0/pbe/PSEUDOPOTENTIALS/H.pbe-kjpaw_psl.1.0.0.UPF
     MD5 check sum: fe4c6fa958fa6d3815bf5d2419cbf1df
     Pseudo is Projector augmented-wave, Zval =  1.0
     Generated using 'atomic' code by A. Dal Corso  v.7.0
     Shape of augmentation charge: PSQ
     Using radial grid of  929 points,  2 beta functions with: 
                l(1) =   0
                l(2) =   0
     Q(r) pseudized with 0 coefficients 


     atomic species   valence    mass     pseudopotential
        Co             9.00    58.93319     Co( 1.00)
        C              4.00    12.01100     C ( 1.00)
        O              6.00    15.99900     O ( 1.00)
        H              1.00     1.00800     H ( 1.00)

     Starting magnetic structure 
     atomic species   magnetization
        Co           1.000
        C            1.000
        O            0.000
        H            0.000

     No symmetry found



   Cartesian axes

     site n.     atom                  positions (alat units)
         1           Co  tau(   1) = (   0.0000000   0.1924501   1.3333333  )
         2           Co  tau(   2) = (   0.3333333   0.1924501   1.3333333  )
         3           Co  tau(   3) = (   0.6666667   0.1924501   1.3333333  )
         4           Co  tau(   4) = (   0.1666667   0.4811252   1.3333333  )
         5           Co  tau(   5) = (   0.5000000   0.4811252   1.3333333  )
         6           Co  tau(   6) = (   0.8333333   0.4811252   1.3333333  )
         7           Co  tau(   7) = (   0.3333333   0.7698004   1.3333333  )
         8           Co  tau(   8) = (   0.6666667   0.7698004   1.3333333  )
         9           Co  tau(   9) = (   1.0000000   0.7698004   1.3333333  )
        10           Co  tau(  10) = (   0.0000000   0.0000000   1.6036667  )
        11           Co  tau(  11) = (   0.3333333   0.0000000   1.6036667  )
        12           Co  tau(  12) = (   0.6666667   0.0000000   1.6036667  )
        13           Co  tau(  13) = (   0.1666667   0.2886751   1.6036667  )
        14           Co  tau(  14) = (   0.5000000   0.2886751   1.6036667  )
        15           Co  tau(  15) = (   0.8333333   0.2886751   1.6036667  )
        16           Co  tau(  16) = (   0.3333333   0.5773503   1.6036667  )
        17           Co  tau(  17) = (   0.6666667   0.5773503   1.6036667  )
        18           Co  tau(  18) = (   1.0000000   0.5773503   1.6036667  )
        19           Co  tau(  19) = (   0.0000000   0.1924501   1.8740000  )
        20           Co  tau(  20) = (   0.3333333   0.1924501   1.8740000  )
        21           Co  tau(  21) = (   0.6666667   0.1924501   1.8740000  )
        22           Co  tau(  22) = (   0.1666667   0.4811252   1.8740000  )
        23           Co  tau(  23) = (   0.5000000   0.4811252   1.8740000  )
        24           Co  tau(  24) = (   0.8333333   0.4811252   1.8740000  )
        25           Co  tau(  25) = (   0.3333333   0.7698004   1.8740000  )
        26           Co  tau(  26) = (   0.6666667   0.7698004   1.8740000  )
        27           Co  tau(  27) = (   1.0000000   0.7698004   1.8740000  )
        28           Co  tau(  28) = (   0.0000000   0.0000000   2.1443333  )
        29           Co  tau(  29) = (   0.3333333   0.0000000   2.1443333  )
        30           Co  tau(  30) = (   0.6666667   0.0000000   2.1443333  )
        31           Co  tau(  31) = (   0.1666667   0.2886751   2.1443333  )
        32           Co  tau(  32) = (   0.5000000   0.2886751   2.1443333  )
        33           Co  tau(  33) = (   0.8333333   0.2886751   2.1443333  )
        34           Co  tau(  34) = (   0.3333333   0.5773503   2.1443333  )
        35           Co  tau(  35) = (   0.6666667   0.5773503   2.1443333  )
        36           Co  tau(  36) = (   1.0000000   0.5773503   2.1443333  )
        37           C   tau(  37) = (   0.1681746  -0.0488581   2.3331552  )
        38           O   tau(  38) = (   0.1643736  -0.0589577   2.4915790  )
        39           H   tau(  39) = (   0.4976869   0.0922918   2.2739005  )

     number of k points=    13  Marzari-Vanderbilt smearing, width (Ry)=  0.0010
                       cart. coord. in units 2pi/alat
        k(    1) = (   0.0000000   0.0000000   0.0000000), wk =   0.0400000
        k(    2) = (   0.0000000   0.2309401   0.0000000), wk =   0.0800000
        k(    3) = (   0.0000000   0.4618802   0.0000000), wk =   0.0800000
        k(    4) = (   0.2000000  -0.1154701   0.0000000), wk =   0.0800000
        k(    5) = (   0.2000000   0.1154701   0.0000000), wk =   0.0800000
        k(    6) = (   0.2000000   0.3464102   0.0000000), wk =   0.0800000
        k(    7) = (   0.2000000  -0.5773503   0.0000000), wk =   0.0800000
        k(    8) = (   0.2000000  -0.3464102   0.0000000), wk =   0.0800000
        k(    9) = (   0.4000000  -0.2309401   0.0000000), wk =   0.0800000
        k(   10) = (   0.4000000   0.0000000   0.0000000), wk =   0.0800000
        k(   11) = (   0.4000000   0.2309401   0.0000000), wk =   0.0800000
        k(   12) = (   0.4000000  -0.6928203   0.0000000), wk =   0.0800000
        k(   13) = (   0.4000000  -0.4618802   0.0000000), wk =   0.0800000

     Dense  grid:   752179 G-vectors     FFT dimensions: (  80,  80, 288)

     Smooth grid:   409445 G-vectors     FFT dimensions: (  64,  64, 225)

     Estimated max dynamical RAM per process >      99.02 MB

     Estimated total dynamical RAM >       9.28 GB
     Generating pointlists ...
     new r_m :   0.0944 (alat units)  1.3372 (a.u.) for type    1
     new r_m :   0.0655 (alat units)  0.9283 (a.u.) for type    2
     new r_m :   0.0655 (alat units)  0.9283 (a.u.) for type    3
     new r_m :   0.0944 (alat units)  1.3372 (a.u.) for type    4

     Initial potential from superposition of free atoms

     starting charge     334.9897, renormalised to     335.0000

     negative rho (up, down):  3.055E-03 4.497E-04


     %%%%%%%%%%%%%%%%%%%%%%%%%%%%%%%%%%%%%%%%%%%%%%%%%%%%%%%%%%%%%%%%%%%%%%%%
     %                                                                      %
     % You are using vdW-DF, which was implemented by the Thonhauser group. %
     % Please cite the following two papers that made this development      %
     % possible and the two reviews that describe the various versions:     %
     %                                                                      %
     %   T. Thonhauser et al., PRL 115, 136402 (2015).                      %
     %   T. Thonhauser et al., PRB 76, 125112 (2007).                       %
     %   K. Berland et al., Rep. Prog. Phys. 78, 066501 (2015).             %
     %   D.C. Langreth et al., J. Phys.: Condens. Matter 21, 084203 (2009). %
     %                                                                      %
     % If you are calculating stress with vdW-DF, please also cite:         %
     %                                                                      %
     %   R. Sabatini et al., J. Phys.: Condens. Matter 24, 424209 (2012).   %
     %   C.M. Frostenson et al., Electr. Struct. 4, 014001 (2022).          %
     %                                                                      %
     %%%%%%%%%%%%%%%%%%%%%%%%%%%%%%%%%%%%%%%%%%%%%%%%%%%%%%%%%%%%%%%%%%%%%%%%

     %%%%%%%%%%%%%%%%%%%%%%%%%%%%%%%%%%%%%%%%%%%%%%%%%%%%%%%%%%%%%%%%%%%%%%%%
     %                                                                      %
     %  vdW-DF NEWS:                                                        %
     %                                                                      %
     %  * vdW-DF3 is now available. DOI: 10.1021/acs.jctc.0c00471           %
     %    use with input_dft = 'vdW-DF3-opt1' or 'vdW-DF3-opt2'             %
     %                                                                      %
     %  * Unscreened and range-separated hybrid vdW-DF-cx functionals       %
     %    DOI: 10.1063/1.4986522 and 10.1088/1361-648X/ac2ad2               %
     %    use with input_dft = 'vdW-DF-cx0'    and 'vdW-DF-ahcx'            %
     %  * Unscreened and range-separated hybrid vdW-DF2-b86r functionals    %
     %    DOI: 10.1063/1.4986522 and DOI: 10.1103/PhysRevX.12.041003        %
     %    use with input_dft = 'vdW-DF2-br0' and 'vdW-DF2-ahbr'             %
     %                                                                      %
     %%%%%%%%%%%%%%%%%%%%%%%%%%%%%%%%%%%%%%%%%%%%%%%%%%%%%%%%%%%%%%%%%%%%%%%%


     Starting wfcs are  333 randomized atomic wfcs
     Checking if some PAW data can be deallocated... 

     total cpu time spent up to now is       13.0 secs

     per-process dynamical memory:   231.9 Mb

     Self-consistent Calculation

     iteration #  1     ecut=    50.00 Ry     beta= 0.70
     Davidson diagonalization with overlap
     ethr =  1.00E-02,  avg # of iterations =  2.0

     negative rho (up, down):  3.417E-05 9.324E-08

     total cpu time spent up to now is       36.4 secs

     total energy              =   -6053.13832112 Ry
     estimated scf accuracy    <      39.00264674 Ry

     total magnetization       =    69.00 Bohr mag/cell
     absolute magnetization    =    81.23 Bohr mag/cell

     iteration #  2     ecut=    50.00 Ry     beta= 0.70
     Davidson diagonalization with overlap
     ethr =  1.00E-02,  avg # of iterations =  1.0

     negative rho (up, down):  4.927E-06 1.561E-08

     total cpu time spent up to now is       55.7 secs

     total energy              =   -6052.71795399 Ry
     estimated scf accuracy    <      24.05281570 Ry

     total magnetization       =    69.00 Bohr mag/cell
     absolute magnetization    =    76.83 Bohr mag/cell

     iteration #  3     ecut=    50.00 Ry     beta= 0.70
     Davidson diagonalization with overlap
     ethr =  7.18E-03,  avg # of iterations =  1.3

     negative rho (up, down):  4.485E-08 0.000E+00

     total cpu time spent up to now is       70.6 secs

     total energy              =   -6055.19258915 Ry
     estimated scf accuracy    <      85.84900165 Ry

     total magnetization       =    66.12 Bohr mag/cell
     absolute magnetization    =    73.62 Bohr mag/cell

     iteration #  4     ecut=    50.00 Ry     beta= 0.70
     Davidson diagonalization with overlap
     ethr =  7.18E-03,  avg # of iterations =  1.0

     total cpu time spent up to now is       88.6 secs

     total energy              =   -6056.46791163 Ry
     estimated scf accuracy    <       5.43780700 Ry

     total magnetization       =    60.34 Bohr mag/cell
     absolute magnetization    =    70.19 Bohr mag/cell

     iteration #  5     ecut=    50.00 Ry     beta= 0.70
     Davidson diagonalization with overlap
     ethr =  1.62E-03,  avg # of iterations =  1.2

     total cpu time spent up to now is      102.4 secs

     total energy              =   -6056.45512733 Ry
     estimated scf accuracy    <       2.02915596 Ry

     total magnetization       =    60.36 Bohr mag/cell
     absolute magnetization    =    69.77 Bohr mag/cell

     iteration #  6     ecut=    50.00 Ry     beta= 0.70
     Davidson diagonalization with overlap
     ethr =  6.06E-04,  avg # of iterations =  2.2

     total cpu time spent up to now is      123.0 secs

     total energy              =   -6056.55629838 Ry
     estimated scf accuracy    <       0.85572362 Ry

     total magnetization       =    59.97 Bohr mag/cell
     absolute magnetization    =    69.06 Bohr mag/cell

     iteration #  7     ecut=    50.00 Ry     beta= 0.70
     Davidson diagonalization with overlap
     ethr =  2.55E-04,  avg # of iterations =  4.3

     total cpu time spent up to now is      144.6 secs

     total energy              =   -6056.58233547 Ry
     estimated scf accuracy    <       0.63563715 Ry

     total magnetization       =    60.13 Bohr mag/cell
     absolute magnetization    =    68.85 Bohr mag/cell

     iteration #  8     ecut=    50.00 Ry     beta= 0.70
     Davidson diagonalization with overlap
     ethr =  1.90E-04,  avg # of iterations =  1.5

     total cpu time spent up to now is      159.0 secs

     total energy              =   -6056.60975082 Ry
     estimated scf accuracy    <       0.15702202 Ry

     total magnetization       =    60.13 Bohr mag/cell
     absolute magnetization    =    68.72 Bohr mag/cell

     iteration #  9     ecut=    50.00 Ry     beta= 0.70
     Davidson diagonalization with overlap
     c_bands:  1 eigenvalues not converged
     c_bands:  1 eigenvalues not converged
     ethr =  4.69E-05,  avg # of iterations =  9.1

     total cpu time spent up to now is      187.6 secs

     total energy              =   -6056.61781828 Ry
     estimated scf accuracy    <       0.10786777 Ry

     total magnetization       =    60.51 Bohr mag/cell
     absolute magnetization    =    68.70 Bohr mag/cell

     iteration # 10     ecut=    50.00 Ry     beta= 0.70
     Davidson diagonalization with overlap
     ethr =  3.22E-05,  avg # of iterations =  3.4

     total cpu time spent up to now is      208.4 secs

     total energy              =   -6056.62138484 Ry
     estimated scf accuracy    <       0.14280639 Ry

     total magnetization       =    60.68 Bohr mag/cell
     absolute magnetization    =    68.67 Bohr mag/cell

     iteration # 11     ecut=    50.00 Ry     beta= 0.70
     Davidson diagonalization with overlap
     ethr =  3.22E-05,  avg # of iterations =  1.7

     total cpu time spent up to now is      222.6 secs

     total energy              =   -6056.61696012 Ry
     estimated scf accuracy    <       0.11919564 Ry

     total magnetization       =    60.69 Bohr mag/cell
     absolute magnetization    =    68.59 Bohr mag/cell

     iteration # 12     ecut=    50.00 Ry     beta= 0.70
     Davidson diagonalization with overlap
     ethr =  3.22E-05,  avg # of iterations =  1.8

     negative rho (up, down):  7.984E-08 0.000E+00

     total cpu time spent up to now is      242.6 secs

     total energy              =   -6056.61775134 Ry
     estimated scf accuracy    <       0.07810751 Ry

     total magnetization       =    60.62 Bohr mag/cell
     absolute magnetization    =    68.44 Bohr mag/cell

     iteration # 13     ecut=    50.00 Ry     beta= 0.70
     Davidson diagonalization with overlap
     ethr =  2.33E-05,  avg # of iterations =  1.6

     negative rho (up, down):  8.332E-08 0.000E+00

     total cpu time spent up to now is      256.7 secs

     total energy              =   -6056.61707506 Ry
     estimated scf accuracy    <       0.11031800 Ry

     total magnetization       =    60.70 Bohr mag/cell
     absolute magnetization    =    68.44 Bohr mag/cell

     iteration # 14     ecut=    50.00 Ry     beta= 0.70
     Davidson diagonalization with overlap
     ethr =  2.33E-05,  avg # of iterations =  1.3

     negative rho (up, down):  8.014E-03 6.566E-03

     total cpu time spent up to now is      274.9 secs

     total energy              =   -6056.61201025 Ry
     estimated scf accuracy    <       0.07816946 Ry

     total magnetization       =    60.69 Bohr mag/cell
     absolute magnetization    =    68.40 Bohr mag/cell

     iteration # 15     ecut=    50.00 Ry     beta= 0.70
     Davidson diagonalization with overlap
     ethr =  2.33E-05,  avg # of iterations =  1.2

     negative rho (up, down):  2.131E-02 1.963E-02

     total cpu time spent up to now is      293.2 secs

     total energy              =   -6056.60807776 Ry
     estimated scf accuracy    <       0.04097774 Ry

     total magnetization       =    60.63 Bohr mag/cell
     absolute magnetization    =    68.35 Bohr mag/cell

     iteration # 16     ecut=    50.00 Ry     beta= 0.70
     Davidson diagonalization with overlap
     c_bands:  1 eigenvalues not converged
     c_bands:  2 eigenvalues not converged
     ethr =  1.22E-05,  avg # of iterations =  5.6

     negative rho (up, down):  2.250E-02 2.086E-02

     total cpu time spent up to now is      313.0 secs

     total energy              =   -6056.60859988 Ry
     estimated scf accuracy    <       0.03680248 Ry

     total magnetization       =    60.62 Bohr mag/cell
     absolute magnetization    =    68.31 Bohr mag/cell

     iteration # 17     ecut=    50.00 Ry     beta= 0.70
     Davidson diagonalization with overlap
     ethr =  1.10E-05,  avg # of iterations =  1.5

     negative rho (up, down):  2.267E-02 2.096E-02

     total cpu time spent up to now is      331.5 secs

     total energy              =   -6056.60894180 Ry
     estimated scf accuracy    <       0.02311106 Ry

     total magnetization       =    60.68 Bohr mag/cell
     absolute magnetization    =    68.34 Bohr mag/cell

     iteration # 18     ecut=    50.00 Ry     beta= 0.70
     Davidson diagonalization with overlap
     c_bands:  1 eigenvalues not converged
     c_bands:  1 eigenvalues not converged
     ethr =  6.90E-06,  avg # of iterations =  3.8

     negative rho (up, down):  8.376E-03 7.243E-03

     total cpu time spent up to now is      353.0 secs

     total energy              =   -6056.60917520 Ry
     estimated scf accuracy    <       0.01592070 Ry

     total magnetization       =    60.70 Bohr mag/cell
     absolute magnetization    =    68.33 Bohr mag/cell

     iteration # 19     ecut=    50.00 Ry     beta= 0.70
     Davidson diagonalization with overlap
     c_bands:  1 eigenvalues not converged
     ethr =  4.75E-06,  avg # of iterations =  3.3

     negative rho (up, down):  1.612E-02 1.473E-02

     total cpu time spent up to now is      370.3 secs

     total energy              =   -6056.60833273 Ry
     estimated scf accuracy    <       0.01115352 Ry

     total magnetization       =    60.70 Bohr mag/cell
     absolute magnetization    =    68.34 Bohr mag/cell

     iteration # 20     ecut=    50.00 Ry     beta= 0.70
     Davidson diagonalization with overlap
     c_bands:  1 eigenvalues not converged
     ethr =  3.33E-06,  avg # of iterations =  3.5

     negative rho (up, down):  1.304E-02 1.212E-02

     total cpu time spent up to now is      390.7 secs

     total energy              =   -6056.60649269 Ry
     estimated scf accuracy    <       0.01035361 Ry

     total magnetization       =    60.69 Bohr mag/cell
     absolute magnetization    =    68.31 Bohr mag/cell

     iteration # 21     ecut=    50.00 Ry     beta= 0.70
     Davidson diagonalization with overlap
     ethr =  3.09E-06,  avg # of iterations =  2.6

     negative rho (up, down):  1.553E-02 1.476E-02

     total cpu time spent up to now is      406.0 secs

     total energy              =   -6056.60638791 Ry
     estimated scf accuracy    <       0.00951796 Ry

     total magnetization       =    60.70 Bohr mag/cell
     absolute magnetization    =    68.29 Bohr mag/cell

     iteration # 22     ecut=    50.00 Ry     beta= 0.70
     Davidson diagonalization with overlap
     ethr =  2.84E-06,  avg # of iterations =  1.5

     negative rho (up, down):  1.275E-02 1.208E-02

     total cpu time spent up to now is      425.8 secs

     total energy              =   -6056.60674202 Ry
     estimated scf accuracy    <       0.00214200 Ry

     total magnetization       =    60.70 Bohr mag/cell
     absolute magnetization    =    68.29 Bohr mag/cell

     iteration # 23     ecut=    50.00 Ry     beta= 0.70
     Davidson diagonalization with overlap
     c_bands:  1 eigenvalues not converged
     ethr =  6.39E-07,  avg # of iterations =  3.4

     negative rho (up, down):  9.929E-03 9.257E-03

     total cpu time spent up to now is      446.9 secs

     total energy              =   -6056.60668297 Ry
     estimated scf accuracy    <       0.00313852 Ry

     total magnetization       =    60.71 Bohr mag/cell
     absolute magnetization    =    68.30 Bohr mag/cell

     iteration # 24     ecut=    50.00 Ry     beta= 0.70
     Davidson diagonalization with overlap
     c_bands:  1 eigenvalues not converged
     ethr =  6.39E-07,  avg # of iterations =  3.3

     negative rho (up, down):  7.744E-03 6.963E-03

     total cpu time spent up to now is      463.2 secs

     total energy              =   -6056.60638495 Ry
     estimated scf accuracy    <       0.00350895 Ry

     total magnetization       =    60.72 Bohr mag/cell
     absolute magnetization    =    68.31 Bohr mag/cell

     iteration # 25     ecut=    50.00 Ry     beta= 0.70
     Davidson diagonalization with overlap
     ethr =  6.39E-07,  avg # of iterations =  2.0

     negative rho (up, down):  7.324E-03 6.671E-03

     total cpu time spent up to now is      483.8 secs

     total energy              =   -6056.60670573 Ry
     estimated scf accuracy    <       0.00346157 Ry

     total magnetization       =    60.72 Bohr mag/cell
     absolute magnetization    =    68.32 Bohr mag/cell

     iteration # 26     ecut=    50.00 Ry     beta= 0.70
     Davidson diagonalization with overlap
     ethr =  6.39E-07,  avg # of iterations =  1.6

     negative rho (up, down):  6.030E-03 5.323E-03

     total cpu time spent up to now is      502.9 secs

     total energy              =   -6056.60690010 Ry
     estimated scf accuracy    <       0.00136665 Ry

     total magnetization       =    60.72 Bohr mag/cell
     absolute magnetization    =    68.32 Bohr mag/cell

     iteration # 27     ecut=    50.00 Ry     beta= 0.70
     Davidson diagonalization with overlap
     ethr =  4.08E-07,  avg # of iterations =  1.5

     negative rho (up, down):  5.206E-03 4.461E-03

     total cpu time spent up to now is      517.3 secs

     total energy              =   -6056.60694049 Ry
     estimated scf accuracy    <       0.00072850 Ry

     total magnetization       =    60.72 Bohr mag/cell
     absolute magnetization    =    68.32 Bohr mag/cell

     iteration # 28     ecut=    50.00 Ry     beta= 0.70
     Davidson diagonalization with overlap
     ethr =  2.17E-07,  avg # of iterations =  1.3

     negative rho (up, down):  3.576E-03 2.697E-03

     total cpu time spent up to now is      535.6 secs

     total energy              =   -6056.60696088 Ry
     estimated scf accuracy    <       0.00010200 Ry

     total magnetization       =    60.72 Bohr mag/cell
     absolute magnetization    =    68.32 Bohr mag/cell

     iteration # 29     ecut=    50.00 Ry     beta= 0.70
     Davidson diagonalization with overlap
     ethr =  3.04E-08,  avg # of iterations =  8.1

     negative rho (up, down):  3.433E-03 2.491E-03

     total cpu time spent up to now is      565.6 secs

     total energy              =   -6056.60699822 Ry
     estimated scf accuracy    <       0.00017076 Ry

     total magnetization       =    60.72 Bohr mag/cell
     absolute magnetization    =    68.31 Bohr mag/cell

     iteration # 30     ecut=    50.00 Ry     beta= 0.70
     Davidson diagonalization with overlap
     ethr =  3.04E-08,  avg # of iterations =  1.3

     negative rho (up, down):  3.040E-03 1.956E-03

     total cpu time spent up to now is      579.6 secs

     total energy              =   -6056.60702469 Ry
     estimated scf accuracy    <       0.00006898 Ry

     total magnetization       =    60.72 Bohr mag/cell
     absolute magnetization    =    68.31 Bohr mag/cell

     iteration # 31     ecut=    50.00 Ry     beta= 0.70
     Davidson diagonalization with overlap
     ethr =  2.06E-08,  avg # of iterations =  1.8

     negative rho (up, down):  2.973E-03 1.865E-03

     total cpu time spent up to now is      598.8 secs

     total energy              =   -6056.60702939 Ry
     estimated scf accuracy    <       0.00002942 Ry

     total magnetization       =    60.72 Bohr mag/cell
     absolute magnetization    =    68.31 Bohr mag/cell

     iteration # 32     ecut=    50.00 Ry     beta= 0.70
     Davidson diagonalization with overlap
     ethr =  8.78E-09,  avg # of iterations =  1.7

     negative rho (up, down):  2.754E-03 1.631E-03

     total cpu time spent up to now is      614.7 secs

     total energy              =   -6056.60703222 Ry
     estimated scf accuracy    <       0.00002606 Ry

     total magnetization       =    60.72 Bohr mag/cell
     absolute magnetization    =    68.31 Bohr mag/cell

     iteration # 33     ecut=    50.00 Ry     beta= 0.70
     Davidson diagonalization with overlap
     ethr =  7.78E-09,  avg # of iterations =  1.4

     negative rho (up, down):  2.484E-03 1.383E-03

     total cpu time spent up to now is      633.7 secs

     total energy              =   -6056.60703484 Ry
     estimated scf accuracy    <       0.00001689 Ry

     total magnetization       =    60.72 Bohr mag/cell
     absolute magnetization    =    68.31 Bohr mag/cell

     iteration # 34     ecut=    50.00 Ry     beta= 0.70
     Davidson diagonalization with overlap
     ethr =  5.04E-09,  avg # of iterations =  3.2

     negative rho (up, down):  2.625E-03 1.522E-03

     total cpu time spent up to now is      654.8 secs

     total energy              =   -6056.60703532 Ry
     estimated scf accuracy    <       0.00001451 Ry

     total magnetization       =    60.72 Bohr mag/cell
     absolute magnetization    =    68.30 Bohr mag/cell

     iteration # 35     ecut=    50.00 Ry     beta= 0.70
     Davidson diagonalization with overlap
     ethr =  4.33E-09,  avg # of iterations =  1.4

     negative rho (up, down):  2.454E-03 1.370E-03

     total cpu time spent up to now is      670.4 secs

     total energy              =   -6056.60703619 Ry
     estimated scf accuracy    <       0.00001229 Ry

     total magnetization       =    60.72 Bohr mag/cell
     absolute magnetization    =    68.30 Bohr mag/cell

     iteration # 36     ecut=    50.00 Ry     beta= 0.70
     Davidson diagonalization with overlap
     ethr =  3.67E-09,  avg # of iterations =  1.8

     negative rho (up, down):  2.355E-03 1.260E-03

     total cpu time spent up to now is      689.4 secs

     total energy              =   -6056.60703653 Ry
     estimated scf accuracy    <       0.00000485 Ry

     total magnetization       =    60.72 Bohr mag/cell
     absolute magnetization    =    68.30 Bohr mag/cell

     iteration # 37     ecut=    50.00 Ry     beta= 0.70
     Davidson diagonalization with overlap
     ethr =  1.45E-09,  avg # of iterations =  2.9

     negative rho (up, down):  2.374E-03 1.291E-03

     total cpu time spent up to now is      705.2 secs

     total energy              =   -6056.60703670 Ry
     estimated scf accuracy    <       0.00000378 Ry

     total magnetization       =    60.72 Bohr mag/cell
     absolute magnetization    =    68.30 Bohr mag/cell

     iteration # 38     ecut=    50.00 Ry     beta= 0.70
     Davidson diagonalization with overlap
     ethr =  1.13E-09,  avg # of iterations =  1.9

     negative rho (up, down):  2.323E-03 1.243E-03

     total cpu time spent up to now is      724.5 secs

     total energy              =   -6056.60703679 Ry
     estimated scf accuracy    <       0.00000156 Ry

     total magnetization       =    60.72 Bohr mag/cell
     absolute magnetization    =    68.30 Bohr mag/cell

     iteration # 39     ecut=    50.00 Ry     beta= 0.70
     Davidson diagonalization with overlap
     ethr =  4.64E-10,  avg # of iterations =  4.6

     negative rho (up, down):  2.307E-03 1.224E-03

     total cpu time spent up to now is      748.2 secs

     total energy              =   -6056.60703697 Ry
     estimated scf accuracy    <       0.00000052 Ry

     total magnetization       =    60.72 Bohr mag/cell
     absolute magnetization    =    68.30 Bohr mag/cell

     iteration # 40     ecut=    50.00 Ry     beta= 0.70
     Davidson diagonalization with overlap
     ethr =  1.55E-10,  avg # of iterations =  4.4

     negative rho (up, down):  2.311E-03 1.227E-03

     total cpu time spent up to now is      765.8 secs

     total energy              =   -6056.60703701 Ry
     estimated scf accuracy    <       0.00000109 Ry

     total magnetization       =    60.72 Bohr mag/cell
     absolute magnetization    =    68.30 Bohr mag/cell

     iteration # 41     ecut=    50.00 Ry     beta= 0.70
     Davidson diagonalization with overlap
     ethr =  1.55E-10,  avg # of iterations =  1.2

     negative rho (up, down):  2.293E-03 1.206E-03

     total cpu time spent up to now is      783.9 secs

     total energy              =   -6056.60703706 Ry
     estimated scf accuracy    <       0.00000025 Ry

     total magnetization       =    60.72 Bohr mag/cell
     absolute magnetization    =    68.30 Bohr mag/cell

     iteration # 42     ecut=    50.00 Ry     beta= 0.70
     Davidson diagonalization with overlap
     ethr =  7.49E-11,  avg # of iterations =  2.5

     negative rho (up, down):  2.283E-03 1.193E-03

     total cpu time spent up to now is      805.3 secs

     total energy              =   -6056.60703706 Ry
     estimated scf accuracy    <       0.00000021 Ry

     total magnetization       =    60.72 Bohr mag/cell
     absolute magnetization    =    68.30 Bohr mag/cell

     iteration # 43     ecut=    50.00 Ry     beta= 0.70
     Davidson diagonalization with overlap
     ethr =  6.13E-11,  avg # of iterations =  2.1

     negative rho (up, down):  2.273E-03 1.184E-03

     total cpu time spent up to now is      821.0 secs

     total energy              =   -6056.60703706 Ry
     estimated scf accuracy    <       0.00000013 Ry

     total magnetization       =    60.72 Bohr mag/cell
     absolute magnetization    =    68.30 Bohr mag/cell

     iteration # 44     ecut=    50.00 Ry     beta= 0.70
     Davidson diagonalization with overlap
     c_bands:  1 eigenvalues not converged
     ethr =  3.86E-11,  avg # of iterations =  2.6

     negative rho (up, down):  2.271E-03 1.182E-03

     total cpu time spent up to now is      841.1 secs

     total energy              =   -6056.60703706 Ry
     estimated scf accuracy    <       0.00000003 Ry

     total magnetization       =    60.72 Bohr mag/cell
     absolute magnetization    =    68.30 Bohr mag/cell

     iteration # 45     ecut=    50.00 Ry     beta= 0.70
     Davidson diagonalization with overlap
     ethr =  1.03E-11,  avg # of iterations =  6.2

     negative rho (up, down):  2.256E-03 1.166E-03

     Magnetic moment per site  (integrated on atomic sphere of radius R)
     atom   1 (R=0.094)  charge=  5.8620  magn=  1.6941
     atom   2 (R=0.094)  charge=  5.8627  magn=  1.6892
     atom   3 (R=0.094)  charge=  5.8619  magn=  1.6988
     atom   4 (R=0.094)  charge=  5.8621  magn=  1.7044
     atom   5 (R=0.094)  charge=  5.8622  magn=  1.6966
     atom   6 (R=0.094)  charge=  5.8622  magn=  1.6971
     atom   7 (R=0.094)  charge=  5.8615  magn=  1.6977
     atom   8 (R=0.094)  charge=  5.8628  magn=  1.6892
     atom   9 (R=0.094)  charge=  5.8624  magn=  1.6944
     atom  10 (R=0.094)  charge=  5.8593  magn=  1.6298
     atom  11 (R=0.094)  charge=  5.8603  magn=  1.6265
     atom  12 (R=0.094)  charge=  5.8602  magn=  1.6352
     atom  13 (R=0.094)  charge=  5.8594  magn=  1.6386
     atom  14 (R=0.094)  charge=  5.8605  magn=  1.6331
     atom  15 (R=0.094)  charge=  5.8601  magn=  1.6352
     atom  16 (R=0.094)  charge=  5.8596  magn=  1.6288
     atom  17 (R=0.094)  charge=  5.8600  magn=  1.6348
     atom  18 (R=0.094)  charge=  5.8603  magn=  1.6300
     atom  19 (R=0.094)  charge=  5.8591  magn=  1.6157
     atom  20 (R=0.094)  charge=  5.8606  magn=  1.6302
     atom  21 (R=0.094)  charge=  5.8588  magn=  1.6556
     atom  22 (R=0.094)  charge=  5.8597  magn=  1.6293
     atom  23 (R=0.094)  charge=  5.8594  magn=  1.6066
     atom  24 (R=0.094)  charge=  5.8599  magn=  1.6218
     atom  25 (R=0.094)  charge=  5.8581  magn=  1.5967
     atom  26 (R=0.094)  charge=  5.8573  magn=  1.6558
     atom  27 (R=0.094)  charge=  5.8603  magn=  1.6288
     atom  28 (R=0.094)  charge=  5.8746  magn=  1.3379
     atom  29 (R=0.094)  charge=  5.8807  magn=  1.1440
     atom  30 (R=0.094)  charge=  5.8617  magn=  1.5984
     atom  31 (R=0.094)  charge=  5.8629  magn=  1.7377
     atom  32 (R=0.094)  charge=  5.8629  magn=  1.6178
     atom  33 (R=0.094)  charge=  5.8598  magn=  1.7285
     atom  34 (R=0.094)  charge=  5.8590  magn=  1.7352
     atom  35 (R=0.094)  charge=  5.8678  magn=  1.6082
     atom  36 (R=0.094)  charge=  5.8605  magn=  1.7458
     atom  37 (R=0.066)  charge=  1.0466  magn= -0.0205
     atom  38 (R=0.066)  charge=  2.9235  magn= -0.0424
     atom  39 (R=0.094)  charge=  0.9352  magn= -0.0149

     total cpu time spent up to now is      866.9 secs

     End of self-consistent calculation

 ------ SPIN UP ------------


          k = 0.0000 0.0000 0.0000 ( 51087 PWs)   bands (ev):

   -21.9480  -9.1763  -7.6759  -6.5758  -5.8256  -5.6845  -5.3743  -5.2295
    -4.8414  -4.8332  -4.8288  -4.8130  -4.7996  -4.7857  -4.6529  -4.3932
    -4.2998  -4.2992  -4.2722  -4.2647  -4.2430  -4.1060  -3.7838  -3.7831
    -3.7732  -3.7607  -3.7343  -3.7012  -3.6502  -3.6483  -3.6452  -3.6384
    -3.6157  -3.5712  -3.5703  -3.4784  -3.2691  -3.2607  -3.2585  -3.2563
    -3.2005  -3.1965  -3.1930  -3.1893  -3.1846  -3.1791  -3.1685  -3.1112
    -3.0316  -3.0273  -2.9639  -2.9575  -2.9553  -2.9493  -2.9395  -2.9258
    -2.9218  -2.9185  -2.8957  -2.8734  -2.8243  -2.8164  -2.8150  -2.8085
    -2.7476  -2.6096  -2.3247  -2.2875  -2.2832  -2.2825  -2.2785  -2.1755
    -2.1553  -2.1428  -2.1413  -2.1266  -2.1143  -2.1100  -2.0999  -2.0954
    -2.0582  -2.0525  -2.0282  -2.0103  -2.0003  -1.9964  -1.9808  -1.9722
    -1.9676  -1.9611  -1.9562  -1.9477  -1.9393  -1.9277  -1.9238  -1.9131
    -1.9115  -1.9081  -1.9072  -1.9044  -1.9034  -1.8995  -1.8962  -1.8854
    -1.8758  -1.8654  -1.8460  -1.8386  -1.8346  -1.7545  -1.7518  -1.6667
    -1.5435  -1.4654  -1.4615  -1.4573  -1.4573  -1.4457  -1.4285  -1.4169
    -1.4131  -1.4100  -1.4010  -1.3696  -1.3651  -1.2395  -1.2316  -1.2194
    -1.2080  -1.1531  -1.0890  -1.0661  -1.0501  -1.0265  -1.0018  -0.9826
    -0.9818  -0.9723  -0.9655  -0.9510  -0.9154  -0.8896  -0.8518  -0.8347
    -0.7593  -0.7191  -0.7159  -0.7138  -0.6961  -0.6763  -0.6638  -0.6526
    -0.6498  -0.6458  -0.6432  -0.6378  -0.6355  -0.6328  -0.6261  -0.6165
    -0.6127  -0.6066  -0.5966  -0.5841  -0.5812  -0.5741  -0.5642  -0.5581
    -0.5458  -0.5405  -0.5325  -0.5195  -0.5160  -0.5120  -0.5044  -0.4988
    -0.4962  -0.4905  -0.4773  -0.4652  -0.4451  -0.4212  -0.4164  -0.4080
    -0.4065  -0.3991  -0.3945  -0.3892  -0.3835  -0.3447  -0.3300  -0.3208
    -0.3183  -0.3149  -0.2577  -0.2539  -0.2491  -0.2414  -0.2288  -0.2138
     0.5064   0.7016

          k = 0.0000 0.2309 0.0000 ( 51134 PWs)   bands (ev):

   -21.9480  -9.1659  -7.5354  -6.4844  -5.8590  -5.7001  -5.5272  -5.3497
    -5.2131  -5.0516  -5.0266  -4.6492  -4.5087  -4.4874  -4.4756  -4.4203
    -4.3328  -4.3036  -4.2393  -4.1829  -4.1589  -4.0932  -3.8903  -3.7867
    -3.7794  -3.7086  -3.6679  -3.6539  -3.6521  -3.6397  -3.6382  -3.6142
    -3.5983  -3.5446  -3.5242  -3.5059  -3.5027  -3.4424  -3.2839  -3.2779
    -3.2668  -3.2221  -3.2177  -3.2116  -3.1791  -3.1164  -3.0889  -3.0706
    -3.0535  -3.0502  -3.0348  -3.0117  -2.9668  -2.9139  -2.9083  -2.8798
    -2.8477  -2.8367  -2.8120  -2.8065  -2.7829  -2.7463  -2.7396  -2.7286
    -2.7036  -2.6098  -2.4056  -2.3947  -2.3749  -2.3509  -2.3401  -2.2540
    -2.2464  -2.2308  -2.2243  -2.2166  -2.2095  -2.1981  -2.1762  -2.1213
    -2.1142  -2.0987  -2.0810  -2.0457  -2.0375  -2.0330  -2.0238  -2.0148
    -2.0026  -1.9993  -1.9941  -1.9899  -1.9814  -1.9748  -1.9497  -1.8990
    -1.8868  -1.8768  -1.8224  -1.8120  -1.8031  -1.8011  -1.7925  -1.7908
    -1.7788  -1.7708  -1.7629  -1.7556  -1.7525  -1.7284  -1.7184  -1.6992
    -1.6911  -1.6837  -1.6385  -1.5943  -1.5842  -1.4935  -1.4859  -1.4817
    -1.4744  -1.4536  -1.4477  -1.4403  -1.4173  -1.4040  -1.3727  -1.2863
    -1.2646  -1.2049  -1.1973  -1.1777  -1.1669  -1.1113  -1.0969  -1.0903
    -1.0618  -0.9991  -0.9864  -0.9746  -0.9534  -0.9449  -0.9117  -0.9080
    -0.8819  -0.8711  -0.8639  -0.8424  -0.8287  -0.8044  -0.7985  -0.7961
    -0.7313  -0.7231  -0.7170  -0.7109  -0.6974  -0.6684  -0.6541  -0.6415
    -0.6377  -0.6331  -0.6269  -0.6146  -0.6026  -0.5906  -0.5803  -0.5680
    -0.5289  -0.5146  -0.5031  -0.4812  -0.4561  -0.4468  -0.4230  -0.3949
    -0.3911  -0.3760  -0.3729  -0.3623  -0.3430  -0.3363  -0.3291  -0.2962
    -0.2648  -0.2551  -0.2418  -0.2232  -0.2149  -0.1997  -0.1903  -0.1777
    -0.1235  -0.0458   0.0915   0.1329   0.1770   0.2672   0.3888   0.4069
     0.4484   0.7552

          k = 0.0000 0.4619 0.0000 ( 51204 PWs)   bands (ev):

   -21.9480  -9.1496  -7.1223  -6.4974  -6.2036  -5.8440  -5.5834  -5.3708
    -5.2460  -5.1446  -5.1311  -4.9387  -4.3370  -4.3200  -4.2989  -4.2477
    -4.2145  -4.1294  -4.1275  -4.0492  -3.9962  -3.9897  -3.9802  -3.8322
    -3.8141  -3.8109  -3.8010  -3.7990  -3.7350  -3.6973  -3.6916  -3.5728
    -3.5277  -3.5192  -3.5001  -3.4864  -3.4759  -3.4460  -3.3725  -3.3668
    -3.3531  -3.3466  -3.2853  -3.2203  -3.1489  -3.1068  -3.0558  -3.0374
    -3.0143  -2.9876  -2.9691  -2.9521  -2.9452  -2.9338  -2.9188  -2.8664
    -2.8556  -2.8338  -2.8012  -2.7747  -2.6637  -2.6517  -2.6307  -2.6179
    -2.5620  -2.5398  -2.5149  -2.5037  -2.4898  -2.4233  -2.3737  -2.3710
    -2.3659  -2.3545  -2.3514  -2.3271  -2.3167  -2.2974  -2.2838  -2.2633
    -2.2433  -2.2098  -2.1907  -2.1673  -2.1457  -2.1181  -2.0752  -2.0549
    -2.0385  -2.0217  -2.0072  -1.9880  -1.9743  -1.9419  -1.9304  -1.9226
    -1.9100  -1.8974  -1.8805  -1.8613  -1.8566  -1.8486  -1.8461  -1.8195
    -1.8011  -1.7687  -1.7513  -1.7401  -1.6724  -1.6533  -1.6361  -1.6310
    -1.6159  -1.5846  -1.5536  -1.5318  -1.5255  -1.5047  -1.4980  -1.4923
    -1.4892  -1.4790  -1.4679  -1.4586  -1.4547  -1.4467  -1.4348  -1.4240
    -1.4219  -1.3652  -1.3040  -1.2978  -1.2742  -1.2685  -1.2364  -1.2285
    -1.1998  -1.1456  -1.1274  -1.1176  -1.0769  -1.0628  -1.0258  -0.9904
    -0.9840  -0.9722  -0.9385  -0.9243  -0.9090  -0.8941  -0.8689  -0.7926
    -0.7570  -0.7514  -0.7321  -0.7178  -0.7125  -0.7050  -0.6987  -0.6871
    -0.6811  -0.6502  -0.5713  -0.5673  -0.5535  -0.5434  -0.5347  -0.5283
    -0.5192  -0.4989  -0.4826  -0.4729  -0.4713  -0.4412  -0.3876  -0.3684
    -0.3620  -0.3432  -0.3266  -0.2682  -0.2627  -0.2369  -0.2292  -0.1881
    -0.1619  -0.1487  -0.1439  -0.1299  -0.1191  -0.1142  -0.1095  -0.0686
    -0.0169  -0.0018   0.4512   0.5817   0.8815   1.0871   1.1199   1.2843
     1.4646   1.4861

          k = 0.2000-0.1155 0.0000 ( 51134 PWs)   bands (ev):

   -21.9480  -9.1646  -7.5364  -6.4857  -5.8749  -5.7003  -5.5231  -5.3379
    -5.2008  -5.0599  -5.0306  -4.6304  -4.5209  -4.4871  -4.4780  -4.4198
    -4.3461  -4.2969  -4.2326  -4.1962  -4.1559  -4.0797  -3.8967  -3.7860
    -3.7763  -3.7075  -3.6696  -3.6559  -3.6516  -3.6453  -3.6345  -3.6118
    -3.5956  -3.5488  -3.5246  -3.5080  -3.5011  -3.4435  -3.2898  -3.2795
    -3.2700  -3.2235  -3.2181  -3.2039  -3.1812  -3.1228  -3.0872  -3.0695
    -3.0537  -3.0467  -3.0400  -3.0061  -2.9652  -2.9164  -2.9068  -2.8831
    -2.8434  -2.8370  -2.8098  -2.8058  -2.7808  -2.7443  -2.7389  -2.7331
    -2.6981  -2.6108  -2.4077  -2.3931  -2.3688  -2.3516  -2.3404  -2.2541
    -2.2480  -2.2338  -2.2276  -2.2146  -2.2099  -2.1945  -2.1752  -2.1192
    -2.1160  -2.0974  -2.0832  -2.0454  -2.0418  -2.0354  -2.0209  -2.0125
    -2.0030  -2.0019  -1.9972  -1.9925  -1.9786  -1.9735  -1.9392  -1.8951
    -1.8890  -1.8716  -1.8251  -1.8162  -1.8079  -1.7988  -1.7908  -1.7891
    -1.7801  -1.7726  -1.7704  -1.7548  -1.7533  -1.7310  -1.7169  -1.7004
    -1.6917  -1.6774  -1.6451  -1.6024  -1.5824  -1.5023  -1.4828  -1.4795
    -1.4654  -1.4602  -1.4496  -1.4439  -1.4268  -1.3947  -1.3399  -1.2941
    -1.2569  -1.2084  -1.1986  -1.1791  -1.1566  -1.1269  -1.1032  -1.0886
    -1.0450  -1.0100  -0.9990  -0.9813  -0.9550  -0.9507  -0.9165  -0.9063
    -0.8865  -0.8680  -0.8533  -0.8335  -0.8249  -0.8083  -0.8007  -0.7894
    -0.7290  -0.7200  -0.7143  -0.7102  -0.6874  -0.6661  -0.6510  -0.6450
    -0.6399  -0.6340  -0.6291  -0.6184  -0.6054  -0.5908  -0.5805  -0.5612
    -0.5222  -0.5077  -0.4987  -0.4834  -0.4623  -0.4516  -0.4160  -0.3960
    -0.3877  -0.3794  -0.3692  -0.3636  -0.3447  -0.3356  -0.3289  -0.2907
    -0.2678  -0.2532  -0.2432  -0.2231  -0.2140  -0.2023  -0.1922  -0.1728
    -0.1234  -0.0556   0.0819   0.1319   0.1684   0.2598   0.3748   0.4080
     0.4449   0.7966

          k = 0.2000 0.1155 0.0000 ( 51134 PWs)   bands (ev):

   -21.9480  -9.1637  -7.5377  -6.4885  -5.9118  -5.6787  -5.4666  -5.3846
    -5.1846  -5.0602  -5.0448  -4.6012  -4.5187  -4.4843  -4.4802  -4.4185
    -4.3464  -4.3196  -4.2339  -4.1977  -4.1618  -4.0627  -3.8985  -3.7920
    -3.7672  -3.6980  -3.6631  -3.6564  -3.6523  -3.6495  -3.6385  -3.6258
    -3.5686  -3.5561  -3.5370  -3.5075  -3.5019  -3.4454  -3.2955  -3.2764
    -3.2738  -3.2225  -3.2216  -3.2085  -3.1748  -3.1226  -3.0916  -3.0646
    -3.0518  -3.0475  -3.0421  -3.0155  -2.9601  -2.9149  -2.9064  -2.8849
    -2.8494  -2.8264  -2.8120  -2.8057  -2.7925  -2.7430  -2.7404  -2.7277
    -2.6804  -2.6152  -2.4061  -2.3901  -2.3684  -2.3535  -2.3422  -2.2540
    -2.2470  -2.2408  -2.2271  -2.2180  -2.2089  -2.1971  -2.1571  -2.1195
    -2.1154  -2.0987  -2.0825  -2.0434  -2.0389  -2.0372  -2.0327  -2.0105
    -2.0050  -2.0014  -1.9969  -1.9930  -1.9797  -1.9689  -1.9466  -1.8980
    -1.8813  -1.8718  -1.8252  -1.8189  -1.8098  -1.8017  -1.7940  -1.7880
    -1.7816  -1.7754  -1.7689  -1.7544  -1.7523  -1.7464  -1.7078  -1.7034
    -1.6897  -1.6836  -1.6452  -1.6061  -1.5880  -1.5139  -1.4861  -1.4779
    -1.4644  -1.4598  -1.4509  -1.4431  -1.4289  -1.3892  -1.3107  -1.2950
    -1.2545  -1.2044  -1.1986  -1.1799  -1.1561  -1.1413  -1.1005  -1.0937
    -1.0436  -1.0037  -0.9969  -0.9750  -0.9539  -0.9521  -0.9173  -0.9100
    -0.8847  -0.8692  -0.8561  -0.8335  -0.8268  -0.8092  -0.8048  -0.7891
    -0.7284  -0.7191  -0.7138  -0.7055  -0.6972  -0.6658  -0.6517  -0.6433
    -0.6422  -0.6343  -0.6269  -0.6072  -0.6033  -0.5914  -0.5813  -0.5702
    -0.5223  -0.5024  -0.4942  -0.4841  -0.4662  -0.4515  -0.4150  -0.3965
    -0.3878  -0.3798  -0.3699  -0.3621  -0.3443  -0.3348  -0.3295  -0.2908
    -0.2618  -0.2548  -0.2423  -0.2223  -0.2154  -0.1994  -0.1772  -0.1670
    -0.1226  -0.0852   0.1013   0.1309   0.1708   0.2501   0.3815   0.4043
     0.4413   0.7319

          k = 0.2000 0.3464 0.0000 ( 51202 PWs)   bands (ev):

   -21.9480  -9.1502  -7.2616  -6.3568  -6.0602  -5.9287  -5.6962  -5.4821
    -5.3487  -5.1708  -4.7561  -4.6404  -4.4962  -4.4804  -4.3411  -4.2743
    -4.2701  -4.1742  -4.1665  -4.0834  -4.0426  -3.9935  -3.9017  -3.8806
    -3.8292  -3.7840  -3.6909  -3.6754  -3.6468  -3.6439  -3.6345  -3.6230
    -3.5937  -3.5844  -3.5444  -3.5239  -3.4826  -3.4511  -3.4410  -3.3972
    -3.3021  -3.2515  -3.2185  -3.1936  -3.1741  -3.1607  -3.1057  -3.0577
    -3.0202  -2.9896  -2.9829  -2.9670  -2.9504  -2.9223  -2.9082  -2.8929
    -2.8807  -2.8512  -2.7632  -2.7246  -2.6946  -2.6732  -2.6602  -2.6417
    -2.6140  -2.5700  -2.5063  -2.4402  -2.4242  -2.3951  -2.3828  -2.3492
    -2.3370  -2.3285  -2.3213  -2.2995  -2.2834  -2.2689  -2.2595  -2.2536
    -2.2425  -2.1915  -2.1666  -2.1321  -2.0752  -2.0700  -2.0464  -2.0324
    -2.0264  -2.0033  -1.9729  -1.9669  -1.9501  -1.9330  -1.9150  -1.9105
    -1.9037  -1.8958  -1.8916  -1.8681  -1.8605  -1.8521  -1.8392  -1.8261
    -1.8099  -1.7960  -1.7680  -1.7312  -1.7226  -1.6863  -1.6808  -1.6740
    -1.6598  -1.6544  -1.6197  -1.5855  -1.5707  -1.5626  -1.5449  -1.5125
    -1.5094  -1.5001  -1.4843  -1.4685  -1.4484  -1.4366  -1.4288  -1.3749
    -1.3651  -1.3391  -1.3230  -1.2453  -1.2248  -1.1996  -1.1809  -1.1039
    -1.0838  -1.0651  -1.0533  -1.0507  -1.0427  -1.0369  -1.0076  -1.0006
    -0.9839  -0.9676  -0.9466  -0.9076  -0.9003  -0.8768  -0.8697  -0.8542
    -0.8256  -0.8104  -0.7980  -0.7834  -0.7745  -0.7549  -0.6351  -0.6151
    -0.6076  -0.5936  -0.5757  -0.5647  -0.5512  -0.5429  -0.5267  -0.5180
    -0.5033  -0.4786  -0.4519  -0.4410  -0.4157  -0.4065  -0.3675  -0.3490
    -0.3386  -0.3376  -0.3316  -0.3084  -0.2994  -0.2930  -0.2864  -0.2738
    -0.2581  -0.1836  -0.1724  -0.1679  -0.1261  -0.1176  -0.1064   0.0310
     0.1397   0.2247   0.2469   0.4072   0.5073   0.6307   0.9734   1.1192
     1.2214   1.4387

          k = 0.2000-0.5774 0.0000 ( 51262 PWs)   bands (ev):

   -21.9480  -9.1430  -6.7730  -6.6854  -6.1988  -6.0376  -5.7676  -5.5044
    -5.2576  -5.2039  -4.9841  -4.7061  -4.4744  -4.2388  -4.1901  -4.0767
    -4.0604  -4.0506  -4.0284  -4.0238  -3.9742  -3.9544  -3.9463  -3.9442
    -3.9233  -3.8587  -3.7989  -3.7918  -3.7712  -3.7681  -3.7166  -3.6228
    -3.6128  -3.6068  -3.5820  -3.5389  -3.4904  -3.4541  -3.3792  -3.3208
    -3.3136  -3.2707  -3.2321  -3.2154  -3.1874  -3.1323  -3.1019  -3.0934
    -3.0615  -3.0321  -3.0007  -2.9401  -2.9093  -2.8794  -2.8625  -2.8281
    -2.8088  -2.7399  -2.7357  -2.7236  -2.7115  -2.7021  -2.6771  -2.6373
    -2.5743  -2.5255  -2.5115  -2.5021  -2.4717  -2.4408  -2.4194  -2.3774
    -2.3725  -2.3340  -2.3231  -2.3161  -2.3062  -2.2877  -2.2651  -2.2630
    -2.2422  -2.2338  -2.2182  -2.1897  -2.1871  -2.1552  -2.1123  -2.0959
    -2.0792  -2.0546  -2.0241  -1.9938  -1.9723  -1.9500  -1.9365  -1.9283
    -1.9096  -1.9016  -1.8965  -1.8851  -1.8729  -1.8478  -1.8434  -1.7890
    -1.7739  -1.7548  -1.7462  -1.7391  -1.7188  -1.7147  -1.7083  -1.6963
    -1.6871  -1.6790  -1.6627  -1.6346  -1.6020  -1.5876  -1.5617  -1.5413
    -1.4960  -1.4903  -1.4696  -1.4451  -1.4335  -1.4183  -1.4097  -1.3899
    -1.3495  -1.3408  -1.3201  -1.2783  -1.2197  -1.1984  -1.1902  -1.1721
    -1.1547  -1.1393  -1.1359  -1.1056  -1.0866  -1.0736  -1.0556  -1.0380
    -0.9929  -0.9840  -0.9619  -0.9558  -0.9404  -0.8908  -0.8834  -0.8681
    -0.8607  -0.8440  -0.8376  -0.8206  -0.7932  -0.7677  -0.7462  -0.5987
    -0.5834  -0.5767  -0.5639  -0.5549  -0.5452  -0.5373  -0.5265  -0.4935
    -0.4828  -0.4698  -0.4625  -0.4522  -0.4095  -0.3568  -0.3415  -0.3353
    -0.3221  -0.3079  -0.2942  -0.2842  -0.2457  -0.2384  -0.2318  -0.2222
    -0.2180  -0.1534  -0.1411  -0.1334  -0.1211  -0.1121  -0.0911  -0.0651
     0.1119   0.2445   0.4788   0.8756   1.0431   1.1651   1.2539   1.5211
     1.6516   1.7107

          k = 0.2000-0.3464 0.0000 ( 51202 PWs)   bands (ev):

   -21.9480  -9.1517  -7.2578  -6.3565  -6.0190  -5.9393  -5.7011  -5.5387
    -5.3282  -5.1591  -4.7180  -4.7076  -4.4894  -4.4790  -4.3375  -4.2758
    -4.2695  -4.1743  -4.1692  -4.0738  -4.0299  -4.0194  -3.9061  -3.8811
    -3.8298  -3.7858  -3.6900  -3.6707  -3.6654  -3.6440  -3.6333  -3.6069
    -3.5943  -3.5879  -3.5446  -3.5250  -3.4857  -3.4418  -3.4316  -3.4053
    -3.3053  -3.2472  -3.2186  -3.1917  -3.1769  -3.1534  -3.0874  -3.0583
    -3.0116  -2.9977  -2.9763  -2.9646  -2.9609  -2.9261  -2.9008  -2.8958
    -2.8731  -2.8529  -2.7621  -2.7321  -2.6988  -2.6817  -2.6573  -2.6357
    -2.6195  -2.5704  -2.5048  -2.4425  -2.4110  -2.3953  -2.3831  -2.3494
    -2.3443  -2.3281  -2.3221  -2.2933  -2.2842  -2.2679  -2.2600  -2.2497
    -2.2401  -2.2010  -2.1639  -2.1463  -2.0770  -2.0710  -2.0446  -2.0312
    -2.0239  -1.9992  -1.9792  -1.9664  -1.9477  -1.9293  -1.9150  -1.9115
    -1.9040  -1.8964  -1.8869  -1.8693  -1.8593  -1.8531  -1.8323  -1.8159
    -1.8132  -1.8035  -1.7770  -1.7282  -1.7240  -1.6880  -1.6779  -1.6707
    -1.6660  -1.6536  -1.6000  -1.5925  -1.5743  -1.5482  -1.5315  -1.5108
    -1.5096  -1.4998  -1.4948  -1.4702  -1.4498  -1.4384  -1.4318  -1.3754
    -1.3651  -1.3314  -1.3182  -1.2577  -1.2230  -1.1940  -1.1663  -1.1126
    -1.0895  -1.0664  -1.0588  -1.0519  -1.0459  -1.0371  -1.0074  -0.9967
    -0.9832  -0.9719  -0.9524  -0.9093  -0.8979  -0.8846  -0.8667  -0.8518
    -0.8275  -0.8166  -0.7911  -0.7804  -0.7712  -0.7539  -0.6356  -0.6227
    -0.5995  -0.5922  -0.5756  -0.5631  -0.5582  -0.5375  -0.5346  -0.5141
    -0.5069  -0.4824  -0.4515  -0.4341  -0.4162  -0.4081  -0.3696  -0.3493
    -0.3395  -0.3355  -0.3326  -0.3096  -0.3004  -0.2924  -0.2848  -0.2734
    -0.2584  -0.1841  -0.1730  -0.1691  -0.1221  -0.1190  -0.1143   0.0465
     0.1112   0.2249   0.2382   0.4454   0.5066   0.6190   0.9891   1.1161
     1.2247   1.3744

          k = 0.4000-0.2309 0.0000 ( 51204 PWs)   bands (ev):

   -21.9480  -9.1461  -7.1271  -6.5024  -6.2069  -5.8766  -5.5494  -5.3733
    -5.2164  -5.1555  -5.1292  -4.9450  -4.3506  -4.3221  -4.2861  -4.2506
    -4.2097  -4.1318  -4.1269  -4.0369  -3.9998  -3.9901  -3.9691  -3.8355
    -3.8140  -3.8067  -3.8010  -3.7998  -3.7300  -3.7002  -3.6910  -3.6048
    -3.5292  -3.5189  -3.5019  -3.4860  -3.4772  -3.4356  -3.3736  -3.3670
    -3.3548  -3.3433  -3.3082  -3.2253  -3.1397  -3.1124  -3.0481  -3.0342
    -3.0112  -2.9892  -2.9696  -2.9558  -2.9431  -2.9341  -2.9199  -2.8703
    -2.8550  -2.8357  -2.7930  -2.7702  -2.6629  -2.6487  -2.6267  -2.6054
    -2.5686  -2.5394  -2.5192  -2.5032  -2.4924  -2.4274  -2.3741  -2.3706
    -2.3674  -2.3557  -2.3470  -2.3262  -2.3141  -2.3050  -2.2772  -2.2568
    -2.2432  -2.2113  -2.1921  -2.1670  -2.1424  -2.1288  -2.0714  -2.0554
    -2.0373  -2.0232  -2.0075  -1.9848  -1.9766  -1.9376  -1.9286  -1.9197
    -1.9097  -1.8951  -1.8842  -1.8630  -1.8587  -1.8519  -1.8460  -1.8161
    -1.8013  -1.7659  -1.7521  -1.7379  -1.6718  -1.6566  -1.6314  -1.6219
    -1.6056  -1.5836  -1.5659  -1.5282  -1.5235  -1.5075  -1.5022  -1.4959
    -1.4868  -1.4789  -1.4726  -1.4618  -1.4575  -1.4470  -1.4305  -1.4203
    -1.3994  -1.3762  -1.3140  -1.2899  -1.2750  -1.2688  -1.2421  -1.2213
    -1.2010  -1.1511  -1.1286  -1.1148  -1.0858  -1.0752  -1.0362  -1.0121
    -0.9931  -0.9650  -0.9390  -0.9307  -0.9062  -0.8800  -0.8520  -0.8029
    -0.7590  -0.7374  -0.7259  -0.7143  -0.7114  -0.7055  -0.6972  -0.6886
    -0.6726  -0.6488  -0.5694  -0.5631  -0.5545  -0.5420  -0.5347  -0.5188
    -0.5114  -0.4956  -0.4859  -0.4781  -0.4685  -0.4444  -0.3786  -0.3657
    -0.3548  -0.3472  -0.3194  -0.2692  -0.2633  -0.2339  -0.2285  -0.1891
    -0.1628  -0.1485  -0.1427  -0.1234  -0.1200  -0.1176  -0.1093  -0.0705
    -0.0162  -0.0017   0.3839   0.5998   0.9064   1.0759   1.1145   1.2629
     1.4534   1.4970

          k = 0.4000 0.0000 0.0000 ( 51202 PWs)   bands (ev):

   -21.9480  -9.1480  -7.2644  -6.3571  -6.0782  -5.9264  -5.6962  -5.4680
    -5.3547  -5.1575  -4.7684  -4.6203  -4.4951  -4.4901  -4.3424  -4.2761
    -4.2672  -4.1740  -4.1683  -4.0953  -4.0434  -3.9695  -3.9040  -3.8802
    -3.8251  -3.7858  -3.6933  -3.6781  -3.6539  -3.6435  -3.6372  -3.6167
    -3.5940  -3.5837  -3.5516  -3.5265  -3.4823  -3.4549  -3.4446  -3.3965
    -3.3103  -3.2555  -3.2186  -3.1917  -3.1700  -3.1610  -3.0972  -3.0561
    -3.0254  -2.9870  -2.9813  -2.9715  -2.9488  -2.9203  -2.9077  -2.8925
    -2.8826  -2.8549  -2.7703  -2.7112  -2.6959  -2.6751  -2.6510  -2.6348
    -2.6168  -2.5654  -2.5102  -2.4383  -2.4226  -2.3944  -2.3830  -2.3511
    -2.3401  -2.3298  -2.3232  -2.3045  -2.2820  -2.2705  -2.2650  -2.2526
    -2.2297  -2.1969  -2.1708  -2.1248  -2.0756  -2.0663  -2.0515  -2.0351
    -2.0202  -2.0008  -1.9780  -1.9642  -1.9507  -1.9333  -1.9107  -1.9062
    -1.9023  -1.8975  -1.8918  -1.8704  -1.8656  -1.8509  -1.8331  -1.8243
    -1.8104  -1.7837  -1.7565  -1.7294  -1.7216  -1.6924  -1.6793  -1.6723
    -1.6613  -1.6543  -1.6248  -1.5905  -1.5752  -1.5607  -1.5408  -1.5226
    -1.5108  -1.5015  -1.4878  -1.4795  -1.4581  -1.4432  -1.4237  -1.3746
    -1.3644  -1.3396  -1.3267  -1.2341  -1.2182  -1.2013  -1.1848  -1.1068
    -1.0767  -1.0712  -1.0626  -1.0492  -1.0427  -1.0361  -1.0079  -1.0049
    -0.9869  -0.9631  -0.9460  -0.9052  -0.8895  -0.8733  -0.8716  -0.8520
    -0.8228  -0.8106  -0.8023  -0.7819  -0.7761  -0.7551  -0.6316  -0.6192
    -0.5968  -0.5867  -0.5773  -0.5656  -0.5557  -0.5356  -0.5322  -0.5216
    -0.5045  -0.4805  -0.4522  -0.4389  -0.4176  -0.4021  -0.3603  -0.3455
    -0.3402  -0.3361  -0.3305  -0.3074  -0.3008  -0.2901  -0.2882  -0.2721
    -0.2596  -0.1817  -0.1737  -0.1697  -0.1269  -0.1230  -0.0988   0.0306
     0.1790   0.2213   0.2526   0.3676   0.5089   0.6126   0.9345   1.1197
     1.2123   1.4673

          k = 0.4000 0.2309 0.0000 ( 51204 PWs)   bands (ev):

   -21.9480  -9.1437  -7.1337  -6.5099  -6.2179  -5.9086  -5.4457  -5.4071
    -5.2214  -5.1560  -5.1351  -4.9353  -4.3513  -4.3166  -4.3097  -4.2463
    -4.2058  -4.1322  -4.1277  -4.0187  -3.9979  -3.9916  -3.9294  -3.8443
    -3.8134  -3.8041  -3.8014  -3.7984  -3.7134  -3.6962  -3.6748  -3.6557
    -3.5311  -3.5285  -3.5130  -3.4866  -3.4823  -3.4324  -3.3730  -3.3671
    -3.3528  -3.3454  -3.3089  -3.2275  -3.1455  -3.1025  -3.0522  -3.0284
    -3.0182  -2.9829  -2.9695  -2.9643  -2.9537  -2.9266  -2.9113  -2.8722
    -2.8591  -2.8366  -2.8036  -2.7564  -2.6578  -2.6481  -2.6372  -2.6013
    -2.5734  -2.5371  -2.5147  -2.5112  -2.4967  -2.4270  -2.3732  -2.3712
    -2.3661  -2.3605  -2.3438  -2.3269  -2.3139  -2.3078  -2.2793  -2.2475
    -2.2324  -2.2141  -2.1982  -2.1793  -2.1376  -2.1232  -2.0668  -2.0578
    -2.0350  -2.0247  -2.0082  -1.9999  -1.9712  -1.9354  -1.9295  -1.9216
    -1.9124  -1.8972  -1.8810  -1.8724  -1.8587  -1.8510  -1.8469  -1.8185
    -1.7996  -1.7886  -1.7476  -1.7377  -1.6763  -1.6581  -1.6325  -1.6218
    -1.5974  -1.5841  -1.5579  -1.5266  -1.5251  -1.5075  -1.5041  -1.4992
    -1.4909  -1.4805  -1.4716  -1.4621  -1.4580  -1.4444  -1.4194  -1.4113
    -1.3935  -1.3814  -1.3325  -1.2911  -1.2738  -1.2604  -1.2386  -1.2267
    -1.1966  -1.1496  -1.1302  -1.1124  -1.0878  -1.0664  -1.0484  -1.0073
    -0.9911  -0.9669  -0.9404  -0.9298  -0.9032  -0.8796  -0.8555  -0.8185
    -0.7428  -0.7321  -0.7241  -0.7152  -0.7124  -0.6989  -0.6930  -0.6825
    -0.6757  -0.6683  -0.5694  -0.5632  -0.5555  -0.5427  -0.5343  -0.5163
    -0.5027  -0.5001  -0.4862  -0.4749  -0.4592  -0.4480  -0.3791  -0.3644
    -0.3546  -0.3481  -0.3161  -0.2687  -0.2639  -0.2307  -0.2288  -0.1885
    -0.1737  -0.1463  -0.1440  -0.1223  -0.1207  -0.1134  -0.0930  -0.0785
    -0.0159  -0.0009   0.3856   0.6506   0.8484   1.0272   1.1203   1.1978
     1.4612   1.5546

          k = 0.4000-0.6928 0.0000 ( 51262 PWs)   bands (ev):

   -21.9480  -9.1394  -6.8035  -6.6735  -6.2059  -5.9471  -5.9260  -5.3995
    -5.2165  -5.1943  -5.0509  -4.7079  -4.4759  -4.2388  -4.1885  -4.0633
    -4.0586  -4.0341  -4.0282  -4.0026  -3.9684  -3.9529  -3.9483  -3.9439
    -3.9297  -3.8205  -3.8043  -3.7920  -3.7780  -3.7632  -3.7380  -3.6402
    -3.6144  -3.6076  -3.5897  -3.5686  -3.5063  -3.4495  -3.3555  -3.3195
    -3.3177  -3.2900  -3.2236  -3.2134  -3.1859  -3.1397  -3.1020  -3.1000
    -3.0663  -3.0184  -3.0044  -2.9370  -2.9120  -2.8838  -2.8674  -2.8212
    -2.7999  -2.7415  -2.7346  -2.7284  -2.7146  -2.7079  -2.6590  -2.6455
    -2.5674  -2.5195  -2.5148  -2.4972  -2.4882  -2.4484  -2.4285  -2.3745
    -2.3643  -2.3324  -2.3298  -2.3126  -2.3053  -2.2799  -2.2682  -2.2576
    -2.2377  -2.2260  -2.2021  -2.1963  -2.1853  -2.1688  -2.1180  -2.1041
    -2.0909  -2.0534  -2.0225  -1.9857  -1.9711  -1.9511  -1.9354  -1.9252
    -1.9131  -1.9042  -1.9003  -1.8768  -1.8640  -1.8562  -1.8416  -1.7787
    -1.7666  -1.7561  -1.7463  -1.7313  -1.7195  -1.7149  -1.7032  -1.6970
    -1.6939  -1.6759  -1.6622  -1.6546  -1.6016  -1.5845  -1.5764  -1.5316
    -1.5176  -1.4971  -1.4679  -1.4420  -1.4291  -1.4199  -1.4067  -1.3930
    -1.3456  -1.3410  -1.3120  -1.2720  -1.2179  -1.2053  -1.1917  -1.1725
    -1.1522  -1.1385  -1.1316  -1.1040  -1.0980  -1.0785  -1.0601  -1.0303
    -0.9969  -0.9885  -0.9665  -0.9465  -0.9357  -0.8949  -0.8838  -0.8781
    -0.8605  -0.8451  -0.8296  -0.8148  -0.7831  -0.7744  -0.7502  -0.5874
    -0.5796  -0.5735  -0.5661  -0.5560  -0.5494  -0.5345  -0.5303  -0.4903
    -0.4825  -0.4741  -0.4672  -0.4442  -0.4035  -0.3504  -0.3374  -0.3297
    -0.3171  -0.3080  -0.2922  -0.2526  -0.2493  -0.2416  -0.2314  -0.2249
    -0.2161  -0.2052  -0.1407  -0.1356  -0.1205  -0.1147  -0.0891  -0.0622
     0.1379   0.2575   0.5503   0.7246   1.0443   1.1676   1.2164   1.5648
     1.6714   1.7081

          k = 0.4000-0.4619 0.0000 ( 51262 PWs)   bands (ev):

   -21.9480  -9.1408  -6.7868  -6.6788  -6.2030  -6.0215  -5.8106  -5.4676
    -5.2540  -5.1893  -5.0070  -4.7024  -4.4744  -4.2372  -4.1920  -4.0679
    -4.0588  -4.0499  -4.0286  -4.0208  -3.9750  -3.9515  -3.9477  -3.9431
    -3.9261  -3.8513  -3.7990  -3.7944  -3.7735  -3.7688  -3.7154  -3.6265
    -3.6140  -3.6065  -3.5832  -3.5502  -3.5063  -3.4537  -3.3626  -3.3191
    -3.3123  -3.2953  -3.2298  -3.2125  -3.1861  -3.1330  -3.1013  -3.0968
    -3.0546  -3.0303  -3.0006  -2.9364  -2.9119  -2.8853  -2.8634  -2.8261
    -2.8003  -2.7401  -2.7366  -2.7254  -2.7136  -2.7032  -2.6746  -2.6275
    -2.5720  -2.5209  -2.5112  -2.5041  -2.4779  -2.4385  -2.4329  -2.3772
    -2.3674  -2.3339  -2.3232  -2.3129  -2.3072  -2.2857  -2.2664  -2.2605
    -2.2406  -2.2312  -2.2153  -2.1907  -2.1846  -2.1479  -2.1110  -2.1061
    -2.0907  -2.0624  -2.0191  -1.9890  -1.9696  -1.9483  -1.9351  -1.9298
    -1.9101  -1.9012  -1.8939  -1.8863  -1.8677  -1.8473  -1.8395  -1.7824
    -1.7742  -1.7510  -1.7465  -1.7399  -1.7209  -1.7152  -1.7088  -1.6955
    -1.6888  -1.6830  -1.6607  -1.6434  -1.6000  -1.5874  -1.5722  -1.5271
    -1.5040  -1.5003  -1.4755  -1.4415  -1.4286  -1.4163  -1.4093  -1.3902
    -1.3453  -1.3426  -1.3182  -1.2688  -1.2171  -1.2080  -1.1833  -1.1730
    -1.1508  -1.1385  -1.1313  -1.1191  -1.0896  -1.0758  -1.0633  -1.0358
    -0.9946  -0.9924  -0.9665  -0.9489  -0.9336  -0.8950  -0.8829  -0.8705
    -0.8603  -0.8439  -0.8403  -0.8139  -0.7849  -0.7696  -0.7515  -0.5959
    -0.5793  -0.5706  -0.5617  -0.5551  -0.5422  -0.5396  -0.5286  -0.4886
    -0.4855  -0.4779  -0.4633  -0.4476  -0.4038  -0.3532  -0.3389  -0.3328
    -0.3126  -0.3075  -0.2987  -0.2812  -0.2502  -0.2379  -0.2315  -0.2182
    -0.2117  -0.1776  -0.1395  -0.1356  -0.1218  -0.1127  -0.0896  -0.0636
     0.1194   0.2506   0.4956   0.8623   0.9988   1.1679   1.2303   1.5270
     1.6425   1.7196

 ------ SPIN DOWN ----------


          k = 0.0000 0.0000 0.0000 ( 51087 PWs)   bands (ev):

   -22.0399  -9.2576  -7.8077  -6.6357  -5.8122  -5.6561  -5.4145  -5.1662
    -4.6466  -4.6355  -4.6325  -4.6073  -4.6016  -4.5747  -4.2542  -3.7659
    -3.7617  -3.7424  -3.7344  -3.7223  -3.6553  -3.3438  -2.8252  -2.8177
    -2.8048  -2.8039  -2.7200  -2.6027  -2.3614  -2.3504  -2.3430  -2.3407
    -2.3140  -2.2271  -2.1510  -2.1456  -2.0778  -2.0619  -2.0503  -2.0501
    -1.9674  -1.9607  -1.9159  -1.9122  -1.8473  -1.8275  -1.8099  -1.8020
    -1.7649  -1.7238  -1.5639  -1.5543  -1.5442  -1.5338  -1.5306  -1.5276
    -1.5128  -1.5113  -1.4819  -1.4664  -1.4408  -1.4381  -1.4342  -1.4326
    -1.3621  -1.2622  -0.9148  -0.8821  -0.8544  -0.8529  -0.8016  -0.7369
    -0.6593  -0.6479  -0.5521  -0.5453  -0.5336  -0.5269  -0.5155  -0.4949
    -0.4821  -0.4681  -0.4551  -0.4459  -0.4375  -0.4367  -0.3979  -0.3759
    -0.3658  -0.3356  -0.3268  -0.3081  -0.2995  -0.2959  -0.2786  -0.2760
    -0.2682  -0.2607  -0.2510  -0.2477  -0.2464  -0.2392  -0.2164  -0.1557
    -0.1446  -0.1298  -0.1122  -0.0620  -0.0452  -0.0331  -0.0198  -0.0186
    -0.0145  -0.0129  -0.0060   0.0603   0.0618   0.0652   0.1094   0.1380
     0.1471   0.1544   0.1641   0.2032   0.2518   0.3725   0.3828   0.4319
     0.4442   0.4522   0.4620   0.4700   0.6179   0.6735   0.7545   0.7908
     0.8057   0.8502   0.9694   1.0118   1.0147   1.0288   1.0325   1.0379
     1.0750   1.1592   1.1792   1.1933   1.2062   1.2116   1.2185   1.2446
     1.2512   1.2624   1.2727   1.2860   1.3047   1.3174   1.3191   1.3459
     1.3524   1.3612   1.3652   1.3769   1.3975   1.4191   1.4249   1.4333
     1.4454   1.4500   1.4648   1.4761   1.4829   1.4925   1.4957   1.5308
     1.5387   1.5541   1.5563   1.5611   1.5684   1.5750   1.5806   1.6194
     1.6241   1.6271   1.6288   1.6343   1.6365   1.6507   1.6553   1.6633
     1.6652   1.7113   1.7126   1.8532   1.8609   1.8621   1.8669   1.8689
     1.8701   2.0656

          k = 0.0000 0.2309 0.0000 ( 51134 PWs)   bands (ev):

   -22.0399  -9.2472  -7.6663  -6.5357  -5.8713  -5.6915  -5.5462  -5.3796
    -5.1596  -4.9903  -4.9283  -4.4600  -4.1484  -4.0837  -4.0630  -3.9579
    -3.8529  -3.7829  -3.4659  -3.4082  -3.3665  -3.2679  -2.9480  -2.8159
    -2.7750  -2.7326  -2.6828  -2.6188  -2.4496  -2.3812  -2.3787  -2.3653
    -2.3371  -2.2939  -2.2926  -2.2848  -2.2397  -2.2049  -2.1136  -2.1077
    -2.0226  -2.0198  -1.9570  -1.8796  -1.8396  -1.8287  -1.8093  -1.7122
    -1.6872  -1.6554  -1.6138  -1.5864  -1.5599  -1.5432  -1.5347  -1.5266
    -1.5173  -1.5033  -1.4204  -1.4082  -1.3947  -1.3747  -1.3388  -1.2941
    -1.2510  -1.1622  -0.9747  -0.9254  -0.9060  -0.9025  -0.8400  -0.8003
    -0.7457  -0.7193  -0.6899  -0.6506  -0.6327  -0.5853  -0.5646  -0.5511
    -0.5179  -0.5090  -0.4949  -0.4864  -0.4802  -0.4549  -0.4211  -0.3982
    -0.3547  -0.3263  -0.3224  -0.3128  -0.3003  -0.2804  -0.2600  -0.2541
    -0.2459  -0.2435  -0.2351  -0.2293  -0.2244  -0.2224  -0.1864  -0.1682
    -0.1544  -0.1422  -0.1262  -0.1158  -0.0947  -0.0822  -0.0634  -0.0415
    -0.0350  -0.0091   0.0152   0.0448   0.0892   0.0976   0.1228   0.1288
     0.2237   0.2501   0.2823   0.3320   0.3463   0.3539   0.4109   0.4173
     0.4281   0.4354   0.4385   0.4472   0.5847   0.6923   0.7671   0.7722
     0.7800   0.7856   0.8028   0.8128   0.8592   0.8763   0.9291   0.9549
     0.9996   1.0248   1.0490   1.0623   1.0876   1.1091   1.1309   1.1863
     1.2065   1.2192   1.2419   1.2460   1.2669   1.2745   1.3160   1.3241
     1.3401   1.3600   1.4033   1.4135   1.4291   1.4354   1.4612   1.4701
     1.5085   1.5157   1.5209   1.5250   1.5519   1.6036   1.6089   1.6180
     1.6206   1.6483   1.6524   1.6804   1.6882   1.6942   1.7013   1.7068
     1.7289   1.7705   1.7747   1.7876   1.7918   1.8012   1.8132   1.8303
     1.8513   1.8550   1.8579   1.8963   1.9507   1.9618   1.9636   2.0207
     2.0438   2.1066

          k = 0.0000 0.4619 0.0000 ( 51204 PWs)   bands (ev):

   -22.0399  -9.2308  -7.2466  -6.5874  -6.2458  -5.8432  -5.6261  -5.4068
    -5.2620  -5.1588  -5.1058  -4.8148  -4.1177  -4.0369  -3.8469  -3.4710
    -3.4643  -3.4044  -3.3417  -3.1697  -3.0773  -3.0218  -2.9943  -2.8679
    -2.8633  -2.8032  -2.7557  -2.6996  -2.6519  -2.6246  -2.6122  -2.5656
    -2.5476  -2.4163  -2.3410  -2.3218  -2.2522  -2.2277  -2.1358  -2.1263
    -2.1118  -2.0980  -2.0434  -1.8514  -1.8306  -1.8041  -1.7835  -1.7289
    -1.6089  -1.6061  -1.5902  -1.5795  -1.5631  -1.5426  -1.5364  -1.5149
    -1.4883  -1.4288  -1.4175  -1.4025  -1.3763  -1.3594  -1.2188  -1.1864
    -1.0834  -1.0491  -0.9536  -0.9328  -0.9143  -0.8841  -0.8738  -0.8632
    -0.8483  -0.8258  -0.7967  -0.7813  -0.7271  -0.7005  -0.6803  -0.6488
    -0.6302  -0.6042  -0.5892  -0.5796  -0.5465  -0.5099  -0.4705  -0.4153
    -0.3983  -0.3788  -0.3566  -0.3369  -0.3036  -0.2919  -0.2695  -0.2449
    -0.2182  -0.2108  -0.1990  -0.1876  -0.1767  -0.1705  -0.1276  -0.1187
    -0.1091  -0.0924  -0.0808  -0.0701  -0.0618  -0.0491  -0.0366  -0.0129
    -0.0039   0.0125   0.0518   0.0940   0.1377   0.1403   0.1593   0.1977
     0.2044   0.2125   0.2456   0.2624   0.3061   0.3125   0.3264   0.3409
     0.3780   0.3986   0.4083   0.4128   0.4541   0.5251   0.5755   0.5887
     0.6571   0.6611   0.7456   0.7625   0.8210   0.8431   0.8644   0.8822
     0.9071   0.9110   0.9326   0.9729   0.9835   1.0490   1.1632   1.1766
     1.1796   1.2049   1.2316   1.2365   1.2781   1.2944   1.3266   1.3351
     1.3634   1.3740   1.3912   1.4570   1.4647   1.4776   1.5274   1.5328
     1.5430   1.5464   1.5647   1.5810   1.6023   1.6172   1.6280   1.6525
     1.6640   1.7006   1.7358   1.7687   1.7796   1.7947   1.8031   1.8173
     1.8246   1.8539   1.8572   1.8707   1.8859   1.8929   1.9025   1.9050
     1.9501   2.0084   2.0517   2.1127   2.1187   2.1942   2.5431   2.6216
     2.6458   2.6985

          k = 0.2000-0.1155 0.0000 ( 51134 PWs)   bands (ev):

   -22.0399  -9.2460  -7.6672  -6.5372  -5.8895  -5.6900  -5.5303  -5.3789
    -5.1512  -4.9935  -4.9357  -4.4326  -4.1919  -4.0808  -4.0670  -3.9343
    -3.8531  -3.7848  -3.4758  -3.4001  -3.3475  -3.2709  -2.9722  -2.8012
    -2.7795  -2.7420  -2.6829  -2.6054  -2.4581  -2.3799  -2.3769  -2.3672
    -2.3334  -2.3008  -2.2927  -2.2880  -2.2385  -2.1998  -2.1113  -2.1083
    -2.0240  -2.0208  -1.9692  -1.8565  -1.8402  -1.8271  -1.8079  -1.7170
    -1.6837  -1.6542  -1.6165  -1.5815  -1.5642  -1.5427  -1.5327  -1.5320
    -1.5103  -1.5035  -1.4248  -1.4064  -1.3926  -1.3726  -1.3413  -1.3014
    -1.2440  -1.1668  -0.9724  -0.9224  -0.9105  -0.8996  -0.8421  -0.7880
    -0.7678  -0.7256  -0.6886  -0.6525  -0.6290  -0.5911  -0.5624  -0.5500
    -0.5186  -0.5096  -0.4904  -0.4822  -0.4755  -0.4634  -0.4282  -0.3969
    -0.3546  -0.3298  -0.3247  -0.3204  -0.3114  -0.2717  -0.2618  -0.2549
    -0.2486  -0.2380  -0.2341  -0.2278  -0.2234  -0.2208  -0.1895  -0.1711
    -0.1455  -0.1430  -0.1199  -0.1158  -0.1072  -0.0864  -0.0670  -0.0426
    -0.0335  -0.0139   0.0227   0.0601   0.0847   0.1002   0.1129   0.1284
     0.2327   0.2524   0.2878   0.3364   0.3526   0.3626   0.3991   0.4202
     0.4255   0.4353   0.4413   0.4491   0.5853   0.7009   0.7516   0.7704
     0.7834   0.7930   0.8047   0.8214   0.8611   0.8793   0.9276   0.9581
     0.9996   1.0322   1.0527   1.0742   1.0900   1.1106   1.1304   1.1367
     1.2036   1.2277   1.2458   1.2505   1.2656   1.2766   1.3159   1.3236
     1.3373   1.3576   1.3998   1.4167   1.4299   1.4387   1.4608   1.4906
     1.5066   1.5166   1.5212   1.5254   1.5469   1.5967   1.6067   1.6141
     1.6184   1.6437   1.6524   1.6820   1.6910   1.6951   1.7018   1.7094
     1.7267   1.7711   1.7757   1.7900   1.7918   1.8013   1.8089   1.8300
     1.8459   1.8539   1.8580   1.8855   1.9499   1.9601   1.9645   2.0262
     2.0403   2.1005

          k = 0.2000 0.1155 0.0000 ( 51134 PWs)   bands (ev):

   -22.0399  -9.2451  -7.6684  -6.5399  -5.9248  -5.6685  -5.4766  -5.4183
    -5.1315  -4.9921  -4.9634  -4.3678  -4.2209  -4.0859  -4.0658  -3.9784
    -3.8373  -3.7825  -3.4802  -3.4137  -3.3181  -3.2520  -2.9815  -2.8306
    -2.7795  -2.7258  -2.7063  -2.5758  -2.4640  -2.3824  -2.3753  -2.3572
    -2.3431  -2.3073  -2.2942  -2.2909  -2.2543  -2.1775  -2.1097  -2.1078
    -2.0232  -2.0212  -1.9696  -1.8726  -1.8322  -1.8241  -1.8010  -1.7082
    -1.6911  -1.6624  -1.6062  -1.5960  -1.5594  -1.5464  -1.5320  -1.5257
    -1.5245  -1.4779  -1.4451  -1.4008  -1.3922  -1.3726  -1.3409  -1.2982
    -1.2383  -1.1751  -0.9758  -0.9253  -0.9112  -0.8982  -0.8376  -0.8178
    -0.7843  -0.6973  -0.6738  -0.6547  -0.6370  -0.5866  -0.5716  -0.5439
    -0.5244  -0.5096  -0.4911  -0.4820  -0.4741  -0.4556  -0.4475  -0.3777
    -0.3445  -0.3293  -0.3253  -0.3198  -0.3089  -0.2701  -0.2609  -0.2564
    -0.2491  -0.2387  -0.2326  -0.2281  -0.2241  -0.2221  -0.1890  -0.1739
    -0.1527  -0.1404  -0.1222  -0.1167  -0.1117  -0.0881  -0.0619  -0.0535
    -0.0281  -0.0063   0.0307   0.0676   0.0796   0.0989   0.1127   0.1279
     0.2007   0.2772   0.2952   0.3320   0.3477   0.3712   0.4005   0.4156
     0.4250   0.4349   0.4438   0.4497   0.6089   0.6817   0.7509   0.7688
     0.7874   0.7966   0.8075   0.8172   0.8577   0.8781   0.9307   0.9592
     0.9771   1.0390   1.0581   1.0727   1.0898   1.1190   1.1316   1.1387
     1.1932   1.2266   1.2408   1.2555   1.2721   1.2774   1.3133   1.3222
     1.3366   1.3628   1.4039   1.4172   1.4292   1.4376   1.4573   1.4900
     1.5040   1.5175   1.5240   1.5338   1.5393   1.5913   1.6013   1.6124
     1.6223   1.6456   1.6504   1.6810   1.6904   1.6971   1.7016   1.7098
     1.7282   1.7721   1.7758   1.7888   1.7923   1.8013   1.8127   1.8289
     1.8453   1.8519   1.8591   1.8744   1.9495   1.9591   1.9674   2.0217
     2.0467   2.0952

          k = 0.2000 0.3464 0.0000 ( 51202 PWs)   bands (ev):

   -22.0399  -9.2317  -7.3885  -6.3890  -6.1210  -6.0092  -5.7015  -5.5035
    -5.3858  -5.1169  -4.6848  -4.4971  -4.2732  -4.2574  -3.9258  -3.4468
    -3.4351  -3.4305  -3.4189  -3.2861  -3.1636  -3.1330  -3.1127  -2.9242
    -2.7660  -2.6915  -2.6818  -2.6593  -2.5928  -2.5688  -2.5647  -2.4835
    -2.4744  -2.4667  -2.4319  -2.3236  -2.3100  -2.2464  -2.0933  -2.0884
    -2.0671  -2.0059  -1.9696  -1.9549  -1.9247  -1.8020  -1.7469  -1.7413
    -1.6355  -1.6144  -1.5726  -1.5697  -1.5586  -1.5471  -1.5314  -1.5097
    -1.4956  -1.4845  -1.4325  -1.3836  -1.3517  -1.3067  -1.2010  -1.1707
    -1.1122  -1.0792  -0.9970  -0.9456  -0.9031  -0.8730  -0.8520  -0.8364
    -0.8199  -0.7812  -0.7582  -0.7278  -0.7089  -0.6887  -0.6704  -0.6543
    -0.6423  -0.6237  -0.6045  -0.5740  -0.5436  -0.4616  -0.4414  -0.4254
    -0.4167  -0.3836  -0.3526  -0.3361  -0.3241  -0.3014  -0.2930  -0.2827
    -0.2677  -0.2511  -0.2372  -0.2170  -0.2053  -0.1896  -0.1709  -0.1401
    -0.1227  -0.1156  -0.1117  -0.0929  -0.0839  -0.0741  -0.0603  -0.0496
     0.0284   0.0388   0.0456   0.0662   0.1560   0.1588   0.1971   0.2219
     0.2408   0.2701   0.2922   0.3067   0.3351   0.3519   0.3696   0.3747
     0.3807   0.4150   0.4292   0.4714   0.5175   0.5867   0.6617   0.6871
     0.7358   0.7700   0.7923   0.8211   0.8326   0.8407   0.8600   0.8780
     0.8895   0.8992   0.9177   0.9335   0.9744   1.0281   1.0722   1.0894
     1.1109   1.1396   1.1471   1.1734   1.1928   1.2427   1.2571   1.3041
     1.3286   1.3806   1.4508   1.4823   1.4996   1.5088   1.5258   1.5380
     1.5603   1.5658   1.5842   1.5912   1.6519   1.6619   1.6716   1.6748
     1.6892   1.7161   1.7307   1.7427   1.7513   1.7654   1.7723   1.7961
     1.8094   1.8132   1.8235   1.8366   1.8480   1.8609   1.9025   1.9308
     1.9405   1.9831   2.0379   2.0704   2.1747   2.2084   2.3273   2.4807
     2.5243   2.5417

          k = 0.2000-0.5774 0.0000 ( 51262 PWs)   bands (ev):

   -22.0399  -9.2245  -6.8754  -6.8057  -6.2518  -6.0798  -5.7801  -5.5550
    -5.2926  -5.2414  -4.9042  -4.5781  -4.3148  -3.7754  -3.4954  -3.4656
    -3.4628  -3.3823  -3.2180  -3.1388  -3.0577  -3.0462  -3.0427  -2.9117
    -2.9072  -2.8926  -2.8739  -2.8691  -2.7507  -2.6320  -2.5294  -2.5168
    -2.4988  -2.4663  -2.4436  -2.4267  -2.3807  -2.3191  -2.2176  -2.0584
    -1.9838  -1.9718  -1.9624  -1.9252  -1.8842  -1.8033  -1.7401  -1.7262
    -1.6880  -1.6762  -1.6698  -1.5695  -1.5282  -1.5130  -1.5027  -1.4798
    -1.4468  -1.3921  -1.3479  -1.3355  -1.2923  -1.2721  -1.2492  -1.1484
    -1.1012  -1.0017  -0.9653  -0.9539  -0.9431  -0.8819  -0.8755  -0.8265
    -0.8168  -0.8030  -0.7741  -0.7546  -0.7465  -0.6957  -0.6858  -0.6688
    -0.6485  -0.6317  -0.6135  -0.6012  -0.5926  -0.5811  -0.5444  -0.5243
    -0.5149  -0.4790  -0.4475  -0.4335  -0.3831  -0.3605  -0.3404  -0.2869
    -0.2601  -0.2381  -0.2227  -0.2057  -0.1851  -0.1791  -0.1643  -0.1401
    -0.0995  -0.0860  -0.0647  -0.0463  -0.0265  -0.0226   0.0236   0.0685
     0.0926   0.1119   0.1242   0.1300   0.1431   0.1680   0.2184   0.2319
     0.2428   0.2510   0.2928   0.3056   0.3220   0.3380   0.3724   0.3975
     0.4054   0.4240   0.4410   0.4640   0.4727   0.4905   0.5102   0.5539
     0.5890   0.6571   0.7115   0.7607   0.7791   0.7949   0.8148   0.8216
     0.8526   0.8682   0.8817   0.9376   0.9972   1.0204   1.0276   1.0629
     1.0863   1.0925   1.1461   1.1726   1.1891   1.2074   1.2432   1.2986
     1.3667   1.3929   1.4417   1.4512   1.5121   1.5397   1.5733   1.5796
     1.5883   1.6009   1.6104   1.6282   1.6537   1.6715   1.6801   1.6898
     1.7257   1.7571   1.7586   1.7715   1.7804   1.7848   1.7888   1.7959
     1.8110   1.8459   1.8537   1.8836   1.8908   1.9055   1.9135   1.9321
     1.9946   2.0688   2.2081   2.3338   2.4763   2.6467   2.7084   2.7848
     2.8045   2.8682

          k = 0.2000-0.3464 0.0000 ( 51202 PWs)   bands (ev):

   -22.0399  -9.2331  -7.3852  -6.3889  -6.0821  -6.0236  -5.6935  -5.5601
    -5.3729  -5.1122  -4.6301  -4.5856  -4.2636  -4.2448  -3.9214  -3.4412
    -3.4377  -3.4317  -3.4128  -3.3052  -3.1541  -3.1419  -3.1097  -2.9124
    -2.7653  -2.6989  -2.6844  -2.6320  -2.6030  -2.5714  -2.5631  -2.4838
    -2.4792  -2.4670  -2.4296  -2.3273  -2.3013  -2.2439  -2.0986  -2.0927
    -2.0626  -2.0148  -1.9587  -1.9476  -1.9201  -1.8024  -1.7499  -1.7285
    -1.6692  -1.6003  -1.5750  -1.5702  -1.5553  -1.5473  -1.5371  -1.5154
    -1.4940  -1.4826  -1.4316  -1.3959  -1.3522  -1.2959  -1.2038  -1.1620
    -1.1021  -1.0865  -0.9974  -0.9244  -0.9003  -0.8724  -0.8538  -0.8323
    -0.8102  -0.7879  -0.7445  -0.7190  -0.7110  -0.6971  -0.6765  -0.6507
    -0.6463  -0.6366  -0.6084  -0.5960  -0.5085  -0.4740  -0.4337  -0.4285
    -0.4212  -0.3933  -0.3643  -0.3355  -0.3233  -0.3043  -0.2993  -0.2796
    -0.2651  -0.2603  -0.2359  -0.2157  -0.2038  -0.1847  -0.1574  -0.1410
    -0.1279  -0.1230  -0.1171  -0.0883  -0.0781  -0.0704  -0.0635  -0.0476
     0.0265   0.0407   0.0461   0.0833   0.1313   0.1540   0.1998   0.2231
     0.2418   0.2583   0.2930   0.3372   0.3449   0.3551   0.3645   0.3723
     0.3777   0.4027   0.4416   0.4691   0.4978   0.5741   0.6756   0.6894
     0.7388   0.7620   0.8037   0.8165   0.8303   0.8450   0.8641   0.8738
     0.8887   0.9058   0.9129   0.9338   0.9654   1.0292   1.0689   1.0816
     1.1150   1.1393   1.1502   1.1810   1.1942   1.2389   1.2565   1.3068
     1.3213   1.3807   1.4603   1.4810   1.4960   1.5122   1.5264   1.5415
     1.5527   1.5635   1.5853   1.5933   1.6548   1.6605   1.6696   1.6773
     1.6987   1.7186   1.7263   1.7431   1.7535   1.7616   1.7717   1.7958
     1.8105   1.8155   1.8218   1.8343   1.8495   1.8539   1.9034   1.9316
     1.9376   1.9973   2.0444   2.0646   2.1650   2.2065   2.3636   2.4294
     2.5214   2.5433

          k = 0.4000-0.2309 0.0000 ( 51204 PWs)   bands (ev):

   -22.0399  -9.2277  -7.2508  -6.5927  -6.2487  -5.8801  -5.5807  -5.4078
    -5.2483  -5.1654  -5.1078  -4.8143  -4.1297  -4.0411  -3.8194  -3.4717
    -3.4616  -3.4055  -3.3419  -3.1620  -3.1061  -3.0188  -2.9893  -2.8667
    -2.8625  -2.7953  -2.7544  -2.7141  -2.6540  -2.6239  -2.6082  -2.5657
[...]
     atom    8 type  1   force =     0.00184838   -0.00066362   -0.10194195
     atom    9 type  1   force =     0.00144921   -0.00063957   -0.10665081
     atom   10 type  1   force =    -0.00094875    0.00183840   -0.01116099
     atom   11 type  1   force =     0.00141875    0.00051604   -0.00652692
     atom   12 type  1   force =    -0.00025826    0.00010864   -0.00957929
     atom   13 type  1   force =     0.00137508   -0.00130529   -0.01206380
     atom   14 type  1   force =    -0.00126089   -0.00044098   -0.01027270
     atom   15 type  1   force =    -0.00056091   -0.00056078   -0.01380879
     atom   16 type  1   force =    -0.00089674    0.00000945   -0.01683158
     atom   17 type  1   force =     0.00193887   -0.00137967   -0.01053299
     atom   18 type  1   force =    -0.00127868    0.00252059   -0.01390055
     atom   19 type  1   force =     0.00258763    0.00521107    0.00732776
     atom   20 type  1   force =    -0.00340179    0.00904380   -0.00082907
     atom   21 type  1   force =     0.00047913    0.00033589    0.01400631
     atom   22 type  1   force =     0.00051793    0.00012326    0.02083793
     atom   23 type  1   force =    -0.00161552    0.00089405    0.00491054
     atom   24 type  1   force =     0.00073607    0.00094480    0.01275043
     atom   25 type  1   force =    -0.00237172   -0.00487895   -0.00251684
     atom   26 type  1   force =    -0.00179603   -0.00543747    0.00147044
     atom   27 type  1   force =     0.00453018   -0.00619624    0.00024041
     atom   28 type  1   force =     0.05353415   -0.01385569    0.08744683
     atom   29 type  1   force =    -0.05211216   -0.01461518    0.06418827
     atom   30 type  1   force =    -0.00098434    0.00360567    0.08390508
     atom   31 type  1   force =     0.00559113   -0.02410114    0.13785499
     atom   32 type  1   force =    -0.00014201   -0.00413119    0.08840230
     atom   33 type  1   force =    -0.00513503   -0.00175746    0.11212486
     atom   34 type  1   force =     0.00079089   -0.00225306    0.11707906
     atom   35 type  1   force =     0.00331514    0.05065656    0.13669843
     atom   36 type  1   force =    -0.00332567    0.00556930    0.12034229
     atom   37 type  2   force =    -0.01507063   -0.07490651    0.43030657
     atom   38 type  3   force =     0.06312958    0.16259134   -2.70065315
     atom   39 type  4   force =    -0.00006977   -0.00051036   -0.02163414
     The ionic contribution  to forces
     atom    1 type  1   force =    -0.00518195    0.00784203 -111.13977253
     atom    2 type  1   force =     0.00315783    0.00863482 -111.14378988
     atom    3 type  1   force =     0.00202412    0.00228168 -111.13351765
     atom    4 type  1   force =    -0.00032738    0.00122029 -111.12965404
     atom    5 type  1   force =    -0.00289006   -0.00429545 -111.13602313
     atom    6 type  1   force =     0.00321745   -0.00640106 -111.13535268
     atom    7 type  1   force =    -0.00640453   -0.00218379 -111.13797419
     atom    8 type  1   force =    -0.00166172   -0.00353469 -111.15421453
     atom    9 type  1   force =     0.00806625   -0.00356385 -111.14132307
     atom   10 type  1   force =    -0.05838674    0.01558152  -40.16977897
     atom   11 type  1   force =     0.04344980    0.01003982  -40.19862089
     atom   12 type  1   force =     0.01493677   -0.00155635  -40.08404831
     atom   13 type  1   force =    -0.01116445    0.06622852  -40.09539107
     atom   14 type  1   force =     0.01835288    0.02288738  -40.08107912
     atom   15 type  1   force =    -0.00718800    0.01210657  -40.05801480
     atom   16 type  1   force =    -0.03425829   -0.02189241  -40.06509921
     atom   17 type  1   force =    -0.00265243   -0.06705890  -40.14012377
     atom   18 type  1   force =     0.03691048   -0.03633420  -40.07067957
     atom   19 type  1   force =    -0.26023897    0.38997953   31.34866326
     atom   20 type  1   force =     0.14391940    0.44551708   31.15558784
     atom   21 type  1   force =     0.11619986    0.11351553   31.60503484
     atom   22 type  1   force =    -0.01168847    0.05300503   31.79040621
     atom   23 type  1   force =    -0.13998021   -0.21304792   31.53316072
     atom   24 type  1   force =     0.15168989   -0.30288869   31.55959998
     atom   25 type  1   force =    -0.32160134   -0.09905416   31.44264363
     atom   26 type  1   force =    -0.07354704   -0.19713485   30.52131988
     atom   27 type  1   force =     0.39509484   -0.19302322   31.27426588
     atom   28 type  1   force =    -4.37501687    1.30479419   99.45709909
     atom   29 type  1   force =     3.24966899    0.71812305   98.58321231
     atom   30 type  1   force =     1.12978238   -0.45061547  103.67095666
     atom   31 type  1   force =    -0.28284656    2.47168805  103.53110088
     atom   32 type  1   force =     0.51683402    1.46824439  103.73591425
     atom   33 type  1   force =    -0.22820945    0.37135196  104.43420052
     atom   34 type  1   force =    -1.14826073   -0.76135488  104.20426978
     atom   35 type  1   force =    -0.04873209   -3.78204304  101.56263664
     atom   36 type  1   force =     1.19429688   -1.11981227  104.15046080
     atom   37 type  2   force =    -0.00437906    0.26803086   51.08438034
     atom   38 type  3   force =    -0.37789269   -0.67773523   89.57150056
     atom   39 type  4   force =     0.37490720    0.19245814   14.99804336
     The local contribution  to forces
     atom    1 type  1   force =     0.00321627   -0.00700775  111.24585524
     atom    2 type  1   force =    -0.00152016   -0.01071083  111.25235078
     atom    3 type  1   force =    -0.00148311   -0.00149164  111.23586847
     atom    4 type  1   force =    -0.00125730   -0.00177544  111.23427953
     atom    5 type  1   force =     0.00238306    0.00499267  111.24174642
     atom    6 type  1   force =    -0.00136642    0.00351341  111.24268532
     atom    7 type  1   force =     0.00950930    0.00196649  111.24424837
     atom    8 type  1   force =    -0.00023316    0.00500603  111.26057926
     atom    9 type  1   force =    -0.00949609    0.00540182  111.25112960
     atom   10 type  1   force =     0.05742218   -0.01860747   40.16059484
     atom   11 type  1   force =    -0.04311858   -0.01073065   40.18453031
     atom   12 type  1   force =    -0.01413499    0.00146110   40.07295891
     atom   13 type  1   force =     0.00921735   -0.06354587   40.09000647
     atom   14 type  1   force =    -0.01755609   -0.02163665   40.07075585
     atom   15 type  1   force =     0.00855717   -0.01070931   40.05009818
     atom   16 type  1   force =     0.03499781    0.02324979   40.06237126
     atom   17 type  1   force =     0.00006594    0.06749502   40.13254463
     atom   18 type  1   force =    -0.03500966    0.03405592   40.06510782
     atom   19 type  1   force =     0.25910018   -0.39182506  -31.33968337
     atom   20 type  1   force =    -0.14320233   -0.45163674  -31.14169723
     atom   21 type  1   force =    -0.11538657   -0.11391376  -31.59756977
     atom   22 type  1   force =     0.01016732   -0.05409365  -31.78579565
     atom   23 type  1   force =     0.14010031    0.21094751  -31.51662697
     atom   24 type  1   force =    -0.15005486    0.30106577  -31.55180539
     atom   25 type  1   force =     0.32321520    0.10275032  -31.42489280
     atom   26 type  1   force =     0.07628949    0.20318148  -30.50623702
     atom   27 type  1   force =    -0.40024969    0.19665704  -31.26190672
     atom   28 type  1   force =     4.30319519   -1.28937258  -99.54059843
     atom   29 type  1   force =    -3.19212979   -0.70691953  -98.63528881
     atom   30 type  1   force =    -1.11466959    0.44152895 -103.76236994
     atom   31 type  1   force =     0.27199613   -2.43570769 -103.67818821
     atom   32 type  1   force =    -0.51486863   -1.45041863 -103.83200051
     atom   33 type  1   force =     0.23665168   -0.36815708 -104.55607559
     atom   34 type  1   force =     1.14517406    0.76246365 -104.32946691
     atom   35 type  1   force =     0.04425735    3.72274941 -101.70222361
     atom   36 type  1   force =    -1.18716244    1.10643804 -104.28014149
     atom   37 type  2   force =     0.01939447   -0.19643542  -51.50636612
     atom   38 type  3   force =     0.31534525    0.51481897  -86.89749210
     atom   39 type  4   force =    -0.37484371   -0.19184327  -14.97630021
     The core correction contribution to forces
     atom    1 type  1   force =    -0.00021088   -0.00015608    0.00984624
     atom    2 type  1   force =    -0.00003928   -0.00026820    0.01005063
     atom    3 type  1   force =     0.00023015    0.00002389    0.00986325
     atom    4 type  1   force =     0.00009112   -0.00011815    0.01005206
     atom    5 type  1   force =     0.00014328    0.00005019    0.00998224
     atom    6 type  1   force =    -0.00016703   -0.00011682    0.00981998
     atom    7 type  1   force =     0.00007842   -0.00003953    0.01005281
     atom    8 type  1   force =     0.00002835    0.00037601    0.00948471
     atom    9 type  1   force =    -0.00015475   -0.00007863    0.01015921
     atom   10 type  1   force =    -0.00002014   -0.00004101   -0.00197025
     atom   11 type  1   force =     0.00003405    0.00014297   -0.00181597
     atom   12 type  1   force =    -0.00001247    0.00023983   -0.00185630
     atom   13 type  1   force =    -0.00034791    0.00028761   -0.00167653
     atom   14 type  1   force =     0.00019194   -0.00011978   -0.00193345
     atom   15 type  1   force =     0.00017460    0.00002412   -0.00166620
     atom   16 type  1   force =    -0.00007118    0.00006210   -0.00186346
     atom   17 type  1   force =    -0.00015826    0.00012189   -0.00193525
     atom   18 type  1   force =     0.00012538   -0.00036069   -0.00168992
     atom   19 type  1   force =    -0.00010468    0.00084269    0.00081452
     atom   20 type  1   force =    -0.00020697    0.00090213    0.00042704
     atom   21 type  1   force =     0.00049779    0.00011414    0.00204848
     atom   22 type  1   force =    -0.00005047    0.00014484    0.00195261
     atom   23 type  1   force =    -0.00033372    0.00060600    0.00144674
     atom   24 type  1   force =     0.00050038   -0.00053683    0.00144209
     atom   25 type  1   force =     0.00038607   -0.00052872    0.00148427
     atom   26 type  1   force =    -0.00099240   -0.00094654    0.00123885
     atom   27 type  1   force =     0.00067531   -0.00050055    0.00103489
     atom   28 type  1   force =     0.01015085   -0.00303261   -0.00513221
     atom   29 type  1   force =    -0.00233351    0.00285206    0.00037093
     atom   30 type  1   force =    -0.00935302    0.00523228   -0.00576711
     atom   31 type  1   force =     0.00118513   -0.00504908   -0.00757167
     atom   32 type  1   force =    -0.00001598   -0.01094333   -0.00533852
     atom   33 type  1   force =    -0.00090680   -0.00146409   -0.00978621
     atom   34 type  1   force =     0.00129658    0.00139019   -0.00932406
     atom   35 type  1   force =    -0.00032989    0.00793598   -0.00565759
     atom   36 type  1   force =    -0.00126875    0.00297833   -0.00837915
     atom   37 type  2   force =     0.00015496    0.00137367   -0.00163669
     atom   38 type  3   force =    -0.00045762   -0.00116519    0.01968777
     atom   39 type  4   force =     0.00000000    0.00000000    0.00000000
     The Hubbard contrib.    to forces
     atom    1 type  1   force =     0.00000000    0.00000000    0.00000000
     atom    2 type  1   force =     0.00000000    0.00000000    0.00000000
     atom    3 type  1   force =     0.00000000    0.00000000    0.00000000
     atom    4 type  1   force =     0.00000000    0.00000000    0.00000000
     atom    5 type  1   force =     0.00000000    0.00000000    0.00000000
     atom    6 type  1   force =     0.00000000    0.00000000    0.00000000
     atom    7 type  1   force =     0.00000000    0.00000000    0.00000000
     atom    8 type  1   force =     0.00000000    0.00000000    0.00000000
     atom    9 type  1   force =     0.00000000    0.00000000    0.00000000
     atom   10 type  1   force =     0.00000000    0.00000000    0.00000000
     atom   11 type  1   force =     0.00000000    0.00000000    0.00000000
     atom   12 type  1   force =     0.00000000    0.00000000    0.00000000
     atom   13 type  1   force =     0.00000000    0.00000000    0.00000000
     atom   14 type  1   force =     0.00000000    0.00000000    0.00000000
     atom   15 type  1   force =     0.00000000    0.00000000    0.00000000
     atom   16 type  1   force =     0.00000000    0.00000000    0.00000000
     atom   17 type  1   force =     0.00000000    0.00000000    0.00000000
     atom   18 type  1   force =     0.00000000    0.00000000    0.00000000
     atom   19 type  1   force =     0.00000000    0.00000000    0.00000000
     atom   20 type  1   force =     0.00000000    0.00000000    0.00000000
     atom   21 type  1   force =     0.00000000    0.00000000    0.00000000
     atom   22 type  1   force =     0.00000000    0.00000000    0.00000000
     atom   23 type  1   force =     0.00000000    0.00000000    0.00000000
     atom   24 type  1   force =     0.00000000    0.00000000    0.00000000
     atom   25 type  1   force =     0.00000000    0.00000000    0.00000000
     atom   26 type  1   force =     0.00000000    0.00000000    0.00000000
     atom   27 type  1   force =     0.00000000    0.00000000    0.00000000
     atom   28 type  1   force =     0.00000000    0.00000000    0.00000000
     atom   29 type  1   force =     0.00000000    0.00000000    0.00000000
     atom   30 type  1   force =     0.00000000    0.00000000    0.00000000
     atom   31 type  1   force =     0.00000000    0.00000000    0.00000000
     atom   32 type  1   force =     0.00000000    0.00000000    0.00000000
     atom   33 type  1   force =     0.00000000    0.00000000    0.00000000
     atom   34 type  1   force =     0.00000000    0.00000000    0.00000000
     atom   35 type  1   force =     0.00000000    0.00000000    0.00000000
     atom   36 type  1   force =     0.00000000    0.00000000    0.00000000
     atom   37 type  2   force =     0.00000000    0.00000000    0.00000000
     atom   38 type  3   force =     0.00000000    0.00000000    0.00000000
     atom   39 type  4   force =     0.00000000    0.00000000    0.00000000
     The SCF correction term to forces
     atom    1 type  1   force =     0.00000000   -0.00000000    0.00000000
     atom    2 type  1   force =    -0.00000000   -0.00000000    0.00000000
     atom    3 type  1   force =     0.00000000    0.00000000    0.00000000
     atom    4 type  1   force =    -0.00000000   -0.00000000    0.00000000
     atom    5 type  1   force =     0.00000000    0.00000000    0.00000000
     atom    6 type  1   force =    -0.00000000    0.00000000    0.00000000
     atom    7 type  1   force =     0.00000000    0.00000000    0.00000000
     atom    8 type  1   force =    -0.00000000    0.00000000    0.00000000
     atom    9 type  1   force =    -0.00000000    0.00000000    0.00000000
     atom   10 type  1   force =     0.00000000   -0.00000000    0.00000000
     atom   11 type  1   force =    -0.00000000    0.00000000    0.00000000
     atom   12 type  1   force =     0.00000000   -0.00000000    0.00000000
     atom   13 type  1   force =     0.00000000    0.00000000    0.00000000
     atom   14 type  1   force =    -0.00000000    0.00000000    0.00000000
     atom   15 type  1   force =     0.00000000    0.00000000    0.00000000
     atom   16 type  1   force =    -0.00000000    0.00000000    0.00000000
     atom   17 type  1   force =     0.00000000    0.00000000    0.00000000
     atom   18 type  1   force =    -0.00000000   -0.00000000    0.00000000
     atom   19 type  1   force =    -0.00000000   -0.00000000    0.00000000
     atom   20 type  1   force =     0.00000000    0.00000000    0.00000000
     atom   21 type  1   force =     0.00000000   -0.00000000    0.00000000
     atom   22 type  1   force =     0.00000000    0.00000000    0.00000000
     atom   23 type  1   force =     0.00000000    0.00000000    0.00000000
     atom   24 type  1   force =    -0.00000000    0.00000000    0.00000000
     atom   25 type  1   force =     0.00000000   -0.00000000    0.00000000
     atom   26 type  1   force =    -0.00000000   -0.00000000    0.00000000
     atom   27 type  1   force =     0.00000000   -0.00000000    0.00000000
     atom   28 type  1   force =    -0.00000000   -0.00000000    0.00000000
     atom   29 type  1   force =    -0.00000000   -0.00000000    0.00000000
     atom   30 type  1   force =     0.00000000    0.00000000    0.00000000
     atom   31 type  1   force =    -0.00000000   -0.00000000    0.00000000
     atom   32 type  1   force =     0.00000000    0.00000000    0.00000000
     atom   33 type  1   force =    -0.00000000    0.00000000    0.00000000
     atom   34 type  1   force =     0.00000000    0.00000000    0.00000000
     atom   35 type  1   force =    -0.00000000   -0.00000000    0.00000000
     atom   36 type  1   force =    -0.00000000   -0.00000000    0.00000000
     atom   37 type  2   force =    -0.00000862   -0.00001055   -0.00001441
     atom   38 type  3   force =    -0.00000456   -0.00000621    0.00000637
     atom   39 type  4   force =     0.00000125    0.00000120    0.00000037

     Total force =     0.009947     Total SCF correction =     0.000022

     Writing all to output data dir ./pwscf.save/

     init_run     :     12.23s CPU     12.71s WALL (       1 calls)
     electrons    :    837.55s CPU    854.10s WALL (       1 calls)
     forces       :      3.45s CPU      3.64s WALL (       1 calls)

     Called by init_run:
     wfcinit      :      8.99s CPU      9.34s WALL (       1 calls)
     potinit      :      1.99s CPU      2.09s WALL (       1 calls)
     hinit0       :      1.00s CPU      1.01s WALL (       1 calls)

     Called by electrons:
     c_bands      :    719.22s CPU    732.46s WALL (      45 calls)
     sum_band     :     84.51s CPU     86.23s WALL (      45 calls)
     v_of_rho     :      8.27s CPU      8.87s WALL (      46 calls)
     newd         :      2.44s CPU      2.52s WALL (      46 calls)
     PAW_pot      :     11.80s CPU     12.01s WALL (      46 calls)
     mix_rho      :     12.58s CPU     13.02s WALL (      45 calls)
     vdW_kernel   :      1.12s CPU      1.13s WALL (       1 calls)

     Called by c_bands:
     init_us_2    :      8.05s CPU      8.29s WALL (    2392 calls)
     init_us_2:cp :      8.04s CPU      8.28s WALL (    2392 calls)
     cegterg      :    694.97s CPU    707.30s WALL (    1171 calls)

     Called by *egterg:
     cdiaghg      :    186.32s CPU    188.76s WALL (    4251 calls)
     h_psi        :    334.13s CPU    340.75s WALL (    4277 calls)
     s_psi        :     34.12s CPU     34.75s WALL (    4277 calls)
     g_psi        :      0.87s CPU      0.90s WALL (    3080 calls)

     Called by h_psi:
     h_psi:calbec :     52.43s CPU     53.73s WALL (    4277 calls)
     vloc_psi     :    244.90s CPU    249.37s WALL (    4277 calls)
     add_vuspsi   :     34.67s CPU     35.46s WALL (    4277 calls)

     General routines
     calbec       :     76.59s CPU     78.44s WALL (    5551 calls)
     fft          :      5.30s CPU      5.90s WALL (    4171 calls)
     ffts         :      7.46s CPU      7.70s WALL (   17356 calls)
     fftw         :    278.00s CPU    283.01s WALL ( 1221188 calls)
     interpolate  :      0.44s CPU      0.46s WALL (      92 calls)

     Parallel routines

     PWSCF        :  14m19.22s CPU  14m42.18s WALL


   This run was terminated on:  10:56:18  17Dec2025            

=------------------------------------------------------------------------------=
   JOB DONE.
=------------------------------------------------------------------------------=
