
     Program PWSCF v.7.1 starts on  7Dec2025 at 19:34:43 
        Git branch: heads/qe-7.1
        Last git commit: 48ba0178f8fede6d020eb786884699a9f063f55d-dirty
        Last git commit date: Fri Jan 27 14:22:33 2023 +0000
        Last git commit subject: Merge branch 'fix_hubbard' into 'develop'

     This program is part of the open-source Quantum ESPRESSO suite
     for quantum simulation of materials; please cite
         "P. Giannozzi et al., J. Phys.:Condens. Matter 21 395502 (2009);
         "P. Giannozzi et al., J. Phys.:Condens. Matter 29 465901 (2017);
         "P. Giannozzi et al., J. Chem. Phys. 152 154105 (2020);
          URL http://www.quantum-espresso.org", 
     in publications or presentations arising from this work. More details at
     http://www.quantum-espresso.org/quote

     Parallel version (MPI), running on    96 processors

     MPI processes distributed on     2 nodes
     11364 MiB available memory on the printing compute node when the environment starts

     Reading input from espresso.pwi
Warning: card &CELL ignored
Warning: card / ignored
Warning: card &FCP ignored
Warning: card / ignored
Warning: card &RISM ignored
Warning: card / ignored

     Current dimensions of program PWSCF are:
     Max number of different atomic species (ntypx) = 10
     Max number of k-points (npk) =  40000
     Max angular momentum in pseudopotentials (lmaxx) =  4
     file Co.pbe-n-kjpaw_psl.1.0.0.UPF: wavefunction(s)  4S 3D renormalized
     file C.pbe-n-kjpaw_psl.1.0.0.UPF: wavefunction(s)  2S 2P renormalized
     file O.pbe-nl-kjpaw_psl.1.0.0.UPF: wavefunction(s)  2S 2P renormalized
     file H.pbe-kjpaw_psl.1.0.0.UPF: wavefunction(s)  1S renormalized

     **************************************************************************
     Initializing libbeef V0.1.2 with the BEEF-vdW functional.
     Citation: Wellendorff et al., PRB 85, 235149 (2012).
     **************************************************************************


     IMPORTANT: XC functional enforced from input :
     Exchange-correlation= BEEF-VDW
                           (   1   4  43  14   2   0   0)
     Any further DFT definition will be discarded
     Please, verify this is what you really want


     R & G space division:  proc/nbgrp/npool/nimage =      96
     Subspace diagonalization in iterative solution of the eigenvalue problem:
     one sub-group per band group will be used
     custom distributed-memory algorithm (size of sub-group:  2*  2 procs)


     Parallelization info
     --------------------
     sticks:   dense  smooth     PW     G-vecs:    dense   smooth      PW
     Min          43      28      7                 7829     4248     595
     Max          44      29      8                 7845     4281     630
     Sum        4153    2773    757               752179   409445   59217

     Using Slab Decomposition



     bravais-lattice index     =            0
     lattice parameter (alat)  =      14.1729  a.u.
     unit-cell volume          =    8574.3059 (a.u.)^3
     number of atoms/cell      =           39
     number of atomic types    =            4
     number of electrons       =       335.00
     number of Kohn-Sham states=          202
     kinetic-energy cutoff     =      50.0000  Ry
     charge density cutoff     =     300.0000  Ry
     scf convergence threshold =      1.0E-08
     mixing beta               =       0.7000
     number of iterations used =            8  local-TF  mixing
     Exchange-correlation= BEEF-VDW
                           (   1   4  43  14   2   0   0)

     celldm(1)=  14.172946  celldm(2)=   0.000000  celldm(3)=   0.000000
     celldm(4)=   0.000000  celldm(5)=   0.000000  celldm(6)=   0.000000

     crystal axes: (cart. coord. in units of alat)
               a(1) = (   1.000000   0.000000   0.000000 )  
               a(2) = (   0.500000   0.866025   0.000000 )  
               a(3) = (   0.000000   0.000000   3.477667 )  

     reciprocal axes: (cart. coord. in units 2 pi/alat)
               b(1) = (  1.000000 -0.577350  0.000000 )  
               b(2) = (  0.000000  1.154701  0.000000 )  
               b(3) = (  0.000000  0.000000  0.287549 )  


     PseudoPot. # 1 for Co read from file:
     /users/kbadger1/espresso/pseudo/pslibrary.1.0.0/pbe/PSEUDOPOTENTIALS/Co.pbe-n-kjpaw_psl.1.0.0.UPF
     MD5 check sum: 88af6ec42553d4236c267fdfcb472151
     Pseudo is Projector augmented-wave + core cor, Zval =  9.0
     Generated using 'atomic' code by A. Dal Corso  v.7.0
     Shape of augmentation charge: PSQ
     Using radial grid of 1193 points,  6 beta functions with: 
                l(1) =   0
                l(2) =   0
                l(3) =   1
                l(4) =   1
                l(5) =   2
                l(6) =   2
     Q(r) pseudized with 0 coefficients 


     PseudoPot. # 2 for C  read from file:
     /users/kbadger1/espresso/pseudo/pslibrary.1.0.0/pbe/PSEUDOPOTENTIALS/C.pbe-n-kjpaw_psl.1.0.0.UPF
     MD5 check sum: 6408e75cdba28732cea38a4db8498ce4
     Pseudo is Projector augmented-wave + core cor, Zval =  4.0
     Generated using 'atomic' code by A. Dal Corso  v.7.0
     Shape of augmentation charge: PSQ
     Using radial grid of 1073 points,  4 beta functions with: 
                l(1) =   0
                l(2) =   0
                l(3) =   1
                l(4) =   1
     Q(r) pseudized with 0 coefficients 


     PseudoPot. # 3 for O  read from file:
     /users/kbadger1/espresso/pseudo/pslibrary.1.0.0/pbe/PSEUDOPOTENTIALS/O.pbe-nl-kjpaw_psl.1.0.0.UPF
     MD5 check sum: f0439fab3598ca4e468f064226030408
     Pseudo is Projector augmented-wave + core cor, Zval =  6.0
     Generated using 'atomic' code by A. Dal Corso  v.7.0
     Shape of augmentation charge: PSQ
     Using radial grid of 1095 points,  4 beta functions with: 
                l(1) =   0
                l(2) =   0
                l(3) =   1
                l(4) =   1
     Q(r) pseudized with 0 coefficients 


     PseudoPot. # 4 for H  read from file:
     /users/kbadger1/espresso/pseudo/pslibrary.1.0.0/pbe/PSEUDOPOTENTIALS/H.pbe-kjpaw_psl.1.0.0.UPF
     MD5 check sum: fe4c6fa958fa6d3815bf5d2419cbf1df
     Pseudo is Projector augmented-wave, Zval =  1.0
     Generated using 'atomic' code by A. Dal Corso  v.7.0
     Shape of augmentation charge: PSQ
     Using radial grid of  929 points,  2 beta functions with: 
                l(1) =   0
                l(2) =   0
     Q(r) pseudized with 0 coefficients 


     atomic species   valence    mass     pseudopotential
        Co             9.00    58.93319     Co( 1.00)
        C              4.00    12.00000     C ( 1.00)
        O              6.00    15.99491     O ( 1.00)
        H              1.00     1.00783     H ( 1.00)

     Starting magnetic structure 
     atomic species   magnetization
        Co           1.000
        C            1.000
        O            0.000
        H            0.000

     No symmetry found



   Cartesian axes

     site n.     atom                  positions (alat units)
         1           Co  tau(   1) = (   0.0000000   0.1924501   1.3333333  )
         2           Co  tau(   2) = (   0.3333333   0.1924501   1.3333333  )
         3           Co  tau(   3) = (   0.6666667   0.1924501   1.3333333  )
         4           Co  tau(   4) = (   0.1666667   0.4811252   1.3333333  )
         5           Co  tau(   5) = (   0.5000000   0.4811252   1.3333333  )
         6           Co  tau(   6) = (   0.8333333   0.4811252   1.3333333  )
         7           Co  tau(   7) = (   0.3333333   0.7698004   1.3333333  )
         8           Co  tau(   8) = (   0.6666667   0.7698004   1.3333333  )
         9           Co  tau(   9) = (   1.0000000   0.7698004   1.3333333  )
        10           Co  tau(  10) = (   0.0000000   0.0000000   1.6036667  )
        11           Co  tau(  11) = (   0.3333333   0.0000000   1.6036667  )
        12           Co  tau(  12) = (   0.6666667   0.0000000   1.6036667  )
        13           Co  tau(  13) = (   0.1666667   0.2886751   1.6036667  )
        14           Co  tau(  14) = (   0.5000000   0.2886751   1.6036667  )
        15           Co  tau(  15) = (   0.8333333   0.2886751   1.6036667  )
        16           Co  tau(  16) = (   0.3333333   0.5773503   1.6036667  )
        17           Co  tau(  17) = (   0.6666667   0.5773503   1.6036667  )
        18           Co  tau(  18) = (   1.0000000   0.5773503   1.6036667  )
        19           Co  tau(  19) = (   0.0000000   0.1924501   1.8740000  )
        20           Co  tau(  20) = (   0.3333333   0.1924501   1.8740000  )
        21           Co  tau(  21) = (   0.6666667   0.1924501   1.8740000  )
        22           Co  tau(  22) = (   0.1666667   0.4811252   1.8740000  )
        23           Co  tau(  23) = (   0.5000000   0.4811252   1.8740000  )
        24           Co  tau(  24) = (   0.8333333   0.4811252   1.8740000  )
        25           Co  tau(  25) = (   0.3333333   0.7698004   1.8740000  )
        26           Co  tau(  26) = (   0.6666667   0.7698004   1.8740000  )
        27           Co  tau(  27) = (   1.0000000   0.7698004   1.8740000  )
        28           Co  tau(  28) = (   0.0000000   0.0000000   2.1443333  )
        29           Co  tau(  29) = (   0.3333333   0.0000000   2.1443333  )
        30           Co  tau(  30) = (   0.6666667   0.0000000   2.1443333  )
        31           Co  tau(  31) = (   0.1666667   0.2886751   2.1443333  )
        32           Co  tau(  32) = (   0.5000000   0.2886751   2.1443333  )
        33           Co  tau(  33) = (   0.8333333   0.2886751   2.1443333  )
        34           Co  tau(  34) = (   0.3333333   0.5773503   2.1443333  )
        35           Co  tau(  35) = (   0.6666667   0.5773503   2.1443333  )
        36           Co  tau(  36) = (   1.0000000   0.5773503   2.1443333  )
        37           C   tau(  37) = (   0.4196325   0.1959715   2.3612569  )
        38           O   tau(  38) = (   0.3238842   0.0763675   2.4278160  )
        39           H   tau(  39) = (   0.4954475   0.2859768   2.4509449  )

     number of k points=    13  Marzari-Vanderbilt smearing, width (Ry)=  0.0010
                       cart. coord. in units 2pi/alat
        k(    1) = (   0.0000000   0.0000000   0.0000000), wk =   0.0400000
        k(    2) = (   0.0000000   0.2309401   0.0000000), wk =   0.0800000
        k(    3) = (   0.0000000   0.4618802   0.0000000), wk =   0.0800000
        k(    4) = (   0.2000000  -0.1154701   0.0000000), wk =   0.0800000
        k(    5) = (   0.2000000   0.1154701   0.0000000), wk =   0.0800000
        k(    6) = (   0.2000000   0.3464102   0.0000000), wk =   0.0800000
        k(    7) = (   0.2000000  -0.5773503   0.0000000), wk =   0.0800000
        k(    8) = (   0.2000000  -0.3464102   0.0000000), wk =   0.0800000
        k(    9) = (   0.4000000  -0.2309401   0.0000000), wk =   0.0800000
        k(   10) = (   0.4000000   0.0000000   0.0000000), wk =   0.0800000
        k(   11) = (   0.4000000   0.2309401   0.0000000), wk =   0.0800000
        k(   12) = (   0.4000000  -0.6928203   0.0000000), wk =   0.0800000
        k(   13) = (   0.4000000  -0.4618802   0.0000000), wk =   0.0800000

     Dense  grid:   752179 G-vectors     FFT dimensions: (  80,  80, 288)

     Smooth grid:   409445 G-vectors     FFT dimensions: (  64,  64, 225)

     Estimated max dynamical RAM per process >      99.02 MB

     Estimated total dynamical RAM >       9.28 GB
     Generating pointlists ...
     new r_m :   0.1028 (alat units)  1.4570 (a.u.) for type    1
     new r_m :   0.0610 (alat units)  0.8650 (a.u.) for type    2
     new r_m :   0.0689 (alat units)  0.9766 (a.u.) for type    3
     new r_m :   0.0610 (alat units)  0.8650 (a.u.) for type    4

     Initial potential from superposition of free atoms

     starting charge     334.9897, renormalised to     335.0000

     negative rho (up, down):  3.013E-03 4.714E-04


     %%%%%%%%%%%%%%%%%%%%%%%%%%%%%%%%%%%%%%%%%%%%%%%%%%%%%%%%%%%%%%%%%%%%%%%%
     %                                                                      %
     % You are using vdW-DF, which was implemented by the Thonhauser group. %
     % Please cite the following two papers that made this development      %
     % possible and the two reviews that describe the various versions:     %
     %                                                                      %
     %   T. Thonhauser et al., PRL 115, 136402 (2015).                      %
     %   T. Thonhauser et al., PRB 76, 125112 (2007).                       %
     %   K. Berland et al., Rep. Prog. Phys. 78, 066501 (2015).             %
     %   D.C. Langreth et al., J. Phys.: Condens. Matter 21, 084203 (2009). %
     %                                                                      %
     % If you are calculating stress with vdW-DF, please also cite:         %
     %                                                                      %
     %   R. Sabatini et al., J. Phys.: Condens. Matter 24, 424209 (2012).   %
     %   C.M. Frostenson et al., Electr. Struct. 4, 014001 (2022).          %
     %                                                                      %
     %%%%%%%%%%%%%%%%%%%%%%%%%%%%%%%%%%%%%%%%%%%%%%%%%%%%%%%%%%%%%%%%%%%%%%%%

     %%%%%%%%%%%%%%%%%%%%%%%%%%%%%%%%%%%%%%%%%%%%%%%%%%%%%%%%%%%%%%%%%%%%%%%%
     %                                                                      %
     %  vdW-DF NEWS:                                                        %
     %                                                                      %
     %  * vdW-DF3 is now available. DOI: 10.1021/acs.jctc.0c00471           %
     %    use with input_dft = 'vdW-DF3-opt1' or 'vdW-DF3-opt2'             %
     %                                                                      %
     %  * Unscreened and range-separated hybrid vdW-DF-cx functionals       %
     %    DOI: 10.1063/1.4986522 and 10.1088/1361-648X/ac2ad2               %
     %    use with input_dft = 'vdW-DF-cx0'    and 'vdW-DF-ahcx'            %
     %  * Unscreened and range-separated hybrid vdW-DF2-b86r functionals    %
     %    DOI: 10.1063/1.4986522 and DOI: 10.1103/PhysRevX.12.041003        %
     %    use with input_dft = 'vdW-DF2-br0' and 'vdW-DF2-ahbr'             %
     %                                                                      %
     %%%%%%%%%%%%%%%%%%%%%%%%%%%%%%%%%%%%%%%%%%%%%%%%%%%%%%%%%%%%%%%%%%%%%%%%


     Starting wfcs are  333 randomized atomic wfcs
     Checking if some PAW data can be deallocated... 

     total cpu time spent up to now is       16.9 secs

     per-process dynamical memory:   230.9 Mb

     Self-consistent Calculation

     iteration #  1     ecut=    50.00 Ry     beta= 0.70
     Davidson diagonalization with overlap
     ethr =  1.00E-02,  avg # of iterations =  2.0

     negative rho (up, down):  2.356E-05 5.424E-08

     total cpu time spent up to now is       34.1 secs

     total energy              =   -6053.07606165 Ry
     estimated scf accuracy    <      39.74833283 Ry

     total magnetization       =    69.00 Bohr mag/cell
     absolute magnetization    =    81.23 Bohr mag/cell

     iteration #  2     ecut=    50.00 Ry     beta= 0.70
     Davidson diagonalization with overlap
     ethr =  1.00E-02,  avg # of iterations =  1.0

     negative rho (up, down):  2.514E-06 9.739E-09

     total cpu time spent up to now is       52.3 secs

     total energy              =   -6052.52003336 Ry
     estimated scf accuracy    <      24.71711992 Ry

     total magnetization       =    68.68 Bohr mag/cell
     absolute magnetization    =    76.71 Bohr mag/cell

     iteration #  3     ecut=    50.00 Ry     beta= 0.70
     Davidson diagonalization with overlap
     ethr =  7.38E-03,  avg # of iterations =  1.0

     total cpu time spent up to now is       66.2 secs

     total energy              =   -6055.12419511 Ry
     estimated scf accuracy    <      86.94088976 Ry

     total magnetization       =    65.80 Bohr mag/cell
     absolute magnetization    =    73.05 Bohr mag/cell

     iteration #  4     ecut=    50.00 Ry     beta= 0.70
     Davidson diagonalization with overlap
     ethr =  7.38E-03,  avg # of iterations =  1.0

     total cpu time spent up to now is       83.8 secs

     total energy              =   -6056.30864221 Ry
     estimated scf accuracy    <       5.78938165 Ry

     total magnetization       =    60.37 Bohr mag/cell
     absolute magnetization    =    70.37 Bohr mag/cell

     iteration #  5     ecut=    50.00 Ry     beta= 0.70
     Davidson diagonalization with overlap
     ethr =  1.73E-03,  avg # of iterations =  1.4

     total cpu time spent up to now is      102.1 secs

     total energy              =   -6056.36518195 Ry
     estimated scf accuracy    <       2.62065546 Ry

     total magnetization       =    60.27 Bohr mag/cell
     absolute magnetization    =    69.76 Bohr mag/cell

     iteration #  6     ecut=    50.00 Ry     beta= 0.70
     Davidson diagonalization with overlap
     ethr =  7.82E-04,  avg # of iterations =  1.6

     total cpu time spent up to now is      116.0 secs

     total energy              =   -6056.47075483 Ry
     estimated scf accuracy    <       0.58982337 Ry

     total magnetization       =    60.31 Bohr mag/cell
     absolute magnetization    =    69.62 Bohr mag/cell

     iteration #  7     ecut=    50.00 Ry     beta= 0.70
     Davidson diagonalization with overlap
     ethr =  1.76E-04,  avg # of iterations =  4.6

     total cpu time spent up to now is      138.2 secs

     total energy              =   -6056.50123896 Ry
     estimated scf accuracy    <       0.85659823 Ry

     total magnetization       =    60.26 Bohr mag/cell
     absolute magnetization    =    69.29 Bohr mag/cell

     iteration #  8     ecut=    50.00 Ry     beta= 0.70
     Davidson diagonalization with overlap
     ethr =  1.76E-04,  avg # of iterations =  1.7

     total cpu time spent up to now is      151.9 secs

     total energy              =   -6056.50819815 Ry
     estimated scf accuracy    <       0.15361487 Ry

     total magnetization       =    60.38 Bohr mag/cell
     absolute magnetization    =    69.25 Bohr mag/cell

     iteration #  9     ecut=    50.00 Ry     beta= 0.70
     Davidson diagonalization with overlap
     c_bands:  1 eigenvalues not converged
     ethr =  4.59E-05,  avg # of iterations = 12.5

     total cpu time spent up to now is      185.4 secs

     total energy              =   -6056.53809944 Ry
     estimated scf accuracy    <       0.27164226 Ry

     total magnetization       =    61.25 Bohr mag/cell
     absolute magnetization    =    69.30 Bohr mag/cell

     iteration # 10     ecut=    50.00 Ry     beta= 0.70
     Davidson diagonalization with overlap
     ethr =  4.59E-05,  avg # of iterations =  1.4

     total cpu time spent up to now is      203.7 secs

     total energy              =   -6056.53635481 Ry
     estimated scf accuracy    <       0.20337955 Ry

     total magnetization       =    61.25 Bohr mag/cell
     absolute magnetization    =    69.21 Bohr mag/cell

     iteration # 11     ecut=    50.00 Ry     beta= 0.70
     Davidson diagonalization with overlap
     ethr =  4.59E-05,  avg # of iterations =  1.3

     total cpu time spent up to now is      221.6 secs

     total energy              =   -6056.52965962 Ry
     estimated scf accuracy    <       0.11893676 Ry

     total magnetization       =    61.10 Bohr mag/cell
     absolute magnetization    =    68.96 Bohr mag/cell

     iteration # 12     ecut=    50.00 Ry     beta= 0.70
     Davidson diagonalization with overlap
     ethr =  3.55E-05,  avg # of iterations =  1.8

     negative rho (up, down):  4.448E-07 0.000E+00

     total cpu time spent up to now is      236.2 secs

     total energy              =   -6056.53154202 Ry
     estimated scf accuracy    <       0.11832464 Ry

     total magnetization       =    61.01 Bohr mag/cell
     absolute magnetization    =    68.69 Bohr mag/cell

     iteration # 13     ecut=    50.00 Ry     beta= 0.70
     Davidson diagonalization with overlap
     ethr =  3.53E-05,  avg # of iterations =  1.2

     total cpu time spent up to now is      254.0 secs

     total energy              =   -6056.52923282 Ry
     estimated scf accuracy    <       0.09334058 Ry

     total magnetization       =    61.06 Bohr mag/cell
     absolute magnetization    =    68.64 Bohr mag/cell

     iteration # 14     ecut=    50.00 Ry     beta= 0.70
     Davidson diagonalization with overlap
     ethr =  2.79E-05,  avg # of iterations =  1.4

     negative rho (up, down):  1.642E-06 3.644E-10

     total cpu time spent up to now is      267.4 secs

     total energy              =   -6056.52670364 Ry
     estimated scf accuracy    <       0.08104165 Ry

     total magnetization       =    61.25 Bohr mag/cell
     absolute magnetization    =    68.85 Bohr mag/cell

     iteration # 15     ecut=    50.00 Ry     beta= 0.70
     Davidson diagonalization with overlap
     ethr =  2.42E-05,  avg # of iterations =  1.3

     negative rho (up, down):  3.740E-04 1.224E-04

     total cpu time spent up to now is      285.7 secs

     total energy              =   -6056.52458910 Ry
     estimated scf accuracy    <       0.07731337 Ry

     total magnetization       =    61.15 Bohr mag/cell
     absolute magnetization    =    68.71 Bohr mag/cell

     iteration # 16     ecut=    50.00 Ry     beta= 0.70
     Davidson diagonalization with overlap
     ethr =  2.31E-05,  avg # of iterations =  1.2

     negative rho (up, down):  1.518E-02 1.395E-02

     total cpu time spent up to now is      299.4 secs

     total energy              =   -6056.51931610 Ry
     estimated scf accuracy    <       0.05406261 Ry

     total magnetization       =    61.18 Bohr mag/cell
     absolute magnetization    =    68.72 Bohr mag/cell

     iteration # 17     ecut=    50.00 Ry     beta= 0.70
     Davidson diagonalization with overlap
     ethr =  1.61E-05,  avg # of iterations =  3.0

     negative rho (up, down):  1.698E-02 1.560E-02

     total cpu time spent up to now is      319.3 secs

     total energy              =   -6056.51950764 Ry
     estimated scf accuracy    <       0.02203234 Ry

     total magnetization       =    61.25 Bohr mag/cell
     absolute magnetization    =    68.79 Bohr mag/cell

     iteration # 18     ecut=    50.00 Ry     beta= 0.70
     Davidson diagonalization with overlap
     c_bands:  1 eigenvalues not converged
     c_bands:  2 eigenvalues not converged
     c_bands:  4 eigenvalues not converged
     ethr =  6.58E-06,  avg # of iterations =  4.8

     negative rho (up, down):  7.165E-03 6.098E-03

     total cpu time spent up to now is      340.7 secs

     total energy              =   -6056.51972243 Ry
     estimated scf accuracy    <       0.04326599 Ry

     total magnetization       =    61.25 Bohr mag/cell
     absolute magnetization    =    68.74 Bohr mag/cell

     iteration # 19     ecut=    50.00 Ry     beta= 0.70
     Davidson diagonalization with overlap
     ethr =  6.58E-06,  avg # of iterations =  1.4

     negative rho (up, down):  1.459E-02 1.331E-02

     total cpu time spent up to now is      354.7 secs

     total energy              =   -6056.51842713 Ry
     estimated scf accuracy    <       0.02571225 Ry

     total magnetization       =    61.25 Bohr mag/cell
     absolute magnetization    =    68.76 Bohr mag/cell

     iteration # 20     ecut=    50.00 Ry     beta= 0.70
     Davidson diagonalization with overlap
     ethr =  6.58E-06,  avg # of iterations =  1.2

     negative rho (up, down):  1.773E-02 1.642E-02

     total cpu time spent up to now is      372.9 secs

     total energy              =   -6056.51740521 Ry
     estimated scf accuracy    <       0.02137753 Ry

     total magnetization       =    61.25 Bohr mag/cell
     absolute magnetization    =    68.75 Bohr mag/cell

     iteration # 21     ecut=    50.00 Ry     beta= 0.70
     Davidson diagonalization with overlap
     ethr =  6.38E-06,  avg # of iterations =  1.0

     negative rho (up, down):  1.393E-02 1.276E-02

     total cpu time spent up to now is      385.9 secs

     total energy              =   -6056.51734634 Ry
     estimated scf accuracy    <       0.01503584 Ry

     total magnetization       =    61.25 Bohr mag/cell
     absolute magnetization    =    68.74 Bohr mag/cell

     iteration # 22     ecut=    50.00 Ry     beta= 0.70
     Davidson diagonalization with overlap
     ethr =  4.49E-06,  avg # of iterations =  1.2

     negative rho (up, down):  1.352E-02 1.257E-02

     total cpu time spent up to now is      403.6 secs

     total energy              =   -6056.51624642 Ry
     estimated scf accuracy    <       0.01129155 Ry

     total magnetization       =    61.25 Bohr mag/cell
     absolute magnetization    =    68.75 Bohr mag/cell

     iteration # 23     ecut=    50.00 Ry     beta= 0.70
     Davidson diagonalization with overlap
     ethr =  3.37E-06,  avg # of iterations =  1.3

     negative rho (up, down):  2.026E-02 1.945E-02

     total cpu time spent up to now is      417.7 secs

     total energy              =   -6056.51605058 Ry
     estimated scf accuracy    <       0.00865691 Ry

     total magnetization       =    61.25 Bohr mag/cell
     absolute magnetization    =    68.75 Bohr mag/cell

     iteration # 24     ecut=    50.00 Ry     beta= 0.70
     Davidson diagonalization with overlap
     ethr =  2.58E-06,  avg # of iterations =  1.7

     negative rho (up, down):  1.270E-02 1.192E-02

     total cpu time spent up to now is      436.3 secs

     total energy              =   -6056.51585559 Ry
     estimated scf accuracy    <       0.00313732 Ry

     total magnetization       =    61.25 Bohr mag/cell
     absolute magnetization    =    68.76 Bohr mag/cell

     iteration # 25     ecut=    50.00 Ry     beta= 0.70
     Davidson diagonalization with overlap
     c_bands:  3 eigenvalues not converged
     ethr =  9.37E-07,  avg # of iterations =  2.0

     negative rho (up, down):  8.225E-03 7.501E-03

     total cpu time spent up to now is      450.4 secs

     total energy              =   -6056.51555414 Ry
     estimated scf accuracy    <       0.00543977 Ry

     total magnetization       =    61.25 Bohr mag/cell
     absolute magnetization    =    68.76 Bohr mag/cell

     iteration # 26     ecut=    50.00 Ry     beta= 0.70
     Davidson diagonalization with overlap
     ethr =  9.37E-07,  avg # of iterations =  1.4

     negative rho (up, down):  9.062E-03 8.426E-03

     total cpu time spent up to now is      468.5 secs

     total energy              =   -6056.51575014 Ry
     estimated scf accuracy    <       0.00709832 Ry

     total magnetization       =    61.25 Bohr mag/cell
     absolute magnetization    =    68.77 Bohr mag/cell

     iteration # 27     ecut=    50.00 Ry     beta= 0.70
     Davidson diagonalization with overlap
     ethr =  9.37E-07,  avg # of iterations =  1.2

     negative rho (up, down):  8.207E-03 7.599E-03

     total cpu time spent up to now is      482.4 secs

     total energy              =   -6056.51614178 Ry
     estimated scf accuracy    <       0.00194604 Ry

     total magnetization       =    61.25 Bohr mag/cell
     absolute magnetization    =    68.78 Bohr mag/cell

     iteration # 28     ecut=    50.00 Ry     beta= 0.70
     Davidson diagonalization with overlap
     ethr =  5.81E-07,  avg # of iterations =  1.8

     negative rho (up, down):  6.382E-03 5.702E-03

     total cpu time spent up to now is      501.0 secs

     total energy              =   -6056.51624860 Ry
     estimated scf accuracy    <       0.00064762 Ry

     total magnetization       =    61.25 Bohr mag/cell
     absolute magnetization    =    68.78 Bohr mag/cell

     iteration # 29     ecut=    50.00 Ry     beta= 0.70
     Davidson diagonalization with overlap
     ethr =  1.93E-07,  avg # of iterations =  3.3

     negative rho (up, down):  5.656E-03 4.907E-03

     total cpu time spent up to now is      521.1 secs

     total energy              =   -6056.51626534 Ry
     estimated scf accuracy    <       0.00036284 Ry

     total magnetization       =    61.25 Bohr mag/cell
     absolute magnetization    =    68.78 Bohr mag/cell

     iteration # 30     ecut=    50.00 Ry     beta= 0.70
     Davidson diagonalization with overlap
     ethr =  1.08E-07,  avg # of iterations =  1.7

     negative rho (up, down):  4.732E-03 3.899E-03

     total cpu time spent up to now is      535.2 secs

     total energy              =   -6056.51624925 Ry
     estimated scf accuracy    <       0.00046082 Ry

     total magnetization       =    61.25 Bohr mag/cell
     absolute magnetization    =    68.78 Bohr mag/cell

     iteration # 31     ecut=    50.00 Ry     beta= 0.70
     Davidson diagonalization with overlap
     ethr =  1.08E-07,  avg # of iterations =  1.0

     negative rho (up, down):  4.179E-03 3.273E-03

     total cpu time spent up to now is      553.6 secs

     total energy              =   -6056.51625753 Ry
     estimated scf accuracy    <       0.00012838 Ry

     total magnetization       =    61.25 Bohr mag/cell
     absolute magnetization    =    68.78 Bohr mag/cell

     iteration # 32     ecut=    50.00 Ry     beta= 0.70
     Davidson diagonalization with overlap
     ethr =  3.83E-08,  avg # of iterations =  2.2

     negative rho (up, down):  3.559E-03 2.573E-03

     total cpu time spent up to now is      568.0 secs

     total energy              =   -6056.51625351 Ry
     estimated scf accuracy    <       0.00003782 Ry

     total magnetization       =    61.25 Bohr mag/cell
     absolute magnetization    =    68.78 Bohr mag/cell

     iteration # 33     ecut=    50.00 Ry     beta= 0.70
     Davidson diagonalization with overlap
     ethr =  1.13E-08,  avg # of iterations =  5.6

     negative rho (up, down):  2.949E-03 1.846E-03

     total cpu time spent up to now is      590.2 secs

     total energy              =   -6056.51625612 Ry
     estimated scf accuracy    <       0.00002389 Ry

     total magnetization       =    61.25 Bohr mag/cell
     absolute magnetization    =    68.78 Bohr mag/cell

     iteration # 34     ecut=    50.00 Ry     beta= 0.70
     Davidson diagonalization with overlap
     ethr =  7.13E-09,  avg # of iterations =  3.0

     negative rho (up, down):  2.509E-03 1.386E-03

     total cpu time spent up to now is      610.7 secs

     total energy              =   -6056.51625223 Ry
     estimated scf accuracy    <       0.00004370 Ry

     total magnetization       =    61.25 Bohr mag/cell
     absolute magnetization    =    68.78 Bohr mag/cell

     iteration # 35     ecut=    50.00 Ry     beta= 0.70
     Davidson diagonalization with overlap
     ethr =  7.13E-09,  avg # of iterations =  1.7

     negative rho (up, down):  2.202E-03 1.084E-03

     total cpu time spent up to now is      625.0 secs

     total energy              =   -6056.51625187 Ry
     estimated scf accuracy    <       0.00005313 Ry

     total magnetization       =    61.25 Bohr mag/cell
     absolute magnetization    =    68.78 Bohr mag/cell

     iteration # 36     ecut=    50.00 Ry     beta= 0.70
     Davidson diagonalization with overlap
     ethr =  7.13E-09,  avg # of iterations =  1.8

     negative rho (up, down):  2.206E-03 1.091E-03

     total cpu time spent up to now is      644.1 secs

     total energy              =   -6056.51625547 Ry
     estimated scf accuracy    <       0.00003705 Ry

     total magnetization       =    61.25 Bohr mag/cell
     absolute magnetization    =    68.78 Bohr mag/cell

     iteration # 37     ecut=    50.00 Ry     beta= 0.70
     Davidson diagonalization with overlap
     ethr =  7.13E-09,  avg # of iterations =  1.7

     negative rho (up, down):  2.257E-03 1.146E-03

     total cpu time spent up to now is      659.0 secs

     total energy              =   -6056.51625700 Ry
     estimated scf accuracy    <       0.00005410 Ry

     total magnetization       =    61.25 Bohr mag/cell
     absolute magnetization    =    68.78 Bohr mag/cell

     iteration # 38     ecut=    50.00 Ry     beta= 0.70
     Davidson diagonalization with overlap
     ethr =  7.13E-09,  avg # of iterations =  1.1

     negative rho (up, down):  2.237E-03 1.131E-03

     total cpu time spent up to now is      677.2 secs

     total energy              =   -6056.51625702 Ry
     estimated scf accuracy    <       0.00002318 Ry

     total magnetization       =    61.25 Bohr mag/cell
     absolute magnetization    =    68.78 Bohr mag/cell

     iteration # 39     ecut=    50.00 Ry     beta= 0.70
     Davidson diagonalization with overlap
     ethr =  6.92E-09,  avg # of iterations =  1.3

     negative rho (up, down):  2.139E-03 1.052E-03

     total cpu time spent up to now is      690.5 secs

     total energy              =   -6056.51625777 Ry
     estimated scf accuracy    <       0.00003540 Ry

     total magnetization       =    61.25 Bohr mag/cell
     absolute magnetization    =    68.78 Bohr mag/cell

     iteration # 40     ecut=    50.00 Ry     beta= 0.70
     Davidson diagonalization with overlap
     ethr =  6.92E-09,  avg # of iterations =  1.2

     negative rho (up, down):  2.181E-03 1.088E-03

     total cpu time spent up to now is      708.5 secs

     total energy              =   -6056.51625930 Ry
     estimated scf accuracy    <       0.00000300 Ry

     total magnetization       =    61.25 Bohr mag/cell
     absolute magnetization    =    68.78 Bohr mag/cell

     iteration # 41     ecut=    50.00 Ry     beta= 0.70
     Davidson diagonalization with overlap
     ethr =  8.95E-10,  avg # of iterations =  4.7

     negative rho (up, down):  2.194E-03 1.100E-03

     total cpu time spent up to now is      727.8 secs

     total energy              =   -6056.51625936 Ry
     estimated scf accuracy    <       0.00000301 Ry

     total magnetization       =    61.25 Bohr mag/cell
     absolute magnetization    =    68.78 Bohr mag/cell

     iteration # 42     ecut=    50.00 Ry     beta= 0.70
     Davidson diagonalization with overlap
     ethr =  8.95E-10,  avg # of iterations =  1.4

     negative rho (up, down):  2.204E-03 1.110E-03

     total cpu time spent up to now is      744.2 secs

     total energy              =   -6056.51625952 Ry
     estimated scf accuracy    <       0.00000188 Ry

     total magnetization       =    61.25 Bohr mag/cell
     absolute magnetization    =    68.78 Bohr mag/cell

     iteration # 43     ecut=    50.00 Ry     beta= 0.70
     Davidson diagonalization with overlap
     ethr =  5.61E-10,  avg # of iterations =  1.8

     negative rho (up, down):  2.210E-03 1.116E-03

     total cpu time spent up to now is      763.4 secs

     total energy              =   -6056.51625956 Ry
     estimated scf accuracy    <       0.00000137 Ry

     total magnetization       =    61.25 Bohr mag/cell
     absolute magnetization    =    68.78 Bohr mag/cell

     iteration # 44     ecut=    50.00 Ry     beta= 0.70
     Davidson diagonalization with overlap
     ethr =  4.10E-10,  avg # of iterations =  1.5

     negative rho (up, down):  2.216E-03 1.122E-03

     total cpu time spent up to now is      777.1 secs

     total energy              =   -6056.51625963 Ry
     estimated scf accuracy    <       0.00000046 Ry

     total magnetization       =    61.25 Bohr mag/cell
     absolute magnetization    =    68.78 Bohr mag/cell

     iteration # 45     ecut=    50.00 Ry     beta= 0.70
     Davidson diagonalization with overlap
     ethr =  1.37E-10,  avg # of iterations =  4.7

     negative rho (up, down):  2.234E-03 1.137E-03

     total cpu time spent up to now is      799.1 secs

     total energy              =   -6056.51625968 Ry
     estimated scf accuracy    <       0.00000022 Ry

     total magnetization       =    61.25 Bohr mag/cell
     absolute magnetization    =    68.78 Bohr mag/cell

     iteration # 46     ecut=    50.00 Ry     beta= 0.70
     Davidson diagonalization with overlap
     ethr =  6.62E-11,  avg # of iterations =  4.0

     negative rho (up, down):  2.229E-03 1.133E-03

     total cpu time spent up to now is      815.4 secs

     total energy              =   -6056.51625969 Ry
     estimated scf accuracy    <       0.00000020 Ry

     total magnetization       =    61.25 Bohr mag/cell
     absolute magnetization    =    68.78 Bohr mag/cell

     iteration # 47     ecut=    50.00 Ry     beta= 0.70
     Davidson diagonalization with overlap
     ethr =  6.03E-11,  avg # of iterations =  1.2

     negative rho (up, down):  2.228E-03 1.131E-03

     total cpu time spent up to now is      833.3 secs

     total energy              =   -6056.51625968 Ry
     estimated scf accuracy    <       0.00000006 Ry

     total magnetization       =    61.25 Bohr mag/cell
     absolute magnetization    =    68.78 Bohr mag/cell

     iteration # 48     ecut=    50.00 Ry     beta= 0.70
     Davidson diagonalization with overlap
     ethr =  1.84E-11,  avg # of iterations =  4.1

     negative rho (up, down):  2.229E-03 1.132E-03

     total cpu time spent up to now is      855.2 secs

     total energy              =   -6056.51625969 Ry
     estimated scf accuracy    <       0.00000003 Ry

     total magnetization       =    61.25 Bohr mag/cell
     absolute magnetization    =    68.78 Bohr mag/cell

     iteration # 49     ecut=    50.00 Ry     beta= 0.70
     Davidson diagonalization with overlap
     ethr =  1.04E-11,  avg # of iterations =  3.3

     negative rho (up, down):  2.233E-03 1.135E-03

     total cpu time spent up to now is      870.5 secs

     total energy              =   -6056.51625969 Ry
     estimated scf accuracy    <       0.00000002 Ry

     total magnetization       =    61.25 Bohr mag/cell
     absolute magnetization    =    68.78 Bohr mag/cell

     iteration # 50     ecut=    50.00 Ry     beta= 0.70
     Davidson diagonalization with overlap
     ethr =  6.89E-12,  avg # of iterations =  4.0

     negative rho (up, down):  2.230E-03 1.132E-03

     total cpu time spent up to now is      891.6 secs

     total energy              =   -6056.51625969 Ry
     estimated scf accuracy    <       0.00000004 Ry

     total magnetization       =    61.25 Bohr mag/cell
     absolute magnetization    =    68.78 Bohr mag/cell

     iteration # 51     ecut=    50.00 Ry     beta= 0.70
     Davidson diagonalization with overlap
     ethr =  6.89E-12,  avg # of iterations =  1.3

     negative rho (up, down):  2.230E-03 1.132E-03

     total cpu time spent up to now is      908.0 secs

     total energy              =   -6056.51625969 Ry
     estimated scf accuracy    <       0.00000003 Ry

     total magnetization       =    61.25 Bohr mag/cell
     absolute magnetization    =    68.78 Bohr mag/cell

     iteration # 52     ecut=    50.00 Ry     beta= 0.70
     Davidson diagonalization with overlap
     ethr =  6.89E-12,  avg # of iterations =  1.5

     negative rho (up, down):  2.231E-03 1.133E-03

     total cpu time spent up to now is      924.3 secs

     total energy              =   -6056.51625969 Ry
     estimated scf accuracy    <       0.00000003 Ry

     total magnetization       =    61.25 Bohr mag/cell
     absolute magnetization    =    68.78 Bohr mag/cell

     iteration # 53     ecut=    50.00 Ry     beta= 0.70
     Davidson diagonalization with overlap
     ethr =  6.89E-12,  avg # of iterations =  1.5

     negative rho (up, down):  2.223E-03 1.126E-03

     Magnetic moment per site  (integrated on atomic sphere of radius R)
     atom   1 (R=0.103)  charge=  6.2361  magn=  1.7704
     atom   2 (R=0.103)  charge=  6.2366  magn=  1.7609
     atom   3 (R=0.103)  charge=  6.2362  magn=  1.7659
     atom   4 (R=0.103)  charge=  6.2364  magn=  1.7677
     atom   5 (R=0.103)  charge=  6.2366  magn=  1.7642
     atom   6 (R=0.103)  charge=  6.2358  magn=  1.7706
     atom   7 (R=0.103)  charge=  6.2365  magn=  1.7714
     atom   8 (R=0.103)  charge=  6.2359  magn=  1.7693
     atom   9 (R=0.103)  charge=  6.2360  magn=  1.7641
     atom  10 (R=0.103)  charge=  6.2419  magn=  1.6908
     atom  11 (R=0.103)  charge=  6.2424  magn=  1.7014
     atom  12 (R=0.103)  charge=  6.2419  magn=  1.6988
     atom  13 (R=0.103)  charge=  6.2424  magn=  1.6972
     atom  14 (R=0.103)  charge=  6.2430  magn=  1.6860
     atom  15 (R=0.103)  charge=  6.2425  magn=  1.6953
     atom  16 (R=0.103)  charge=  6.2422  magn=  1.6952
     atom  17 (R=0.103)  charge=  6.2427  magn=  1.6992
     atom  18 (R=0.103)  charge=  6.2426  magn=  1.6939
     atom  19 (R=0.103)  charge=  6.2413  magn=  1.6938
     atom  20 (R=0.103)  charge=  6.2392  magn=  1.7195
     atom  21 (R=0.103)  charge=  6.2426  magn=  1.6798
     atom  22 (R=0.103)  charge=  6.2427  magn=  1.7019
     atom  23 (R=0.103)  charge=  6.2435  magn=  1.6688
     atom  24 (R=0.103)  charge=  6.2415  magn=  1.7027
     atom  25 (R=0.103)  charge=  6.2416  magn=  1.6992
     atom  26 (R=0.103)  charge=  6.2404  magn=  1.6940
     atom  27 (R=0.103)  charge=  6.2422  magn=  1.6908
     atom  28 (R=0.103)  charge=  6.2393  magn=  1.7858
     atom  29 (R=0.103)  charge=  6.2454  magn=  1.6637
     atom  30 (R=0.103)  charge=  6.2400  magn=  1.7598
     atom  31 (R=0.103)  charge=  6.2453  magn=  1.7372
     atom  32 (R=0.103)  charge=  6.2693  magn=  1.1537
     atom  33 (R=0.103)  charge=  6.2367  magn=  1.7657
     atom  34 (R=0.103)  charge=  6.2374  magn=  1.7602
     atom  35 (R=0.103)  charge=  6.2385  magn=  1.7598
     atom  36 (R=0.103)  charge=  6.2357  magn=  1.7873
     atom  37 (R=0.061)  charge=  0.8581  magn= -0.0179
     atom  38 (R=0.069)  charge=  3.1655  magn= -0.0065
     atom  39 (R=0.061)  charge=  0.5037  magn=  0.0011

     total cpu time spent up to now is      942.3 secs

     End of self-consistent calculation

 ------ SPIN UP ------------


          k = 0.0000 0.0000 0.0000 ( 51087 PWs)   bands (ev):

   -21.5164 -10.2347  -7.5019  -6.7518  -6.2013  -5.6394  -5.1680  -4.6269
    -4.5977  -4.5947  -4.5941  -4.5893  -4.5773  -4.5398  -4.2389  -4.0687
    -4.0642  -4.0609  -4.0558  -4.0367  -4.0008  -3.5535  -3.5469  -3.5451
    -3.5400  -3.5258  -3.4978  -3.4206  -3.4150  -3.4110  -3.4077  -3.4051
    -3.3818  -3.3428  -3.3404  -3.0298  -3.0263  -3.0237  -3.0229  -2.9934
    -2.9638  -2.9610  -2.9571  -2.9532  -2.9511  -2.9483  -2.9437  -2.7969
    -2.7944  -2.7600  -2.7359  -2.7261  -2.7177  -2.7142  -2.7088  -2.6895
    -2.6869  -2.6852  -2.6806  -2.5898  -2.5881  -2.5836  -2.5768  -2.5668
    -2.5278  -2.1997  -2.0595  -2.0484  -2.0443  -2.0437  -2.0379  -1.9389
    -1.9188  -1.9134  -1.8948  -1.8828  -1.8737  -1.8704  -1.8646  -1.8630
    -1.8360  -1.8142  -1.8104  -1.7651  -1.7597  -1.7519  -1.7378  -1.7316
    -1.7312  -1.7199  -1.7172  -1.7112  -1.6952  -1.6900  -1.6853  -1.6805
    -1.6780  -1.6772  -1.6743  -1.6732  -1.6701  -1.6639  -1.6631  -1.6612
    -1.6596  -1.6138  -1.6070  -1.5891  -1.5835  -1.5124  -1.5073  -1.4596
    -1.3089  -1.2285  -1.2227  -1.2175  -1.2166  -1.2125  -1.2003  -1.1807
    -1.1791  -1.1780  -1.1421  -1.1303  -1.1245  -1.0701  -1.0081  -1.0024
    -0.9824  -0.9754  -0.8682  -0.8168  -0.8039  -0.7983  -0.7930  -0.7673
    -0.7409  -0.7305  -0.7252  -0.7244  -0.7214  -0.7025  -0.6220  -0.6074
    -0.5195  -0.4835  -0.4821  -0.4792  -0.4557  -0.4378  -0.4194  -0.4149
    -0.4123  -0.4074  -0.4027  -0.3983  -0.3956  -0.3943  -0.3906  -0.3818
    -0.3781  -0.3775  -0.3599  -0.3476  -0.3384  -0.3322  -0.3311  -0.3294
    -0.3081  -0.3066  -0.2858  -0.2832  -0.2799  -0.2627  -0.2587  -0.2549
    -0.2515  -0.2466  -0.2365  -0.2182  -0.1990  -0.1825  -0.1782  -0.1757
    -0.1723  -0.1687  -0.1660  -0.1548  -0.1510  -0.1391  -0.0889  -0.0880
    -0.0840  -0.0829  -0.0207  -0.0160  -0.0117  -0.0109  -0.0014   0.0250
     0.3738   1.0366

          k = 0.0000 0.2309 0.0000 ( 51134 PWs)   bands (ev):

   -21.5164 -10.2347  -7.3569  -6.7290  -6.1187  -5.6205  -5.3405  -5.1512
    -4.8425  -4.8299  -4.4811  -4.3513  -4.2562  -4.2522  -4.1897  -4.1430
    -4.1021  -4.0617  -3.9938  -3.9388  -3.9198  -3.6723  -3.5600  -3.5487
    -3.4745  -3.4534  -3.4293  -3.4230  -3.4211  -3.4134  -3.3974  -3.3785
    -3.3483  -3.3038  -3.3000  -3.2714  -3.2694  -3.0818  -3.0493  -3.0409
    -3.0015  -2.9874  -2.9825  -2.9725  -2.9090  -2.8731  -2.8531  -2.8251
    -2.8154  -2.8116  -2.7853  -2.7746  -2.6942  -2.6805  -2.6556  -2.6177
    -2.6103  -2.5878  -2.5743  -2.5583  -2.5436  -2.5264  -2.5070  -2.4997
    -2.4489  -2.2531  -2.1706  -2.1560  -2.1342  -2.1145  -2.0731  -2.0177
    -2.0132  -2.0018  -1.9978  -1.9802  -1.9721  -1.9494  -1.9290  -1.8912
    -1.8699  -1.8629  -1.8512  -1.8086  -1.8042  -1.8013  -1.7969  -1.7765
    -1.7703  -1.7614  -1.7604  -1.7575  -1.7546  -1.7226  -1.6846  -1.6669
    -1.6529  -1.6273  -1.5958  -1.5780  -1.5753  -1.5680  -1.5576  -1.5504
    -1.5417  -1.5290  -1.5170  -1.5149  -1.5037  -1.4897  -1.4712  -1.4605
    -1.4479  -1.4362  -1.4165  -1.3845  -1.3461  -1.3087  -1.2480  -1.2424
    -1.2362  -1.2312  -1.2143  -1.2117  -1.2064  -1.1950  -1.0962  -1.0582
    -1.0381  -1.0266  -0.9662  -0.9577  -0.9339  -0.8918  -0.8675  -0.8526
    -0.8042  -0.7844  -0.7588  -0.7428  -0.7217  -0.7100  -0.6740  -0.6710
    -0.6611  -0.6434  -0.6238  -0.5886  -0.5820  -0.5647  -0.5599  -0.5588
    -0.5247  -0.4888  -0.4793  -0.4773  -0.4584  -0.4416  -0.4119  -0.4070
    -0.4049  -0.3956  -0.3939  -0.3863  -0.3637  -0.3552  -0.3535  -0.3298
    -0.2865  -0.2748  -0.2652  -0.2398  -0.2289  -0.2108  -0.1875  -0.1642
    -0.1582  -0.1533  -0.1477  -0.1323  -0.1261  -0.1088  -0.0986  -0.0863
    -0.0597  -0.0214  -0.0111  -0.0066   0.0169   0.0195   0.0633   0.0695
     0.0808   0.1242   0.3594   0.3664   0.4374   0.5394   0.6169   0.6590
     0.6789   0.8090

          k = 0.0000 0.4619 0.0000 ( 51204 PWs)   bands (ev):

   -21.5164 -10.2348  -6.9680  -6.6713  -6.1896  -5.9234  -5.4444  -5.1706
    -4.9855  -4.9567  -4.8554  -4.1571  -4.1006  -4.0865  -4.0447  -4.0166
    -3.8973  -3.8958  -3.8588  -3.7674  -3.7621  -3.7556  -3.6705  -3.5837
    -3.5779  -3.5704  -3.5677  -3.5191  -3.4720  -3.4623  -3.4538  -3.2989
    -3.2950  -3.2879  -3.2680  -3.2504  -3.2461  -3.1485  -3.1433  -3.1305
    -3.1230  -3.1170  -3.0135  -2.9280  -2.9076  -2.8283  -2.8127  -2.7909
    -2.7729  -2.7453  -2.7345  -2.7282  -2.7143  -2.6969  -2.6402  -2.6312
    -2.6058  -2.5705  -2.5633  -2.4440  -2.4235  -2.4160  -2.3963  -2.3612
    -2.3146  -2.2977  -2.2862  -2.2684  -2.2291  -2.1798  -2.1395  -2.1359
    -2.1317  -2.1214  -2.1028  -2.0938  -2.0882  -2.0756  -2.0410  -2.0178
    -2.0040  -1.9772  -1.9597  -1.9309  -1.9205  -1.8969  -1.8367  -1.8139
    -1.8073  -1.7972  -1.7784  -1.7679  -1.7281  -1.7038  -1.6992  -1.6918
    -1.6792  -1.6585  -1.6542  -1.6286  -1.6249  -1.6109  -1.5955  -1.5784
    -1.5677  -1.5603  -1.5060  -1.4594  -1.4413  -1.4264  -1.3994  -1.3906
    -1.3751  -1.3623  -1.3241  -1.2898  -1.2786  -1.2655  -1.2628  -1.2581
    -1.2475  -1.2418  -1.2342  -1.2289  -1.2211  -1.2147  -1.1978  -1.1869
    -1.1658  -1.1439  -1.0958  -1.0585  -1.0257  -1.0168  -0.9983  -0.9849
    -0.9600  -0.9217  -0.9048  -0.8850  -0.8733  -0.8316  -0.8249  -0.7689
    -0.7514  -0.7214  -0.6967  -0.6861  -0.6721  -0.6564  -0.6368  -0.5886
    -0.5532  -0.5004  -0.4893  -0.4808  -0.4735  -0.4711  -0.4582  -0.4526
    -0.4355  -0.4300  -0.3629  -0.3373  -0.3256  -0.3075  -0.3028  -0.2960
    -0.2858  -0.2688  -0.2611  -0.2540  -0.2330  -0.2239  -0.1515  -0.1306
    -0.1239  -0.1158  -0.0922  -0.0745  -0.0313  -0.0165   0.0053   0.0302
     0.0463   0.0909   0.0939   0.1129   0.1156   0.1190   0.1432   0.1512
     0.2238   0.2479   0.3030   0.9646   1.1093   1.2670   1.3530   1.3770
     1.5729   1.7402

          k = 0.2000-0.1155 0.0000 ( 51134 PWs)   bands (ev):

   -21.5164 -10.2341  -7.3579  -6.7292  -6.1245  -5.6345  -5.3196  -5.1496
    -4.8459  -4.8378  -4.4777  -4.3277  -4.2566  -4.2542  -4.1863  -4.1366
    -4.1071  -4.0830  -3.9818  -3.9409  -3.9280  -3.6701  -3.5604  -3.5491
    -3.4733  -3.4470  -3.4329  -3.4233  -3.4221  -3.4072  -3.3997  -3.3828
    -3.3495  -3.3034  -3.3004  -3.2733  -3.2697  -3.0832  -3.0454  -3.0405
    -2.9942  -2.9891  -2.9801  -2.9756  -2.9048  -2.8628  -2.8542  -2.8284
    -2.8173  -2.8125  -2.7892  -2.7716  -2.6883  -2.6815  -2.6506  -2.6212
    -2.6043  -2.5898  -2.5773  -2.5650  -2.5515  -2.5309  -2.5083  -2.5013
    -2.4414  -2.2435  -2.1708  -2.1526  -2.1401  -2.1170  -2.0749  -2.0159
    -2.0104  -2.0061  -1.9894  -1.9859  -1.9717  -1.9509  -1.9305  -1.8921
    -1.8737  -1.8646  -1.8513  -1.8126  -1.8031  -1.8021  -1.7955  -1.7788
    -1.7691  -1.7616  -1.7598  -1.7563  -1.7503  -1.7113  -1.6857  -1.6773
    -1.6593  -1.6211  -1.5952  -1.5803  -1.5712  -1.5659  -1.5563  -1.5536
    -1.5329  -1.5277  -1.5236  -1.5158  -1.5126  -1.4841  -1.4748  -1.4682
    -1.4482  -1.4409  -1.4091  -1.3607  -1.3480  -1.3177  -1.2575  -1.2426
    -1.2347  -1.2260  -1.2167  -1.2116  -1.2092  -1.1987  -1.1169  -1.0642
    -1.0507  -1.0300  -0.9640  -0.9579  -0.9345  -0.8847  -0.8646  -0.8572
    -0.8229  -0.7623  -0.7441  -0.7318  -0.7131  -0.7080  -0.6824  -0.6712
    -0.6587  -0.6463  -0.6330  -0.5876  -0.5798  -0.5663  -0.5613  -0.5548
    -0.5136  -0.5020  -0.4829  -0.4760  -0.4582  -0.4353  -0.4176  -0.4117
    -0.4047  -0.3971  -0.3894  -0.3813  -0.3666  -0.3542  -0.3425  -0.3366
    -0.2908  -0.2793  -0.2669  -0.2365  -0.2217  -0.2163  -0.1897  -0.1675
    -0.1596  -0.1516  -0.1431  -0.1319  -0.1232  -0.1099  -0.0987  -0.0842
    -0.0638  -0.0211  -0.0144  -0.0067   0.0168   0.0200   0.0573   0.0631
     0.0793   0.1209   0.3595   0.3650   0.4717   0.5669   0.6213   0.6313
     0.7152   0.8247

          k = 0.2000 0.1155 0.0000 ( 51134 PWs)   bands (ev):

   -21.5164 -10.2349  -7.3567  -6.7294  -6.1162  -5.6178  -5.3307  -5.1732
    -4.8355  -4.8271  -4.4839  -4.3598  -4.2573  -4.2509  -4.1898  -4.1434
    -4.0935  -4.0622  -3.9954  -3.9364  -3.9208  -3.6734  -3.5580  -3.5527
    -3.4733  -3.4553  -3.4265  -3.4244  -3.4212  -3.4102  -3.3965  -3.3784
    -3.3493  -3.3054  -3.2987  -3.2715  -3.2694  -3.0763  -3.0426  -3.0399
    -2.9975  -2.9857  -2.9831  -2.9802  -2.8998  -2.8751  -2.8567  -2.8318
    -2.8165  -2.8125  -2.7900  -2.7796  -2.6911  -2.6800  -2.6624  -2.6213
    -2.6113  -2.5838  -2.5763  -2.5528  -2.5436  -2.5269  -2.5096  -2.5034
    -2.4491  -2.2382  -2.1742  -2.1601  -2.1365  -2.1121  -2.0724  -2.0146
    -2.0084  -2.0030  -1.9967  -1.9842  -1.9769  -1.9531  -1.9099  -1.8903
    -1.8779  -1.8648  -1.8430  -1.8135  -1.8041  -1.8002  -1.7986  -1.7731
    -1.7683  -1.7660  -1.7623  -1.7575  -1.7492  -1.7233  -1.6849  -1.6744
    -1.6516  -1.6211  -1.5953  -1.5805  -1.5695  -1.5683  -1.5537  -1.5489
    -1.5391  -1.5303  -1.5232  -1.5158  -1.5087  -1.4858  -1.4628  -1.4593
    -1.4489  -1.4428  -1.4232  -1.3853  -1.3458  -1.3057  -1.2509  -1.2419
    -1.2344  -1.2287  -1.2214  -1.2124  -1.2093  -1.2020  -1.0964  -1.0619
    -1.0323  -1.0220  -0.9716  -0.9567  -0.9293  -0.8909  -0.8722  -0.8582
    -0.8001  -0.7777  -0.7597  -0.7351  -0.7250  -0.7115  -0.6815  -0.6748
    -0.6568  -0.6459  -0.6256  -0.5809  -0.5748  -0.5670  -0.5609  -0.5511
    -0.5234  -0.4972  -0.4825  -0.4748  -0.4584  -0.4285  -0.4198  -0.4112
    -0.4041  -0.3968  -0.3897  -0.3792  -0.3645  -0.3582  -0.3469  -0.3300
    -0.2888  -0.2760  -0.2626  -0.2474  -0.2208  -0.2172  -0.1830  -0.1701
    -0.1549  -0.1535  -0.1453  -0.1309  -0.1197  -0.1095  -0.0993  -0.0833
    -0.0605  -0.0197  -0.0123  -0.0094   0.0193   0.0202   0.0608   0.0658
     0.0837   0.1150   0.3460   0.3665   0.4464   0.5335   0.6149   0.6411
     0.6881   0.8134

          k = 0.2000 0.3464 0.0000 ( 51202 PWs)   bands (ev):

   -21.5164 -10.2352  -7.0832  -6.6933  -5.9978  -5.6892  -5.6787  -5.4374
    -5.1615  -4.5521  -4.5185  -4.2665  -4.2596  -4.2142  -4.0452  -4.0394
    -3.9487  -3.9457  -3.9390  -3.8089  -3.7873  -3.6724  -3.6631  -3.5973
    -3.5527  -3.4625  -3.4548  -3.4374  -3.4178  -3.4094  -3.3985  -3.3755
    -3.3571  -3.3374  -3.3266  -3.2896  -3.2475  -3.2079  -3.2034  -3.0835
    -3.0735  -2.9876  -2.9745  -2.9488  -2.9336  -2.9243  -2.8404  -2.8045
    -2.7804  -2.7479  -2.7441  -2.7366  -2.6907  -2.6784  -2.6655  -2.6549
    -2.6386  -2.5425  -2.5229  -2.4656  -2.4565  -2.4477  -2.4091  -2.4006
    -2.3940  -2.2803  -2.2372  -2.1975  -2.1853  -2.1553  -2.1319  -2.1193
    -2.0964  -2.0905  -2.0841  -2.0662  -2.0507  -2.0362  -2.0309  -2.0135
    -1.9951  -1.9686  -1.9204  -1.8953  -1.8423  -1.8317  -1.8178  -1.7984
    -1.7792  -1.7684  -1.7458  -1.7310  -1.7161  -1.6876  -1.6788  -1.6769
    -1.6633  -1.6600  -1.6463  -1.6296  -1.6261  -1.6146  -1.6001  -1.5801
    -1.5708  -1.5399  -1.5151  -1.5008  -1.4864  -1.4782  -1.4531  -1.4387
    -1.4194  -1.4057  -1.3897  -1.3769  -1.3509  -1.3309  -1.3129  -1.2731
    -1.2688  -1.2618  -1.2575  -1.2361  -1.2228  -1.2130  -1.1977  -1.1642
    -1.1102  -1.0955  -1.0861  -1.0471  -0.9883  -0.9696  -0.9496  -0.8854
    -0.8477  -0.8295  -0.8242  -0.8072  -0.7985  -0.7865  -0.7767  -0.7720
    -0.7403  -0.7294  -0.6998  -0.6753  -0.6653  -0.6505  -0.6319  -0.6237
    -0.6049  -0.5904  -0.5565  -0.5434  -0.5320  -0.5241  -0.4496  -0.3981
    -0.3770  -0.3553  -0.3465  -0.3323  -0.3287  -0.3024  -0.2980  -0.2877
    -0.2789  -0.2673  -0.2056  -0.1878  -0.1801  -0.1744  -0.1363  -0.1312
    -0.1058  -0.1008  -0.1000  -0.0888  -0.0685  -0.0628  -0.0566  -0.0367
    -0.0287   0.0072   0.0557   0.0653   0.0725   0.1158   0.1186   0.1360
     0.4466   0.4596   0.5261   0.5613   0.7862   0.7989   1.0823   1.3120
     1.3522   1.5248

          k = 0.2000-0.5774 0.0000 ( 51262 PWs)   bands (ev):

   -21.5164 -10.2346  -6.8203  -6.4522  -6.3941  -5.9264  -5.7289  -5.3006
    -5.0966  -4.9786  -4.5736  -4.2448  -4.0078  -3.9640  -3.8649  -3.8285
    -3.8248  -3.8078  -3.7993  -3.7756  -3.7232  -3.7142  -3.7120  -3.7072
    -3.6296  -3.6091  -3.5657  -3.5609  -3.5347  -3.5304  -3.4196  -3.3970
    -3.3790  -3.3751  -3.3497  -3.3110  -3.2248  -3.2093  -3.1106  -3.0881
    -3.0817  -3.0131  -2.9955  -2.9828  -2.9524  -2.8715  -2.8679  -2.8623
    -2.7949  -2.7875  -2.7175  -2.6811  -2.6583  -2.6413  -2.5933  -2.5878
    -2.5195  -2.5008  -2.4921  -2.4811  -2.4750  -2.4414  -2.4257  -2.3675
    -2.3088  -2.2863  -2.2778  -2.2667  -2.2407  -2.2068  -2.1767  -2.1453
    -2.1239  -2.1021  -2.0924  -2.0835  -2.0689  -2.0496  -2.0244  -2.0131
    -2.0028  -1.9928  -1.9766  -1.9523  -1.9505  -1.9167  -1.8799  -1.8662
    -1.8522  -1.8181  -1.7842  -1.7730  -1.7307  -1.7167  -1.7006  -1.6886
    -1.6738  -1.6642  -1.6562  -1.6499  -1.6368  -1.6293  -1.5973  -1.5835
    -1.5328  -1.5149  -1.5097  -1.5011  -1.4934  -1.4800  -1.4759  -1.4693
    -1.4582  -1.4523  -1.4344  -1.4070  -1.3921  -1.3548  -1.3468  -1.3225
    -1.2698  -1.2568  -1.2246  -1.2028  -1.1970  -1.1816  -1.1730  -1.1285
    -1.1003  -1.0958  -1.0847  -1.0271  -1.0092  -0.9658  -0.9412  -0.9312
    -0.9234  -0.9125  -0.8994  -0.8772  -0.8563  -0.8404  -0.8092  -0.7822
    -0.7661  -0.7464  -0.7333  -0.7260  -0.6977  -0.6782  -0.6552  -0.6381
    -0.6210  -0.6055  -0.5970  -0.5895  -0.5502  -0.5381  -0.5059  -0.4361
    -0.3566  -0.3360  -0.3294  -0.3229  -0.3166  -0.3061  -0.2969  -0.2894
    -0.2517  -0.2471  -0.2340  -0.2281  -0.1889  -0.1754  -0.1102  -0.1029
    -0.0929  -0.0746  -0.0592  -0.0527  -0.0112   0.0011   0.0033   0.0097
     0.0229   0.0731   0.0943   0.1008   0.1162   0.1234   0.1492   0.1804
     0.2393   0.4923   0.5759   0.8292   1.2924   1.4026   1.4805   1.7541
     1.8722   1.9276

          k = 0.2000-0.3464 0.0000 ( 51202 PWs)   bands (ev):

   -21.5164 -10.2339  -7.0867  -6.6932  -6.0120  -5.7094  -5.6733  -5.4280
    -5.1379  -4.5851  -4.4829  -4.2629  -4.2575  -4.2130  -4.0428  -4.0397
    -3.9502  -3.9431  -3.9244  -3.8102  -3.8042  -3.6677  -3.6648  -3.6007
    -3.5538  -3.4660  -3.4607  -3.4326  -3.4174  -3.4059  -3.4013  -3.3742
    -3.3618  -3.3406  -3.3262  -3.2900  -3.2503  -3.2107  -3.1976  -3.0839
    -3.0780  -2.9847  -2.9747  -2.9511  -2.9408  -2.9151  -2.8252  -2.7869
    -2.7697  -2.7573  -2.7456  -2.7294  -2.6927  -2.6833  -2.6616  -2.6515
    -2.6392  -2.5255  -2.5181  -2.4690  -2.4637  -2.4343  -2.4182  -2.4024
    -2.3856  -2.2983  -2.2578  -2.2051  -2.1889  -2.1508  -2.1366  -2.1165
    -2.1091  -2.0889  -2.0763  -2.0592  -2.0440  -2.0405  -2.0318  -2.0148
    -2.0082  -1.9804  -1.9164  -1.8770  -1.8412  -1.8322  -1.8067  -1.7963
    -1.7885  -1.7645  -1.7546  -1.7260  -1.7117  -1.6914  -1.6814  -1.6770
    -1.6711  -1.6576  -1.6450  -1.6313  -1.6219  -1.6169  -1.5921  -1.5843
    -1.5652  -1.5607  -1.5385  -1.5064  -1.4888  -1.4758  -1.4439  -1.4340
    -1.4316  -1.4130  -1.4055  -1.3564  -1.3402  -1.3274  -1.3116  -1.2846
    -1.2696  -1.2628  -1.2540  -1.2426  -1.2290  -1.2160  -1.1954  -1.1549
    -1.1259  -1.0928  -1.0871  -1.0503  -0.9840  -0.9706  -0.9485  -0.8588
    -0.8463  -0.8324  -0.8249  -0.8109  -0.8048  -0.7914  -0.7738  -0.7553
    -0.7429  -0.7200  -0.7052  -0.6864  -0.6657  -0.6471  -0.6374  -0.6194
    -0.6030  -0.5873  -0.5583  -0.5423  -0.5374  -0.5201  -0.4456  -0.3910
    -0.3816  -0.3661  -0.3412  -0.3344  -0.3284  -0.3046  -0.2996  -0.2899
    -0.2773  -0.2671  -0.2032  -0.1925  -0.1831  -0.1743  -0.1356  -0.1267
    -0.1095  -0.1025  -0.0994  -0.0840  -0.0717  -0.0617  -0.0556  -0.0449
    -0.0272   0.0148   0.0568   0.0662   0.0735   0.1140   0.1184   0.1453
     0.4373   0.4587   0.4949   0.6292   0.7382   0.8064   1.1313   1.3293
     1.3480   1.5623

          k = 0.4000-0.2309 0.0000 ( 51204 PWs)   bands (ev):

   -21.5164 -10.2331  -6.9729  -6.6718  -6.2008  -5.9289  -5.4620  -5.1348
    -4.9846  -4.9777  -4.8245  -4.1394  -4.1073  -4.0863  -4.0702  -4.0052
    -3.8995  -3.8964  -3.8555  -3.7712  -3.7624  -3.7542  -3.6596  -3.5846
    -3.5799  -3.5722  -3.5682  -3.5174  -3.4682  -3.4571  -3.4542  -3.3044
    -3.2940  -3.2889  -3.2794  -3.2521  -3.2451  -3.1496  -3.1377  -3.1302
    -3.1209  -3.1161  -3.0036  -2.9221  -2.9073  -2.8251  -2.8098  -2.7888
    -2.7741  -2.7410  -2.7338  -2.7268  -2.7156  -2.6940  -2.6416  -2.6330
    -2.6024  -2.5724  -2.5604  -2.4434  -2.4241  -2.4161  -2.3953  -2.3629
    -2.3123  -2.3023  -2.2772  -2.2689  -2.2407  -2.1807  -2.1542  -2.1337
    -2.1296  -2.1225  -2.1159  -2.0980  -2.0910  -2.0754  -2.0320  -2.0256
    -1.9943  -1.9865  -1.9613  -1.9434  -1.9170  -1.8968  -1.8280  -1.8242
    -1.8105  -1.7923  -1.7712  -1.7597  -1.7241  -1.7027  -1.6985  -1.6903
    -1.6786  -1.6617  -1.6522  -1.6286  -1.6136  -1.6108  -1.6023  -1.5831
    -1.5667  -1.5521  -1.5094  -1.4993  -1.4386  -1.4220  -1.4110  -1.3947
    -1.3765  -1.3546  -1.3323  -1.2941  -1.2828  -1.2656  -1.2609  -1.2572
    -1.2528  -1.2471  -1.2306  -1.2255  -1.2197  -1.2135  -1.2014  -1.1905
    -1.1700  -1.1470  -1.0778  -1.0593  -1.0275  -1.0213  -0.9984  -0.9877
    -0.9536  -0.9365  -0.9007  -0.8833  -0.8793  -0.8298  -0.8130  -0.7639
    -0.7552  -0.7174  -0.6985  -0.6802  -0.6680  -0.6640  -0.6349  -0.5812
    -0.5236  -0.5116  -0.4955  -0.4815  -0.4779  -0.4714  -0.4636  -0.4440
    -0.4425  -0.4323  -0.3717  -0.3381  -0.3183  -0.3132  -0.3033  -0.3011
    -0.2955  -0.2719  -0.2573  -0.2478  -0.2329  -0.2187  -0.1557  -0.1318
    -0.1256  -0.1151  -0.0975  -0.0572  -0.0312  -0.0121   0.0054   0.0307
     0.0459   0.0888   0.0925   0.1135   0.1151   0.1185   0.1350   0.1508
     0.2235   0.2453   0.3488   0.9136   1.1556   1.3168   1.3489   1.3775
     1.6147   1.7216

          k = 0.4000 0.0000 0.0000 ( 51202 PWs)   bands (ev):

   -21.5164 -10.2341  -7.0864  -6.6931  -6.0085  -5.7066  -5.6709  -5.4290
    -5.1488  -4.5782  -4.4901  -4.2619  -4.2576  -4.2158  -4.0434  -4.0392
    -3.9502  -3.9440  -3.9267  -3.8099  -3.8006  -3.6735  -3.6612  -3.6009
    -3.5542  -3.4630  -3.4604  -3.4334  -3.4177  -3.4076  -3.3967  -3.3745
    -3.3602  -3.3365  -3.3335  -3.2860  -3.2483  -3.2053  -3.1992  -3.0829
    -3.0726  -2.9851  -2.9752  -2.9506  -2.9290  -2.9218  -2.8324  -2.7861
    -2.7771  -2.7577  -2.7436  -2.7358  -2.6943  -2.6849  -2.6656  -2.6564
    -2.6368  -2.5386  -2.5205  -2.4671  -2.4643  -2.4425  -2.4129  -2.4020
    -2.3892  -2.2972  -2.2254  -2.2020  -2.1867  -2.1507  -2.1320  -2.1102
    -2.1043  -2.0957  -2.0847  -2.0627  -2.0498  -2.0348  -2.0275  -2.0134
    -2.0039  -1.9730  -1.9228  -1.8859  -1.8427  -1.8352  -1.8169  -1.7977
    -1.7896  -1.7662  -1.7429  -1.7265  -1.7115  -1.6875  -1.6833  -1.6768
    -1.6638  -1.6573  -1.6461  -1.6382  -1.6263  -1.6198  -1.5955  -1.5787
    -1.5704  -1.5592  -1.5240  -1.5055  -1.4885  -1.4694  -1.4480  -1.4363
    -1.4274  -1.4167  -1.4008  -1.3665  -1.3424  -1.3343  -1.3118  -1.2832
    -1.2672  -1.2634  -1.2578  -1.2338  -1.2271  -1.2126  -1.2004  -1.1601
    -1.1110  -1.0972  -1.0827  -1.0613  -0.9877  -0.9617  -0.9480  -0.8826
    -0.8374  -0.8325  -0.8241  -0.8112  -0.8034  -0.7887  -0.7775  -0.7492
    -0.7442  -0.7266  -0.7015  -0.6766  -0.6603  -0.6538  -0.6300  -0.6203
    -0.5965  -0.5830  -0.5526  -0.5467  -0.5371  -0.5249  -0.4612  -0.3951
    -0.3772  -0.3555  -0.3459  -0.3340  -0.3273  -0.3064  -0.2981  -0.2894
    -0.2812  -0.2671  -0.2052  -0.1902  -0.1801  -0.1730  -0.1405  -0.1213
    -0.1084  -0.1028  -0.0960  -0.0759  -0.0722  -0.0637  -0.0547  -0.0500
    -0.0277   0.0113   0.0560   0.0655   0.0748   0.1160   0.1222   0.1310
     0.4329   0.4604   0.5007   0.6243   0.7564   0.8063   1.1020   1.3145
     1.3667   1.5328

          k = 0.4000 0.2309 0.0000 ( 51204 PWs)   bands (ev):

   -21.5164 -10.2352  -6.9684  -6.6712  -6.1826  -5.9206  -5.4332  -5.1960
    -4.9841  -4.9445  -4.8741  -4.1603  -4.0893  -4.0854  -4.0437  -4.0183
    -3.8989  -3.8941  -3.8584  -3.7671  -3.7621  -3.7569  -3.6770  -3.5839
    -3.5794  -3.5689  -3.5675  -3.5206  -3.4756  -3.4610  -3.4504  -3.2969
    -3.2936  -3.2830  -3.2654  -3.2504  -3.2422  -3.1440  -3.1339  -3.1288
    -3.1227  -3.1176  -3.0015  -2.9318  -2.9156  -2.8421  -2.8187  -2.7945
    -2.7796  -2.7470  -2.7354  -2.7266  -2.7125  -2.7054  -2.6334  -2.6320
    -2.6088  -2.5790  -2.5636  -2.4513  -2.4206  -2.4123  -2.4034  -2.3601
    -2.3142  -2.2955  -2.2880  -2.2704  -2.2200  -2.1757  -2.1483  -2.1353
    -2.1308  -2.1225  -2.1057  -2.0971  -2.0838  -2.0759  -2.0625  -2.0126
    -1.9881  -1.9740  -1.9577  -1.9278  -1.9006  -1.8938  -1.8460  -1.8145
    -1.8067  -1.8002  -1.7754  -1.7626  -1.7186  -1.7008  -1.6919  -1.6879
    -1.6724  -1.6628  -1.6505  -1.6269  -1.6212  -1.6115  -1.5914  -1.5774
    -1.5651  -1.5519  -1.5087  -1.4832  -1.4395  -1.4240  -1.4010  -1.3940
    -1.3688  -1.3528  -1.3314  -1.2987  -1.2801  -1.2686  -1.2628  -1.2610
    -1.2523  -1.2473  -1.2348  -1.2288  -1.2258  -1.2138  -1.1965  -1.1858
    -1.1735  -1.1312  -1.1001  -1.0566  -1.0268  -1.0146  -1.0044  -0.9824
    -0.9607  -0.9286  -0.9015  -0.8958  -0.8757  -0.8291  -0.8182  -0.7796
    -0.7546  -0.7162  -0.6959  -0.6761  -0.6703  -0.6516  -0.6187  -0.5966
    -0.5587  -0.5019  -0.4944  -0.4795  -0.4760  -0.4677  -0.4585  -0.4537
    -0.4414  -0.4216  -0.3669  -0.3299  -0.3205  -0.3130  -0.3050  -0.3001
    -0.2871  -0.2611  -0.2572  -0.2492  -0.2325  -0.2285  -0.1471  -0.1310
    -0.1244  -0.1211  -0.0934  -0.0709  -0.0314  -0.0167   0.0082   0.0309
     0.0455   0.0914   0.0920   0.1148   0.1160   0.1176   0.1387   0.1594
     0.2234   0.2403   0.3048   0.9390   1.1157   1.2578   1.3497   1.3735
     1.6216   1.7088

          k = 0.4000-0.6928 0.0000 ( 51262 PWs)   bands (ev):

   -21.5164 -10.2348  -6.8219  -6.4508  -6.3881  -5.9341  -5.7244  -5.2601
    -5.1417  -4.9923  -4.5583  -4.2441  -4.0079  -3.9648  -3.8686  -3.8314
    -3.8231  -3.8080  -3.7977  -3.7794  -3.7211  -3.7160  -3.7127  -3.7057
    -3.6281  -3.6135  -3.5646  -3.5599  -3.5336  -3.5309  -3.4153  -3.3952
    -3.3791  -3.3741  -3.3469  -3.3107  -3.2263  -3.2055  -3.1081  -3.0830
    -3.0802  -3.0121  -2.9985  -2.9783  -2.9482  -2.8869  -2.8712  -2.8573
    -2.8052  -2.7923  -2.7124  -2.6860  -2.6530  -2.6435  -2.6000  -2.5855
    -2.5221  -2.5005  -2.4909  -2.4828  -2.4765  -2.4500  -2.4316  -2.3621
    -2.3075  -2.2824  -2.2797  -2.2697  -2.2289  -2.2060  -2.1680  -2.1500
    -2.1242  -2.1008  -2.0940  -2.0853  -2.0752  -2.0554  -2.0259  -2.0065
    -2.0007  -1.9927  -1.9810  -1.9519  -1.9493  -1.9125  -1.8779  -1.8633
    -1.8489  -1.8265  -1.7782  -1.7721  -1.7395  -1.7105  -1.6964  -1.6879
    -1.6684  -1.6650  -1.6588  -1.6460  -1.6400  -1.6063  -1.5995  -1.5738
    -1.5295  -1.5157  -1.5076  -1.5026  -1.4846  -1.4816  -1.4767  -1.4666
    -1.4583  -1.4458  -1.4309  -1.4151  -1.3950  -1.3687  -1.3453  -1.3316
    -1.2846  -1.2619  -1.2178  -1.2048  -1.1962  -1.1923  -1.1782  -1.1235
    -1.1026  -1.0991  -1.0876  -1.0403  -0.9854  -0.9662  -0.9492  -0.9356
    -0.9198  -0.9132  -0.8930  -0.8826  -0.8514  -0.8340  -0.8025  -0.7884
    -0.7743  -0.7466  -0.7318  -0.7260  -0.7015  -0.6672  -0.6480  -0.6308
    -0.6208  -0.6138  -0.5943  -0.5842  -0.5485  -0.5317  -0.5163  -0.4462
    -0.3578  -0.3362  -0.3287  -0.3239  -0.3176  -0.3053  -0.3008  -0.2806
    -0.2568  -0.2478  -0.2356  -0.2248  -0.1911  -0.1709  -0.1088  -0.1041
    -0.0869  -0.0737  -0.0631  -0.0480  -0.0173  -0.0010   0.0080   0.0119
     0.0179   0.0738   0.0965   0.0985   0.1168   0.1260   0.1460   0.1760
     0.2421   0.4951   0.5705   0.8434   1.2604   1.4035   1.4818   1.7654
     1.8668   1.9173

          k = 0.4000-0.4619 0.0000 ( 51262 PWs)   bands (ev):

   -21.5164 -10.2336  -6.8238  -6.4562  -6.3982  -5.9104  -5.7420  -5.3564
    -5.0051  -4.9804  -4.6034  -4.2484  -4.0049  -3.9599  -3.8476  -3.8299
    -3.8270  -3.8026  -3.7961  -3.7751  -3.7320  -3.7148  -3.7131  -3.7083
    -3.6258  -3.6106  -3.5638  -3.5628  -3.5346  -3.5286  -3.4328  -3.3943
    -3.3782  -3.3704  -3.3540  -3.3116  -3.2295  -3.2114  -3.1029  -3.0845
    -3.0796  -3.0108  -2.9994  -2.9783  -2.9529  -2.8737  -2.8664  -2.8618
    -2.7963  -2.7879  -2.7138  -2.6786  -2.6498  -2.6419  -2.5905  -2.5863
    -2.5163  -2.5010  -2.4935  -2.4798  -2.4717  -2.4464  -2.4283  -2.3657
    -2.3109  -2.2908  -2.2703  -2.2665  -2.2306  -2.2101  -2.1912  -2.1471
    -2.1347  -2.1021  -2.0954  -2.0854  -2.0687  -2.0382  -2.0248  -2.0167
    -2.0059  -1.9966  -1.9722  -1.9548  -1.9513  -1.9383  -1.8802  -1.8657
    -1.8455  -1.8035  -1.7895  -1.7640  -1.7334  -1.7153  -1.7106  -1.6910
    -1.6721  -1.6663  -1.6558  -1.6519  -1.6360  -1.6287  -1.6029  -1.5962
    -1.5405  -1.5177  -1.5066  -1.5031  -1.4861  -1.4805  -1.4769  -1.4639
    -1.4605  -1.4508  -1.4340  -1.4024  -1.3898  -1.3565  -1.3464  -1.3228
    -1.2645  -1.2545  -1.2290  -1.2071  -1.1949  -1.1858  -1.1737  -1.1180
    -1.1015  -1.0924  -1.0806  -1.0428  -1.0139  -0.9628  -0.9543  -0.9331
    -0.9178  -0.9097  -0.8988  -0.8829  -0.8508  -0.8409  -0.8125  -0.7844
    -0.7686  -0.7478  -0.7311  -0.7168  -0.7072  -0.6747  -0.6448  -0.6351
    -0.6224  -0.6070  -0.5949  -0.5820  -0.5512  -0.5262  -0.5149  -0.4390
    -0.3571  -0.3405  -0.3315  -0.3230  -0.3143  -0.3086  -0.3040  -0.2867
    -0.2564  -0.2436  -0.2309  -0.2279  -0.1875  -0.1771  -0.1108  -0.1049
    -0.0875  -0.0758  -0.0636  -0.0539  -0.0111   0.0005   0.0052   0.0099
     0.0209   0.0860   0.0963   0.1022   0.1176   0.1229   0.1485   0.1794
     0.2764   0.4820   0.5410   0.8244   1.3507   1.3962   1.5203   1.6861
     1.8771   1.9490

 ------ SPIN DOWN ----------


          k = 0.0000 0.0000 0.0000 ( 51087 PWs)   bands (ev):

   -21.5364 -10.3029  -7.6315  -6.7541  -6.2588  -5.6361  -5.1945  -4.4275
    -4.4008  -4.3982  -4.3949  -4.3920  -4.3750  -4.2742  -3.5325  -3.5240
    -3.5204  -3.5177  -3.4966  -3.4837  -3.3705  -2.5837  -2.5768  -2.5750
    -2.5701  -2.5522  -2.5025  -2.1354  -2.1115  -2.1096  -2.1067  -2.0994
    -2.0970  -1.9210  -1.9057  -1.8374  -1.8284  -1.8213  -1.8130  -1.7623
    -1.7177  -1.7056  -1.6676  -1.6656  -1.6082  -1.5701  -1.5636  -1.5571
    -1.5420  -1.4828  -1.3392  -1.3101  -1.2938  -1.2899  -1.2827  -1.2746
    -1.2730  -1.2687  -1.2542  -1.2180  -1.2137  -1.1985  -1.1945  -1.1865
    -1.1642  -1.0312  -0.6812  -0.6294  -0.6169  -0.6115  -0.6083  -0.4643
    -0.4233  -0.3217  -0.2948  -0.2915  -0.2834  -0.2786  -0.2731  -0.2456
    -0.2254  -0.2101  -0.1975  -0.1968  -0.1958  -0.1913  -0.1502  -0.1186
    -0.1067  -0.0929  -0.0898  -0.0860  -0.0603  -0.0378  -0.0336  -0.0303
    -0.0294  -0.0278  -0.0043  -0.0031   0.0023   0.0039   0.0630   0.0929
     0.1391   0.1611   0.1776   0.2005   0.2135   0.2253   0.2268   0.2294
     0.2317   0.2336   0.2345   0.2378   0.3043   0.3048   0.3645   0.3843
     0.3972   0.4121   0.4209   0.4270   0.6063   0.6151   0.6428   0.6702
     0.7006   0.7017   0.7116   0.7134   0.7496   0.9682   1.0136   1.0522
     1.0574   1.1049   1.2065   1.2388   1.2615   1.2732   1.2781   1.2798
     1.2820   1.4222   1.4378   1.4429   1.4495   1.4545   1.4697   1.4782
     1.4854   1.5055   1.5302   1.5367   1.5528   1.5784   1.5862   1.5962
     1.6018   1.6041   1.6058   1.6256   1.6588   1.6774   1.6827   1.6918
     1.7076   1.7235   1.7254   1.7268   1.7307   1.7367   1.7391   1.7768
     1.7787   1.8035   1.8056   1.8135   1.8226   1.8276   1.8303   1.8533
     1.8651   1.8678   1.8747   1.8770   1.8797   1.8829   1.8894   1.8943
     1.8985   1.9299   1.9546   1.9563   2.1018   2.1064   2.1103   2.1130
     2.1145   2.1147

          k = 0.0000 0.2309 0.0000 ( 51134 PWs)   bands (ev):

   -21.5364 -10.3029  -7.4838  -6.7276  -6.1728  -5.6363  -5.3618  -5.1794
    -4.7800  -4.7640  -4.2629  -4.1502  -3.8535  -3.8457  -3.7594  -3.7044
    -3.5596  -3.3110  -3.1805  -3.1546  -3.0772  -2.8101  -2.5917  -2.5611
    -2.5236  -2.4756  -2.4504  -2.2374  -2.1529  -2.1450  -2.1396  -2.1160
    -2.0986  -2.0592  -2.0497  -2.0246  -2.0098  -1.8898  -1.8651  -1.8081
    -1.7831  -1.7663  -1.6964  -1.6128  -1.5898  -1.5830  -1.5464  -1.4836
    -1.4370  -1.4114  -1.3687  -1.3434  -1.3299  -1.3083  -1.2887  -1.2817
    -1.2726  -1.2270  -1.1975  -1.1685  -1.1447  -1.1183  -1.1024  -1.0835
    -1.0225  -0.9420  -0.7499  -0.6763  -0.6653  -0.6457  -0.6191  -0.5656
    -0.5193  -0.4969  -0.4465  -0.4314  -0.3359  -0.3126  -0.3012  -0.2862
    -0.2712  -0.2577  -0.2487  -0.2296  -0.2164  -0.2089  -0.1705  -0.1281
    -0.1072  -0.0872  -0.0837  -0.0609  -0.0505  -0.0282  -0.0207  -0.0009
     0.0012   0.0080   0.0176   0.0189   0.0236   0.0310   0.0523   0.0726
     0.1035   0.1128   0.1215   0.1276   0.1566   0.1733   0.1821   0.1967
     0.2348   0.2493   0.2884   0.2972   0.3245   0.3413   0.3441   0.3714
     0.4831   0.5092   0.5584   0.5838   0.5869   0.6302   0.6418   0.6592
     0.6677   0.6880   0.6911   0.6925   0.8543   0.9190   0.9959   1.0205
     1.0257   1.0413   1.0540   1.0642   1.0866   1.1243   1.1832   1.2136
     1.2228   1.2767   1.3035   1.3130   1.3367   1.3646   1.3860   1.3931
     1.4490   1.4799   1.4912   1.5069   1.5153   1.5311   1.5516   1.5598
     1.5894   1.6135   1.6412   1.6643   1.6840   1.6979   1.7066   1.7344
     1.7522   1.7632   1.7696   1.7773   1.7921   1.8082   1.8480   1.8553
     1.8624   1.8638   1.9049   1.9128   1.9210   1.9378   1.9482   1.9631
     1.9701   2.0076   2.0096   2.0123   2.0373   2.0417   2.0496   2.0674
     2.0751   2.1006   2.1073   2.1220   2.1935   2.2052   2.2135   2.2311
     2.2869   2.3019

          k = 0.0000 0.4619 0.0000 ( 51204 PWs)   bands (ev):

   -21.5364 -10.3030  -7.0669  -6.6927  -6.2842  -5.9539  -5.4903  -5.2038
    -4.9995  -4.9604  -4.8496  -3.9219  -3.8811  -3.7773  -3.3106  -3.2322
    -3.2249  -3.1120  -2.9728  -2.9178  -2.7868  -2.7751  -2.6320  -2.6271
    -2.5728  -2.5504  -2.5057  -2.4918  -2.3903  -2.3805  -2.3377  -2.3126
    -2.2996  -2.1039  -2.0908  -2.0314  -2.0107  -1.9248  -1.8934  -1.8870
    -1.8748  -1.8696  -1.7111  -1.5839  -1.5776  -1.5442  -1.5316  -1.4830
    -1.3673  -1.3568  -1.3410  -1.3251  -1.3106  -1.2982  -1.2890  -1.2766
    -1.2199  -1.1799  -1.1717  -1.1629  -1.1356  -1.1040  -0.9994  -0.9563
    -0.8506  -0.8191  -0.7627  -0.7147  -0.6862  -0.6538  -0.6347  -0.6134
    -0.6036  -0.5787  -0.5475  -0.5119  -0.5004  -0.4585  -0.4361  -0.4079
    -0.3867  -0.3541  -0.3344  -0.3268  -0.3178  -0.2639  -0.2237  -0.1806
    -0.1437  -0.1273  -0.1027  -0.0663  -0.0529  -0.0301  -0.0102   0.0157
     0.0362   0.0518   0.0596   0.0732   0.0758   0.0855   0.1100   0.1252
     0.1375   0.1674   0.1776   0.1802   0.1883   0.1938   0.2062   0.2357
     0.2432   0.2593   0.3014   0.3776   0.3884   0.3947   0.4269   0.4428
     0.4450   0.4665   0.4756   0.5276   0.5515   0.5571   0.5680   0.5970
     0.6141   0.6339   0.6591   0.6660   0.6974   0.7019   0.8046   0.8473
     0.8822   0.9112   0.9744   1.0472   1.0865   1.1037   1.1219   1.1271
     1.1429   1.1709   1.1905   1.2235   1.2367   1.2729   1.3643   1.4085
     1.4226   1.4358   1.4788   1.4971   1.5257   1.5397   1.5603   1.5821
     1.6104   1.6242   1.6459   1.6970   1.7286   1.7483   1.7558   1.7775
     1.7827   1.7871   1.8081   1.8261   1.8519   1.8602   1.8755   1.8913
     1.9097   1.9391   1.9913   2.0045   2.0170   2.0437   2.0502   2.0620
     2.0684   2.0739   2.1036   2.1091   2.1173   2.1333   2.1405   2.1425
     2.1522   2.1888   2.2921   2.3549   2.3881   2.4630   2.5237   2.8060
     2.8800   2.9153

          k = 0.2000-0.1155 0.0000 ( 51134 PWs)   bands (ev):

   -21.5364 -10.3023  -7.4847  -6.7276  -6.1787  -5.6541  -5.3409  -5.1687
    -4.7859  -4.7748  -4.2599  -4.1150  -3.8530  -3.8474  -3.7655  -3.7333
    -3.5546  -3.3095  -3.1827  -3.1675  -3.0637  -2.7894  -2.5984  -2.5757
    -2.5128  -2.4774  -2.4571  -2.2418  -2.1536  -2.1490  -2.1360  -2.1042
    -2.0978  -2.0600  -2.0495  -2.0210  -2.0137  -1.8983  -1.8640  -1.7923
    -1.7832  -1.7644  -1.6615  -1.6351  -1.5910  -1.5839  -1.5530  -1.4641
    -1.4493  -1.4129  -1.3763  -1.3545  -1.3302  -1.3079  -1.2895  -1.2814
    -1.2718  -1.2493  -1.1939  -1.1661  -1.1455  -1.1209  -1.0996  -1.0831
    -1.0117  -0.9491  -0.7541  -0.6782  -0.6637  -0.6500  -0.6110  -0.5617
    -0.5181  -0.4993  -0.4512  -0.4342  -0.3339  -0.3141  -0.3042  -0.2845
    -0.2731  -0.2594  -0.2483  -0.2277  -0.2244  -0.2061  -0.1718  -0.1250
    -0.0959  -0.0891  -0.0826  -0.0658  -0.0530  -0.0323  -0.0204  -0.0032
     0.0049   0.0091   0.0159   0.0198   0.0229   0.0258   0.0587   0.0717
     0.1045   0.1145   0.1238   0.1253   0.1594   0.1705   0.1881   0.1928
     0.2293   0.2452   0.2644   0.2940   0.3308   0.3385   0.3438   0.3714
     0.4799   0.5234   0.5750   0.5837   0.6142   0.6209   0.6396   0.6655
     0.6761   0.6855   0.6887   0.6934   0.8501   0.9161   1.0014   1.0218
     1.0295   1.0378   1.0557   1.0647   1.0989   1.1347   1.1745   1.2133
     1.2331   1.2602   1.3020   1.3118   1.3440   1.3609   1.3897   1.4146
     1.4454   1.4569   1.4910   1.5071   1.5172   1.5317   1.5524   1.5611
     1.5866   1.6048   1.6503   1.6583   1.6794   1.6945   1.7043   1.7156
     1.7610   1.7629   1.7694   1.7723   1.7957   1.8149   1.8494   1.8586
     1.8607   1.8645   1.9019   1.9117   1.9205   1.9351   1.9537   1.9607
     1.9726   2.0063   2.0103   2.0125   2.0378   2.0436   2.0472   2.0732
     2.0838   2.0990   2.1029   2.1251   2.1852   2.2081   2.2120   2.2487
     2.2819   2.3002

          k = 0.2000 0.1155 0.0000 ( 51134 PWs)   bands (ev):

   -21.5364 -10.3031  -7.4836  -6.7280  -6.1702  -5.6317  -5.3547  -5.2012
    -4.7695  -4.7635  -4.2663  -4.1611  -3.8520  -3.8471  -3.7473  -3.7022
    -3.5620  -3.3106  -3.1778  -3.1579  -3.0783  -2.8139  -2.5859  -2.5605
    -2.5193  -2.4765  -2.4547  -2.2374  -2.1562  -2.1400  -2.1363  -2.1098
    -2.0993  -2.0601  -2.0501  -2.0197  -2.0126  -1.8934  -1.8640  -1.8015
    -1.7843  -1.7717  -1.7056  -1.6347  -1.5991  -1.5839  -1.5085  -1.4654
    -1.4475  -1.4220  -1.3704  -1.3569  -1.3262  -1.3005  -1.2898  -1.2844
    -1.2735  -1.2283  -1.2044  -1.1743  -1.1456  -1.1129  -1.1020  -1.0811
    -1.0074  -0.9365  -0.7645  -0.6772  -0.6649  -0.6397  -0.6100  -0.5716
    -0.5287  -0.5004  -0.4419  -0.4278  -0.3422  -0.3073  -0.3000  -0.2931
    -0.2593  -0.2511  -0.2481  -0.2293  -0.2252  -0.1999  -0.1845  -0.1295
    -0.1031  -0.0877  -0.0800  -0.0700  -0.0587  -0.0249  -0.0188  -0.0048
     0.0035   0.0074   0.0141   0.0193   0.0218   0.0349   0.0563   0.0732
     0.1069   0.1115   0.1260   0.1284   0.1480   0.1756   0.1895   0.1951
     0.2339   0.2462   0.2831   0.2949   0.3300   0.3362   0.3435   0.3711
     0.4932   0.5260   0.5500   0.5821   0.5959   0.6349   0.6404   0.6631
     0.6688   0.6817   0.6904   0.6936   0.8176   0.9247   0.9994   1.0108
     1.0255   1.0446   1.0580   1.0642   1.0942   1.1423   1.1986   1.2222
     1.2259   1.2539   1.3044   1.3172   1.3393   1.3589   1.3768   1.3918
     1.4531   1.4720   1.4976   1.5093   1.5161   1.5337   1.5493   1.5617
     1.5818   1.6133   1.6454   1.6557   1.6757   1.6978   1.7098   1.7360
     1.7562   1.7654   1.7683   1.7769   1.7896   1.8112   1.8503   1.8562
     1.8595   1.8631   1.9010   1.9139   1.9231   1.9380   1.9468   1.9623
     1.9699   2.0085   2.0098   2.0176   2.0385   2.0428   2.0481   2.0696
     2.0759   2.1007   2.1049   2.1223   2.1900   2.2058   2.2167   2.2297
     2.2879   2.3000

          k = 0.2000 0.3464 0.0000 ( 51202 PWs)   bands (ev):

   -21.5364 -10.3034  -7.1978  -6.6975  -6.0296  -5.7691  -5.7595  -5.4606
    -5.1912  -4.5043  -4.4430  -4.0491  -4.0361  -3.9356  -3.2102  -3.2033
    -3.1966  -3.1885  -3.0884  -2.9934  -2.9063  -2.8960  -2.8903  -2.5293
    -2.4571  -2.4445  -2.4401  -2.3594  -2.3488  -2.3272  -2.2454  -2.2398
    -2.2320  -2.2227  -2.2121  -2.0846  -2.0352  -1.9170  -1.8504  -1.8450
    -1.8002  -1.7792  -1.7204  -1.7082  -1.6293  -1.5435  -1.5078  -1.4826
    -1.3850  -1.3641  -1.3285  -1.3253  -1.3224  -1.3013  -1.2734  -1.2650
    -1.2501  -1.2210  -1.1773  -1.1421  -1.1054  -1.0282  -0.9834  -0.9448
    -0.8806  -0.8482  -0.7555  -0.7435  -0.6545  -0.6254  -0.6066  -0.5814
    -0.5638  -0.5367  -0.5309  -0.5163  -0.4635  -0.4425  -0.4164  -0.4038
    -0.3856  -0.3716  -0.3526  -0.3437  -0.2986  -0.2267  -0.1882  -0.1748
    -0.1572  -0.1418  -0.1014  -0.0822  -0.0656  -0.0568  -0.0400  -0.0294
    -0.0109   0.0082   0.0217   0.0336   0.0470   0.0586   0.0901   0.1059
     0.1189   0.1270   0.1478   0.1579   0.1683   0.1750   0.1960   0.1989
     0.2311   0.2857   0.2966   0.3167   0.3969   0.4324   0.4451   0.4578
     0.4833   0.4943   0.5288   0.5777   0.5980   0.6093   0.6146   0.6221
     0.6366   0.6489   0.6809   0.7165   0.7660   0.7910   0.9138   0.9305
     0.9847   1.0336   1.0407   1.0590   1.0897   1.1024   1.1182   1.1280
     1.1428   1.1599   1.1730   1.1949   1.2106   1.2554   1.3127   1.3418
     1.3683   1.3803   1.4082   1.4206   1.4449   1.4597   1.5008   1.5167
     1.5742   1.6255   1.6901   1.7338   1.7384   1.7545   1.7759   1.7940
     1.8066   1.8122   1.8257   1.8378   1.8491   1.8959   1.9099   1.9122
     1.9241   1.9622   1.9694   1.9763   1.9902   2.0136   2.0186   2.0455
     2.0505   2.0579   2.0623   2.0895   2.0935   2.1091   2.1353   2.1639
     2.1893   2.1968   2.2997   2.3195   2.3760   2.4334   2.4666   2.6197
     2.7020   2.7852

          k = 0.2000-0.5774 0.0000 ( 51262 PWs)   bands (ev):

   -21.5364 -10.3028  -6.8391  -6.5740  -6.4736  -5.9677  -5.7908  -5.3518
    -5.1339  -4.9987  -4.5397  -4.0960  -3.5770  -3.4576  -3.2350  -3.2305
    -3.1993  -3.0084  -2.9753  -2.8310  -2.8159  -2.8090  -2.6863  -2.6751
    -2.6677  -2.6527  -2.6347  -2.6165  -2.4328  -2.3028  -2.2769  -2.2655
    -2.2525  -2.2386  -2.2006  -2.1956  -2.0956  -2.0744  -1.8799  -1.7865
    -1.7427  -1.7330  -1.7265  -1.6543  -1.6104  -1.5272  -1.4912  -1.4817
    -1.4403  -1.4322  -1.4156  -1.3165  -1.2736  -1.2593  -1.2500  -1.2202
    -1.1942  -1.1278  -1.1033  -1.0815  -1.0365  -1.0251  -0.9980  -0.9100
    -0.8976  -0.8267  -0.7344  -0.7128  -0.6978  -0.6557  -0.6332  -0.6260
    -0.5798  -0.5561  -0.5333  -0.5070  -0.4784  -0.4543  -0.4232  -0.4103
[...]
     atom    8 type  1   force =    -0.00054573   -0.00357312   -0.10027107
     atom    9 type  1   force =     0.00134105    0.00246399   -0.10291964
     atom   10 type  1   force =     0.00081713    0.00128485   -0.01404674
     atom   11 type  1   force =    -0.00000467   -0.00001335   -0.00841574
     atom   12 type  1   force =    -0.00033017    0.00094031   -0.01076458
     atom   13 type  1   force =    -0.00131579   -0.00057510   -0.01059003
     atom   14 type  1   force =     0.00103682    0.00132708   -0.01164071
     atom   15 type  1   force =    -0.00031898    0.00036376   -0.01010966
     atom   16 type  1   force =     0.00119864   -0.00113907   -0.01030733
     atom   17 type  1   force =    -0.00060910   -0.00190201   -0.00974544
     atom   18 type  1   force =    -0.00006419   -0.00026123   -0.01314345
     atom   19 type  1   force =    -0.00041813    0.00082464    0.01245419
     atom   20 type  1   force =    -0.00461363    0.00446550    0.00186005
     atom   21 type  1   force =     0.00251354   -0.00576574    0.01168853
     atom   22 type  1   force =     0.00104611    0.00015808    0.01740695
     atom   23 type  1   force =    -0.00108667    0.00529516    0.00888921
     atom   24 type  1   force =     0.00016440    0.00196245    0.01714756
     atom   25 type  1   force =     0.00020997    0.00064300    0.01795005
     atom   26 type  1   force =    -0.00574114   -0.00545290    0.00416007
     atom   27 type  1   force =     0.00798981   -0.00282936    0.00320361
     atom   28 type  1   force =     0.02051070    0.00216965    0.12867731
     atom   29 type  1   force =     0.01546197    0.06163720    0.15041322
     atom   30 type  1   force =    -0.02602282    0.00638007    0.13113048
     atom   31 type  1   force =     0.03600896   -0.04600004    0.16390991
     atom   32 type  1   force =     0.00855559    0.01163374    0.09471654
     atom   33 type  1   force =    -0.00253508    0.00160420    0.10733390
     atom   34 type  1   force =    -0.00118009   -0.00430927    0.10983366
     atom   35 type  1   force =    -0.00036163    0.00046814    0.12097651
     atom   36 type  1   force =    -0.00316154    0.00360026    0.10746875
     atom   37 type  2   force =    -0.20639154   -0.25481642    0.19678533
     atom   38 type  3   force =     1.37483174    1.65558306   -1.38881420
     atom   39 type  4   force =    -0.03897939   -0.04617614   -0.04457163
     The ionic contribution  to forces
     atom    1 type  1   force =    -0.00644551    0.00140168 -111.17076273
     atom    2 type  1   force =    -0.00298652    0.00279565 -111.18967359
     atom    3 type  1   force =     0.00943195    0.00105458 -111.17669268
     atom    4 type  1   force =    -0.00350909    0.00492847 -111.16975375
     atom    5 type  1   force =     0.00174629    0.00733215 -111.17330662
     atom    6 type  1   force =     0.00176284   -0.00150127 -111.16632901
     atom    7 type  1   force =     0.00116929   -0.00125793 -111.16578586
     atom    8 type  1   force =    -0.00589573   -0.00600789 -111.17516335
     atom    9 type  1   force =     0.00472647   -0.00874543 -111.17752709
     atom   10 type  1   force =    -0.04247648   -0.01639203  -40.11253701
     atom   11 type  1   force =    -0.01478245   -0.05341409  -40.22789331
     atom   12 type  1   force =     0.05724987   -0.03214165  -40.14062126
     atom   13 type  1   force =    -0.05986151    0.04067168  -40.17319096
     atom   14 type  1   force =     0.03953628    0.04614385  -40.21577826
     atom   15 type  1   force =     0.02033953    0.01267755  -40.09656684
     atom   16 type  1   force =    -0.00613925    0.03834737  -40.10203915
     atom   17 type  1   force =     0.00177643   -0.00803934  -40.10944573
     atom   18 type  1   force =     0.00436080   -0.02785222  -40.09815252
     atom   19 type  1   force =    -0.31000540    0.06798765   31.49421218
     atom   20 type  1   force =    -0.17465711    0.15592892   30.47943899
     atom   21 type  1   force =     0.48145278    0.04759246   31.20464573
     atom   22 type  1   force =    -0.16608295    0.23417035   31.54262343
     atom   23 type  1   force =     0.08978740    0.36396374   31.37253618
     atom   24 type  1   force =     0.07701155   -0.06805347   31.67914280
     atom   25 type  1   force =     0.04831385   -0.05514118   31.70397287
     atom   26 type  1   force =    -0.29177337   -0.30376242   31.27487445
     atom   27 type  1   force =     0.24398304   -0.44215520   31.16717010
     atom   28 type  1   force =    -1.65670420   -0.54963692  103.74341569
     atom   29 type  1   force =    -0.85395707   -3.73472361   97.68119646
     atom   30 type  1   force =     2.38427107   -1.33613990  103.10594200
     atom   31 type  1   force =    -2.99825208    2.08071371  101.79211385
     atom   32 type  1   force =     2.83453357    3.30887771   98.24065479
     atom   33 type  1   force =     0.70405631    0.35360073  104.27056500
     atom   34 type  1   force =    -0.25232039    1.30040526  104.14409396
     atom   35 type  1   force =     0.00365732   -0.33612635  103.97082797
     atom   36 type  1   force =     0.23960018   -0.95087108  104.20354928
     atom   37 type  2   force =     3.49654768    4.49673688   55.28573893
     atom   38 type  3   force =    -5.26393393   -6.26824869   88.41262297
     atom   39 type  4   force =     1.36446851    1.63488031   15.07188212
     The local contribution  to forces
     atom    1 type  1   force =     0.00803870   -0.00307430  111.27834929
     atom    2 type  1   force =     0.00216938   -0.00419099  111.29514792
     atom    3 type  1   force =    -0.01021241    0.00017399  111.28510668
     atom    4 type  1   force =     0.00031687   -0.00434347  111.27774420
     atom    5 type  1   force =    -0.00123809   -0.01060398  111.28297944
     atom    6 type  1   force =     0.00027359    0.00204412  111.27163216
     atom    7 type  1   force =    -0.00138770    0.00192328  111.27317856
     atom    8 type  1   force =     0.00707485    0.00962145  111.27835676
     atom    9 type  1   force =    -0.00638480    0.00647720  111.28236271
     atom   10 type  1   force =     0.04243905    0.01495174   40.10474311
     atom   11 type  1   force =     0.01394940    0.05295056   40.21546768
     atom   12 type  1   force =    -0.05657347    0.03119924   40.13208457
     atom   13 type  1   force =     0.06067903   -0.04164121   40.16356585
     atom   14 type  1   force =    -0.03983617   -0.04638852   40.20529923
     atom   15 type  1   force =    -0.01974801   -0.01345441   40.08618028
     atom   16 type  1   force =     0.00579007   -0.03665301   40.09185567
     atom   17 type  1   force =    -0.00126416    0.01016359   40.09858514
     atom   18 type  1   force =    -0.00419249    0.02841961   40.08964294
     atom   19 type  1   force =     0.30972919   -0.06803476  -31.48458880
     atom   20 type  1   force =     0.17937239   -0.16165277  -30.46077027
     atom   21 type  1   force =    -0.48248676   -0.04266659  -31.19764162
     atom   22 type  1   force =     0.16469042   -0.23319148  -31.53653955
     atom   23 type  1   force =    -0.08826102   -0.36617513  -31.36595420
     atom   24 type  1   force =    -0.07686416    0.06639400  -31.67393518
     atom   25 type  1   force =    -0.04894702    0.05449112  -31.69605639
     atom   26 type  1   force =     0.30053631    0.30937826  -31.25581525
     atom   27 type  1   force =    -0.25300291    0.44514247  -31.14999870
     atom   28 type  1   force =     1.62854453    0.54510983 -103.88159243
     atom   29 type  1   force =     0.82911237    3.65135134  -97.83850491
     atom   30 type  1   force =    -2.34703837    1.32571690 -103.24660685
     atom   31 type  1   force =     2.95160715   -2.02434484 -101.96690461
     atom   32 type  1   force =    -2.84048925   -3.31809511  -98.32949543
     atom   33 type  1   force =    -0.69678533   -0.35367551 -104.38711630
     atom   34 type  1   force =     0.25114295   -1.28849935 -104.26183203
     atom   35 type  1   force =    -0.00294301    0.33377034 -104.10454456
     atom   36 type  1   force =    -0.23552764    0.94217360 -104.32066766
     atom   37 type  2   force =    -3.28736586   -4.23919794  -55.47758535
     atom   38 type  3   force =     3.90107863    4.62576290  -87.04225834
     atom   39 type  4   force =    -1.32633859   -1.58847256  -15.01631026
     The core correction contribution to forces
     atom    1 type  1   force =     0.00020013   -0.00012424    0.01026739
     atom    2 type  1   force =    -0.00017785   -0.00019636    0.01002988
     atom    3 type  1   force =    -0.00013149    0.00004426    0.01043778
     atom    4 type  1   force =    -0.00023937   -0.00013218    0.01005453
     atom    5 type  1   force =     0.00011892   -0.00014070    0.01039869
     atom    6 type  1   force =    -0.00003055   -0.00015801    0.00999096
     atom    7 type  1   force =    -0.00021195   -0.00002589    0.01016022
     atom    8 type  1   force =     0.00015600    0.00038770    0.01047552
     atom    9 type  1   force =    -0.00023156   -0.00011323    0.01020503
     atom   10 type  1   force =    -0.00005760    0.00009246   -0.00200876
     atom   11 type  1   force =    -0.00012427    0.00003920   -0.00152277
     atom   12 type  1   force =     0.00034047    0.00006664   -0.00194667
     atom   13 type  1   force =     0.00008864   -0.00005797   -0.00171608
     atom   14 type  1   force =     0.00015367    0.00001509   -0.00206631
     atom   15 type  1   force =    -0.00002490   -0.00007455   -0.00151568
     atom   16 type  1   force =     0.00008269    0.00015700   -0.00183823
     atom   17 type  1   force =     0.00007823    0.00006878   -0.00162336
     atom   18 type  1   force =    -0.00007040   -0.00014432   -0.00188865
     atom   19 type  1   force =    -0.00048529   -0.00029778    0.00148431
     atom   20 type  1   force =     0.00006566   -0.00013618    0.00165659
     atom   21 type  1   force =     0.00034459   -0.00052878    0.00087548
     atom   22 type  1   force =    -0.00035372   -0.00007898    0.00196452
     atom   23 type  1   force =    -0.00015613    0.00085186    0.00080830
     atom   24 type  1   force =    -0.00003966    0.00008218    0.00186994
     atom   25 type  1   force =     0.00026093    0.00013494    0.00206147
     atom   26 type  1   force =    -0.00034616   -0.00034669    0.00133779
     atom   27 type  1   force =    -0.00005030   -0.00027487    0.00083157
     atom   28 type  1   force =     0.00054810    0.00014188   -0.00907378
     atom   29 type  1   force =     0.00375426    0.01192480    0.00480889
     atom   30 type  1   force =    -0.00304811    0.00391313   -0.00800495
     atom   31 type  1   force =     0.00689818   -0.00190495   -0.00550935
     atom   32 type  1   force =    -0.00408489   -0.00475142    0.00227556
     atom   33 type  1   force =    -0.00223735   -0.00046800   -0.00996500
     atom   34 type  1   force =     0.00091090   -0.00292460   -0.00919031
     atom   35 type  1   force =    -0.00039962   -0.00051689   -0.00961883
     atom   36 type  1   force =    -0.00007084    0.00002312   -0.01039859
     atom   37 type  2   force =     0.00155514    0.00220055   -0.00165974
     atom   38 type  3   force =    -0.01115685   -0.01331960    0.01210573
     atom   39 type  4   force =     0.00000000    0.00000000    0.00000000
     The Hubbard contrib.    to forces
     atom    1 type  1   force =     0.00000000    0.00000000    0.00000000
     atom    2 type  1   force =     0.00000000    0.00000000    0.00000000
     atom    3 type  1   force =     0.00000000    0.00000000    0.00000000
     atom    4 type  1   force =     0.00000000    0.00000000    0.00000000
     atom    5 type  1   force =     0.00000000    0.00000000    0.00000000
     atom    6 type  1   force =     0.00000000    0.00000000    0.00000000
     atom    7 type  1   force =     0.00000000    0.00000000    0.00000000
     atom    8 type  1   force =     0.00000000    0.00000000    0.00000000
     atom    9 type  1   force =     0.00000000    0.00000000    0.00000000
     atom   10 type  1   force =     0.00000000    0.00000000    0.00000000
     atom   11 type  1   force =     0.00000000    0.00000000    0.00000000
     atom   12 type  1   force =     0.00000000    0.00000000    0.00000000
     atom   13 type  1   force =     0.00000000    0.00000000    0.00000000
     atom   14 type  1   force =     0.00000000    0.00000000    0.00000000
     atom   15 type  1   force =     0.00000000    0.00000000    0.00000000
     atom   16 type  1   force =     0.00000000    0.00000000    0.00000000
     atom   17 type  1   force =     0.00000000    0.00000000    0.00000000
     atom   18 type  1   force =     0.00000000    0.00000000    0.00000000
     atom   19 type  1   force =     0.00000000    0.00000000    0.00000000
     atom   20 type  1   force =     0.00000000    0.00000000    0.00000000
     atom   21 type  1   force =     0.00000000    0.00000000    0.00000000
     atom   22 type  1   force =     0.00000000    0.00000000    0.00000000
     atom   23 type  1   force =     0.00000000    0.00000000    0.00000000
     atom   24 type  1   force =     0.00000000    0.00000000    0.00000000
     atom   25 type  1   force =     0.00000000    0.00000000    0.00000000
     atom   26 type  1   force =     0.00000000    0.00000000    0.00000000
     atom   27 type  1   force =     0.00000000    0.00000000    0.00000000
     atom   28 type  1   force =     0.00000000    0.00000000    0.00000000
     atom   29 type  1   force =     0.00000000    0.00000000    0.00000000
     atom   30 type  1   force =     0.00000000    0.00000000    0.00000000
     atom   31 type  1   force =     0.00000000    0.00000000    0.00000000
     atom   32 type  1   force =     0.00000000    0.00000000    0.00000000
     atom   33 type  1   force =     0.00000000    0.00000000    0.00000000
     atom   34 type  1   force =     0.00000000    0.00000000    0.00000000
     atom   35 type  1   force =     0.00000000    0.00000000    0.00000000
     atom   36 type  1   force =     0.00000000    0.00000000    0.00000000
     atom   37 type  2   force =     0.00000000    0.00000000    0.00000000
     atom   38 type  3   force =     0.00000000    0.00000000    0.00000000
     atom   39 type  4   force =     0.00000000    0.00000000    0.00000000
     The SCF correction term to forces
     atom    1 type  1   force =     0.00000000   -0.00000000    0.00000000
     atom    2 type  1   force =    -0.00000000   -0.00000000    0.00000000
     atom    3 type  1   force =    -0.00000000   -0.00000000   -0.00000000
     atom    4 type  1   force =     0.00000000   -0.00000000    0.00000000
     atom    5 type  1   force =    -0.00000000    0.00000000   -0.00000000
     atom    6 type  1   force =    -0.00000000    0.00000000   -0.00000000
     atom    7 type  1   force =     0.00000000   -0.00000000    0.00000000
     atom    8 type  1   force =    -0.00000000    0.00000000    0.00000000
     atom    9 type  1   force =     0.00000000    0.00000000    0.00000000
     atom   10 type  1   force =     0.00000000   -0.00000000   -0.00000000
     atom   11 type  1   force =    -0.00000000   -0.00000000   -0.00000000
     atom   12 type  1   force =     0.00000000   -0.00000000   -0.00000000
     atom   13 type  1   force =    -0.00000000   -0.00000000   -0.00000000
     atom   14 type  1   force =    -0.00000000    0.00000000   -0.00000000
     atom   15 type  1   force =     0.00000000   -0.00000000   -0.00000000
     atom   16 type  1   force =     0.00000000    0.00000000   -0.00000000
     atom   17 type  1   force =    -0.00000000    0.00000000   -0.00000000
     atom   18 type  1   force =     0.00000000    0.00000000   -0.00000000
     atom   19 type  1   force =     0.00000000    0.00000000   -0.00000000
     atom   20 type  1   force =    -0.00000000   -0.00000000   -0.00000000
     atom   21 type  1   force =     0.00000000   -0.00000000   -0.00000000
     atom   22 type  1   force =     0.00000000    0.00000000   -0.00000000
     atom   23 type  1   force =    -0.00000000    0.00000000   -0.00000000
     atom   24 type  1   force =     0.00000000    0.00000000   -0.00000000
     atom   25 type  1   force =     0.00000000   -0.00000000   -0.00000000
     atom   26 type  1   force =    -0.00000000    0.00000000   -0.00000000
     atom   27 type  1   force =     0.00000000   -0.00000000   -0.00000000
     atom   28 type  1   force =    -0.00000000    0.00000000   -0.00000000
     atom   29 type  1   force =    -0.00000000   -0.00000000   -0.00000000
     atom   30 type  1   force =     0.00000000   -0.00000000   -0.00000000
     atom   31 type  1   force =    -0.00000000    0.00000000   -0.00000000
     atom   32 type  1   force =    -0.00000000    0.00000000   -0.00000000
     atom   33 type  1   force =     0.00000000    0.00000000   -0.00000000
     atom   34 type  1   force =    -0.00000000   -0.00000000   -0.00000000
     atom   35 type  1   force =     0.00000000   -0.00000000   -0.00000000
     atom   36 type  1   force =     0.00000000   -0.00000000   -0.00000000
     atom   37 type  2   force =    -0.00000943   -0.00000131    0.00000974
     atom   38 type  3   force =    -0.00000852    0.00000084    0.00000431
     atom   39 type  4   force =     0.00000025    0.00000076    0.00000152

     Total force =     0.014718     Total SCF correction =     0.000017

     Writing all to output data dir ./pwscf.save/

     init_run     :     14.00s CPU     16.57s WALL (       1 calls)
     electrons    :    909.39s CPU    925.63s WALL (       1 calls)
     forces       :      3.38s CPU      3.42s WALL (       1 calls)

     Called by init_run:
     wfcinit      :     10.91s CPU     13.37s WALL (       1 calls)
     potinit      :      1.98s CPU      2.06s WALL (       1 calls)
     hinit0       :      0.84s CPU      0.85s WALL (       1 calls)

     Called by electrons:
     c_bands      :    753.24s CPU    766.92s WALL (      53 calls)
     sum_band     :    105.38s CPU    107.12s WALL (      53 calls)
     v_of_rho     :      8.14s CPU      8.29s WALL (      54 calls)
     newd         :      7.82s CPU      7.89s WALL (      54 calls)
     PAW_pot      :     13.82s CPU     13.98s WALL (      54 calls)
     mix_rho      :     22.09s CPU     22.42s WALL (      53 calls)
     vdW_kernel   :      1.09s CPU      1.09s WALL (       1 calls)

     Called by c_bands:
     init_us_2    :      9.47s CPU      9.62s WALL (    2808 calls)
     init_us_2:cp :      9.45s CPU      9.62s WALL (    2808 calls)
     cegterg      :    727.12s CPU    740.09s WALL (    1378 calls)

     Called by *egterg:
     cdiaghg      :    203.44s CPU    208.31s WALL (    4474 calls)
     h_psi        :    356.82s CPU    364.41s WALL (    4500 calls)
     s_psi        :     38.61s CPU     39.09s WALL (    4500 calls)
     g_psi        :      0.98s CPU      1.01s WALL (    3096 calls)

     Called by h_psi:
     h_psi:calbec :     57.36s CPU     58.30s WALL (    4500 calls)
     vloc_psi     :    258.18s CPU    264.12s WALL (    4500 calls)
     add_vuspsi   :     38.84s CPU     39.32s WALL (    4500 calls)

     General routines
     calbec       :     84.21s CPU     85.44s WALL (    5982 calls)
     fft          :      9.89s CPU     10.02s WALL (    4883 calls)
     ffts         :     11.80s CPU     12.00s WALL (   22640 calls)
     fftw         :    299.66s CPU    306.47s WALL ( 1426060 calls)
     interpolate  :      0.37s CPU      0.38s WALL (     108 calls)

     Parallel routines

     PWSCF        :  15m31.96s CPU  15m56.85s WALL


   This run was terminated on:  19:50:40   7Dec2025            

=------------------------------------------------------------------------------=
   JOB DONE.
=------------------------------------------------------------------------------=
