
     Program PWSCF v.7.1 starts on  4Dec2025 at 19:23:34 
        Git branch: heads/qe-7.1
        Last git commit: 48ba0178f8fede6d020eb786884699a9f063f55d-dirty
        Last git commit date: Fri Jan 27 14:22:33 2023 +0000
        Last git commit subject: Merge branch 'fix_hubbard' into 'develop'

     This program is part of the open-source Quantum ESPRESSO suite
     for quantum simulation of materials; please cite
         "P. Giannozzi et al., J. Phys.:Condens. Matter 21 395502 (2009);
         "P. Giannozzi et al., J. Phys.:Condens. Matter 29 465901 (2017);
         "P. Giannozzi et al., J. Chem. Phys. 152 154105 (2020);
          URL http://www.quantum-espresso.org", 
     in publications or presentations arising from this work. More details at
     http://www.quantum-espresso.org/quote

     Parallel version (MPI), running on    96 processors

     MPI processes distributed on     2 nodes
     38265 MiB available memory on the printing compute node when the environment starts

     Reading input from espresso.pwi
Warning: card &CELL ignored
Warning: card / ignored
Warning: card &FCP ignored
Warning: card / ignored
Warning: card &RISM ignored
Warning: card / ignored

     Current dimensions of program PWSCF are:
     Max number of different atomic species (ntypx) = 10
     Max number of k-points (npk) =  40000
     Max angular momentum in pseudopotentials (lmaxx) =  4
     file Co.pbe-n-kjpaw_psl.1.0.0.UPF: wavefunction(s)  4S 3D renormalized
     file C.pbe-n-kjpaw_psl.1.0.0.UPF: wavefunction(s)  2S 2P renormalized
     file O.pbe-nl-kjpaw_psl.1.0.0.UPF: wavefunction(s)  2S 2P renormalized
     file H.pbe-kjpaw_psl.1.0.0.UPF: wavefunction(s)  1S renormalized

     **************************************************************************
     Initializing libbeef V0.1.2 with the BEEF-vdW functional.
     Citation: Wellendorff et al., PRB 85, 235149 (2012).
     **************************************************************************


     IMPORTANT: XC functional enforced from input :
     Exchange-correlation= BEEF-VDW
                           (   1   4  43  14   2   0   0)
     Any further DFT definition will be discarded
     Please, verify this is what you really want


     R & G space division:  proc/nbgrp/npool/nimage =      96
     Subspace diagonalization in iterative solution of the eigenvalue problem:
     one sub-group per band group will be used
     custom distributed-memory algorithm (size of sub-group:  2*  2 procs)


     Parallelization info
     --------------------
     sticks:   dense  smooth     PW     G-vecs:    dense   smooth      PW
     Min          43      23      6                 7829     3049     440
     Max          44      24      7                 7845     3068     465
     Sum        4153    2221    613               752179   293251   42993

     Using Slab Decomposition



     bravais-lattice index     =            0
     lattice parameter (alat)  =      14.1729  a.u.
     unit-cell volume          =    8574.3059 (a.u.)^3
     number of atoms/cell      =           39
     number of atomic types    =            4
     number of electrons       =       335.00
     number of Kohn-Sham states=          202
     kinetic-energy cutoff     =      40.0000  Ry
     charge density cutoff     =     300.0000  Ry
     scf convergence threshold =      1.0E-06
     mixing beta               =       0.7000
     number of iterations used =            8  local-TF  mixing
     Exchange-correlation= BEEF-VDW
                           (   1   4  43  14   2   0   0)

     celldm(1)=  14.172946  celldm(2)=   0.000000  celldm(3)=   0.000000
     celldm(4)=   0.000000  celldm(5)=   0.000000  celldm(6)=   0.000000

     crystal axes: (cart. coord. in units of alat)
               a(1) = (   1.000000   0.000000   0.000000 )  
               a(2) = (   0.500000   0.866025   0.000000 )  
               a(3) = (   0.000000   0.000000   3.477667 )  

     reciprocal axes: (cart. coord. in units 2 pi/alat)
               b(1) = (  1.000000 -0.577350  0.000000 )  
               b(2) = (  0.000000  1.154701  0.000000 )  
               b(3) = (  0.000000  0.000000  0.287549 )  


     PseudoPot. # 1 for Co read from file:
     /users/kbadger1/espresso/pseudo/pslibrary.1.0.0/pbe/PSEUDOPOTENTIALS/Co.pbe-n-kjpaw_psl.1.0.0.UPF
     MD5 check sum: 88af6ec42553d4236c267fdfcb472151
     Pseudo is Projector augmented-wave + core cor, Zval =  9.0
     Generated using 'atomic' code by A. Dal Corso  v.7.0
     Shape of augmentation charge: PSQ
     Using radial grid of 1193 points,  6 beta functions with: 
                l(1) =   0
                l(2) =   0
                l(3) =   1
                l(4) =   1
                l(5) =   2
                l(6) =   2
     Q(r) pseudized with 0 coefficients 


     PseudoPot. # 2 for C  read from file:
     /users/kbadger1/espresso/pseudo/pslibrary.1.0.0/pbe/PSEUDOPOTENTIALS/C.pbe-n-kjpaw_psl.1.0.0.UPF
     MD5 check sum: 6408e75cdba28732cea38a4db8498ce4
     Pseudo is Projector augmented-wave + core cor, Zval =  4.0
     Generated using 'atomic' code by A. Dal Corso  v.7.0
     Shape of augmentation charge: PSQ
     Using radial grid of 1073 points,  4 beta functions with: 
                l(1) =   0
                l(2) =   0
                l(3) =   1
                l(4) =   1
     Q(r) pseudized with 0 coefficients 


     PseudoPot. # 3 for O  read from file:
     /users/kbadger1/espresso/pseudo/pslibrary.1.0.0/pbe/PSEUDOPOTENTIALS/O.pbe-nl-kjpaw_psl.1.0.0.UPF
     MD5 check sum: f0439fab3598ca4e468f064226030408
     Pseudo is Projector augmented-wave + core cor, Zval =  6.0
     Generated using 'atomic' code by A. Dal Corso  v.7.0
     Shape of augmentation charge: PSQ
     Using radial grid of 1095 points,  4 beta functions with: 
                l(1) =   0
                l(2) =   0
                l(3) =   1
                l(4) =   1
     Q(r) pseudized with 0 coefficients 


     PseudoPot. # 4 for H  read from file:
     /users/kbadger1/espresso/pseudo/pslibrary.1.0.0/pbe/PSEUDOPOTENTIALS/H.pbe-kjpaw_psl.1.0.0.UPF
     MD5 check sum: fe4c6fa958fa6d3815bf5d2419cbf1df
     Pseudo is Projector augmented-wave, Zval =  1.0
     Generated using 'atomic' code by A. Dal Corso  v.7.0
     Shape of augmentation charge: PSQ
     Using radial grid of  929 points,  2 beta functions with: 
                l(1) =   0
                l(2) =   0
     Q(r) pseudized with 0 coefficients 


     atomic species   valence    mass     pseudopotential
        Co             9.00    58.93319     Co( 1.00)
        C              4.00    12.00000     C ( 1.00)
        O              6.00    15.99491     O ( 1.00)
        H              1.00     1.00783     H ( 1.00)

     Starting magnetic structure 
     atomic species   magnetization
        Co           1.000
        C            1.000
        O            0.000
        H            0.000

     No symmetry found



   Cartesian axes

     site n.     atom                  positions (alat units)
         1           Co  tau(   1) = (   0.0000000   0.1924501   1.3333333  )
         2           Co  tau(   2) = (   0.3333333   0.1924501   1.3333333  )
         3           Co  tau(   3) = (   0.6666667   0.1924501   1.3333333  )
         4           Co  tau(   4) = (   0.1666667   0.4811252   1.3333333  )
         5           Co  tau(   5) = (   0.5000000   0.4811252   1.3333333  )
         6           Co  tau(   6) = (   0.8333333   0.4811252   1.3333333  )
         7           Co  tau(   7) = (   0.3333333   0.7698004   1.3333333  )
         8           Co  tau(   8) = (   0.6666667   0.7698004   1.3333333  )
         9           Co  tau(   9) = (   1.0000000   0.7698004   1.3333333  )
        10           Co  tau(  10) = (   0.0000000   0.0000000   1.6036667  )
        11           Co  tau(  11) = (   0.3333333   0.0000000   1.6036667  )
        12           Co  tau(  12) = (   0.6666667   0.0000000   1.6036667  )
        13           Co  tau(  13) = (   0.1666667   0.2886751   1.6036667  )
        14           Co  tau(  14) = (   0.5000000   0.2886751   1.6036667  )
        15           Co  tau(  15) = (   0.8333333   0.2886751   1.6036667  )
        16           Co  tau(  16) = (   0.3333333   0.5773503   1.6036667  )
        17           Co  tau(  17) = (   0.6666667   0.5773503   1.6036667  )
        18           Co  tau(  18) = (   1.0000000   0.5773503   1.6036667  )
        19           Co  tau(  19) = (   0.0000000   0.1924501   1.8740000  )
        20           Co  tau(  20) = (   0.3333333   0.1924501   1.8740000  )
        21           Co  tau(  21) = (   0.6666667   0.1924501   1.8740000  )
        22           Co  tau(  22) = (   0.1666667   0.4811252   1.8740000  )
        23           Co  tau(  23) = (   0.5000000   0.4811252   1.8740000  )
        24           Co  tau(  24) = (   0.8333333   0.4811252   1.8740000  )
        25           Co  tau(  25) = (   0.3333333   0.7698004   1.8740000  )
        26           Co  tau(  26) = (   0.6666667   0.7698004   1.8740000  )
        27           Co  tau(  27) = (   1.0000000   0.7698004   1.8740000  )
        28           Co  tau(  28) = (   0.0000000   0.0000000   2.1443333  )
        29           Co  tau(  29) = (   0.3333333   0.0000000   2.1443333  )
        30           Co  tau(  30) = (   0.6666667   0.0000000   2.1443333  )
        31           Co  tau(  31) = (   0.1666667   0.2886751   2.1443333  )
        32           Co  tau(  32) = (   0.5000000   0.2886751   2.1443333  )
        33           Co  tau(  33) = (   0.8333333   0.2886751   2.1443333  )
        34           Co  tau(  34) = (   0.3333333   0.5773503   2.1443333  )
        35           Co  tau(  35) = (   0.6666667   0.5773503   2.1443333  )
        36           Co  tau(  36) = (   1.0000000   0.5773503   2.1443333  )
        37           C   tau(  37) = (   0.3768391   0.1689577   2.3323784  )
        38           O   tau(  38) = (   0.3578407   0.1616150   2.4897050  )
        39           H   tau(  39) = (   0.6181600   0.3945168   2.2898855  )

     number of k points=    13  Marzari-Vanderbilt smearing, width (Ry)=  0.0010
                       cart. coord. in units 2pi/alat
        k(    1) = (   0.0000000   0.0000000   0.0000000), wk =   0.0400000
        k(    2) = (   0.0000000   0.2309401   0.0000000), wk =   0.0800000
        k(    3) = (   0.0000000   0.4618802   0.0000000), wk =   0.0800000
        k(    4) = (   0.2000000  -0.1154701   0.0000000), wk =   0.0800000
        k(    5) = (   0.2000000   0.1154701   0.0000000), wk =   0.0800000
        k(    6) = (   0.2000000   0.3464102   0.0000000), wk =   0.0800000
        k(    7) = (   0.2000000  -0.5773503   0.0000000), wk =   0.0800000
        k(    8) = (   0.2000000  -0.3464102   0.0000000), wk =   0.0800000
        k(    9) = (   0.4000000  -0.2309401   0.0000000), wk =   0.0800000
        k(   10) = (   0.4000000   0.0000000   0.0000000), wk =   0.0800000
        k(   11) = (   0.4000000   0.2309401   0.0000000), wk =   0.0800000
        k(   12) = (   0.4000000  -0.6928203   0.0000000), wk =   0.0800000
        k(   13) = (   0.4000000  -0.4618802   0.0000000), wk =   0.0800000

     Dense  grid:   752179 G-vectors     FFT dimensions: (  80,  80, 288)

     Smooth grid:   293251 G-vectors     FFT dimensions: (  60,  60, 200)

     Estimated max dynamical RAM per process >      84.82 MB

     Estimated total dynamical RAM >       7.95 GB
     Generating pointlists ...
     new r_m :   0.0888 (alat units)  1.2587 (a.u.) for type    1
     new r_m :   0.0654 (alat units)  0.9275 (a.u.) for type    2
     new r_m :   0.0654 (alat units)  0.9275 (a.u.) for type    3
     new r_m :   0.0888 (alat units)  1.2587 (a.u.) for type    4

     Initial potential from superposition of free atoms

     starting charge     334.9897, renormalised to     335.0000

     negative rho (up, down):  3.050E-03 4.520E-04


     %%%%%%%%%%%%%%%%%%%%%%%%%%%%%%%%%%%%%%%%%%%%%%%%%%%%%%%%%%%%%%%%%%%%%%%%
     %                                                                      %
     % You are using vdW-DF, which was implemented by the Thonhauser group. %
     % Please cite the following two papers that made this development      %
     % possible and the two reviews that describe the various versions:     %
     %                                                                      %
     %   T. Thonhauser et al., PRL 115, 136402 (2015).                      %
     %   T. Thonhauser et al., PRB 76, 125112 (2007).                       %
     %   K. Berland et al., Rep. Prog. Phys. 78, 066501 (2015).             %
     %   D.C. Langreth et al., J. Phys.: Condens. Matter 21, 084203 (2009). %
     %                                                                      %
     % If you are calculating stress with vdW-DF, please also cite:         %
     %                                                                      %
     %   R. Sabatini et al., J. Phys.: Condens. Matter 24, 424209 (2012).   %
     %   C.M. Frostenson et al., Electr. Struct. 4, 014001 (2022).          %
     %                                                                      %
     %%%%%%%%%%%%%%%%%%%%%%%%%%%%%%%%%%%%%%%%%%%%%%%%%%%%%%%%%%%%%%%%%%%%%%%%

     %%%%%%%%%%%%%%%%%%%%%%%%%%%%%%%%%%%%%%%%%%%%%%%%%%%%%%%%%%%%%%%%%%%%%%%%
     %                                                                      %
     %  vdW-DF NEWS:                                                        %
     %                                                                      %
     %  * vdW-DF3 is now available. DOI: 10.1021/acs.jctc.0c00471           %
     %    use with input_dft = 'vdW-DF3-opt1' or 'vdW-DF3-opt2'             %
     %                                                                      %
     %  * Unscreened and range-separated hybrid vdW-DF-cx functionals       %
     %    DOI: 10.1063/1.4986522 and 10.1088/1361-648X/ac2ad2               %
     %    use with input_dft = 'vdW-DF-cx0'    and 'vdW-DF-ahcx'            %
     %  * Unscreened and range-separated hybrid vdW-DF2-b86r functionals    %
     %    DOI: 10.1063/1.4986522 and DOI: 10.1103/PhysRevX.12.041003        %
     %    use with input_dft = 'vdW-DF2-br0' and 'vdW-DF2-ahbr'             %
     %                                                                      %
     %%%%%%%%%%%%%%%%%%%%%%%%%%%%%%%%%%%%%%%%%%%%%%%%%%%%%%%%%%%%%%%%%%%%%%%%


     Starting wfcs are  333 randomized atomic wfcs
     Checking if some PAW data can be deallocated... 

     total cpu time spent up to now is       13.2 secs

     per-process dynamical memory:   213.6 Mb

     Self-consistent Calculation

     iteration #  1     ecut=    40.00 Ry     beta= 0.70
     Davidson diagonalization with overlap
     ethr =  1.00E-02,  avg # of iterations =  2.0

     negative rho (up, down):  6.848E-05 1.523E-06

     total cpu time spent up to now is       27.7 secs

     total energy              =   -6053.00826235 Ry
     estimated scf accuracy    <      39.14183472 Ry

     total magnetization       =    69.00 Bohr mag/cell
     absolute magnetization    =    81.27 Bohr mag/cell

     iteration #  2     ecut=    40.00 Ry     beta= 0.70
     Davidson diagonalization with overlap
     ethr =  1.00E-02,  avg # of iterations =  1.0

     negative rho (up, down):  2.718E-05 1.000E-06

     total cpu time spent up to now is       40.9 secs

     total energy              =   -6052.51247758 Ry
     estimated scf accuracy    <      24.73472927 Ry

     total magnetization       =    69.00 Bohr mag/cell
     absolute magnetization    =    76.85 Bohr mag/cell

     iteration #  3     ecut=    40.00 Ry     beta= 0.70
     Davidson diagonalization with overlap
     ethr =  7.38E-03,  avg # of iterations =  1.2

     negative rho (up, down):  1.306E-06 3.020E-06

     total cpu time spent up to now is       53.3 secs

     total energy              =   -6055.08797310 Ry
     estimated scf accuracy    <      84.55693421 Ry

     total magnetization       =    66.12 Bohr mag/cell
     absolute magnetization    =    73.57 Bohr mag/cell

     iteration #  4     ecut=    40.00 Ry     beta= 0.70
     Davidson diagonalization with overlap
     ethr =  7.38E-03,  avg # of iterations =  1.0

     negative rho (up, down):  1.600E-06 9.335E-07

     total cpu time spent up to now is       66.7 secs

     total energy              =   -6056.34110200 Ry
     estimated scf accuracy    <       5.36315846 Ry

     total magnetization       =    60.45 Bohr mag/cell
     absolute magnetization    =    70.26 Bohr mag/cell

     iteration #  5     ecut=    40.00 Ry     beta= 0.70
     Davidson diagonalization with overlap
     ethr =  1.60E-03,  avg # of iterations =  1.2

     negative rho (up, down):  1.651E-06 7.735E-07

     total cpu time spent up to now is       79.1 secs

     total energy              =   -6056.34000927 Ry
     estimated scf accuracy    <       2.09823479 Ry

     total magnetization       =    60.39 Bohr mag/cell
     absolute magnetization    =    69.75 Bohr mag/cell

     iteration #  6     ecut=    40.00 Ry     beta= 0.70
     Davidson diagonalization with overlap
     ethr =  6.26E-04,  avg # of iterations =  1.7

     negative rho (up, down):  1.631E-06 8.182E-07

     total cpu time spent up to now is       91.8 secs

     total energy              =   -6056.44359075 Ry
     estimated scf accuracy    <       0.81059051 Ry

     total magnetization       =    59.88 Bohr mag/cell
     absolute magnetization    =    68.97 Bohr mag/cell

     iteration #  7     ecut=    40.00 Ry     beta= 0.70
     Davidson diagonalization with overlap
     ethr =  2.42E-04,  avg # of iterations =  4.4

     negative rho (up, down):  1.382E-06 7.966E-07

     total cpu time spent up to now is      108.7 secs

     total energy              =   -6056.46635624 Ry
     estimated scf accuracy    <       0.62531319 Ry

     total magnetization       =    59.96 Bohr mag/cell
     absolute magnetization    =    68.71 Bohr mag/cell

     iteration #  8     ecut=    40.00 Ry     beta= 0.70
     Davidson diagonalization with overlap
     ethr =  1.87E-04,  avg # of iterations =  1.6

     negative rho (up, down):  1.018E-06 5.201E-07

     total cpu time spent up to now is      120.8 secs

     total energy              =   -6056.48965643 Ry
     estimated scf accuracy    <       0.16614842 Ry

     total magnetization       =    59.99 Bohr mag/cell
     absolute magnetization    =    68.57 Bohr mag/cell

     iteration #  9     ecut=    40.00 Ry     beta= 0.70
     Davidson diagonalization with overlap
     c_bands:  1 eigenvalues not converged
     c_bands:  1 eigenvalues not converged
     c_bands:  1 eigenvalues not converged
     ethr =  4.96E-05,  avg # of iterations =  9.3

     negative rho (up, down):  4.855E-07 2.510E-07

     total cpu time spent up to now is      143.1 secs

     total energy              =   -6056.49204260 Ry
     estimated scf accuracy    <       0.13837957 Ry

     total magnetization       =    60.28 Bohr mag/cell
     absolute magnetization    =    68.45 Bohr mag/cell

     iteration # 10     ecut=    40.00 Ry     beta= 0.70
     Davidson diagonalization with overlap
     ethr =  4.13E-05,  avg # of iterations =  2.8

     negative rho (up, down):  5.853E-07 3.302E-07

     total cpu time spent up to now is      158.0 secs

     total energy              =   -6056.50053431 Ry
     estimated scf accuracy    <       0.15294149 Ry

     total magnetization       =    60.60 Bohr mag/cell
     absolute magnetization    =    68.52 Bohr mag/cell

     iteration # 11     ecut=    40.00 Ry     beta= 0.70
     Davidson diagonalization with overlap
     ethr =  4.13E-05,  avg # of iterations =  1.2

     negative rho (up, down):  2.550E-07 1.571E-07

     total cpu time spent up to now is      169.7 secs

     total energy              =   -6056.49840340 Ry
     estimated scf accuracy    <       0.10468114 Ry

     total magnetization       =    60.56 Bohr mag/cell
     absolute magnetization    =    68.43 Bohr mag/cell

     iteration # 12     ecut=    40.00 Ry     beta= 0.70
     Davidson diagonalization with overlap
     ethr =  3.12E-05,  avg # of iterations =  1.9

     negative rho (up, down):  1.052E-06 1.641E-07

     total cpu time spent up to now is      182.9 secs

     total energy              =   -6056.49908961 Ry
     estimated scf accuracy    <       0.10016557 Ry

     total magnetization       =    60.41 Bohr mag/cell
     absolute magnetization    =    68.21 Bohr mag/cell

     iteration # 13     ecut=    40.00 Ry     beta= 0.70
     Davidson diagonalization with overlap
     ethr =  2.99E-05,  avg # of iterations =  1.2

     negative rho (up, down):  3.413E-07 2.170E-07

     total cpu time spent up to now is      196.0 secs

     total energy              =   -6056.50008942 Ry
     estimated scf accuracy    <       0.09475726 Ry

     total magnetization       =    60.53 Bohr mag/cell
     absolute magnetization    =    68.24 Bohr mag/cell

     iteration # 14     ecut=    40.00 Ry     beta= 0.70
     Davidson diagonalization with overlap
     ethr =  2.83E-05,  avg # of iterations =  1.2

     negative rho (up, down):  2.682E-03 1.354E-03

     total cpu time spent up to now is      207.5 secs

     total energy              =   -6056.49526338 Ry
     estimated scf accuracy    <       0.07646644 Ry

     total magnetization       =    60.50 Bohr mag/cell
     absolute magnetization    =    68.19 Bohr mag/cell

     iteration # 15     ecut=    40.00 Ry     beta= 0.70
     Davidson diagonalization with overlap
     ethr =  2.28E-05,  avg # of iterations =  1.3

     negative rho (up, down):  1.471E-02 1.260E-02

     total cpu time spent up to now is      220.6 secs

     total energy              =   -6056.49295507 Ry
     estimated scf accuracy    <       0.04521947 Ry

     total magnetization       =    60.52 Bohr mag/cell
     absolute magnetization    =    68.19 Bohr mag/cell

     iteration # 16     ecut=    40.00 Ry     beta= 0.70
     Davidson diagonalization with overlap
     c_bands:  1 eigenvalues not converged
     c_bands:  1 eigenvalues not converged
     c_bands:  3 eigenvalues not converged
     ethr =  1.35E-05,  avg # of iterations =  5.1

     negative rho (up, down):  1.867E-02 1.662E-02

     total cpu time spent up to now is      237.1 secs

     total energy              =   -6056.49262941 Ry
     estimated scf accuracy    <       0.03732652 Ry

     total magnetization       =    60.45 Bohr mag/cell
     absolute magnetization    =    68.10 Bohr mag/cell

     iteration # 17     ecut=    40.00 Ry     beta= 0.70
     Davidson diagonalization with overlap
     c_bands:  2 eigenvalues not converged
     ethr =  1.11E-05,  avg # of iterations =  2.3

     negative rho (up, down):  2.051E-02 1.855E-02

     total cpu time spent up to now is      251.2 secs

     total energy              =   -6056.49365072 Ry
     estimated scf accuracy    <       0.01410848 Ry

     total magnetization       =    60.44 Bohr mag/cell
     absolute magnetization    =    68.07 Bohr mag/cell

     iteration # 18     ecut=    40.00 Ry     beta= 0.70
     Davidson diagonalization with overlap
     c_bands:  2 eigenvalues not converged
     c_bands:  1 eigenvalues not converged
     c_bands:  1 eigenvalues not converged
     c_bands:  1 eigenvalues not converged
     c_bands:  2 eigenvalues not converged
     c_bands:  2 eigenvalues not converged
     ethr =  4.21E-06,  avg # of iterations =  9.9

     negative rho (up, down):  1.026E-02 8.871E-03

     total cpu time spent up to now is      271.0 secs

     total energy              =   -6056.49361399 Ry
     estimated scf accuracy    <       0.03255285 Ry

     total magnetization       =    60.46 Bohr mag/cell
     absolute magnetization    =    68.05 Bohr mag/cell

     iteration # 19     ecut=    40.00 Ry     beta= 0.70
     Davidson diagonalization with overlap
     ethr =  4.21E-06,  avg # of iterations =  2.2

     negative rho (up, down):  1.347E-02 1.206E-02

     total cpu time spent up to now is      285.0 secs

     total energy              =   -6056.49389637 Ry
     estimated scf accuracy    <       0.00841647 Ry

     total magnetization       =    60.51 Bohr mag/cell
     absolute magnetization    =    68.08 Bohr mag/cell

     iteration # 20     ecut=    40.00 Ry     beta= 0.70
     Davidson diagonalization with overlap
     c_bands:  1 eigenvalues not converged
     ethr =  2.51E-06,  avg # of iterations =  3.3

     negative rho (up, down):  6.400E-03 5.839E-03

     total cpu time spent up to now is      299.4 secs

     total energy              =   -6056.49315829 Ry
     estimated scf accuracy    <       0.00966011 Ry

     total magnetization       =    60.48 Bohr mag/cell
     absolute magnetization    =    68.04 Bohr mag/cell

     iteration # 21     ecut=    40.00 Ry     beta= 0.70
     Davidson diagonalization with overlap
     ethr =  2.51E-06,  avg # of iterations =  2.1

     negative rho (up, down):  7.313E-03 6.880E-03

     total cpu time spent up to now is      313.9 secs

     total energy              =   -6056.49354023 Ry
     estimated scf accuracy    <       0.01478874 Ry

     total magnetization       =    60.53 Bohr mag/cell
     absolute magnetization    =    68.05 Bohr mag/cell

     iteration # 22     ecut=    40.00 Ry     beta= 0.70
     Davidson diagonalization with overlap
     ethr =  2.51E-06,  avg # of iterations =  1.5

     negative rho (up, down):  1.163E-02 1.110E-02

     total cpu time spent up to now is      325.7 secs

     total energy              =   -6056.49409533 Ry
     estimated scf accuracy    <       0.00851973 Ry

     total magnetization       =    60.53 Bohr mag/cell
     absolute magnetization    =    68.05 Bohr mag/cell

     iteration # 23     ecut=    40.00 Ry     beta= 0.70
     Davidson diagonalization with overlap
     ethr =  2.51E-06,  avg # of iterations =  1.1

     negative rho (up, down):  9.815E-03 9.324E-03

     total cpu time spent up to now is      338.5 secs

     total energy              =   -6056.49422000 Ry
     estimated scf accuracy    <       0.00384531 Ry

     total magnetization       =    60.51 Bohr mag/cell
     absolute magnetization    =    68.04 Bohr mag/cell

     iteration # 24     ecut=    40.00 Ry     beta= 0.70
     Davidson diagonalization with overlap
     ethr =  1.15E-06,  avg # of iterations =  1.7

     negative rho (up, down):  4.618E-03 3.965E-03

     total cpu time spent up to now is      350.8 secs

     total energy              =   -6056.49363255 Ry
     estimated scf accuracy    <       0.00551041 Ry

     total magnetization       =    60.53 Bohr mag/cell
     absolute magnetization    =    68.05 Bohr mag/cell

     iteration # 25     ecut=    40.00 Ry     beta= 0.70
     Davidson diagonalization with overlap
     ethr =  1.15E-06,  avg # of iterations =  1.7

     negative rho (up, down):  4.646E-03 3.935E-03

     total cpu time spent up to now is      363.9 secs

     total energy              =   -6056.49359047 Ry
     estimated scf accuracy    <       0.00493120 Ry

     total magnetization       =    60.52 Bohr mag/cell
     absolute magnetization    =    68.05 Bohr mag/cell

     iteration # 26     ecut=    40.00 Ry     beta= 0.70
     Davidson diagonalization with overlap
     ethr =  1.15E-06,  avg # of iterations =  1.5

     negative rho (up, down):  4.959E-03 4.263E-03

     total cpu time spent up to now is      377.4 secs

     total energy              =   -6056.49418422 Ry
     estimated scf accuracy    <       0.00303628 Ry

     total magnetization       =    60.52 Bohr mag/cell
     absolute magnetization    =    68.06 Bohr mag/cell

     iteration # 27     ecut=    40.00 Ry     beta= 0.70
     Davidson diagonalization with overlap
     ethr =  9.06E-07,  avg # of iterations =  1.6

     negative rho (up, down):  3.549E-03 2.827E-03

     total cpu time spent up to now is      389.4 secs

     total energy              =   -6056.49409465 Ry
     estimated scf accuracy    <       0.00101815 Ry

     total magnetization       =    60.54 Bohr mag/cell
     absolute magnetization    =    68.07 Bohr mag/cell

     iteration # 28     ecut=    40.00 Ry     beta= 0.70
     Davidson diagonalization with overlap
     ethr =  3.04E-07,  avg # of iterations =  2.3

     negative rho (up, down):  2.640E-03 1.816E-03

     total cpu time spent up to now is      403.6 secs

     total energy              =   -6056.49420970 Ry
     estimated scf accuracy    <       0.00135474 Ry

     total magnetization       =    60.53 Bohr mag/cell
     absolute magnetization    =    68.06 Bohr mag/cell

     iteration # 29     ecut=    40.00 Ry     beta= 0.70
     Davidson diagonalization with overlap
     ethr =  3.04E-07,  avg # of iterations =  1.3

     negative rho (up, down):  2.314E-03 1.471E-03

     total cpu time spent up to now is      415.7 secs

     total energy              =   -6056.49426781 Ry
     estimated scf accuracy    <       0.00035123 Ry

     total magnetization       =    60.53 Bohr mag/cell
     absolute magnetization    =    68.06 Bohr mag/cell

     iteration # 30     ecut=    40.00 Ry     beta= 0.70
     Davidson diagonalization with overlap
     c_bands:  1 eigenvalues not converged
     ethr =  1.05E-07,  avg # of iterations =  3.5

     negative rho (up, down):  2.069E-03 1.075E-03

     total cpu time spent up to now is      431.3 secs

     total energy              =   -6056.49437491 Ry
     estimated scf accuracy    <       0.00014305 Ry

     total magnetization       =    60.54 Bohr mag/cell
     absolute magnetization    =    68.06 Bohr mag/cell

     iteration # 31     ecut=    40.00 Ry     beta= 0.70
     Davidson diagonalization with overlap
     c_bands:  1 eigenvalues not converged
     c_bands:  1 eigenvalues not converged
     ethr =  4.27E-08,  avg # of iterations =  5.7

     negative rho (up, down):  2.173E-03 1.212E-03

     total cpu time spent up to now is      446.6 secs

     total energy              =   -6056.49436322 Ry
     estimated scf accuracy    <       0.00011537 Ry

     total magnetization       =    60.54 Bohr mag/cell
     absolute magnetization    =    68.06 Bohr mag/cell

     iteration # 32     ecut=    40.00 Ry     beta= 0.70
     Davidson diagonalization with overlap
     ethr =  3.44E-08,  avg # of iterations =  1.7

     negative rho (up, down):  2.180E-03 1.156E-03

     total cpu time spent up to now is      460.2 secs

     total energy              =   -6056.49438786 Ry
     estimated scf accuracy    <       0.00011177 Ry

     total magnetization       =    60.54 Bohr mag/cell
     absolute magnetization    =    68.06 Bohr mag/cell

     iteration # 33     ecut=    40.00 Ry     beta= 0.70
     Davidson diagonalization with overlap
     ethr =  3.34E-08,  avg # of iterations =  1.2

     negative rho (up, down):  2.411E-03 1.296E-03

     total cpu time spent up to now is      471.8 secs

     total energy              =   -6056.49441822 Ry
     estimated scf accuracy    <       0.00003516 Ry

     total magnetization       =    60.54 Bohr mag/cell
     absolute magnetization    =    68.06 Bohr mag/cell

     iteration # 34     ecut=    40.00 Ry     beta= 0.70
     Davidson diagonalization with overlap
     c_bands:  1 eigenvalues not converged
     ethr =  1.05E-08,  avg # of iterations =  5.7

     negative rho (up, down):  2.199E-03 1.113E-03

     total cpu time spent up to now is      490.0 secs

     total energy              =   -6056.49440930 Ry
     estimated scf accuracy    <       0.00006606 Ry

     total magnetization       =    60.54 Bohr mag/cell
     absolute magnetization    =    68.06 Bohr mag/cell

     iteration # 35     ecut=    40.00 Ry     beta= 0.70
     Davidson diagonalization with overlap
     ethr =  1.05E-08,  avg # of iterations =  1.7

     negative rho (up, down):  2.337E-03 1.226E-03

     total cpu time spent up to now is      502.4 secs

     total energy              =   -6056.49442038 Ry
     estimated scf accuracy    <       0.00003970 Ry

     total magnetization       =    60.54 Bohr mag/cell
     absolute magnetization    =    68.06 Bohr mag/cell

     iteration # 36     ecut=    40.00 Ry     beta= 0.70
     Davidson diagonalization with overlap
     ethr =  1.05E-08,  avg # of iterations =  1.0

     negative rho (up, down):  2.519E-03 1.424E-03

     total cpu time spent up to now is      513.6 secs

     total energy              =   -6056.49442385 Ry
     estimated scf accuracy    <       0.00001069 Ry

     total magnetization       =    60.54 Bohr mag/cell
     absolute magnetization    =    68.06 Bohr mag/cell

     iteration # 37     ecut=    40.00 Ry     beta= 0.70
     Davidson diagonalization with overlap
     c_bands:  1 eigenvalues not converged
     ethr =  3.19E-09,  avg # of iterations =  3.5

     negative rho (up, down):  2.366E-03 1.259E-03

     total cpu time spent up to now is      528.8 secs

     total energy              =   -6056.49442391 Ry
     estimated scf accuracy    <       0.00000399 Ry

     total magnetization       =    60.54 Bohr mag/cell
     absolute magnetization    =    68.06 Bohr mag/cell

     iteration # 38     ecut=    40.00 Ry     beta= 0.70
     Davidson diagonalization with overlap
     ethr =  1.19E-09,  avg # of iterations =  5.7

     negative rho (up, down):  2.415E-03 1.313E-03

     total cpu time spent up to now is      546.7 secs

     total energy              =   -6056.49442426 Ry
     estimated scf accuracy    <       0.00000575 Ry

     total magnetization       =    60.54 Bohr mag/cell
     absolute magnetization    =    68.06 Bohr mag/cell

     iteration # 39     ecut=    40.00 Ry     beta= 0.70
     Davidson diagonalization with overlap
     ethr =  1.19E-09,  avg # of iterations =  1.5

     negative rho (up, down):  2.431E-03 1.330E-03

     total cpu time spent up to now is      558.9 secs

     total energy              =   -6056.49442444 Ry
     estimated scf accuracy    <       0.00000411 Ry

     total magnetization       =    60.54 Bohr mag/cell
     absolute magnetization    =    68.06 Bohr mag/cell

     iteration # 40     ecut=    40.00 Ry     beta= 0.70
     Davidson diagonalization with overlap
     ethr =  1.19E-09,  avg # of iterations =  1.2

     negative rho (up, down):  2.420E-03 1.320E-03

     total cpu time spent up to now is      570.3 secs

     total energy              =   -6056.49442461 Ry
     estimated scf accuracy    <       0.00000166 Ry

     total magnetization       =    60.54 Bohr mag/cell
     absolute magnetization    =    68.06 Bohr mag/cell

     iteration # 41     ecut=    40.00 Ry     beta= 0.70
     Davidson diagonalization with overlap
     ethr =  4.97E-10,  avg # of iterations =  2.0

     negative rho (up, down):  2.423E-03 1.325E-03

     total cpu time spent up to now is      584.5 secs

     total energy              =   -6056.49442465 Ry
     estimated scf accuracy    <       0.00000181 Ry

     total magnetization       =    60.54 Bohr mag/cell
     absolute magnetization    =    68.06 Bohr mag/cell

     iteration # 42     ecut=    40.00 Ry     beta= 0.70
     Davidson diagonalization with overlap
     ethr =  4.97E-10,  avg # of iterations =  1.6

     negative rho (up, down):  2.421E-03 1.326E-03

     total cpu time spent up to now is      596.7 secs

     total energy              =   -6056.49442475 Ry
     estimated scf accuracy    <       0.00000126 Ry

     total magnetization       =    60.54 Bohr mag/cell
     absolute magnetization    =    68.06 Bohr mag/cell

     iteration # 43     ecut=    40.00 Ry     beta= 0.70
     Davidson diagonalization with overlap
     ethr =  3.75E-10,  avg # of iterations =  1.5

     negative rho (up, down):  2.419E-03 1.323E-03

     total cpu time spent up to now is      611.1 secs

     total energy              =   -6056.49442476 Ry
     estimated scf accuracy    <       0.00000112 Ry

     total magnetization       =    60.54 Bohr mag/cell
     absolute magnetization    =    68.06 Bohr mag/cell

     iteration # 44     ecut=    40.00 Ry     beta= 0.70
     Davidson diagonalization with overlap
     ethr =  3.34E-10,  avg # of iterations =  1.5

     negative rho (up, down):  2.245E-03 1.156E-03

     Magnetic moment per site  (integrated on atomic sphere of radius R)
     atom   1 (R=0.089)  charge=  5.5886  magn=  1.6390
     atom   2 (R=0.089)  charge=  5.5881  magn=  1.6279
     atom   3 (R=0.089)  charge=  5.5876  magn=  1.6297
     atom   4 (R=0.089)  charge=  5.5873  magn=  1.6371
     atom   5 (R=0.089)  charge=  5.5872  magn=  1.6354
     atom   6 (R=0.089)  charge=  5.5868  magn=  1.6390
     atom   7 (R=0.089)  charge=  5.5884  magn=  1.6451
     atom   8 (R=0.089)  charge=  5.5884  magn=  1.6376
     atom   9 (R=0.089)  charge=  5.5871  magn=  1.6351
     atom  10 (R=0.089)  charge=  5.5857  magn=  1.5724
     atom  11 (R=0.089)  charge=  5.5843  magn=  1.5739
     atom  12 (R=0.089)  charge=  5.5837  magn=  1.5829
     atom  13 (R=0.089)  charge=  5.5842  magn=  1.5778
     atom  14 (R=0.089)  charge=  5.5838  magn=  1.5691
     atom  15 (R=0.089)  charge=  5.5842  magn=  1.5795
     atom  16 (R=0.089)  charge=  5.5841  magn=  1.5757
     atom  17 (R=0.089)  charge=  5.5844  magn=  1.5803
     atom  18 (R=0.089)  charge=  5.5834  magn=  1.5773
     atom  19 (R=0.089)  charge=  5.5847  magn=  1.5559
     atom  20 (R=0.089)  charge=  5.5817  magn=  1.5833
     atom  21 (R=0.089)  charge=  5.5835  magn=  1.5699
     atom  22 (R=0.089)  charge=  5.5831  magn=  1.5702
     atom  23 (R=0.089)  charge=  5.5833  magn=  1.5671
     atom  24 (R=0.089)  charge=  5.5822  magn=  1.5956
     atom  25 (R=0.089)  charge=  5.5846  magn=  1.5710
     atom  26 (R=0.089)  charge=  5.5843  magn=  1.5414
     atom  27 (R=0.089)  charge=  5.5835  magn=  1.5629
     atom  28 (R=0.089)  charge=  5.5879  magn=  1.6722
     atom  29 (R=0.089)  charge=  5.5966  magn=  1.2736
     atom  30 (R=0.089)  charge=  5.5884  magn=  1.6668
     atom  31 (R=0.089)  charge=  5.5923  magn=  1.5588
     atom  32 (R=0.089)  charge=  5.5960  magn=  0.9623
     atom  33 (R=0.089)  charge=  5.5877  magn=  1.6266
     atom  34 (R=0.089)  charge=  5.5871  magn=  1.6772
     atom  35 (R=0.089)  charge=  5.5851  magn=  1.5452
     atom  36 (R=0.089)  charge=  5.5852  magn=  1.6583
     atom  37 (R=0.065)  charge=  1.0456  magn= -0.0205
     atom  38 (R=0.065)  charge=  2.9179  magn= -0.0386
     atom  39 (R=0.089)  charge=  0.8075  magn= -0.0155

     total cpu time spent up to now is      622.8 secs

     End of self-consistent calculation

 ------ SPIN UP ------------


          k = 0.0000 0.0000 0.0000 ( 36693 PWs)   bands (ev):

   -21.9567  -9.1767  -7.6642  -6.5000  -5.8153  -5.6158  -5.3838  -5.0533
    -4.8332  -4.8255  -4.8207  -4.8079  -4.7938  -4.7779  -4.6033  -4.3745
    -4.2882  -4.2878  -4.2659  -4.2527  -4.2375  -4.0682  -3.7701  -3.7685
    -3.7578  -3.7456  -3.7230  -3.6842  -3.6326  -3.6310  -3.6263  -3.6223
    -3.6044  -3.5530  -3.5509  -3.4445  -3.2504  -3.2441  -3.2408  -3.2387
    -3.1835  -3.1787  -3.1738  -3.1716  -3.1672  -3.1595  -3.1523  -3.0945
    -3.0157  -3.0127  -2.9451  -2.9397  -2.9364  -2.9295  -2.9222  -2.9081
    -2.9044  -2.9018  -2.8784  -2.8635  -2.8079  -2.7991  -2.7966  -2.7892
    -2.7299  -2.5869  -2.3047  -2.2667  -2.2660  -2.2613  -2.2599  -2.1568
    -2.1366  -2.1238  -2.1158  -2.1045  -2.0941  -2.0886  -2.0804  -2.0746
    -2.0366  -2.0309  -2.0075  -1.9959  -1.9831  -1.9775  -1.9639  -1.9544
    -1.9517  -1.9426  -1.9376  -1.9313  -1.9208  -1.9100  -1.9056  -1.8933
    -1.8928  -1.8886  -1.8870  -1.8853  -1.8825  -1.8814  -1.8778  -1.8643
    -1.8544  -1.8490  -1.8292  -1.8148  -1.8084  -1.7344  -1.7289  -1.6356
    -1.5364  -1.4442  -1.4406  -1.4384  -1.4315  -1.4269  -1.4148  -1.3982
    -1.3932  -1.3902  -1.3775  -1.3494  -1.3467  -1.2178  -1.2115  -1.1974
    -1.1838  -1.1521  -1.0851  -1.0499  -1.0294  -1.0113  -0.9760  -0.9612
    -0.9567  -0.9543  -0.9452  -0.9286  -0.9081  -0.8856  -0.8306  -0.8077
    -0.7324  -0.6984  -0.6962  -0.6944  -0.6784  -0.6545  -0.6407  -0.6333
    -0.6292  -0.6267  -0.6247  -0.6211  -0.6167  -0.6098  -0.6040  -0.5933
    -0.5929  -0.5838  -0.5735  -0.5603  -0.5576  -0.5517  -0.5398  -0.5341
    -0.5299  -0.5198  -0.5129  -0.5041  -0.5008  -0.4872  -0.4857  -0.4796
    -0.4759  -0.4698  -0.4526  -0.4328  -0.4168  -0.3997  -0.3939  -0.3860
    -0.3846  -0.3758  -0.3720  -0.3607  -0.3542  -0.3182  -0.3070  -0.3003
    -0.2956  -0.2925  -0.2363  -0.2308  -0.2260  -0.2175  -0.1963  -0.1820
     0.4939   0.7557

          k = 0.0000 0.2309 0.0000 ( 36641 PWs)   bands (ev):

   -21.9566  -9.1651  -7.5237  -6.4029  -5.8510  -5.6629  -5.5100  -5.3467
    -5.0739  -5.0478  -4.9673  -4.6073  -4.5056  -4.4757  -4.4625  -4.4063
    -4.3391  -4.2907  -4.2126  -4.1880  -4.1467  -4.0355  -3.8835  -3.7694
    -3.7576  -3.6927  -3.6576  -3.6388  -3.6334  -3.6299  -3.6199  -3.6025
    -3.5740  -3.5353  -3.5095  -3.4891  -3.4841  -3.4156  -3.2754  -3.2613
    -3.2535  -3.2068  -3.2020  -3.1853  -3.1643  -3.1051  -3.0710  -3.0507
    -3.0363  -3.0291  -3.0216  -2.9886  -2.9523  -2.8980  -2.8892  -2.8659
    -2.8238  -2.8171  -2.7924  -2.7879  -2.7640  -2.7262  -2.7223  -2.7133
    -2.6767  -2.5880  -2.3892  -2.3765  -2.3513  -2.3371  -2.3208  -2.2355
    -2.2284  -2.2140  -2.2087  -2.1969  -2.1901  -2.1757  -2.1485  -2.0999
    -2.0961  -2.0783  -2.0613  -2.0279  -2.0227  -2.0150  -2.0018  -1.9937
    -1.9852  -1.9832  -1.9744  -1.9717  -1.9582  -1.9499  -1.9132  -1.8759
    -1.8710  -1.8530  -1.8055  -1.7961  -1.7893  -1.7780  -1.7721  -1.7710
    -1.7609  -1.7520  -1.7450  -1.7368  -1.7345  -1.7143  -1.6944  -1.6836
    -1.6720  -1.6551  -1.6299  -1.5849  -1.5615  -1.4970  -1.4623  -1.4579
    -1.4436  -1.4402  -1.4287  -1.4240  -1.4027  -1.3780  -1.3148  -1.2720
    -1.2350  -1.1961  -1.1788  -1.1655  -1.1407  -1.1091  -1.0852  -1.0704
    -1.0191  -0.9904  -0.9817  -0.9634  -0.9346  -0.9262  -0.8965  -0.8875
    -0.8710  -0.8451  -0.8280  -0.8073  -0.8010  -0.7896  -0.7804  -0.7648
    -0.7084  -0.7007  -0.6944  -0.6896  -0.6676  -0.6474  -0.6320  -0.6252
    -0.6188  -0.6150  -0.6069  -0.5972  -0.5826  -0.5697  -0.5579  -0.5363
    -0.5003  -0.4861  -0.4750  -0.4539  -0.4379  -0.4269  -0.3919  -0.3761
    -0.3653  -0.3549  -0.3469  -0.3412  -0.3233  -0.3151  -0.3085  -0.2685
    -0.2437  -0.2301  -0.2220  -0.2022  -0.1925  -0.1825  -0.1674  -0.1453
    -0.0982  -0.0307   0.1160   0.1494   0.1881   0.2787   0.3925   0.4230
     0.4592   0.8057

          k = 0.0000 0.4619 0.0000 ( 36606 PWs)   bands (ev):

   -21.9566  -9.1466  -7.1096  -6.4647  -6.1453  -5.8308  -5.5338  -5.3714
    -5.1995  -5.1502  -5.0733  -4.8082  -4.3468  -4.3095  -4.2761  -4.2318
    -4.1914  -4.1174  -4.1125  -4.0161  -3.9809  -3.9765  -3.9474  -3.8195
    -3.7976  -3.7883  -3.7849  -3.7813  -3.7107  -3.6821  -3.6729  -3.6076
    -3.5139  -3.5045  -3.4908  -3.4683  -3.4577  -3.4200  -3.3581  -3.3493
    -3.3370  -3.3252  -3.2962  -3.2082  -3.1222  -3.0956  -3.0307  -3.0163
    -2.9931  -2.9723  -2.9522  -2.9386  -2.9288  -2.9185  -2.8983  -2.8508
    -2.8375  -2.8164  -2.7756  -2.7480  -2.6451  -2.6289  -2.6102  -2.5826
    -2.5503  -2.5205  -2.4981  -2.4829  -2.4737  -2.4097  -2.3533  -2.3512
    -2.3493  -2.3367  -2.3273  -2.3078  -2.2950  -2.2861  -2.2639  -2.2341
    -2.2212  -2.1909  -2.1718  -2.1478  -2.1207  -2.1117  -2.0560  -2.0374
    -2.0202  -2.0078  -1.9897  -1.9635  -1.9578  -1.9177  -1.9086  -1.8988
    -1.8935  -1.8731  -1.8646  -1.8431  -1.8360  -1.8335  -1.8238  -1.7921
    -1.7794  -1.7413  -1.7283  -1.7170  -1.6533  -1.6356  -1.6106  -1.5991
    -1.5829  -1.5646  -1.5506  -1.5092  -1.5019  -1.4886  -1.4837  -1.4748
    -1.4638  -1.4589  -1.4526  -1.4444  -1.4355  -1.4264  -1.4070  -1.3957
    -1.3797  -1.3618  -1.3039  -1.2659  -1.2549  -1.2441  -1.2214  -1.1989
    -1.1806  -1.1313  -1.1047  -1.0931  -1.0654  -1.0557  -1.0185  -0.9953
    -0.9752  -0.9393  -0.9229  -0.9106  -0.8838  -0.8550  -0.8286  -0.7839
    -0.7442  -0.7186  -0.7066  -0.6941  -0.6911  -0.6836  -0.6762  -0.6663
    -0.6490  -0.6303  -0.5488  -0.5400  -0.5346  -0.5226  -0.5126  -0.4978
    -0.4905  -0.4722  -0.4647  -0.4585  -0.4372  -0.4179  -0.3571  -0.3455
    -0.3320  -0.3220  -0.2957  -0.2492  -0.2428  -0.2133  -0.2064  -0.1676
    -0.1391  -0.1275  -0.1197  -0.1030  -0.0973  -0.0942  -0.0870  -0.0438
     0.0064   0.0284   0.4201   0.6019   0.9307   1.0858   1.1297   1.2595
     1.4692   1.5144

          k = 0.2000-0.1155 0.0000 ( 36641 PWs)   bands (ev):

   -21.9566  -9.1668  -7.5226  -6.4020  -5.8328  -5.6539  -5.5259  -5.3544
    -5.0874  -5.0363  -4.9644  -4.6436  -4.4849  -4.4764  -4.4565  -4.4063
    -4.3182  -4.2943  -4.2330  -4.1585  -4.1461  -4.0770  -3.8665  -3.7742
    -3.7647  -3.6942  -3.6511  -3.6370  -3.6335  -3.6243  -3.6183  -3.6011
    -3.5860  -3.5236  -3.5094  -3.4879  -3.4850  -3.4091  -3.2640  -3.2585
    -3.2451  -3.2055  -3.2015  -3.1924  -3.1674  -3.0962  -3.0693  -3.0559
    -3.0368  -3.0345  -3.0144  -2.9930  -2.9611  -2.8962  -2.8894  -2.8586
    -2.8306  -2.8216  -2.7933  -2.7889  -2.7650  -2.7279  -2.7228  -2.7119
    -2.6887  -2.5811  -2.3861  -2.3774  -2.3565  -2.3429  -2.3228  -2.2359
    -2.2264  -2.2102  -2.2051  -2.1970  -2.1908  -2.1818  -2.1576  -2.1029
    -2.0926  -2.0792  -2.0593  -2.0260  -2.0181  -2.0128  -2.0030  -1.9962
    -1.9832  -1.9799  -1.9719  -1.9698  -1.9623  -1.9503  -1.9287  -1.8836
    -1.8676  -1.8620  -1.8000  -1.7917  -1.7821  -1.7807  -1.7725  -1.7694
    -1.7566  -1.7498  -1.7415  -1.7378  -1.7309  -1.7096  -1.6987  -1.6808
    -1.6691  -1.6622  -1.6232  -1.5746  -1.5612  -1.4727  -1.4638  -1.4622
    -1.4540  -1.4342  -1.4281  -1.4205  -1.3971  -1.3904  -1.3718  -1.2640
    -1.2429  -1.1910  -1.1782  -1.1624  -1.1480  -1.0909  -1.0759  -1.0681
    -1.0520  -0.9750  -0.9631  -0.9561  -0.9292  -0.9236  -0.8916  -0.8821
    -0.8631  -0.8505  -0.8410  -0.8170  -0.8023  -0.7832  -0.7778  -0.7733
    -0.7139  -0.7027  -0.6959  -0.6913  -0.6763  -0.6600  -0.6357  -0.6218
    -0.6181  -0.6124  -0.6087  -0.5944  -0.5793  -0.5687  -0.5553  -0.5415
    -0.5104  -0.4944  -0.4837  -0.4538  -0.4321  -0.4184  -0.4004  -0.3736
    -0.3695  -0.3565  -0.3519  -0.3383  -0.3219  -0.3141  -0.3085  -0.2753
    -0.2428  -0.2341  -0.2209  -0.2015  -0.1948  -0.1785  -0.1712  -0.1502
    -0.0936  -0.0214   0.1327   0.1511   0.2245   0.2878   0.4076   0.4217
     0.4586   0.7705

          k = 0.2000 0.1155 0.0000 ( 36641 PWs)   bands (ev):

   -21.9566  -9.1645  -7.5243  -6.4044  -5.8719  -5.6563  -5.4603  -5.3855
    -5.0690  -5.0420  -4.9804  -4.5797  -4.5115  -4.4741  -4.4659  -4.4030
    -4.3398  -4.3067  -4.2145  -4.1872  -4.1488  -4.0242  -3.8854  -3.7749
    -3.7488  -3.6866  -3.6507  -3.6419  -3.6344  -3.6319  -3.6210  -3.6126
    -3.5516  -3.5439  -3.5197  -3.4888  -3.4843  -3.4169  -3.2804  -3.2597
    -3.2567  -3.2065  -3.2045  -3.1896  -3.1591  -3.1037  -3.0742  -3.0471
    -3.0340  -3.0304  -3.0215  -2.9960  -2.9491  -2.8987  -2.8893  -2.8651
    -2.8306  -2.8054  -2.7937  -2.7872  -2.7726  -2.7249  -2.7246  -2.7109
    -2.6622  -2.5911  -2.3871  -2.3755  -2.3502  -2.3372  -2.3234  -2.2351
    -2.2292  -2.2214  -2.2059  -2.1986  -2.1912  -2.1781  -2.1298  -2.1021
    -2.0959  -2.0803  -2.0546  -2.0258  -2.0206  -2.0150  -2.0120  -1.9934
    -1.9863  -1.9819  -1.9760  -1.9721  -1.9596  -1.9437  -1.9257  -1.8791
    -1.8663  -1.8517  -1.8073  -1.7992  -1.7907  -1.7797  -1.7734  -1.7697
    -1.7598  -1.7509  -1.7492  -1.7367  -1.7347  -1.7217  -1.6888  -1.6859
    -1.6708  -1.6622  -1.6267  -1.5859  -1.5669  -1.5085  -1.4645  -1.4561
    -1.4447  -1.4371  -1.4289  -1.4235  -1.4048  -1.3658  -1.2903  -1.2784
    -1.2334  -1.1948  -1.1801  -1.1662  -1.1411  -1.1211  -1.0851  -1.0769
    -1.0109  -0.9884  -0.9789  -0.9545  -0.9394  -0.9284  -0.8965  -0.8913
    -0.8696  -0.8461  -0.8296  -0.8085  -0.8031  -0.7898  -0.7852  -0.7648
    -0.7045  -0.6986  -0.6925  -0.6868  -0.6751  -0.6419  -0.6336  -0.6239
    -0.6192  -0.6126  -0.6068  -0.5922  -0.5814  -0.5699  -0.5612  -0.5483
    -0.4983  -0.4781  -0.4705  -0.4557  -0.4431  -0.4304  -0.3908  -0.3759
    -0.3682  -0.3566  -0.3472  -0.3376  -0.3225  -0.3135  -0.3088  -0.2661
    -0.2370  -0.2300  -0.2203  -0.2008  -0.1938  -0.1658  -0.1522  -0.1470
    -0.0958  -0.0548   0.1150   0.1506   0.1858   0.2718   0.3968   0.4197
     0.4530   0.7518

          k = 0.2000 0.3464 0.0000 ( 36608 PWs)   bands (ev):

   -21.9566  -9.1489  -7.2476  -6.2507  -6.0590  -5.9223  -5.6776  -5.4589
    -5.3655  -4.9649  -4.7689  -4.5950  -4.4869  -4.4843  -4.3173  -4.2619
    -4.2442  -4.1595  -4.1533  -4.0869  -4.0316  -3.9297  -3.8863  -3.8642
    -3.8076  -3.7692  -3.6774  -3.6731  -3.6353  -3.6290  -3.6193  -3.6051
    -3.5771  -3.5671  -3.5433  -3.5114  -3.4666  -3.4429  -3.4280  -3.3759
    -3.2926  -3.2462  -3.2017  -3.1716  -3.1528  -3.1420  -3.0873  -3.0403
    -3.0087  -2.9684  -2.9646  -2.9532  -2.9276  -2.9039  -2.8861  -2.8764
    -2.8597  -2.8341  -2.7533  -2.6856  -2.6765  -2.6541  -2.6310  -2.6159
    -2.6014  -2.5450  -2.4919  -2.4201  -2.3999  -2.3760  -2.3645  -2.3346
    -2.3188  -2.3101  -2.3030  -2.2854  -2.2619  -2.2517  -2.2451  -2.2328
    -2.2074  -2.1782  -2.1536  -2.0982  -2.0556  -2.0460  -2.0375  -2.0173
    -1.9993  -1.9806  -1.9508  -1.9436  -1.9373  -1.9111  -1.8908  -1.8855
    -1.8787  -1.8774  -1.8692  -1.8493  -1.8466  -1.8289  -1.8123  -1.8083
    -1.7857  -1.7580  -1.7346  -1.7108  -1.7023  -1.6758  -1.6586  -1.6532
    -1.6412  -1.6280  -1.6098  -1.5746  -1.5529  -1.5453  -1.5196  -1.5014
    -1.4912  -1.4810  -1.4682  -1.4580  -1.4395  -1.4248  -1.4090  -1.3576
    -1.3417  -1.3238  -1.3146  -1.2135  -1.1989  -1.1803  -1.1648  -1.0938
    -1.0517  -1.0488  -1.0428  -1.0342  -1.0192  -1.0095  -0.9891  -0.9847
    -0.9664  -0.9406  -0.9258  -0.8835  -0.8646  -0.8523  -0.8445  -0.8304
    -0.8001  -0.7924  -0.7779  -0.7664  -0.7529  -0.7370  -0.6169  -0.5983
    -0.5750  -0.5653  -0.5562  -0.5437  -0.5326  -0.5173  -0.5093  -0.5027
    -0.4801  -0.4553  -0.4320  -0.4160  -0.3949  -0.3763  -0.3354  -0.3249
    -0.3187  -0.3153  -0.3087  -0.2877  -0.2777  -0.2709  -0.2652  -0.2443
    -0.2371  -0.1596  -0.1498  -0.1467  -0.1045  -0.1021  -0.0700   0.0476
     0.2226   0.2427   0.2860   0.3696   0.5451   0.6272   0.9316   1.1328
     1.2286   1.4388

          k = 0.2000-0.5774 0.0000 ( 36660 PWs)   bands (ev):

   -21.9566  -9.1418  -6.7452  -6.6730  -6.1464  -5.9763  -5.7804  -5.4565
    -5.2296  -5.1867  -4.8901  -4.6368  -4.4668  -4.2198  -4.1761  -4.0550
    -4.0426  -4.0305  -4.0135  -4.0035  -3.9575  -3.9384  -3.9330  -3.9310
    -3.9109  -3.8333  -3.7844  -3.7789  -3.7549  -3.7496  -3.7065  -3.6146
    -3.5982  -3.5899  -3.5696  -3.5414  -3.4897  -3.4393  -3.3408  -3.3015
    -3.2950  -3.2793  -3.2110  -3.1946  -3.1683  -3.1178  -3.0837  -3.0784
    -3.0480  -3.0122  -2.9844  -2.9185  -2.8904  -2.8673  -2.8470  -2.8043
    -2.7819  -2.7224  -2.7177  -2.7075  -2.6949  -2.6840  -2.6557  -2.6090
    -2.5504  -2.5004  -2.4916  -2.4836  -2.4585  -2.4214  -2.4122  -2.3572
    -2.3489  -2.3145  -2.3030  -2.2969  -2.2873  -2.2665  -2.2474  -2.2362
    -2.2184  -2.2117  -2.1954  -2.1720  -2.1649  -2.1266  -2.0954  -2.0833
    -2.0719  -2.0495  -1.9971  -1.9699  -1.9490  -1.9278  -1.9177  -1.9098
    -1.8893  -1.8809  -1.8710  -1.8628  -1.8445  -1.8268  -1.8194  -1.7649
    -1.7558  -1.7351  -1.7238  -1.7194  -1.7005  -1.6954  -1.6891  -1.6767
    -1.6714  -1.6642  -1.6392  -1.6235  -1.5821  -1.5641  -1.5533  -1.5119
    -1.4900  -1.4786  -1.4614  -1.4206  -1.4087  -1.3963  -1.3899  -1.3648
    -1.3244  -1.3193  -1.2982  -1.2386  -1.1934  -1.1883  -1.1681  -1.1540
    -1.1264  -1.1187  -1.1121  -1.0930  -1.0730  -1.0535  -1.0395  -1.0152
    -0.9736  -0.9710  -0.9453  -0.9287  -0.9125  -0.8764  -0.8593  -0.8501
    -0.8394  -0.8194  -0.8126  -0.7927  -0.7684  -0.7521  -0.7299  -0.5762
    -0.5584  -0.5495  -0.5397  -0.5354  -0.5231  -0.5167  -0.5040  -0.4716
    -0.4643  -0.4562  -0.4444  -0.4284  -0.3803  -0.3346  -0.3186  -0.3116
    -0.2969  -0.2862  -0.2732  -0.2557  -0.2281  -0.2159  -0.2105  -0.1954
    -0.1848  -0.1553  -0.1176  -0.1131  -0.1003  -0.0878  -0.0666  -0.0360
     0.1484   0.2747   0.5244   0.8897   0.9746   1.1836   1.2494   1.5569
     1.6702   1.7310

          k = 0.2000-0.3464 0.0000 ( 36608 PWs)   bands (ev):

   -21.9566  -9.1526  -7.2429  -6.2586  -5.9936  -5.9369  -5.6770  -5.5247
    -5.3374  -4.9776  -4.7103  -4.6768  -4.4837  -4.4714  -4.3102  -4.2610
    -4.2518  -4.1592  -4.1541  -4.0439  -4.0253  -4.0119  -3.8869  -3.8631
    -3.8140  -3.7673  -3.6728  -3.6583  -3.6496  -3.6271  -3.6196  -3.5974
    -3.5771  -3.5705  -3.5310  -3.5049  -3.4692  -3.4238  -3.4117  -3.3784
    -3.2866  -3.2220  -3.2013  -3.1807  -3.1580  -3.1344  -3.0707  -3.0412
    -2.9933  -2.9907  -2.9611  -2.9461  -2.9413  -2.9086  -2.8882  -2.8724
    -2.8536  -2.8331  -2.7435  -2.7233  -2.6774  -2.6613  -2.6385  -2.6230
    -2.6002  -2.5529  -2.4864  -2.4232  -2.3971  -2.3776  -2.3631  -2.3310
    -2.3202  -2.3079  -2.3018  -2.2761  -2.2627  -2.2501  -2.2396  -2.2321
    -2.2234  -2.1794  -2.1476  -2.1264  -2.0564  -2.0505  -2.0255  -2.0109
    -2.0039  -1.9798  -1.9618  -1.9442  -1.9271  -1.9126  -1.8956  -1.8914
    -1.8839  -1.8747  -1.8672  -1.8489  -1.8383  -1.8328  -1.8142  -1.7986
    -1.7897  -1.7850  -1.7607  -1.7092  -1.7053  -1.6705  -1.6586  -1.6506
    -1.6470  -1.6263  -1.5825  -1.5758  -1.5541  -1.5284  -1.5130  -1.4974
    -1.4853  -1.4800  -1.4713  -1.4478  -1.4327  -1.4176  -1.4092  -1.3564
    -1.3456  -1.3088  -1.2952  -1.2411  -1.2045  -1.1719  -1.1546  -1.0894
    -1.0686  -1.0453  -1.0335  -1.0301  -1.0228  -1.0136  -0.9862  -0.9765
    -0.9614  -0.9543  -0.9306  -0.8873  -0.8752  -0.8634  -0.8429  -0.8299
    -0.8072  -0.7892  -0.7695  -0.7614  -0.7482  -0.7388  -0.6148  -0.6058
    -0.5861  -0.5714  -0.5558  -0.5440  -0.5375  -0.5182  -0.5127  -0.4929
    -0.4800  -0.4558  -0.4240  -0.4103  -0.3963  -0.3838  -0.3487  -0.3267
    -0.3198  -0.3154  -0.3106  -0.2879  -0.2790  -0.2697  -0.2623  -0.2497
    -0.2388  -0.1642  -0.1511  -0.1453  -0.1018  -0.0975  -0.0892   0.0580
     0.1470   0.2442   0.2622   0.4620   0.5209   0.6460   1.0324   1.1319
     1.2451   1.3885

          k = 0.4000-0.2309 0.0000 ( 36606 PWs)   bands (ev):

   -21.9566  -9.1511  -7.1049  -6.4614  -6.1405  -5.7670  -5.5928  -5.3644
    -5.2211  -5.1452  -5.0900  -4.7961  -4.3234  -4.3056  -4.2875  -4.2436
    -4.1952  -4.1160  -4.1118  -4.0429  -3.9812  -3.9761  -3.9688  -3.8141
    -3.7976  -3.7941  -3.7848  -3.7821  -3.7214  -3.6793  -3.6734  -3.5421
    -3.5108  -3.5016  -3.4868  -3.4662  -3.4605  -3.4209  -3.3554  -3.3499
    -3.3343  -3.3288  -3.2519  -3.1971  -3.1305  -3.0945  -3.0388  -3.0277
    -2.9962  -2.9764  -2.9521  -2.9379  -2.9320  -2.9151  -2.8942  -2.8454
    -2.8359  -2.8129  -2.7840  -2.7722  -2.6452  -2.6360  -2.6125  -2.6036
    -2.5444  -2.5214  -2.4955  -2.4845  -2.4700  -2.4056  -2.3535  -2.3506
    -2.3461  -2.3372  -2.3313  -2.3100  -2.2965  -2.2789  -2.2635  -2.2520
    -2.2226  -2.1875  -2.1695  -2.1496  -2.1268  -2.0961  -2.0560  -2.0302
    -2.0186  -2.0060  -1.9789  -1.9693  -1.9674  -1.9221  -1.9078  -1.9012
    -1.8966  -1.8823  -1.8653  -1.8418  -1.8343  -1.8246  -1.8207  -1.8005
    -1.7840  -1.7529  -1.7259  -1.7189  -1.6513  -1.6326  -1.6161  -1.6133
    -1.5937  -1.5669  -1.5371  -1.5180  -1.5033  -1.4817  -1.4796  -1.4720
    -1.4698  -1.4602  -1.4492  -1.4406  -1.4360  -1.4285  -1.4155  -1.4049
    -1.3983  -1.3466  -1.2837  -1.2763  -1.2589  -1.2398  -1.2164  -1.2090
    -1.1795  -1.1175  -1.1052  -1.0956  -1.0539  -1.0415  -1.0105  -0.9703
    -0.9555  -0.9416  -0.9206  -0.9019  -0.8880  -0.8708  -0.8481  -0.7624
    -0.7387  -0.7322  -0.7129  -0.7010  -0.6941  -0.6862  -0.6807  -0.6702
    -0.6611  -0.6315  -0.5525  -0.5447  -0.5336  -0.5252  -0.5194  -0.5080
    -0.4961  -0.4838  -0.4598  -0.4527  -0.4409  -0.4168  -0.3651  -0.3479
    -0.3404  -0.3204  -0.3049  -0.2472  -0.2420  -0.2161  -0.2091  -0.1666
    -0.1374  -0.1348  -0.1241  -0.1121  -0.0974  -0.0925  -0.0878  -0.0404
     0.0062   0.0328   0.5005   0.5846   0.9076   1.1099   1.1368   1.3313
     1.4814   1.4975

          k = 0.4000 0.0000 0.0000 ( 36608 PWs)   bands (ev):

   -21.9566  -9.1517  -7.2448  -6.2563  -6.0251  -5.9278  -5.6768  -5.4847
    -5.3525  -4.9907  -4.7380  -4.6249  -4.4875  -4.4721  -4.3168  -4.2596
    -4.2500  -4.1598  -4.1532  -4.0591  -4.0306  -3.9888  -3.8843  -3.8607
    -3.8118  -3.7662  -3.6741  -3.6622  -3.6370  -3.6241  -3.6176  -3.6112
    -3.5770  -3.5691  -3.5294  -3.5046  -3.4678  -3.4274  -3.4232  -3.3727
    -3.2841  -3.2250  -3.2018  -3.1807  -3.1562  -3.1411  -3.0873  -3.0408
    -3.0027  -2.9796  -2.9645  -2.9483  -2.9342  -2.9042  -2.8970  -2.8707
    -2.8567  -2.8321  -2.7454  -2.7101  -2.6751  -2.6548  -2.6439  -2.6238
    -2.5960  -2.5524  -2.4885  -2.4215  -2.4060  -2.3770  -2.3632  -2.3310
    -2.3175  -2.3084  -2.3016  -2.2793  -2.2646  -2.2508  -2.2391  -2.2337
    -2.2251  -2.1746  -2.1484  -2.1070  -2.0549  -2.0495  -2.0260  -2.0114
    -2.0043  -1.9814  -1.9543  -1.9460  -1.9357  -1.9118  -1.8940  -1.8929
    -1.8855  -1.8737  -1.8687  -1.8495  -1.8404  -1.8307  -1.8167  -1.8067
    -1.7896  -1.7781  -1.7509  -1.7110  -1.7029  -1.6640  -1.6593  -1.6551
    -1.6466  -1.6315  -1.6014  -1.5682  -1.5507  -1.5442  -1.5257  -1.4929
    -1.4893  -1.4789  -1.4652  -1.4476  -1.4274  -1.4192  -1.4072  -1.3588
    -1.3453  -1.3184  -1.3004  -1.2291  -1.2080  -1.1778  -1.1611  -1.0874
    -1.0633  -1.0429  -1.0327  -1.0256  -1.0203  -1.0134  -0.9847  -0.9775
    -0.9616  -0.9491  -0.9260  -0.8860  -0.8784  -0.8564  -0.8458  -0.8326
    -0.8078  -0.7898  -0.7759  -0.7619  -0.7500  -0.7364  -0.6187  -0.5946
    -0.5923  -0.5707  -0.5563  -0.5448  -0.5301  -0.5217  -0.5039  -0.4976
    -0.4779  -0.4546  -0.4274  -0.4180  -0.3950  -0.3825  -0.3444  -0.3286
    -0.3183  -0.3162  -0.3118  -0.2872  -0.2773  -0.2684  -0.2649  -0.2488
    -0.2365  -0.1628  -0.1482  -0.1452  -0.1010  -0.0953  -0.0794   0.0432
     0.1636   0.2444   0.2692   0.4335   0.5341   0.6495   1.0111   1.1300
     1.2423   1.4332

          k = 0.4000 0.2309 0.0000 ( 36606 PWs)   bands (ev):

   -21.9566  -9.1452  -7.1126  -6.4684  -6.1524  -5.8578  -5.4651  -5.3986
    -5.2003  -5.1496  -5.0669  -4.8134  -4.3480  -4.3069  -4.2897  -4.2306
    -4.1843  -4.1180  -4.1138  -4.0042  -3.9812  -3.9763  -3.9131  -3.8283
    -3.7967  -3.7876  -3.7846  -3.7796  -3.6922  -3.6812  -3.6637  -3.6517
    -3.5164  -3.5117  -3.4982  -3.4680  -3.4644  -3.4150  -3.3569  -3.3515
    -3.3367  -3.3259  -3.2959  -3.2086  -3.1266  -3.0860  -3.0336  -3.0089
    -2.9977  -2.9684  -2.9525  -2.9491  -2.9362  -2.9130  -2.8853  -2.8523
    -2.8403  -2.8180  -2.7847  -2.7334  -2.6392  -2.6293  -2.6158  -2.5810
    -2.5545  -2.5173  -2.4954  -2.4923  -2.4781  -2.4087  -2.3561  -2.3507
    -2.3468  -2.3392  -2.3255  -2.3098  -2.2938  -2.2882  -2.2632  -2.2258
    -2.2118  -2.1929  -2.1757  -2.1587  -2.1179  -2.1022  -2.0546  -2.0365
    -2.0228  -2.0101  -1.9918  -1.9743  -1.9513  -1.9171  -1.9110  -1.9002
    -1.8881  -1.8769  -1.8626  -1.8506  -1.8380  -1.8304  -1.8232  -1.7946
    -1.7802  -1.7588  -1.7289  -1.7160  -1.6531  -1.6388  -1.6104  -1.5974
    -1.5772  -1.5647  -1.5440  -1.5046  -1.5015  -1.4927  -1.4838  -1.4767
    -1.4689  -1.4612  -1.4483  -1.4443  -1.4364  -1.4240  -1.3977  -1.3913
    -1.3767  -1.3644  -1.3189  -1.2665  -1.2512  -1.2404  -1.2206  -1.1987
    -1.1801  -1.1290  -1.1079  -1.0918  -1.0763  -1.0459  -1.0332  -0.9958
    -0.9716  -0.9407  -0.9209  -0.9134  -0.8817  -0.8540  -0.8314  -0.7926
    -0.7251  -0.7171  -0.7037  -0.6946  -0.6905  -0.6792  -0.6723  -0.6613
    -0.6539  -0.6484  -0.5479  -0.5411  -0.5360  -0.5217  -0.5121  -0.4917
    -0.4853  -0.4795  -0.4630  -0.4523  -0.4378  -0.4180  -0.3558  -0.3416
    -0.3353  -0.3232  -0.2887  -0.2451  -0.2444  -0.2080  -0.2062  -0.1664
    -0.1419  -0.1257  -0.1217  -0.0996  -0.0971  -0.0921  -0.0743  -0.0526
     0.0063   0.0303   0.3995   0.6659   0.8856   1.0382   1.1357   1.2096
     1.4785   1.5534

          k = 0.4000-0.6928 0.0000 ( 36660 PWs)   bands (ev):

   -21.9566  -9.1408  -6.7533  -6.6710  -6.1486  -5.9347  -5.8539  -5.4100
    -5.2115  -5.1855  -4.9234  -4.6359  -4.4665  -4.2200  -4.1745  -4.0486
    -4.0429  -4.0196  -4.0113  -3.9906  -3.9620  -3.9384  -3.9335  -3.9255
    -3.9137  -3.8065  -3.7882  -3.7800  -3.7608  -3.7447  -3.7266  -3.6201
    -3.5976  -3.5924  -3.5773  -3.5539  -3.4925  -3.4337  -3.3351  -3.3024
    -3.2986  -3.2750  -3.2049  -3.1955  -3.1684  -3.1222  -3.0837  -3.0815
    -3.0602  -3.0005  -2.9908  -2.9184  -2.8874  -2.8611  -2.8521  -2.7998
    -2.7812  -2.7233  -2.7158  -2.7086  -2.6963  -2.6888  -2.6405  -2.6233
    -2.5473  -2.5019  -2.4939  -2.4777  -2.4663  -2.4293  -2.4105  -2.3548
    -2.3459  -2.3156  -2.3089  -2.2936  -2.2866  -2.2638  -2.2441  -2.2317
    -2.2175  -2.2076  -2.1818  -2.1760  -2.1651  -2.1473  -2.1008  -2.0834
    -2.0692  -2.0449  -2.0014  -1.9672  -1.9513  -1.9299  -1.9163  -1.9095
    -1.8892  -1.8821  -1.8766  -1.8551  -1.8387  -1.8331  -1.8202  -1.7605
    -1.7440  -1.7373  -1.7239  -1.7098  -1.6991  -1.6966  -1.6831  -1.6792
    -1.6738  -1.6654  -1.6420  -1.6346  -1.5838  -1.5632  -1.5567  -1.5255
    -1.4977  -1.4741  -1.4546  -1.4216  -1.4084  -1.3983  -1.3867  -1.3706
    -1.3229  -1.3200  -1.2921  -1.2443  -1.1921  -1.1848  -1.1736  -1.1507
    -1.1310  -1.1180  -1.1104  -1.0904  -1.0802  -1.0556  -1.0333  -1.0077
    -0.9741  -0.9671  -0.9434  -0.9260  -0.9155  -0.8787  -0.8633  -0.8583
    -0.8363  -0.8222  -0.8060  -0.7908  -0.7682  -0.7563  -0.7283  -0.5729
    -0.5590  -0.5523  -0.5437  -0.5330  -0.5294  -0.5126  -0.5050  -0.4697
    -0.4613  -0.4510  -0.4473  -0.4281  -0.3789  -0.3256  -0.3203  -0.3082
    -0.2994  -0.2857  -0.2699  -0.2375  -0.2264  -0.2177  -0.2090  -0.1998
    -0.1918  -0.1730  -0.1192  -0.1128  -0.0992  -0.0900  -0.0667  -0.0336
     0.1580   0.2797   0.5697   0.8012   0.9916   1.1842   1.2386   1.5786
     1.6852   1.7215

          k = 0.4000-0.4619 0.0000 ( 36660 PWs)   bands (ev):

   -21.9566  -9.1446  -6.7267  -6.6848  -6.1350  -6.0078  -5.6939  -5.5277
    -5.2401  -5.1910  -4.8667  -4.6372  -4.4688  -4.2236  -4.1733  -4.0756
    -4.0442  -4.0331  -4.0129  -4.0082  -3.9589  -3.9446  -3.9343  -3.9328
    -3.9035  -3.8483  -3.7834  -3.7763  -3.7527  -3.7493  -3.7014  -3.6100
    -3.5979  -3.5908  -3.5677  -3.5156  -3.4575  -3.4348  -3.3641  -3.3026
    -3.2956  -3.2453  -3.2161  -3.1966  -3.1701  -3.1181  -3.0835  -3.0778
    -3.0403  -3.0168  -2.9902  -2.9218  -2.8876  -2.8599  -2.8505  -2.8082
    -2.7979  -2.7224  -2.7149  -2.7031  -2.6927  -2.6813  -2.6591  -2.6370
    -2.5529  -2.5064  -2.4934  -2.4783  -2.4525  -2.4205  -2.4006  -2.3570
    -2.3528  -2.3125  -2.3035  -2.3005  -2.2906  -2.2698  -2.2441  -2.2418
    -2.2235  -2.2142  -2.1971  -2.1702  -2.1675  -2.1364  -2.0921  -2.0768
    -2.0602  -2.0258  -1.9991  -1.9747  -1.9554  -1.9310  -1.9191  -1.9085
    -1.8912  -1.8799  -1.8739  -1.8651  -1.8522  -1.8283  -1.8231  -1.7897
    -1.7598  -1.7366  -1.7266  -1.7169  -1.6992  -1.6936  -1.6872  -1.6768
    -1.6669  -1.6607  -1.6423  -1.6106  -1.5782  -1.5677  -1.5486  -1.5278
    -1.4744  -1.4702  -1.4451  -1.4276  -1.4121  -1.4013  -1.3874  -1.3663
    -1.3319  -1.3155  -1.2906  -1.2598  -1.2026  -1.1778  -1.1692  -1.1481
    -1.1344  -1.1225  -1.1138  -1.0830  -1.0650  -1.0485  -1.0340  -1.0209
    -0.9738  -0.9568  -0.9416  -0.9337  -0.9193  -0.8715  -0.8619  -0.8450
    -0.8389  -0.8202  -0.8150  -0.7981  -0.7703  -0.7546  -0.7217  -0.5830
    -0.5616  -0.5573  -0.5451  -0.5309  -0.5250  -0.5152  -0.5034  -0.4797
    -0.4616  -0.4480  -0.4394  -0.4326  -0.3894  -0.3422  -0.3196  -0.3129
    -0.3008  -0.2899  -0.2718  -0.2601  -0.2245  -0.2164  -0.2101  -0.1977
    -0.1920  -0.1266  -0.1197  -0.1113  -0.0997  -0.0885  -0.0678  -0.0352
     0.1394   0.2598   0.4897   0.8778   1.0957   1.1808   1.2899   1.5208
     1.6798   1.7279

 ------ SPIN DOWN ----------


          k = 0.0000 0.0000 0.0000 ( 36693 PWs)   bands (ev):

   -22.0416  -9.2581  -7.7899  -6.5697  -5.8039  -5.6403  -5.4166  -4.9287
    -4.6351  -4.6237  -4.6216  -4.5960  -4.5876  -4.5707  -4.1844  -3.7526
    -3.7508  -3.7332  -3.7210  -3.7086  -3.6611  -3.3128  -2.8132  -2.8036
    -2.7928  -2.7896  -2.7207  -2.5783  -2.3460  -2.3335  -2.3281  -2.3236
    -2.3031  -2.2147  -2.1345  -2.1304  -2.0644  -2.0461  -2.0356  -2.0346
    -1.9525  -1.9474  -1.9004  -1.8965  -1.8356  -1.8117  -1.7974  -1.7878
    -1.7486  -1.7279  -1.5509  -1.5443  -1.5306  -1.5243  -1.5134  -1.5103
    -1.4966  -1.4955  -1.4647  -1.4557  -1.4270  -1.4208  -1.4179  -1.4161
    -1.3497  -1.2464  -0.9029  -0.8666  -0.8415  -0.8382  -0.7945  -0.7384
    -0.6462  -0.6280  -0.5397  -0.5293  -0.5209  -0.5130  -0.5017  -0.4865
    -0.4655  -0.4579  -0.4343  -0.4299  -0.4208  -0.4201  -0.3725  -0.3599
    -0.3511  -0.3234  -0.3097  -0.2957  -0.2812  -0.2784  -0.2625  -0.2589
    -0.2532  -0.2466  -0.2357  -0.2309  -0.2301  -0.2285  -0.1975  -0.1489
    -0.1294  -0.1122  -0.0955  -0.0584  -0.0271  -0.0137  -0.0047  -0.0008
     0.0014   0.0039   0.0102   0.0607   0.0786   0.0795   0.1259   0.1522
     0.1629   0.1696   0.1783   0.2110   0.2614   0.3879   0.3993   0.4483
     0.4595   0.4736   0.4798   0.4869   0.6137   0.6860   0.7716   0.8061
     0.8225   0.8678   0.9851   1.0083   1.0293   1.0401   1.0490   1.0546
     1.1006   1.1711   1.1964   1.2160   1.2202   1.2290   1.2369   1.2592
     1.2671   1.2788   1.2893   1.3072   1.3216   1.3301   1.3333   1.3674
     1.3686   1.3783   1.3822   1.3928   1.4166   1.4353   1.4395   1.4489
     1.4615   1.4676   1.4827   1.4950   1.4983   1.5084   1.5116   1.5459
     1.5551   1.5707   1.5732   1.5788   1.5865   1.5924   1.5995   1.6364
     1.6429   1.6434   1.6470   1.6514   1.6549   1.6651   1.6736   1.6796
     1.6821   1.7280   1.7289   1.8711   1.8768   1.8792   1.8835   1.8855
     1.8872   2.0595

          k = 0.0000 0.2309 0.0000 ( 36641 PWs)   bands (ev):

   -22.0416  -9.2466  -7.6486  -6.4671  -5.8723  -5.6710  -5.5265  -5.3830
    -5.0125  -4.9827  -4.8233  -4.4078  -4.1724  -4.0697  -4.0554  -3.9282
    -3.8166  -3.7719  -3.4661  -3.3933  -3.3189  -3.2527  -2.9696  -2.7851
    -2.7646  -2.7364  -2.6791  -2.5755  -2.4486  -2.3658  -2.3621  -2.3517
    -2.3174  -2.2858  -2.2774  -2.2752  -2.2260  -2.1806  -2.0960  -2.0935
    -2.0088  -2.0066  -1.9620  -1.8428  -1.8284  -1.8132  -1.7941  -1.7026
    -1.6697  -1.6466  -1.6024  -1.5654  -1.5544  -1.5296  -1.5185  -1.5144
    -1.4959  -1.4859  -1.4108  -1.3905  -1.3776  -1.3567  -1.3268  -1.2891
    -1.2306  -1.1508  -0.9586  -0.9132  -0.8947  -0.8873  -0.8356  -0.7712
    -0.7635  -0.7121  -0.6786  -0.6356  -0.6182  -0.5745  -0.5450  -0.5355
    -0.5020  -0.4937  -0.4736  -0.4645  -0.4591  -0.4455  -0.4242  -0.3770
    -0.3376  -0.3189  -0.3080  -0.3054  -0.2997  -0.2629  -0.2512  -0.2390
    -0.2301  -0.2191  -0.2158  -0.2096  -0.2064  -0.2042  -0.1810  -0.1570
    -0.1308  -0.1243  -0.1046  -0.0991  -0.0931  -0.0768  -0.0520  -0.0274
    -0.0109   0.0016   0.0418   0.0714   0.0976   0.1144   0.1184   0.1457
     0.2435   0.2698   0.3023   0.3501   0.3696   0.3778   0.4164   0.4354
     0.4407   0.4463   0.4577   0.4659   0.5921   0.7138   0.7672   0.7861
     0.7985   0.8098   0.8216   0.8370   0.8744   0.8939   0.9454   0.9733
     1.0204   1.0381   1.0649   1.0943   1.1064   1.1290   1.1508   1.1526
     1.2203   1.2387   1.2583   1.2686   1.2813   1.2952   1.3325   1.3405
     1.3569   1.3751   1.4136   1.4332   1.4485   1.4548   1.4797   1.5051
     1.5237   1.5334   1.5391   1.5427   1.5635   1.6103   1.6222   1.6304
     1.6359   1.6612   1.6674   1.6972   1.7046   1.7113   1.7180   1.7258
     1.7434   1.7880   1.7922   1.8074   1.8092   1.8179   1.8276   1.8469
     1.8609   1.8695   1.8752   1.8965   1.9648   1.9783   1.9827   2.0399
     2.0583   2.1125

          k = 0.0000 0.4619 0.0000 ( 36606 PWs)   bands (ev):

   -22.0416  -9.2285  -7.2290  -6.5598  -6.1927  -5.8505  -5.5696  -5.4037
    -5.2103  -5.1537  -5.0669  -4.6339  -4.1244  -4.0366  -3.7849  -3.4570
    -3.4495  -3.3856  -3.3247  -3.1448  -3.0996  -3.0084  -2.9721  -2.8527
    -2.8480  -2.7801  -2.7427  -2.7042  -2.6396  -2.6115  -2.5862  -2.5583
    -2.5304  -2.4344  -2.3241  -2.3075  -2.2357  -2.2094  -2.1176  -2.1117
    -2.1052  -2.0747  -2.0448  -1.8239  -1.8022  -1.7941  -1.7499  -1.7178
    -1.6027  -1.5924  -1.5762  -1.5612  -1.5533  -1.5240  -1.5188  -1.4946
    -1.4776  -1.4114  -1.4067  -1.3817  -1.3586  -1.3445  -1.2041  -1.1767
    -1.0707  -1.0457  -0.9560  -0.9336  -0.9149  -0.8797  -0.8613  -0.8554
    -0.8321  -0.8007  -0.7814  -0.7612  -0.7181  -0.6869  -0.6714  -0.6343
    -0.6141  -0.5962  -0.5689  -0.5574  -0.5243  -0.4875  -0.4570  -0.4121
    -0.3914  -0.3811  -0.3543  -0.3185  -0.2870  -0.2659  -0.2479  -0.2270
    -0.2028  -0.1960  -0.1847  -0.1640  -0.1562  -0.1514  -0.1328  -0.1203
    -0.0938  -0.0811  -0.0652  -0.0489  -0.0417  -0.0399  -0.0272  -0.0072
     0.0125   0.0332   0.0818   0.1346   0.1593   0.1613   0.1728   0.2107
     0.2237   0.2285   0.2509   0.2913   0.3163   0.3250   0.3416   0.3657
     0.3939   0.4072   0.4217   0.4317   0.4718   0.5584   0.5874   0.6058
     0.6540   0.6807   0.7410   0.8032   0.8312   0.8611   0.8777   0.8971
     0.9203   0.9403   0.9636   0.9784   1.0059   1.1113   1.1291   1.1796
     1.1913   1.2188   1.2533   1.2557   1.2927   1.3094   1.3329   1.3525
     1.3808   1.3956   1.4015   1.4668   1.4936   1.5115   1.5372   1.5440
     1.5532   1.5585   1.5821   1.5980   1.6240   1.6301   1.6437   1.6729
     1.6791   1.7097   1.7762   1.7810   1.7978   1.8018   1.8180   1.8321
     1.8423   1.8701   1.8767   1.8883   1.9056   1.9096   1.9191   1.9227
     1.9678   2.0169   2.0481   2.1291   2.1497   2.2304   2.5516   2.6161
     2.6574   2.6934

          k = 0.2000-0.1155 0.0000 ( 36641 PWs)   bands (ev):

   -22.0416  -9.2481  -7.6476  -6.4655  -5.8484  -5.6739  -5.5470  -5.3796
    -5.0272  -4.9741  -4.8127  -4.4584  -4.0976  -4.0714  -4.0489  -3.9447
    -3.8486  -3.7596  -3.4483  -3.3957  -3.3744  -3.2470  -2.9247  -2.8015
    -2.7691  -2.7148  -2.6767  -2.6048  -2.4263  -2.3674  -2.3637  -2.3435
    -2.3210  -2.2804  -2.2757  -2.2696  -2.2238  -2.1960  -2.0992  -2.0925
    -2.0080  -2.0049  -1.9423  -1.8669  -1.8299  -1.8144  -1.8067  -1.6995
    -1.6712  -1.6508  -1.5995  -1.5703  -1.5490  -1.5300  -1.5204  -1.5111
    -1.5022  -1.4945  -1.4041  -1.3920  -1.3784  -1.3619  -1.3229  -1.2803
    -1.2369  -1.1432  -0.9621  -0.9205  -0.8923  -0.8885  -0.8305  -0.7889
    -0.7308  -0.7051  -0.6799  -0.6365  -0.6172  -0.5686  -0.5494  -0.5386
    -0.5026  -0.4920  -0.4787  -0.4745  -0.4628  -0.4378  -0.4092  -0.3793
    -0.3514  -0.3110  -0.3072  -0.3009  -0.2884  -0.2669  -0.2481  -0.2361
    -0.2280  -0.2260  -0.2179  -0.2105  -0.2071  -0.2056  -0.1749  -0.1569
    -0.1399  -0.1250  -0.1126  -0.1007  -0.0784  -0.0655  -0.0491  -0.0260
    -0.0197   0.0077   0.0313   0.0576   0.1028   0.1140   0.1267   0.1456
     0.2374   0.2618   0.2971   0.3515   0.3691   0.3715   0.4285   0.4339
     0.4403   0.4489   0.4579   0.4617   0.5995   0.7035   0.7765   0.7899
     0.7979   0.8021   0.8199   0.8280   0.8847   0.8934   0.9440   0.9694
     1.0159   1.0351   1.0623   1.0769   1.1010   1.1198   1.1476   1.2052
     1.2172   1.2374   1.2530   1.2661   1.2848   1.2912   1.3326   1.3399
     1.3615   1.3810   1.4191   1.4278   1.4451   1.4545   1.4747   1.4861
     1.5203   1.5350   1.5372   1.5403   1.5697   1.6217   1.6251   1.6353
     1.6395   1.6645   1.6671   1.6963   1.7012   1.7098   1.7166   1.7224
     1.7449   1.7867   1.7913   1.8051   1.8084   1.8183   1.8291   1.8466
     1.8672   1.8715   1.8754   1.9115   1.9661   1.9791   1.9804   2.0339
     2.0621   2.1283

          k = 0.2000 0.1155 0.0000 ( 36641 PWs)   bands (ev):

   -22.0416  -9.2461  -7.6493  -6.4687  -5.8935  -5.6597  -5.4862  -5.4127
    -5.0078  -4.9821  -4.8385  -4.3588  -4.1913  -4.0731  -4.0558  -3.9608
    -3.8018  -3.7715  -3.4685  -3.4004  -3.3005  -3.2381  -2.9782  -2.8135
    -2.7597  -2.7206  -2.6969  -2.5515  -2.4553  -2.3688  -2.3605  -2.3442
    -2.3276  -2.2926  -2.2790  -2.2740  -2.2375  -2.1646  -2.0951  -2.0927
    -2.0095  -2.0068  -1.9592  -1.8575  -1.8162  -1.8102  -1.7924  -1.6921
    -1.6781  -1.6545  -1.5931  -1.5799  -1.5525  -1.5295  -1.5149  -1.5106
    -1.5070  -1.4601  -1.4291  -1.3864  -1.3774  -1.3566  -1.3268  -1.2867
    -1.2281  -1.1573  -0.9631  -0.9185  -0.8957  -0.8813  -0.8273  -0.8035
    -0.7684  -0.6847  -0.6663  -0.6433  -0.6269  -0.5732  -0.5554  -0.5268
    -0.5050  -0.4914  -0.4752  -0.4656  -0.4621  -0.4426  -0.4329  -0.3644
    -0.3363  -0.3172  -0.3094  -0.3041  -0.2960  -0.2586  -0.2455  -0.2379
    -0.2328  -0.2210  -0.2154  -0.2131  -0.2070  -0.2056  -0.1748  -0.1580
    -0.1387  -0.1235  -0.1057  -0.1010  -0.0934  -0.0705  -0.0516  -0.0357
    -0.0107   0.0077   0.0486   0.0818   0.0894   0.1129   0.1161   0.1458
     0.2194   0.2841   0.3100   0.3447   0.3610   0.3849   0.4173   0.4282
     0.4420   0.4479   0.4611   0.4660   0.6265   0.6890   0.7684   0.7847
     0.8013   0.8068   0.8242   0.8369   0.8695   0.8924   0.9446   0.9673
     0.9890   1.0556   1.0724   1.0902   1.1068   1.1359   1.1490   1.1557
     1.2168   1.2467   1.2586   1.2747   1.2883   1.2901   1.3311   1.3397
     1.3533   1.3810   1.4185   1.4373   1.4440   1.4554   1.4769   1.5023
     1.5193   1.5339   1.5403   1.5513   1.5579   1.6066   1.6159   1.6295
     1.6399   1.6615   1.6673   1.6979   1.7060   1.7124   1.7167   1.7261
     1.7449   1.7881   1.7928   1.8066   1.8081   1.8188   1.8292   1.8452
     1.8624   1.8685   1.8762   1.8863   1.9638   1.9763   1.9838   2.0330
     2.0628   2.1090

          k = 0.2000 0.3464 0.0000 ( 36608 PWs)   bands (ev):

   -22.0416  -9.2308  -7.3695  -6.3025  -6.1184  -5.9947  -5.6879  -5.4893
    -5.4047  -4.8878  -4.7096  -4.4073  -4.2662  -4.2595  -3.8885  -3.4376
    -3.4225  -3.4166  -3.3953  -3.2435  -3.1566  -3.1208  -3.1137  -2.9087
    -2.7536  -2.6810  -2.6678  -2.6634  -2.5849  -2.5538  -2.5203  -2.4693
    -2.4616  -2.4486  -2.4306  -2.3337  -2.3068  -2.2373  -2.0788  -2.0676
    -2.0297  -1.9941  -1.9550  -1.9397  -1.9152  -1.7895  -1.7352  -1.7159
    -1.6124  -1.5984  -1.5625  -1.5500  -1.5446  -1.5297  -1.5091  -1.4955
    -1.4856  -1.4722  -1.4033  -1.3736  -1.3200  -1.2906  -1.2034  -1.1537
    -1.1040  -1.0575  -0.9945  -0.9579  -0.8938  -0.8670  -0.8474  -0.8189
    -0.7941  -0.7722  -0.7598  -0.7104  -0.6882  -0.6724  -0.6686  -0.6405
    -0.6246  -0.6042  -0.5813  -0.5549  -0.5428  -0.4675  -0.4185  -0.4028
    -0.3916  -0.3778  -0.3470  -0.3207  -0.3150  -0.2875  -0.2783  -0.2592
    -0.2495  -0.2287  -0.2156  -0.2033  -0.1913  -0.1654  -0.1517  -0.1266
    -0.1159  -0.1014  -0.0922  -0.0813  -0.0739  -0.0583  -0.0481  -0.0315
     0.0237   0.0453   0.0619   0.0795   0.1676   0.1871   0.2056   0.2345
     0.2590   0.2655   0.2992   0.3070   0.3625   0.3740   0.3916   0.3946
     0.4047   0.4272   0.4797   0.4930   0.5393   0.5989   0.6740   0.7049
     0.7565   0.7930   0.8121   0.8391   0.8470   0.8520   0.8638   0.9020
     0.9080   0.9248   0.9310   0.9499   0.9852   1.0477   1.0895   1.1031
     1.1410   1.1534   1.1599   1.1856   1.2091   1.2545   1.2677   1.3011
     1.3458   1.4176   1.4558   1.5000   1.5113   1.5277   1.5466   1.5606
     1.5723   1.5820   1.5989   1.6100   1.6609   1.6810   1.6855   1.6932
     1.7059   1.7323   1.7472   1.7602   1.7650   1.7817   1.7880   1.8165
     1.8234   1.8292   1.8414   1.8591   1.8646   1.8873   1.9167   1.9462
     1.9628   1.9674   2.0528   2.0893   2.1969   2.2279   2.2912   2.5263
     2.5491   2.5586

          k = 0.2000-0.5774 0.0000 ( 36660 PWs)   bands (ev):

   -22.0416  -9.2236  -6.8510  -6.7852  -6.2112  -6.0179  -5.8144  -5.4922
    -5.2565  -5.2251  -4.8275  -4.4551  -4.3010  -3.7263  -3.5247  -3.4563
    -3.4538  -3.3564  -3.2034  -3.1182  -3.0456  -3.0318  -3.0242  -2.9000
    -2.8939  -2.8803  -2.8582  -2.8463  -2.7135  -2.6446  -2.5193  -2.4999
    -2.4825  -2.4675  -2.4264  -2.4185  -2.3782  -2.3131  -2.1895  -2.0518
    -1.9681  -1.9615  -1.9411  -1.9052  -1.8693  -1.7877  -1.7210  -1.7060
    -1.6796  -1.6636  -1.6510  -1.5608  -1.5167  -1.4858  -1.4745  -1.4636
    -1.4340  -1.3806  -1.3335  -1.3173  -1.2771  -1.2525  -1.2379  -1.1332
    -1.0858  -1.0460  -0.9550  -0.9379  -0.9253  -0.8693  -0.8602  -0.8243
    -0.7996  -0.7872  -0.7608  -0.7468  -0.7275  -0.6838  -0.6711  -0.6463
    -0.6306  -0.6067  -0.6019  -0.5893  -0.5729  -0.5663  -0.5311  -0.5046
    -0.4974  -0.4564  -0.4325  -0.4248  -0.3853  -0.3644  -0.3262  -0.2782
    -0.2552  -0.2236  -0.2027  -0.1952  -0.1644  -0.1547  -0.1420  -0.1242
    -0.0873  -0.0686  -0.0492  -0.0335  -0.0122  -0.0020   0.0577   0.0785
     0.1151   0.1261   0.1375   0.1466   0.1600   0.1809   0.2183   0.2397
     0.2516   0.2596   0.3055   0.3293   0.3452   0.3728   0.3869   0.4168
     0.4251   0.4373   0.4618   0.4811   0.4935   0.5063   0.5217   0.5631
     0.6001   0.6940   0.7174   0.7743   0.7861   0.8057   0.8423   0.8492
     0.8677   0.8771   0.9001   0.9488   1.0020   1.0336   1.0552   1.0871
     1.1065   1.1235   1.1538   1.1848   1.2084   1.2235   1.2420   1.2990
     1.3779   1.4301   1.4573   1.4725   1.5150   1.5619   1.5901   1.5984
     1.6083   1.6197   1.6267   1.6328   1.6654   1.6886   1.6962   1.7059
     1.7548   1.7704   1.7764   1.7923   1.7957   1.8002   1.8096   1.8101
     1.8332   1.8573   1.8667   1.8991   1.9071   1.9237   1.9300   1.9497
     2.0096   2.0940   2.2254   2.3518   2.3899   2.6619   2.7401   2.8060
     2.8487   2.9537

          k = 0.2000-0.3464 0.0000 ( 36608 PWs)   bands (ev):

   -22.0416  -9.2341  -7.3650  -6.3070  -6.0587  -6.0136  -5.6777  -5.5622
    -5.3744  -4.9170  -4.6224  -4.5189  -4.2530  -4.2381  -3.8729  -3.4323
    -3.4254  -3.4173  -3.4049  -3.2924  -3.1446  -3.1280  -3.1060  -2.8882
    -2.7511  -2.6853  -2.6691  -2.6117  -2.5880  -2.5614  -2.5527  -2.4702
    -2.4638  -2.4507  -2.4200  -2.3111  -2.2681  -2.2316  -2.0851  -2.0763
    -2.0539  -2.0003  -1.9459  -1.9405  -1.9149  -1.7874  -1.7362  -1.7167
    -1.6592  -1.5900  -1.5596  -1.5567  -1.5425  -1.5308  -1.5188  -1.5016
    -1.4828  -1.4669  -1.4186  -1.3840  -1.3392  -1.2851  -1.1886  -1.1486
    -1.0903  -1.0689  -0.9831  -0.9214  -0.8861  -0.8575  -0.8418  -0.8134
    -0.7964  -0.7730  -0.7302  -0.7123  -0.6987  -0.6800  -0.6600  -0.6365
    -0.6281  -0.6164  -0.5921  -0.5750  -0.5146  -0.4650  -0.4192  -0.4112
    -0.4033  -0.3856  -0.3521  -0.3274  -0.3037  -0.2883  -0.2821  -0.2604
    -0.2475  -0.2401  -0.2236  -0.1995  -0.1869  -0.1661  -0.1448  -0.1249
    -0.1163  -0.1084  -0.1004  -0.0725  -0.0612  -0.0527  -0.0473  -0.0313
     0.0395   0.0540   0.0613   0.0899   0.1464   0.1722   0.2158   0.2381
     0.2573   0.2726   0.3080   0.3506   0.3624   0.3748   0.3832   0.3883
     0.3983   0.4215   0.4555   0.4735   0.5203   0.5870   0.6941   0.7049
     0.7471   0.7749   0.8172   0.8345   0.8526   0.8609   0.8803   0.8891
     0.9034   0.9231   0.9340   0.9488   0.9842   1.0435   1.0793   1.0959
     1.1283   1.1568   1.1643   1.2009   1.2103   1.2519   1.2735   1.3260
     1.3322   1.3956   1.4747   1.4990   1.5124   1.5315   1.5435   1.5562
     1.5708   1.5790   1.6028   1.6092   1.6709   1.6743   1.6861   1.6932
     1.7154   1.7343   1.7402   1.7529   1.7675   1.7784   1.7897   1.8104
     1.8263   1.8310   1.8387   1.8521   1.8652   1.8712   1.9202   1.9473
     1.9560   2.0112   2.0555   2.0829   2.1796   2.2242   2.3862   2.4533
     2.5324   2.5593

          k = 0.4000-0.2309 0.0000 ( 36606 PWs)   bands (ev):

[...]
     atom    8 type  1   force =    -0.00037595   -0.00292024   -0.10259594
     atom    9 type  1   force =    -0.00112070    0.00227205   -0.10341450
     atom   10 type  1   force =     0.00072148   -0.00113816   -0.01697162
     atom   11 type  1   force =     0.00021691   -0.00145928   -0.01058097
     atom   12 type  1   force =    -0.00076142    0.00174888   -0.01190704
     atom   13 type  1   force =     0.00013899    0.00224287   -0.01036621
     atom   14 type  1   force =     0.00069563    0.00045301   -0.00685008
     atom   15 type  1   force =    -0.00129004   -0.00025165   -0.01052955
     atom   16 type  1   force =     0.00085382   -0.00225773   -0.01334760
     atom   17 type  1   force =     0.00053046    0.00044421   -0.00929584
     atom   18 type  1   force =    -0.00076871   -0.00045424   -0.01365461
     atom   19 type  1   force =    -0.00118217   -0.00092782    0.01037761
     atom   20 type  1   force =    -0.00774856    0.00013921   -0.00103295
     atom   21 type  1   force =     0.01012017   -0.00781594   -0.00155826
     atom   22 type  1   force =     0.00036835   -0.00012505    0.01276620
     atom   23 type  1   force =    -0.00263405    0.00964483    0.00016959
     atom   24 type  1   force =     0.00131465   -0.00137895    0.01366710
     atom   25 type  1   force =     0.00056082    0.00027845    0.02026004
     atom   26 type  1   force =    -0.00522003    0.00031028    0.00005821
     atom   27 type  1   force =     0.00503279   -0.00059932    0.00963889
     atom   28 type  1   force =    -0.00001855    0.00169901    0.11471813
     atom   29 type  1   force =     0.01199430    0.05003319    0.09497923
     atom   30 type  1   force =    -0.01645584    0.01475568    0.13486848
     atom   31 type  1   force =     0.04179271   -0.02223063    0.13671186
     atom   32 type  1   force =    -0.04804367   -0.04610802    0.04835875
     atom   33 type  1   force =    -0.01977739    0.01151550    0.12001357
     atom   34 type  1   force =     0.00960403   -0.00758867    0.12585663
     atom   35 type  1   force =     0.00473543    0.00394871    0.08128125
     atom   36 type  1   force =    -0.00084957   -0.00239949    0.10685274
     atom   37 type  2   force =    -0.09587215   -0.00278327    0.42257456
     atom   38 type  3   force =     0.31999124    0.13573491   -2.68939013
     atom   39 type  4   force =    -0.00434732   -0.00150736   -0.02283744
     The ionic contribution  to forces
     atom    1 type  1   force =    -0.00574361    0.00004183 -111.13508268
     atom    2 type  1   force =    -0.00378461    0.00046513 -111.15419998
     atom    3 type  1   force =     0.00952815   -0.00119824 -111.14261502
     atom    4 type  1   force =    -0.00438893    0.00591365 -111.13488366
     atom    5 type  1   force =     0.00144734    0.00858531 -111.14078323
     atom    6 type  1   force =     0.00294157    0.00014961 -111.13204959
     atom    7 type  1   force =     0.00081832   -0.00057791 -111.12929177
     atom    8 type  1   force =    -0.00510237   -0.00475513 -111.13777800
     atom    9 type  1   force =     0.00428411   -0.00862422 -111.13944023
     atom   10 type  1   force =    -0.03808440   -0.01667269  -40.06609423
     atom   11 type  1   force =    -0.01512967   -0.05970483  -40.17338930
     atom   12 type  1   force =     0.05319967   -0.04032974  -40.09498740
     atom   13 type  1   force =    -0.06301268    0.03246395  -40.14095697
     atom   14 type  1   force =     0.03496868    0.03344956  -40.19827468
     atom   15 type  1   force =     0.02805111    0.00605664  -40.07290771
     atom   16 type  1   force =    -0.01317729    0.05018608  -40.07307150
     atom   17 type  1   force =     0.00862792    0.00981459  -40.08176631
     atom   18 type  1   force =     0.00455661   -0.01526531  -40.05589363
     atom   19 type  1   force =    -0.28128213    0.00403561   31.54437457
     atom   20 type  1   force =    -0.20628705    0.04104397   30.49494610
     atom   21 type  1   force =     0.48413541   -0.07333083   31.18667814
     atom   22 type  1   force =    -0.20541834    0.28014866   31.55572236
     atom   23 type  1   force =     0.05644336    0.43024149   31.26117370
     atom   24 type  1   force =     0.14730848    0.01608299   31.65256420
     atom   25 type  1   force =     0.03531392   -0.02357962   31.78154211
     atom   26 type  1   force =    -0.24693797   -0.24152302   31.42353762
     atom   27 type  1   force =     0.21287709   -0.43095499   31.33419720
     atom   28 type  1   force =    -1.29902392   -0.56838788  104.15280756
     atom   29 type  1   force =    -1.06628854   -4.50361490   99.26247875
     atom   30 type  1   force =     2.06049133   -1.42177494  103.51065185
     atom   31 type  1   force =    -3.35978072    1.90053108  101.55721386
     atom   32 type  1   force =     2.37827329    2.31319794   98.31765012
     atom   33 type  1   force =     1.18383640   -0.04263630  104.04108340
     atom   34 type  1   force =    -0.44549855    1.62066322  104.10628297
     atom   35 type  1   force =     0.40689913    0.97839729  103.63465966
     atom   36 type  1   force =     0.15174577   -0.47664483  104.43064848
     atom   37 type  2   force =     0.68934401    0.33546381   51.15079101
     atom   38 type  3   force =    -1.27944540   -0.54975376   89.68820659
     atom   39 type  4   force =     0.58329451    0.41239673   15.11625564
     The local contribution  to forces
     atom    1 type  1   force =     0.00599298   -0.00082988  111.23914846
     atom    2 type  1   force =     0.00508403   -0.00155620  111.26015233
     atom    3 type  1   force =    -0.01103311    0.00386305  111.24874522
     atom    4 type  1   force =     0.00310785   -0.00348455  111.24151431
     atom    5 type  1   force =    -0.00046933   -0.01207313  111.24794239
     atom    6 type  1   force =    -0.00213924   -0.00002871  111.23386171
     atom    7 type  1   force =    -0.00204750    0.00025910  111.23315331
     atom    8 type  1   force =     0.00640900    0.00701429  111.24362027
     atom    9 type  1   force =    -0.00392351    0.00640591  111.24396504
     atom   10 type  1   force =     0.03823841    0.01703255   40.06317548
     atom   11 type  1   force =     0.01288847    0.06052847   40.16368761
     atom   12 type  1   force =    -0.05164361    0.03766434   40.08973938
     atom   13 type  1   force =     0.06188233   -0.03474648   40.13362581
     atom   14 type  1   force =    -0.03515470   -0.03243368   40.18393715
     atom   15 type  1   force =    -0.02658358   -0.00669923   40.06313354
     atom   16 type  1   force =     0.01304449   -0.04744824   40.06696012
     atom   17 type  1   force =    -0.00898136   -0.00978465   40.07100910
     atom   18 type  1   force =    -0.00284863    0.01607246   40.04792914
     atom   19 type  1   force =     0.27993775   -0.00331710  -31.53197387
     atom   20 type  1   force =     0.21477893   -0.04095915  -30.47907811
     atom   21 type  1   force =    -0.49236619    0.07790235  -31.17109153
     atom   22 type  1   force =     0.20513109   -0.27798623  -31.54781611
     atom   23 type  1   force =    -0.05531588   -0.43954823  -31.24767101
     atom   24 type  1   force =    -0.14785833   -0.01368001  -31.64384790
     atom   25 type  1   force =    -0.03716932    0.02294188  -31.77628490
     atom   26 type  1   force =     0.25055279    0.24042667  -31.40778171
     atom   27 type  1   force =    -0.21433374    0.43103323  -31.32701022
     atom   28 type  1   force =     1.29671655    0.56551041 -104.27520982
     atom   29 type  1   force =     1.04646383    4.43281338  -99.35963835
     atom   30 type  1   force =    -2.03599397    1.39682541 -103.65451885
     atom   31 type  1   force =     3.30765466   -1.87444405 -101.69774208
     atom   32 type  1   force =    -2.33398475   -2.26478374  -98.34974360
     atom   33 type  1   force =    -1.16020827    0.03040278 -104.16490398
     atom   34 type  1   force =     0.43039217   -1.60452098 -104.24067924
     atom   35 type  1   force =    -0.40926659   -0.97373332 -103.71907806
     atom   36 type  1   force =    -0.14929158    0.48039228 -104.54733619
     atom   37 type  2   force =    -0.59606255   -0.33121034  -51.57024480
     atom   38 type  3   force =     0.96287818    0.41957956  -87.01722424
     atom   39 type  4   force =    -0.56454787   -0.40447553  -15.10107399
     The core correction contribution to forces
     atom    1 type  1   force =     0.00008913    0.00009177    0.01015766
     atom    2 type  1   force =     0.00037753   -0.00004625    0.00981303
     atom    3 type  1   force =    -0.00015941    0.00015318    0.01029255
     atom    4 type  1   force =    -0.00009784   -0.00002672    0.01004053
     atom    5 type  1   force =    -0.00014587   -0.00017387    0.01034035
     atom    6 type  1   force =     0.00012563    0.00017052    0.01000650
     atom    7 type  1   force =     0.00003573    0.00014509    0.01031737
     atom    8 type  1   force =    -0.00009228    0.00001118    0.01022854
     atom    9 type  1   force =    -0.00005785   -0.00008702    0.00998450
     atom   10 type  1   force =    -0.00013702   -0.00008513   -0.00187378
     atom   11 type  1   force =    -0.00005208   -0.00007164   -0.00194364
     atom   12 type  1   force =     0.00014361   -0.00047878   -0.00177192
     atom   13 type  1   force =    -0.00013085   -0.00017824   -0.00188902
     atom   14 type  1   force =     0.00023677    0.00009804   -0.00170387
     atom   15 type  1   force =     0.00011040    0.00010870   -0.00194152
     atom   16 type  1   force =    -0.00015426    0.00031127   -0.00168511
     atom   17 type  1   force =     0.00008505   -0.00018763   -0.00183779
     atom   18 type  1   force =     0.00014986    0.00015269   -0.00166702
     atom   19 type  1   force =     0.00008922   -0.00047480    0.00167243
     atom   20 type  1   force =    -0.00125038   -0.00048889    0.00106918
     atom   21 type  1   force =     0.00074368   -0.00070375    0.00025334
     atom   22 type  1   force =    -0.00022111    0.00072164    0.00137147
     atom   23 type  1   force =     0.00000739    0.00094424    0.00094550
     atom   24 type  1   force =     0.00035600    0.00037455    0.00193576
     atom   25 type  1   force =     0.00018975    0.00003009    0.00196473
     atom   26 type  1   force =    -0.00026400    0.00065013    0.00150739
     atom   27 type  1   force =     0.00067900   -0.00042343    0.00098731
     atom   28 type  1   force =     0.00163613    0.00027440   -0.00950524
     atom   29 type  1   force =     0.00288931    0.00985965   -0.00525128
     atom   30 type  1   force =    -0.00422507    0.00343279   -0.00781916
     atom   31 type  1   force =     0.00708254   -0.00393334   -0.00577726
     atom   32 type  1   force =    -0.00141923   -0.00289096    0.00102173
     atom   33 type  1   force =    -0.00701937    0.00317183   -0.00661742
     atom   34 type  1   force =     0.00313858   -0.00339271   -0.00779807
     atom   35 type  1   force =    -0.00275890   -0.00974259   -0.00567992
     atom   36 type  1   force =    -0.00116449    0.00037107   -0.01031452
     atom   37 type  2   force =     0.00132550   -0.00064675   -0.00179741
     atom   38 type  3   force =    -0.00234769   -0.00104073    0.01960269
     atom   39 type  4   force =     0.00000000    0.00000000    0.00000000
     The Hubbard contrib.    to forces
     atom    1 type  1   force =     0.00000000    0.00000000    0.00000000
     atom    2 type  1   force =     0.00000000    0.00000000    0.00000000
     atom    3 type  1   force =     0.00000000    0.00000000    0.00000000
     atom    4 type  1   force =     0.00000000    0.00000000    0.00000000
     atom    5 type  1   force =     0.00000000    0.00000000    0.00000000
     atom    6 type  1   force =     0.00000000    0.00000000    0.00000000
     atom    7 type  1   force =     0.00000000    0.00000000    0.00000000
     atom    8 type  1   force =     0.00000000    0.00000000    0.00000000
     atom    9 type  1   force =     0.00000000    0.00000000    0.00000000
     atom   10 type  1   force =     0.00000000    0.00000000    0.00000000
     atom   11 type  1   force =     0.00000000    0.00000000    0.00000000
     atom   12 type  1   force =     0.00000000    0.00000000    0.00000000
     atom   13 type  1   force =     0.00000000    0.00000000    0.00000000
     atom   14 type  1   force =     0.00000000    0.00000000    0.00000000
     atom   15 type  1   force =     0.00000000    0.00000000    0.00000000
     atom   16 type  1   force =     0.00000000    0.00000000    0.00000000
     atom   17 type  1   force =     0.00000000    0.00000000    0.00000000
     atom   18 type  1   force =     0.00000000    0.00000000    0.00000000
     atom   19 type  1   force =     0.00000000    0.00000000    0.00000000
     atom   20 type  1   force =     0.00000000    0.00000000    0.00000000
     atom   21 type  1   force =     0.00000000    0.00000000    0.00000000
     atom   22 type  1   force =     0.00000000    0.00000000    0.00000000
     atom   23 type  1   force =     0.00000000    0.00000000    0.00000000
     atom   24 type  1   force =     0.00000000    0.00000000    0.00000000
     atom   25 type  1   force =     0.00000000    0.00000000    0.00000000
     atom   26 type  1   force =     0.00000000    0.00000000    0.00000000
     atom   27 type  1   force =     0.00000000    0.00000000    0.00000000
     atom   28 type  1   force =     0.00000000    0.00000000    0.00000000
     atom   29 type  1   force =     0.00000000    0.00000000    0.00000000
     atom   30 type  1   force =     0.00000000    0.00000000    0.00000000
     atom   31 type  1   force =     0.00000000    0.00000000    0.00000000
     atom   32 type  1   force =     0.00000000    0.00000000    0.00000000
     atom   33 type  1   force =     0.00000000    0.00000000    0.00000000
     atom   34 type  1   force =     0.00000000    0.00000000    0.00000000
     atom   35 type  1   force =     0.00000000    0.00000000    0.00000000
     atom   36 type  1   force =     0.00000000    0.00000000    0.00000000
     atom   37 type  2   force =     0.00000000    0.00000000    0.00000000
     atom   38 type  3   force =     0.00000000    0.00000000    0.00000000
     atom   39 type  4   force =     0.00000000    0.00000000    0.00000000
     The SCF correction term to forces
     atom    1 type  1   force =    -0.00000000   -0.00000000    0.00000000
     atom    2 type  1   force =     0.00000000   -0.00000000    0.00000000
     atom    3 type  1   force =    -0.00000000   -0.00000000    0.00000000
     atom    4 type  1   force =     0.00000000    0.00000000    0.00000000
     atom    5 type  1   force =     0.00000000    0.00000000    0.00000000
     atom    6 type  1   force =    -0.00000000    0.00000000    0.00000000
     atom    7 type  1   force =     0.00000000   -0.00000000    0.00000000
     atom    8 type  1   force =    -0.00000000   -0.00000000    0.00000000
     atom    9 type  1   force =    -0.00000000   -0.00000000    0.00000000
     atom   10 type  1   force =     0.00000000   -0.00000000    0.00000000
     atom   11 type  1   force =    -0.00000000   -0.00000000    0.00000000
     atom   12 type  1   force =     0.00000000   -0.00000000    0.00000000
     atom   13 type  1   force =    -0.00000000   -0.00000000    0.00000000
     atom   14 type  1   force =    -0.00000000    0.00000000    0.00000000
     atom   15 type  1   force =     0.00000000    0.00000000    0.00000000
     atom   16 type  1   force =    -0.00000000    0.00000000    0.00000000
     atom   17 type  1   force =     0.00000000    0.00000000    0.00000000
     atom   18 type  1   force =    -0.00000000    0.00000000    0.00000000
     atom   19 type  1   force =     0.00000000    0.00000000   -0.00000000
     atom   20 type  1   force =    -0.00000000    0.00000000   -0.00000000
     atom   21 type  1   force =     0.00000000   -0.00000000   -0.00000000
     atom   22 type  1   force =     0.00000000   -0.00000000   -0.00000000
     atom   23 type  1   force =    -0.00000000   -0.00000000   -0.00000000
     atom   24 type  1   force =     0.00000000   -0.00000000   -0.00000000
     atom   25 type  1   force =    -0.00000000    0.00000000   -0.00000000
     atom   26 type  1   force =    -0.00000000    0.00000000   -0.00000000
     atom   27 type  1   force =     0.00000000    0.00000000   -0.00000000
     atom   28 type  1   force =    -0.00000000    0.00000000   -0.00000000
     atom   29 type  1   force =     0.00000000    0.00000000   -0.00000000
     atom   30 type  1   force =    -0.00000000    0.00000000   -0.00000000
     atom   31 type  1   force =     0.00000000    0.00000000   -0.00000000
     atom   32 type  1   force =    -0.00000000   -0.00000000   -0.00000000
     atom   33 type  1   force =    -0.00000000   -0.00000000   -0.00000000
     atom   34 type  1   force =    -0.00000000   -0.00000000   -0.00000000
     atom   35 type  1   force =    -0.00000000   -0.00000000   -0.00000000
     atom   36 type  1   force =     0.00000000   -0.00000000   -0.00000000
     atom   37 type  2   force =     0.00006743    0.00016697   -0.00036676
     atom   38 type  3   force =     0.00003454    0.00007325   -0.00053377
     atom   39 type  4   force =    -0.00004358   -0.00005581   -0.00007812

     Total force =     0.018242     Total SCF correction =     0.000685

     Writing all to output data dir ./pwscf.save/

     init_run     :     12.38s CPU     12.83s WALL (       1 calls)
     electrons    :    600.79s CPU    609.85s WALL (       1 calls)
     forces       :      2.94s CPU      3.01s WALL (       1 calls)

     Called by init_run:
     wfcinit      :      9.13s CPU      9.45s WALL (       1 calls)
     potinit      :      2.15s CPU      2.24s WALL (       1 calls)
     hinit0       :      0.86s CPU      0.87s WALL (       1 calls)

     Called by electrons:
     c_bands      :    508.91s CPU    516.02s WALL (      44 calls)
     sum_band     :     62.90s CPU     63.96s WALL (      44 calls)
     v_of_rho     :      7.73s CPU      8.13s WALL (      45 calls)
     newd         :      2.38s CPU      2.43s WALL (      45 calls)
     PAW_pot      :     11.26s CPU     11.39s WALL (      45 calls)
     mix_rho      :      8.97s CPU      9.16s WALL (      44 calls)
     vdW_kernel   :      1.10s CPU      1.11s WALL (       1 calls)

     Called by c_bands:
     init_us_2    :      5.94s CPU      6.08s WALL (    2340 calls)
     init_us_2:cp :      5.93s CPU      6.08s WALL (    2340 calls)
     cegterg      :    492.97s CPU    499.59s WALL (    1145 calls)

     Called by *egterg:
     cdiaghg      :    173.45s CPU    174.96s WALL (    3986 calls)
     h_psi        :    217.37s CPU    221.36s WALL (    4012 calls)
     s_psi        :     24.39s CPU     24.71s WALL (    4012 calls)
     g_psi        :      0.49s CPU      0.50s WALL (    2841 calls)

     Called by h_psi:
     h_psi:calbec :     36.39s CPU     37.06s WALL (    4012 calls)
     vloc_psi     :    154.41s CPU    157.39s WALL (    4012 calls)
     add_vuspsi   :     25.35s CPU     25.68s WALL (    4012 calls)

     General routines
     calbec       :     52.83s CPU     53.74s WALL (    5260 calls)
     fft          :      4.79s CPU      5.17s WALL (    4082 calls)
     ffts         :      5.84s CPU      5.97s WALL (   16191 calls)
     fftw         :    177.06s CPU    180.38s WALL ( 1188602 calls)
     interpolate  :      0.53s CPU      0.54s WALL (      90 calls)

     Parallel routines

     PWSCF        :  10m22.21s CPU  10m36.06s WALL


   This run was terminated on:  19:34:10   4Dec2025            

=------------------------------------------------------------------------------=
   JOB DONE.
=------------------------------------------------------------------------------=
