
     Program PWSCF v.7.1 starts on 20Nov2025 at 15:27:24 
        Git branch: heads/qe-7.1
        Last git commit: 48ba0178f8fede6d020eb786884699a9f063f55d-dirty
        Last git commit date: Fri Jan 27 14:22:33 2023 +0000
        Last git commit subject: Merge branch 'fix_hubbard' into 'develop'

     This program is part of the open-source Quantum ESPRESSO suite
     for quantum simulation of materials; please cite
         "P. Giannozzi et al., J. Phys.:Condens. Matter 21 395502 (2009);
         "P. Giannozzi et al., J. Phys.:Condens. Matter 29 465901 (2017);
         "P. Giannozzi et al., J. Chem. Phys. 152 154105 (2020);
          URL http://www.quantum-espresso.org", 
     in publications or presentations arising from this work. More details at
     http://www.quantum-espresso.org/quote

     Parallel version (MPI), running on    96 processors

     MPI processes distributed on     2 nodes
     51195 MiB available memory on the printing compute node when the environment starts

     Reading input from espresso.pwi
Warning: card &CELL ignored
Warning: card / ignored
Warning: card &FCP ignored
Warning: card / ignored
Warning: card &RISM ignored
Warning: card / ignored

     Current dimensions of program PWSCF are:
     Max number of different atomic species (ntypx) = 10
     Max number of k-points (npk) =  40000
     Max angular momentum in pseudopotentials (lmaxx) =  4
     file Co.pbe-n-kjpaw_psl.1.0.0.UPF: wavefunction(s)  4S 3D renormalized
     file C.pbe-n-kjpaw_psl.1.0.0.UPF: wavefunction(s)  2S 2P renormalized
     file O.pbe-nl-kjpaw_psl.1.0.0.UPF: wavefunction(s)  2S 2P renormalized
     file H.pbe-kjpaw_psl.1.0.0.UPF: wavefunction(s)  1S renormalized

     **************************************************************************
     Initializing libbeef V0.1.2 with the BEEF-vdW functional.
     Citation: Wellendorff et al., PRB 85, 235149 (2012).
     **************************************************************************


     IMPORTANT: XC functional enforced from input :
     Exchange-correlation= BEEF-VDW
                           (   1   4  43  14   2   0   0)
     Any further DFT definition will be discarded
     Please, verify this is what you really want


     R & G space division:  proc/nbgrp/npool/nimage =      96
     Subspace diagonalization in iterative solution of the eigenvalue problem:
     one sub-group per band group will be used
     custom distributed-memory algorithm (size of sub-group:  2*  2 procs)


     Parallelization info
     --------------------
     sticks:   dense  smooth     PW     G-vecs:    dense   smooth      PW
     Min          43      23      6                 7829     3049     440
     Max          44      24      7                 7845     3068     465
     Sum        4153    2221    613               752179   293251   42993

     Using Slab Decomposition



     bravais-lattice index     =            0
     lattice parameter (alat)  =      14.1729  a.u.
     unit-cell volume          =    8574.3059 (a.u.)^3
     number of atoms/cell      =           39
     number of atomic types    =            4
     number of electrons       =       335.00
     number of Kohn-Sham states=          202
     kinetic-energy cutoff     =      40.0000  Ry
     charge density cutoff     =     300.0000  Ry
     scf convergence threshold =      1.0E-06
     mixing beta               =       0.7000
     number of iterations used =            8  local-TF  mixing
     Exchange-correlation= BEEF-VDW
                           (   1   4  43  14   2   0   0)

     celldm(1)=  14.172946  celldm(2)=   0.000000  celldm(3)=   0.000000
     celldm(4)=   0.000000  celldm(5)=   0.000000  celldm(6)=   0.000000

     crystal axes: (cart. coord. in units of alat)
               a(1) = (   1.000000   0.000000   0.000000 )  
               a(2) = (   0.500000   0.866025   0.000000 )  
               a(3) = (   0.000000   0.000000   3.477667 )  

     reciprocal axes: (cart. coord. in units 2 pi/alat)
               b(1) = (  1.000000 -0.577350  0.000000 )  
               b(2) = (  0.000000  1.154701  0.000000 )  
               b(3) = (  0.000000  0.000000  0.287549 )  


     PseudoPot. # 1 for Co read from file:
     /users/kbadger1/espresso/pseudo/pslibrary.1.0.0/pbe/PSEUDOPOTENTIALS/Co.pbe-n-kjpaw_psl.1.0.0.UPF
     MD5 check sum: 88af6ec42553d4236c267fdfcb472151
     Pseudo is Projector augmented-wave + core cor, Zval =  9.0
     Generated using 'atomic' code by A. Dal Corso  v.7.0
     Shape of augmentation charge: PSQ
     Using radial grid of 1193 points,  6 beta functions with: 
                l(1) =   0
                l(2) =   0
                l(3) =   1
                l(4) =   1
                l(5) =   2
                l(6) =   2
     Q(r) pseudized with 0 coefficients 


     PseudoPot. # 2 for C  read from file:
     /users/kbadger1/espresso/pseudo/pslibrary.1.0.0/pbe/PSEUDOPOTENTIALS/C.pbe-n-kjpaw_psl.1.0.0.UPF
     MD5 check sum: 6408e75cdba28732cea38a4db8498ce4
     Pseudo is Projector augmented-wave + core cor, Zval =  4.0
     Generated using 'atomic' code by A. Dal Corso  v.7.0
     Shape of augmentation charge: PSQ
     Using radial grid of 1073 points,  4 beta functions with: 
                l(1) =   0
                l(2) =   0
                l(3) =   1
                l(4) =   1
     Q(r) pseudized with 0 coefficients 


     PseudoPot. # 3 for O  read from file:
     /users/kbadger1/espresso/pseudo/pslibrary.1.0.0/pbe/PSEUDOPOTENTIALS/O.pbe-nl-kjpaw_psl.1.0.0.UPF
     MD5 check sum: f0439fab3598ca4e468f064226030408
     Pseudo is Projector augmented-wave + core cor, Zval =  6.0
     Generated using 'atomic' code by A. Dal Corso  v.7.0
     Shape of augmentation charge: PSQ
     Using radial grid of 1095 points,  4 beta functions with: 
                l(1) =   0
                l(2) =   0
                l(3) =   1
                l(4) =   1
     Q(r) pseudized with 0 coefficients 


     PseudoPot. # 4 for H  read from file:
     /users/kbadger1/espresso/pseudo/pslibrary.1.0.0/pbe/PSEUDOPOTENTIALS/H.pbe-kjpaw_psl.1.0.0.UPF
     MD5 check sum: fe4c6fa958fa6d3815bf5d2419cbf1df
     Pseudo is Projector augmented-wave, Zval =  1.0
     Generated using 'atomic' code by A. Dal Corso  v.7.0
     Shape of augmentation charge: PSQ
     Using radial grid of  929 points,  2 beta functions with: 
                l(1) =   0
                l(2) =   0
     Q(r) pseudized with 0 coefficients 


     atomic species   valence    mass     pseudopotential
        Co             9.00    58.93319     Co( 1.00)
        C              4.00    12.00000     C ( 1.00)
        O              6.00    15.99491     O ( 1.00)
        H              1.00     1.00783     H ( 1.00)

     Starting magnetic structure 
     atomic species   magnetization
        Co           1.000
        C            1.000
        O            0.000
        H            0.000

     No symmetry found



   Cartesian axes

     site n.     atom                  positions (alat units)
         1           Co  tau(   1) = (   0.0000000   0.1924501   1.3333333  )
         2           Co  tau(   2) = (   0.3333333   0.1924501   1.3333333  )
         3           Co  tau(   3) = (   0.6666667   0.1924501   1.3333333  )
         4           Co  tau(   4) = (   0.1666667   0.4811252   1.3333333  )
         5           Co  tau(   5) = (   0.5000000   0.4811252   1.3333333  )
         6           Co  tau(   6) = (   0.8333333   0.4811252   1.3333333  )
         7           Co  tau(   7) = (   0.3333333   0.7698004   1.3333333  )
         8           Co  tau(   8) = (   0.6666667   0.7698004   1.3333333  )
         9           Co  tau(   9) = (   1.0000000   0.7698004   1.3333333  )
        10           Co  tau(  10) = (   0.0000000   0.0000000   1.6036667  )
        11           Co  tau(  11) = (   0.3333333   0.0000000   1.6036667  )
        12           Co  tau(  12) = (   0.6666667   0.0000000   1.6036667  )
        13           Co  tau(  13) = (   0.1666667   0.2886751   1.6036667  )
        14           Co  tau(  14) = (   0.5000000   0.2886751   1.6036667  )
        15           Co  tau(  15) = (   0.8333333   0.2886751   1.6036667  )
        16           Co  tau(  16) = (   0.3333333   0.5773503   1.6036667  )
        17           Co  tau(  17) = (   0.6666667   0.5773503   1.6036667  )
        18           Co  tau(  18) = (   1.0000000   0.5773503   1.6036667  )
        19           Co  tau(  19) = (   0.0000000   0.1924501   1.8740000  )
        20           Co  tau(  20) = (   0.3333333   0.1924501   1.8740000  )
        21           Co  tau(  21) = (   0.6666667   0.1924501   1.8740000  )
        22           Co  tau(  22) = (   0.1666667   0.4811252   1.8740000  )
        23           Co  tau(  23) = (   0.5000000   0.4811252   1.8740000  )
        24           Co  tau(  24) = (   0.8333333   0.4811252   1.8740000  )
        25           Co  tau(  25) = (   0.3333333   0.7698004   1.8740000  )
        26           Co  tau(  26) = (   0.6666667   0.7698004   1.8740000  )
        27           Co  tau(  27) = (   1.0000000   0.7698004   1.8740000  )
        28           Co  tau(  28) = (   0.0000000   0.0000000   2.1443333  )
        29           Co  tau(  29) = (   0.3333333   0.0000000   2.1443333  )
        30           Co  tau(  30) = (   0.6666667   0.0000000   2.1443333  )
        31           Co  tau(  31) = (   0.1666667   0.2886751   2.1443333  )
        32           Co  tau(  32) = (   0.5000000   0.2886751   2.1443333  )
        33           Co  tau(  33) = (   0.8333333   0.2886751   2.1443333  )
        34           Co  tau(  34) = (   0.3333333   0.5773503   2.1443333  )
        35           Co  tau(  35) = (   0.6666667   0.5773503   2.1443333  )
        36           Co  tau(  36) = (   1.0000000   0.5773503   2.1443333  )
        37           C   tau(  37) = (   0.3964543   0.1719838   2.3409399  )
        38           O   tau(  38) = (   0.3336505   0.0965328   2.4706770  )
        39           H   tau(  39) = (   0.5036229   0.2936913   2.3728810  )

     number of k points=    13  Marzari-Vanderbilt smearing, width (Ry)=  0.0010
                       cart. coord. in units 2pi/alat
        k(    1) = (   0.0000000   0.0000000   0.0000000), wk =   0.0400000
        k(    2) = (   0.0000000   0.2309401   0.0000000), wk =   0.0800000
        k(    3) = (   0.0000000   0.4618802   0.0000000), wk =   0.0800000
        k(    4) = (   0.2000000  -0.1154701   0.0000000), wk =   0.0800000
        k(    5) = (   0.2000000   0.1154701   0.0000000), wk =   0.0800000
        k(    6) = (   0.2000000   0.3464102   0.0000000), wk =   0.0800000
        k(    7) = (   0.2000000  -0.5773503   0.0000000), wk =   0.0800000
        k(    8) = (   0.2000000  -0.3464102   0.0000000), wk =   0.0800000
        k(    9) = (   0.4000000  -0.2309401   0.0000000), wk =   0.0800000
        k(   10) = (   0.4000000   0.0000000   0.0000000), wk =   0.0800000
        k(   11) = (   0.4000000   0.2309401   0.0000000), wk =   0.0800000
        k(   12) = (   0.4000000  -0.6928203   0.0000000), wk =   0.0800000
        k(   13) = (   0.4000000  -0.4618802   0.0000000), wk =   0.0800000

     Dense  grid:   752179 G-vectors     FFT dimensions: (  80,  80, 288)

     Smooth grid:   293251 G-vectors     FFT dimensions: (  60,  60, 200)

     Estimated max dynamical RAM per process >      84.82 MB

     Estimated total dynamical RAM >       7.95 GB
     Generating pointlists ...
     new r_m :   0.0943 (alat units)  1.3367 (a.u.) for type    1
     new r_m :   0.0671 (alat units)  0.9512 (a.u.) for type    2
     new r_m :   0.0671 (alat units)  0.9512 (a.u.) for type    3
     new r_m :   0.0682 (alat units)  0.9663 (a.u.) for type    4

     Initial potential from superposition of free atoms

     starting charge     334.9897, renormalised to     335.0000

     negative rho (up, down):  3.048E-03 4.677E-04


     %%%%%%%%%%%%%%%%%%%%%%%%%%%%%%%%%%%%%%%%%%%%%%%%%%%%%%%%%%%%%%%%%%%%%%%%
     %                                                                      %
     % You are using vdW-DF, which was implemented by the Thonhauser group. %
     % Please cite the following two papers that made this development      %
     % possible and the two reviews that describe the various versions:     %
     %                                                                      %
     %   T. Thonhauser et al., PRL 115, 136402 (2015).                      %
     %   T. Thonhauser et al., PRB 76, 125112 (2007).                       %
     %   K. Berland et al., Rep. Prog. Phys. 78, 066501 (2015).             %
     %   D.C. Langreth et al., J. Phys.: Condens. Matter 21, 084203 (2009). %
     %                                                                      %
     % If you are calculating stress with vdW-DF, please also cite:         %
     %                                                                      %
     %   R. Sabatini et al., J. Phys.: Condens. Matter 24, 424209 (2012).   %
     %   C.M. Frostenson et al., Electr. Struct. 4, 014001 (2022).          %
     %                                                                      %
     %%%%%%%%%%%%%%%%%%%%%%%%%%%%%%%%%%%%%%%%%%%%%%%%%%%%%%%%%%%%%%%%%%%%%%%%

     %%%%%%%%%%%%%%%%%%%%%%%%%%%%%%%%%%%%%%%%%%%%%%%%%%%%%%%%%%%%%%%%%%%%%%%%
     %                                                                      %
     %  vdW-DF NEWS:                                                        %
     %                                                                      %
     %  * vdW-DF3 is now available. DOI: 10.1021/acs.jctc.0c00471           %
     %    use with input_dft = 'vdW-DF3-opt1' or 'vdW-DF3-opt2'             %
     %                                                                      %
     %  * Unscreened and range-separated hybrid vdW-DF-cx functionals       %
     %    DOI: 10.1063/1.4986522 and 10.1088/1361-648X/ac2ad2               %
     %    use with input_dft = 'vdW-DF-cx0'    and 'vdW-DF-ahcx'            %
     %  * Unscreened and range-separated hybrid vdW-DF2-b86r functionals    %
     %    DOI: 10.1063/1.4986522 and DOI: 10.1103/PhysRevX.12.041003        %
     %    use with input_dft = 'vdW-DF2-br0' and 'vdW-DF2-ahbr'             %
     %                                                                      %
     %%%%%%%%%%%%%%%%%%%%%%%%%%%%%%%%%%%%%%%%%%%%%%%%%%%%%%%%%%%%%%%%%%%%%%%%


     Starting wfcs are  333 randomized atomic wfcs
     Checking if some PAW data can be deallocated... 

     total cpu time spent up to now is       11.4 secs

     per-process dynamical memory:   212.4 Mb

     Self-consistent Calculation

     iteration #  1     ecut=    40.00 Ry     beta= 0.70
     Davidson diagonalization with overlap
     ethr =  1.00E-02,  avg # of iterations =  2.0

     negative rho (up, down):  5.784E-05 1.103E-06

     total cpu time spent up to now is       31.0 secs

     total energy              =   -6052.95957233 Ry
     estimated scf accuracy    <      39.63468349 Ry

     total magnetization       =    69.00 Bohr mag/cell
     absolute magnetization    =    81.36 Bohr mag/cell

     iteration #  2     ecut=    40.00 Ry     beta= 0.70
     Davidson diagonalization with overlap
     ethr =  1.00E-02,  avg # of iterations =  1.0

     negative rho (up, down):  2.267E-05 6.367E-07

     total cpu time spent up to now is       48.2 secs

     total energy              =   -6052.44297580 Ry
     estimated scf accuracy    <      24.55030452 Ry

     total magnetization       =    68.52 Bohr mag/cell
     absolute magnetization    =    76.72 Bohr mag/cell

     iteration #  3     ecut=    40.00 Ry     beta= 0.70
     Davidson diagonalization with overlap
     ethr =  7.33E-03,  avg # of iterations =  1.0

     negative rho (up, down):  1.227E-06 2.072E-06

     total cpu time spent up to now is       60.5 secs

     total energy              =   -6054.98706281 Ry
     estimated scf accuracy    <      86.36265835 Ry

     total magnetization       =    65.90 Bohr mag/cell
     absolute magnetization    =    73.24 Bohr mag/cell

     iteration #  4     ecut=    40.00 Ry     beta= 0.70
     Davidson diagonalization with overlap
     ethr =  7.33E-03,  avg # of iterations =  1.0

     negative rho (up, down):  1.304E-06 6.166E-07

     total cpu time spent up to now is       74.1 secs

     total energy              =   -6056.23462470 Ry
     estimated scf accuracy    <       5.43446646 Ry

     total magnetization       =    60.53 Bohr mag/cell
     absolute magnetization    =    70.49 Bohr mag/cell

     iteration #  5     ecut=    40.00 Ry     beta= 0.70
     Davidson diagonalization with overlap
     ethr =  1.62E-03,  avg # of iterations =  1.4

     negative rho (up, down):  1.189E-06 5.366E-07

     total cpu time spent up to now is       89.5 secs

     total energy              =   -6056.24670899 Ry
     estimated scf accuracy    <       2.52941951 Ry

     total magnetization       =    60.29 Bohr mag/cell
     absolute magnetization    =    69.77 Bohr mag/cell

     iteration #  6     ecut=    40.00 Ry     beta= 0.70
     Davidson diagonalization with overlap
     ethr =  7.55E-04,  avg # of iterations =  1.6

     negative rho (up, down):  1.167E-06 5.464E-07

     total cpu time spent up to now is      101.7 secs

     total energy              =   -6056.36546393 Ry
     estimated scf accuracy    <       0.58447955 Ry

     total magnetization       =    60.20 Bohr mag/cell
     absolute magnetization    =    69.47 Bohr mag/cell

     iteration #  7     ecut=    40.00 Ry     beta= 0.70
     Davidson diagonalization with overlap
     ethr =  1.74E-04,  avg # of iterations =  5.5

     negative rho (up, down):  9.828E-07 5.470E-07

     total cpu time spent up to now is      122.7 secs

     total energy              =   -6056.39976764 Ry
     estimated scf accuracy    <       0.92575029 Ry

     total magnetization       =    60.20 Bohr mag/cell
     absolute magnetization    =    69.08 Bohr mag/cell

     iteration #  8     ecut=    40.00 Ry     beta= 0.70
     Davidson diagonalization with overlap
     ethr =  1.74E-04,  avg # of iterations =  1.6

     negative rho (up, down):  4.654E-07 2.570E-07

     total cpu time spent up to now is      139.7 secs

     total energy              =   -6056.41062271 Ry
     estimated scf accuracy    <       0.13736839 Ry

     total magnetization       =    60.38 Bohr mag/cell
     absolute magnetization    =    69.05 Bohr mag/cell

     iteration #  9     ecut=    40.00 Ry     beta= 0.70
     Davidson diagonalization with overlap
     c_bands:  3 eigenvalues not converged
     c_bands:  3 eigenvalues not converged
     c_bands:  1 eigenvalues not converged
     c_bands:  4 eigenvalues not converged
     c_bands:  2 eigenvalues not converged
     ethr =  4.10E-05,  avg # of iterations = 13.1

     negative rho (up, down):  2.396E-07 1.260E-07

     total cpu time spent up to now is      169.6 secs

     total energy              =   -6056.42297930 Ry
     estimated scf accuracy    <       0.21669680 Ry

     total magnetization       =    61.10 Bohr mag/cell
     absolute magnetization    =    69.12 Bohr mag/cell

     iteration # 10     ecut=    40.00 Ry     beta= 0.70
     Davidson diagonalization with overlap
     ethr =  4.10E-05,  avg # of iterations =  1.9

     negative rho (up, down):  3.172E-07 1.829E-07

     total cpu time spent up to now is      183.2 secs

     total energy              =   -6056.43127844 Ry
     estimated scf accuracy    <       0.22236666 Ry

     total magnetization       =    61.14 Bohr mag/cell
     absolute magnetization    =    69.01 Bohr mag/cell

     iteration # 11     ecut=    40.00 Ry     beta= 0.70
     Davidson diagonalization with overlap
     ethr =  4.10E-05,  avg # of iterations =  1.2

     negative rho (up, down):  7.617E-08 3.133E-08

     total cpu time spent up to now is      199.6 secs

     total energy              =   -6056.42288733 Ry
     estimated scf accuracy    <       0.12488832 Ry

     total magnetization       =    61.09 Bohr mag/cell
     absolute magnetization    =    68.89 Bohr mag/cell

     iteration # 12     ecut=    40.00 Ry     beta= 0.70
     Davidson diagonalization with overlap
     ethr =  3.73E-05,  avg # of iterations =  1.8

     negative rho (up, down):  1.159E-07 6.332E-08

     total cpu time spent up to now is      212.1 secs

     total energy              =   -6056.42689983 Ry
     estimated scf accuracy    <       0.07873996 Ry

     total magnetization       =    61.09 Bohr mag/cell
     absolute magnetization    =    68.67 Bohr mag/cell

     iteration # 13     ecut=    40.00 Ry     beta= 0.70
     Davidson diagonalization with overlap
     ethr =  2.35E-05,  avg # of iterations =  1.4

     negative rho (up, down):  2.183E-08 1.058E-08

     total cpu time spent up to now is      228.7 secs

     total energy              =   -6056.42579384 Ry
     estimated scf accuracy    <       0.08155044 Ry

     total magnetization       =    61.09 Bohr mag/cell
     absolute magnetization    =    68.59 Bohr mag/cell

     iteration # 14     ecut=    40.00 Ry     beta= 0.70
     Davidson diagonalization with overlap
     ethr =  2.35E-05,  avg # of iterations =  1.5

     negative rho (up, down):  1.044E-07 5.431E-09

     total cpu time spent up to now is      241.5 secs

     total energy              =   -6056.42343752 Ry
     estimated scf accuracy    <       0.07747080 Ry

     total magnetization       =    61.09 Bohr mag/cell
     absolute magnetization    =    68.61 Bohr mag/cell

     iteration # 15     ecut=    40.00 Ry     beta= 0.70
     Davidson diagonalization with overlap
     ethr =  2.31E-05,  avg # of iterations =  1.4

     negative rho (up, down):  3.650E-03 2.407E-03

     total cpu time spent up to now is      258.1 secs

     total energy              =   -6056.41989944 Ry
     estimated scf accuracy    <       0.11472425 Ry

     total magnetization       =    61.09 Bohr mag/cell
     absolute magnetization    =    68.56 Bohr mag/cell

     iteration # 16     ecut=    40.00 Ry     beta= 0.70
     Davidson diagonalization with overlap
     ethr =  2.31E-05,  avg # of iterations =  1.5

     negative rho (up, down):  1.613E-02 1.428E-02

     total cpu time spent up to now is      269.8 secs

     total energy              =   -6056.41878036 Ry
     estimated scf accuracy    <       0.07707724 Ry

     total magnetization       =    61.08 Bohr mag/cell
     absolute magnetization    =    68.49 Bohr mag/cell

     iteration # 17     ecut=    40.00 Ry     beta= 0.70
     Davidson diagonalization with overlap
     ethr =  2.30E-05,  avg # of iterations =  1.4

     negative rho (up, down):  3.403E-02 3.155E-02

     total cpu time spent up to now is      281.6 secs

     total energy              =   -6056.41863794 Ry
     estimated scf accuracy    <       0.03503568 Ry

     total magnetization       =    61.08 Bohr mag/cell
     absolute magnetization    =    68.47 Bohr mag/cell

     iteration # 18     ecut=    40.00 Ry     beta= 0.70
     Davidson diagonalization with overlap
     c_bands:  3 eigenvalues not converged
     c_bands:  3 eigenvalues not converged
     ethr =  1.05E-05,  avg # of iterations =  5.0

     negative rho (up, down):  2.380E-02 2.219E-02

     total cpu time spent up to now is      302.5 secs

     total energy              =   -6056.41931925 Ry
     estimated scf accuracy    <       0.02610434 Ry

     total magnetization       =    61.09 Bohr mag/cell
     absolute magnetization    =    68.42 Bohr mag/cell

     iteration # 19     ecut=    40.00 Ry     beta= 0.70
     Davidson diagonalization with overlap
     ethr =  7.79E-06,  avg # of iterations =  2.7

     negative rho (up, down):  2.013E-02 1.863E-02

     total cpu time spent up to now is      320.1 secs

     total energy              =   -6056.41954393 Ry
     estimated scf accuracy    <       0.01679249 Ry

     total magnetization       =    61.09 Bohr mag/cell
     absolute magnetization    =    68.46 Bohr mag/cell

     iteration # 20     ecut=    40.00 Ry     beta= 0.70
     Davidson diagonalization with overlap
     ethr =  5.01E-06,  avg # of iterations =  2.7

     negative rho (up, down):  1.676E-02 1.560E-02

     total cpu time spent up to now is      333.1 secs

     total energy              =   -6056.41923416 Ry
     estimated scf accuracy    <       0.01513966 Ry

     total magnetization       =    61.09 Bohr mag/cell
     absolute magnetization    =    68.46 Bohr mag/cell

     iteration # 21     ecut=    40.00 Ry     beta= 0.70
     Davidson diagonalization with overlap
     ethr =  4.52E-06,  avg # of iterations =  1.3

     negative rho (up, down):  1.128E-02 1.035E-02

     total cpu time spent up to now is      349.5 secs

     total energy              =   -6056.41893901 Ry
     estimated scf accuracy    <       0.00870222 Ry

     total magnetization       =    61.09 Bohr mag/cell
     absolute magnetization    =    68.47 Bohr mag/cell

     iteration # 22     ecut=    40.00 Ry     beta= 0.70
     Davidson diagonalization with overlap
     ethr =  2.60E-06,  avg # of iterations =  2.4

     negative rho (up, down):  8.476E-03 8.040E-03

     total cpu time spent up to now is      363.2 secs

     total energy              =   -6056.41909456 Ry
     estimated scf accuracy    <       0.01056986 Ry

     total magnetization       =    61.10 Bohr mag/cell
     absolute magnetization    =    68.48 Bohr mag/cell

     iteration # 23     ecut=    40.00 Ry     beta= 0.70
     Davidson diagonalization with overlap
     ethr =  2.60E-06,  avg # of iterations =  1.8

     negative rho (up, down):  8.262E-03 7.838E-03

     total cpu time spent up to now is      380.2 secs

     total energy              =   -6056.41953561 Ry
     estimated scf accuracy    <       0.00219436 Ry

     total magnetization       =    61.09 Bohr mag/cell
     absolute magnetization    =    68.50 Bohr mag/cell

     iteration # 24     ecut=    40.00 Ry     beta= 0.70
     Davidson diagonalization with overlap
     ethr =  6.55E-07,  avg # of iterations =  2.9

     negative rho (up, down):  5.928E-03 5.323E-03

     total cpu time spent up to now is      393.4 secs

     total energy              =   -6056.41973372 Ry
     estimated scf accuracy    <       0.00148825 Ry

     total magnetization       =    61.09 Bohr mag/cell
     absolute magnetization    =    68.50 Bohr mag/cell

     iteration # 25     ecut=    40.00 Ry     beta= 0.70
     Davidson diagonalization with overlap
     ethr =  4.44E-07,  avg # of iterations =  1.8

     negative rho (up, down):  5.113E-03 4.532E-03

     total cpu time spent up to now is      410.2 secs

     total energy              =   -6056.41974763 Ry
     estimated scf accuracy    <       0.00056713 Ry

     total magnetization       =    61.09 Bohr mag/cell
     absolute magnetization    =    68.49 Bohr mag/cell

     iteration # 26     ecut=    40.00 Ry     beta= 0.70
     Davidson diagonalization with overlap
     ethr =  1.69E-07,  avg # of iterations =  2.8

     negative rho (up, down):  3.268E-03 2.459E-03

     total cpu time spent up to now is      424.4 secs

     total energy              =   -6056.41978598 Ry
     estimated scf accuracy    <       0.00047744 Ry

     total magnetization       =    61.09 Bohr mag/cell
     absolute magnetization    =    68.50 Bohr mag/cell

     iteration # 27     ecut=    40.00 Ry     beta= 0.70
     Davidson diagonalization with overlap
     ethr =  1.43E-07,  avg # of iterations =  1.9

     negative rho (up, down):  3.236E-03 2.251E-03

     total cpu time spent up to now is      441.4 secs

     total energy              =   -6056.41986524 Ry
     estimated scf accuracy    <       0.00067663 Ry

     total magnetization       =    61.09 Bohr mag/cell
     absolute magnetization    =    68.49 Bohr mag/cell

     iteration # 28     ecut=    40.00 Ry     beta= 0.70
     Davidson diagonalization with overlap
     ethr =  1.43E-07,  avg # of iterations =  1.3

     negative rho (up, down):  2.733E-03 1.828E-03

     total cpu time spent up to now is      453.2 secs

     total energy              =   -6056.41984568 Ry
     estimated scf accuracy    <       0.00011902 Ry

     total magnetization       =    61.09 Bohr mag/cell
     absolute magnetization    =    68.50 Bohr mag/cell

     iteration # 29     ecut=    40.00 Ry     beta= 0.70
     Davidson diagonalization with overlap
     ethr =  3.55E-08,  avg # of iterations =  4.0

     negative rho (up, down):  2.811E-03 1.763E-03

     total cpu time spent up to now is      473.5 secs

     total energy              =   -6056.41988924 Ry
     estimated scf accuracy    <       0.00066135 Ry

     total magnetization       =    61.09 Bohr mag/cell
     absolute magnetization    =    68.49 Bohr mag/cell

     iteration # 30     ecut=    40.00 Ry     beta= 0.70
     Davidson diagonalization with overlap
     ethr =  3.55E-08,  avg # of iterations =  1.8

     negative rho (up, down):  2.737E-03 1.660E-03

     total cpu time spent up to now is      487.1 secs

     total energy              =   -6056.41991409 Ry
     estimated scf accuracy    <       0.00003610 Ry

     total magnetization       =    61.09 Bohr mag/cell
     absolute magnetization    =    68.49 Bohr mag/cell

     iteration # 31     ecut=    40.00 Ry     beta= 0.70
     Davidson diagonalization with overlap
     ethr =  1.08E-08,  avg # of iterations =  4.0

     negative rho (up, down):  2.543E-03 1.431E-03

     total cpu time spent up to now is      506.0 secs

     total energy              =   -6056.41992350 Ry
     estimated scf accuracy    <       0.00000800 Ry

     total magnetization       =    61.09 Bohr mag/cell
     absolute magnetization    =    68.49 Bohr mag/cell

     iteration # 32     ecut=    40.00 Ry     beta= 0.70
     Davidson diagonalization with overlap
     ethr =  2.39E-09,  avg # of iterations =  7.6

     negative rho (up, down):  2.536E-03 1.423E-03

     total cpu time spent up to now is      531.1 secs

     total energy              =   -6056.41992482 Ry
     estimated scf accuracy    <       0.00001713 Ry

     total magnetization       =    61.09 Bohr mag/cell
     absolute magnetization    =    68.49 Bohr mag/cell

     iteration # 33     ecut=    40.00 Ry     beta= 0.70
     Davidson diagonalization with overlap
     ethr =  2.39E-09,  avg # of iterations =  1.5

     negative rho (up, down):  2.501E-03 1.385E-03

     total cpu time spent up to now is      544.2 secs

     total energy              =   -6056.41992624 Ry
     estimated scf accuracy    <       0.00001122 Ry

     total magnetization       =    61.09 Bohr mag/cell
     absolute magnetization    =    68.49 Bohr mag/cell

     iteration # 34     ecut=    40.00 Ry     beta= 0.70
     Davidson diagonalization with overlap
     ethr =  2.39E-09,  avg # of iterations =  1.3

     negative rho (up, down):  2.544E-03 1.427E-03

     total cpu time spent up to now is      560.8 secs

     total energy              =   -6056.41992779 Ry
     estimated scf accuracy    <       0.00001329 Ry

     total magnetization       =    61.09 Bohr mag/cell
     absolute magnetization    =    68.49 Bohr mag/cell

     iteration # 35     ecut=    40.00 Ry     beta= 0.70
     Davidson diagonalization with overlap
     ethr =  2.39E-09,  avg # of iterations =  1.2

     negative rho (up, down):  2.523E-03 1.414E-03

     total cpu time spent up to now is      572.6 secs

     total energy              =   -6056.41992915 Ry
     estimated scf accuracy    <       0.00000559 Ry

     total magnetization       =    61.09 Bohr mag/cell
     absolute magnetization    =    68.49 Bohr mag/cell

     iteration # 36     ecut=    40.00 Ry     beta= 0.70
     Davidson diagonalization with overlap
     ethr =  1.67E-09,  avg # of iterations =  1.4

     negative rho (up, down):  2.511E-03 1.411E-03

     total cpu time spent up to now is      589.3 secs

     total energy              =   -6056.41992977 Ry
     estimated scf accuracy    <       0.00000500 Ry

     total magnetization       =    61.09 Bohr mag/cell
     absolute magnetization    =    68.49 Bohr mag/cell

     iteration # 37     ecut=    40.00 Ry     beta= 0.70
     Davidson diagonalization with overlap
     ethr =  1.49E-09,  avg # of iterations =  1.2

     negative rho (up, down):  2.514E-03 1.422E-03

     total cpu time spent up to now is      602.0 secs

     total energy              =   -6056.41992978 Ry
     estimated scf accuracy    <       0.00000476 Ry

     total magnetization       =    61.09 Bohr mag/cell
     absolute magnetization    =    68.49 Bohr mag/cell

     iteration # 38     ecut=    40.00 Ry     beta= 0.70
     Davidson diagonalization with overlap
     ethr =  1.42E-09,  avg # of iterations =  1.3

     negative rho (up, down):  2.498E-03 1.402E-03

     total cpu time spent up to now is      618.5 secs

     total energy              =   -6056.41992985 Ry
     estimated scf accuracy    <       0.00000201 Ry

     total magnetization       =    61.09 Bohr mag/cell
     absolute magnetization    =    68.49 Bohr mag/cell

     iteration # 39     ecut=    40.00 Ry     beta= 0.70
     Davidson diagonalization with overlap
     ethr =  6.01E-10,  avg # of iterations =  1.3

     negative rho (up, down):  2.488E-03 1.401E-03

     total cpu time spent up to now is      630.2 secs

     total energy              =   -6056.41992979 Ry
     estimated scf accuracy    <       0.00000284 Ry

     total magnetization       =    61.09 Bohr mag/cell
     absolute magnetization    =    68.49 Bohr mag/cell

     iteration # 40     ecut=    40.00 Ry     beta= 0.70
     Davidson diagonalization with overlap
     ethr =  6.01E-10,  avg # of iterations =  1.3

     negative rho (up, down):  2.476E-03 1.388E-03

     total cpu time spent up to now is      644.9 secs

     total energy              =   -6056.41992989 Ry
     estimated scf accuracy    <       0.00000205 Ry

     total magnetization       =    61.09 Bohr mag/cell
     absolute magnetization    =    68.49 Bohr mag/cell

     iteration # 41     ecut=    40.00 Ry     beta= 0.70
     Davidson diagonalization with overlap
     ethr =  6.01E-10,  avg # of iterations =  1.1

     negative rho (up, down):  2.444E-03 1.365E-03

     total cpu time spent up to now is      658.0 secs

     total energy              =   -6056.41992971 Ry
     estimated scf accuracy    <       0.00000143 Ry

     total magnetization       =    61.09 Bohr mag/cell
     absolute magnetization    =    68.49 Bohr mag/cell

     iteration # 42     ecut=    40.00 Ry     beta= 0.70
     Davidson diagonalization with overlap
     ethr =  4.28E-10,  avg # of iterations =  2.1

     negative rho (up, down):  2.232E-03 1.138E-03

     Magnetic moment per site  (integrated on atomic sphere of radius R)
     atom   1 (R=0.094)  charge=  5.8556  magn=  1.7021
     atom   2 (R=0.094)  charge=  5.8569  magn=  1.6905
     atom   3 (R=0.094)  charge=  5.8561  magn=  1.6946
     atom   4 (R=0.094)  charge=  5.8560  magn=  1.6979
     atom   5 (R=0.094)  charge=  5.8559  magn=  1.6962
     atom   6 (R=0.094)  charge=  5.8559  magn=  1.7018
     atom   7 (R=0.094)  charge=  5.8557  magn=  1.7044
     atom   8 (R=0.094)  charge=  5.8558  magn=  1.6992
     atom   9 (R=0.094)  charge=  5.8560  magn=  1.6980
     atom  10 (R=0.094)  charge=  5.8538  magn=  1.6253
     atom  11 (R=0.094)  charge=  5.8544  magn=  1.6270
     atom  12 (R=0.094)  charge=  5.8539  magn=  1.6326
     atom  13 (R=0.094)  charge=  5.8540  magn=  1.6292
     atom  14 (R=0.094)  charge=  5.8552  magn=  1.6311
     atom  15 (R=0.094)  charge=  5.8541  magn=  1.6337
     atom  16 (R=0.094)  charge=  5.8543  magn=  1.6280
     atom  17 (R=0.094)  charge=  5.8544  magn=  1.6336
     atom  18 (R=0.094)  charge=  5.8544  magn=  1.6306
     atom  19 (R=0.094)  charge=  5.8528  magn=  1.6389
     atom  20 (R=0.094)  charge=  5.8511  magn=  1.6430
     atom  21 (R=0.094)  charge=  5.8529  magn=  1.6275
     atom  22 (R=0.094)  charge=  5.8535  magn=  1.6435
     atom  23 (R=0.094)  charge=  5.8523  magn=  1.6234
     atom  24 (R=0.094)  charge=  5.8534  magn=  1.6400
     atom  25 (R=0.094)  charge=  5.8528  magn=  1.6416
     atom  26 (R=0.094)  charge=  5.8515  magn=  1.6377
     atom  27 (R=0.094)  charge=  5.8536  magn=  1.6390
     atom  28 (R=0.094)  charge=  5.8566  magn=  1.7041
     atom  29 (R=0.094)  charge=  5.8722  magn=  1.4043
     atom  30 (R=0.094)  charge=  5.8597  magn=  1.7014
     atom  31 (R=0.094)  charge=  5.8635  magn=  1.6386
     atom  32 (R=0.094)  charge=  5.8769  magn=  1.0758
     atom  33 (R=0.094)  charge=  5.8564  magn=  1.7028
     atom  34 (R=0.094)  charge=  5.8572  magn=  1.7127
     atom  35 (R=0.094)  charge=  5.8569  magn=  1.6885
     atom  36 (R=0.094)  charge=  5.8551  magn=  1.7057
     atom  37 (R=0.067)  charge=  1.1119  magn= -0.0176
     atom  38 (R=0.067)  charge=  3.0354  magn= -0.0095
     atom  39 (R=0.068)  charge=  0.5501  magn=  0.0024

     total cpu time spent up to now is      671.4 secs

     End of self-consistent calculation

 ------ SPIN UP ------------


          k = 0.0000 0.0000 0.0000 ( 36693 PWs)   bands (ev):

   -21.8272 -10.6881  -7.5836  -6.9312  -6.3360  -5.7933  -5.4050  -4.7362
    -4.7063  -4.7050  -4.7025  -4.6886  -4.6844  -4.6483  -4.3394  -4.1707
    -4.1686  -4.1664  -4.1439  -4.1388  -4.1031  -3.6505  -3.6475  -3.6448
    -3.6367  -3.6288  -3.5937  -3.5233  -3.5141  -3.5120  -3.5095  -3.5070
    -3.4725  -3.4431  -3.4413  -3.1341  -3.1294  -3.1244  -3.1232  -3.1079
    -3.0639  -3.0612  -3.0556  -3.0540  -3.0500  -3.0477  -3.0433  -2.8990
    -2.8977  -2.8718  -2.8343  -2.8249  -2.8182  -2.8161  -2.8104  -2.7958
    -2.7864  -2.7862  -2.7836  -2.7003  -2.6883  -2.6832  -2.6767  -2.6717
    -2.6317  -2.4461  -2.1556  -2.1526  -2.1455  -2.1369  -2.1320  -2.0395
    -2.0222  -2.0113  -1.9960  -1.9861  -1.9794  -1.9696  -1.9691  -1.9630
    -1.9419  -1.9108  -1.9075  -1.8652  -1.8563  -1.8534  -1.8386  -1.8323
    -1.8292  -1.8224  -1.8172  -1.8165  -1.8095  -1.7903  -1.7867  -1.7823
    -1.7781  -1.7748  -1.7739  -1.7733  -1.7693  -1.7651  -1.7645  -1.7631
    -1.7599  -1.7338  -1.7127  -1.6868  -1.6794  -1.6104  -1.6065  -1.5434
    -1.3970  -1.3228  -1.3148  -1.3135  -1.3126  -1.3102  -1.3040  -1.2863
    -1.2812  -1.2782  -1.2484  -1.2376  -1.2245  -1.2140  -1.1052  -1.1014
    -1.0704  -1.0670  -0.9772  -0.9237  -0.9079  -0.8956  -0.8934  -0.8771
    -0.8326  -0.8244  -0.8192  -0.8146  -0.8100  -0.7905  -0.7046  -0.6992
    -0.6033  -0.5770  -0.5749  -0.5721  -0.5541  -0.5390  -0.5163  -0.5150
    -0.5105  -0.5088  -0.5039  -0.4970  -0.4912  -0.4896  -0.4885  -0.4842
    -0.4798  -0.4757  -0.4594  -0.4499  -0.4390  -0.4288  -0.4272  -0.4204
    -0.4129  -0.4008  -0.3900  -0.3841  -0.3786  -0.3728  -0.3547  -0.3526
    -0.3492  -0.3442  -0.3325  -0.3168  -0.2969  -0.2818  -0.2772  -0.2719
    -0.2687  -0.2655  -0.2576  -0.2523  -0.2409  -0.2307  -0.1938  -0.1924
    -0.1802  -0.1797  -0.1171  -0.1138  -0.1106  -0.0991  -0.0979  -0.0773
     0.3583   1.0675

          k = 0.0000 0.2309 0.0000 ( 36641 PWs)   bands (ev):

   -21.8272 -10.6865  -7.4396  -6.9244  -6.2452  -5.7683  -5.4805  -5.3557
    -4.9499  -4.9435  -4.5855  -4.4545  -4.3628  -4.3581  -4.2928  -4.2468
    -4.2006  -4.1646  -4.0938  -4.0389  -4.0233  -3.7699  -3.6582  -3.6475
    -3.5724  -3.5521  -3.5307  -3.5261  -3.5226  -3.5162  -3.4963  -3.4745
    -3.4510  -3.4075  -3.3970  -3.3719  -3.3692  -3.1812  -3.1468  -3.1415
    -3.1108  -3.0871  -3.0837  -3.0742  -3.0043  -2.9911  -2.9537  -2.9296
    -2.9186  -2.9110  -2.8929  -2.8781  -2.7963  -2.7788  -2.7580  -2.7274
    -2.7130  -2.6900  -2.6759  -2.6574  -2.6497  -2.6292  -2.6096  -2.6058
    -2.5478  -2.4429  -2.2715  -2.2583  -2.2327  -2.2196  -2.1811  -2.1191
    -2.1119  -2.1042  -2.0943  -2.0838  -2.0763  -2.0554  -2.0289  -1.9984
    -1.9737  -1.9686  -1.9495  -1.9094  -1.9042  -1.9026  -1.8968  -1.8741
    -1.8708  -1.8636  -1.8603  -1.8546  -1.8499  -1.8308  -1.7781  -1.7690
    -1.7570  -1.7314  -1.7010  -1.6787  -1.6723  -1.6674  -1.6543  -1.6482
    -1.6411  -1.6248  -1.6202  -1.6157  -1.6053  -1.5939  -1.5688  -1.5637
    -1.5548  -1.5405  -1.5275  -1.4774  -1.4536  -1.4142  -1.3423  -1.3395
    -1.3300  -1.3239  -1.3139  -1.3108  -1.3078  -1.2990  -1.2003  -1.1745
    -1.1474  -1.1258  -1.0536  -1.0494  -1.0274  -0.9874  -0.9602  -0.9494
    -0.8908  -0.8845  -0.8574  -0.8372  -0.8185  -0.8075  -0.7739  -0.7675
    -0.7526  -0.7299  -0.7179  -0.6816  -0.6791  -0.6665  -0.6599  -0.6493
    -0.6251  -0.5825  -0.5754  -0.5738  -0.5481  -0.5304  -0.5134  -0.5111
    -0.5033  -0.4955  -0.4908  -0.4801  -0.4606  -0.4507  -0.4418  -0.4276
    -0.3811  -0.3716  -0.3508  -0.3405  -0.3180  -0.3117  -0.2796  -0.2606
    -0.2548  -0.2480  -0.2402  -0.2312  -0.2108  -0.2089  -0.1976  -0.1588
    -0.1446  -0.1142  -0.1081  -0.1009  -0.0814  -0.0792  -0.0370  -0.0301
    -0.0113   0.0258   0.2322   0.2636   0.3369   0.4337   0.5088   0.5534
     0.5820   0.7802

          k = 0.0000 0.4619 0.0000 ( 36606 PWs)   bands (ev):

   -21.8272 -10.6838  -7.0670  -6.8671  -6.3100  -6.0497  -5.5861  -5.3739
    -5.0930  -5.0736  -4.9757  -4.2621  -4.1994  -4.1900  -4.1517  -4.1180
    -4.0024  -3.9985  -3.9596  -3.8688  -3.8642  -3.8583  -3.7682  -3.6885
    -3.6811  -3.6710  -3.6675  -3.6204  -3.5684  -3.5603  -3.5498  -3.4028
    -3.3982  -3.3845  -3.3697  -3.3511  -3.3442  -3.2470  -3.2361  -3.2311
    -3.2298  -3.2198  -3.1065  -3.0465  -3.0068  -2.9481  -2.9136  -2.8983
    -2.8778  -2.8573  -2.8331  -2.8307  -2.8216  -2.7967  -2.7431  -2.7343
    -2.7130  -2.6724  -2.6661  -2.5675  -2.5232  -2.5178  -2.5065  -2.4628
    -2.4157  -2.3983  -2.3876  -2.3718  -2.3332  -2.2796  -2.2422  -2.2367
    -2.2298  -2.2262  -2.2001  -2.1979  -2.1863  -2.1790  -2.1580  -2.1166
    -2.0967  -2.0792  -2.0650  -2.0373  -2.0174  -2.0005  -1.9638  -1.9185
    -1.9057  -1.8990  -1.8756  -1.8626  -1.8257  -1.8015  -1.7967  -1.7913
    -1.7753  -1.7580  -1.7518  -1.7301  -1.7268  -1.7082  -1.6893  -1.6833
    -1.6662  -1.6498  -1.6062  -1.5718  -1.5433  -1.5257  -1.4994  -1.4889
    -1.4749  -1.4571  -1.4381  -1.3912  -1.3801  -1.3708  -1.3576  -1.3534
    -1.3446  -1.3421  -1.3354  -1.3293  -1.3209  -1.3164  -1.3039  -1.2856
    -1.2678  -1.2548  -1.1974  -1.1520  -1.1290  -1.1163  -1.1054  -1.0769
    -1.0650  -1.0206  -0.9982  -0.9760  -0.9695  -0.9250  -0.9025  -0.8572
    -0.8477  -0.8172  -0.7956  -0.7890  -0.7616  -0.7463  -0.7129  -0.6878
    -0.6509  -0.6001  -0.5931  -0.5748  -0.5709  -0.5662  -0.5580  -0.5535
    -0.5389  -0.5258  -0.4506  -0.4231  -0.4163  -0.4099  -0.3961  -0.3921
    -0.3812  -0.3568  -0.3559  -0.3459  -0.3279  -0.3090  -0.2450  -0.2304
    -0.2219  -0.2143  -0.1895  -0.1510  -0.1249  -0.1095  -0.0871  -0.0558
    -0.0370  -0.0087  -0.0047   0.0159   0.0177   0.0207   0.0360   0.0595
     0.1296   0.1513   0.3035   0.8454   1.0288   1.1608   1.2478   1.3244
     1.4493   1.6114

          k = 0.2000-0.1155 0.0000 ( 36641 PWs)   bands (ev):

   -21.8272 -10.6865  -7.4385  -6.9229  -6.2501  -5.7835  -5.4645  -5.3539
    -4.9509  -4.9471  -4.5864  -4.4386  -4.3618  -4.3600  -4.2917  -4.2389
    -4.1983  -4.1850  -4.0844  -4.0380  -4.0330  -3.7667  -3.6567  -3.6496
    -3.5762  -3.5470  -3.5319  -3.5259  -3.5234  -3.5065  -3.4959  -3.4822
    -3.4460  -3.4061  -3.4001  -3.3709  -3.3694  -3.1917  -3.1456  -3.1416
    -3.0905  -3.0872  -3.0832  -3.0775  -3.0199  -2.9689  -2.9552  -2.9355
    -2.9186  -2.9147  -2.8873  -2.8768  -2.7863  -2.7810  -2.7540  -2.7250
    -2.7128  -2.6897  -2.6807  -2.6677  -2.6583  -2.6343  -2.6091  -2.6052
    -2.5449  -2.4411  -2.2679  -2.2556  -2.2431  -2.2292  -2.1834  -2.1193
    -2.1097  -2.1046  -2.0920  -2.0809  -2.0752  -2.0611  -2.0462  -1.9960
    -1.9739  -1.9678  -1.9480  -1.9112  -1.9063  -1.9032  -1.8921  -1.8788
    -1.8680  -1.8618  -1.8581  -1.8545  -1.8478  -1.8233  -1.7934  -1.7713
    -1.7552  -1.7377  -1.6900  -1.6816  -1.6704  -1.6623  -1.6558  -1.6504
    -1.6361  -1.6250  -1.6188  -1.6182  -1.6104  -1.5935  -1.5733  -1.5701
    -1.5490  -1.5451  -1.5311  -1.4641  -1.4473  -1.4086  -1.3433  -1.3406
    -1.3320  -1.3247  -1.3161  -1.3089  -1.3047  -1.2952  -1.2306  -1.1660
    -1.1491  -1.1264  -1.0527  -1.0490  -1.0278  -0.9831  -0.9596  -0.9515
    -0.9192  -0.8646  -0.8498  -0.8296  -0.8176  -0.8045  -0.7710  -0.7650
    -0.7486  -0.7360  -0.7199  -0.6819  -0.6792  -0.6662  -0.6574  -0.6448
    -0.6231  -0.5841  -0.5785  -0.5681  -0.5653  -0.5413  -0.5145  -0.5121
    -0.5028  -0.4944  -0.4896  -0.4803  -0.4608  -0.4532  -0.4366  -0.4185
    -0.3862  -0.3773  -0.3620  -0.3378  -0.3176  -0.3097  -0.2808  -0.2583
    -0.2533  -0.2480  -0.2398  -0.2327  -0.2145  -0.2093  -0.1967  -0.1624
    -0.1488  -0.1148  -0.1073  -0.1003  -0.0816  -0.0800  -0.0452  -0.0295
     0.0039   0.0264   0.2499   0.2645   0.3570   0.4599   0.5096   0.5419
     0.5601   0.8139

          k = 0.2000 0.1155 0.0000 ( 36641 PWs)   bands (ev):

   -21.8272 -10.6864  -7.4405  -6.9257  -6.2428  -5.7622  -5.4570  -5.3894
    -4.9473  -4.9396  -4.5873  -4.4603  -4.3626  -4.3574  -4.2938  -4.2471
    -4.1972  -4.1621  -4.0972  -4.0364  -4.0232  -3.7706  -3.6562  -3.6496
    -3.5712  -3.5554  -3.5295  -3.5260  -3.5221  -3.5138  -3.4967  -3.4759
    -3.4486  -3.4062  -3.3984  -3.3717  -3.3671  -3.1799  -3.1474  -3.1427
    -3.1102  -3.0868  -3.0841  -3.0801  -3.0099  -2.9812  -2.9571  -2.9309
    -2.9157  -2.9099  -2.8898  -2.8795  -2.8009  -2.7835  -2.7673  -2.7259
    -2.7129  -2.6889  -2.6773  -2.6566  -2.6417  -2.6270  -2.6106  -2.6010
    -2.5565  -2.4408  -2.2738  -2.2631  -2.2373  -2.2153  -2.1799  -2.1163
    -2.1109  -2.1036  -2.0958  -2.0881  -2.0762  -2.0518  -2.0292  -1.9936
    -1.9824  -1.9655  -1.9440  -1.9123  -1.9045  -1.9008  -1.8957  -1.8749
    -1.8711  -1.8652  -1.8593  -1.8566  -1.8441  -1.8190  -1.7848  -1.7775
    -1.7561  -1.7283  -1.6903  -1.6779  -1.6700  -1.6649  -1.6503  -1.6469
    -1.6429  -1.6302  -1.6229  -1.6150  -1.6083  -1.5952  -1.5692  -1.5643
    -1.5513  -1.5445  -1.5218  -1.4829  -1.4490  -1.4237  -1.3412  -1.3377
    -1.3336  -1.3259  -1.3130  -1.3114  -1.3060  -1.2975  -1.1873  -1.1619
    -1.1549  -1.1232  -1.0552  -1.0500  -1.0240  -0.9897  -0.9616  -0.9526
    -0.8959  -0.8736  -0.8593  -0.8331  -0.8240  -0.8095  -0.7724  -0.7704
    -0.7480  -0.7319  -0.7175  -0.6798  -0.6757  -0.6727  -0.6647  -0.6485
    -0.6265  -0.5844  -0.5753  -0.5706  -0.5489  -0.5242  -0.5149  -0.5096
    -0.4998  -0.4955  -0.4863  -0.4817  -0.4644  -0.4512  -0.4437  -0.4362
    -0.3815  -0.3669  -0.3507  -0.3412  -0.3190  -0.3156  -0.2771  -0.2584
    -0.2552  -0.2468  -0.2405  -0.2323  -0.2104  -0.2097  -0.1977  -0.1585
    -0.1452  -0.1177  -0.1096  -0.1064  -0.0818  -0.0797  -0.0349  -0.0324
     0.0031   0.0212   0.2335   0.2641   0.3131   0.4337   0.5057   0.5435
     0.5957   0.7653

          k = 0.2000 0.3464 0.0000 ( 36608 PWs)   bands (ev):

   -21.8272 -10.6843  -7.1772  -6.8971  -6.1296  -5.8095  -5.7759  -5.5743
    -5.3867  -4.6638  -4.6200  -4.3765  -4.3677  -4.3167  -4.1469  -4.1416
    -4.0496  -4.0475  -4.0399  -3.9147  -3.8871  -3.7705  -3.7614  -3.7003
    -3.6535  -3.5658  -3.5621  -3.5341  -3.5135  -3.5062  -3.5006  -3.4774
    -3.4578  -3.4413  -3.4223  -3.3925  -3.3475  -3.3165  -3.3041  -3.1825
    -3.1733  -3.0875  -3.0753  -3.0490  -3.0335  -3.0281  -2.9502  -2.9275
    -2.8816  -2.8521  -2.8477  -2.8419  -2.7936  -2.7839  -2.7655  -2.7556
    -2.7401  -2.6490  -2.6245  -2.5662  -2.5561  -2.5413  -2.5344  -2.5001
    -2.4970  -2.3854  -2.3691  -2.2984  -2.2899  -2.2545  -2.2395  -2.2176
    -2.2029  -2.1881  -2.1832  -2.1623  -2.1540  -2.1385  -2.1313  -2.1141
    -2.0933  -2.0874  -2.0261  -1.9952  -1.9425  -1.9371  -1.9192  -1.8995
    -1.8833  -1.8693  -1.8527  -1.8250  -1.8184  -1.7877  -1.7779  -1.7729
    -1.7636  -1.7597  -1.7437  -1.7309  -1.7245  -1.7101  -1.6991  -1.6811
    -1.6670  -1.6406  -1.6250  -1.6030  -1.5882  -1.5809  -1.5462  -1.5403
    -1.5195  -1.5103  -1.5018  -1.4729  -1.4389  -1.4317  -1.4078  -1.3715
    -1.3686  -1.3622  -1.3554  -1.3339  -1.3223  -1.3177  -1.2980  -1.2654
    -1.2132  -1.1974  -1.1926  -1.1458  -1.0656  -1.0645  -1.0500  -0.9663
    -0.9377  -0.9246  -0.9182  -0.9085  -0.8981  -0.8915  -0.8745  -0.8687
    -0.8413  -0.8270  -0.8049  -0.7671  -0.7529  -0.7488  -0.7234  -0.7171
    -0.6957  -0.6818  -0.6515  -0.6440  -0.6369  -0.6256  -0.5441  -0.4770
    -0.4733  -0.4494  -0.4367  -0.4331  -0.4148  -0.4014  -0.3931  -0.3860
    -0.3760  -0.3418  -0.3103  -0.2918  -0.2795  -0.2701  -0.2301  -0.2238
    -0.2067  -0.2045  -0.1951  -0.1753  -0.1644  -0.1589  -0.1569  -0.1304
    -0.1280  -0.0460  -0.0339  -0.0295  -0.0129   0.0166   0.0209   0.0451
     0.3533   0.3564   0.4175   0.5359   0.6612   0.7016   1.0131   1.1865
     1.2557   1.3940

          k = 0.2000-0.5774 0.0000 ( 36660 PWs)   bands (ev):

   -21.8272 -10.6830  -6.9808  -6.5713  -6.5306  -6.0548  -5.8498  -5.4797
    -5.2255  -5.1225  -4.6863  -4.3544  -4.1083  -4.0663  -3.9712  -3.9327
    -3.9251  -3.9110  -3.9029  -3.8767  -3.8273  -3.8194  -3.8160  -3.8080
    -3.7337  -3.7075  -3.6664  -3.6600  -3.6346  -3.6291  -3.5151  -3.4931
    -3.4800  -3.4715  -3.4529  -3.4128  -3.3164  -3.3085  -3.2082  -3.1895
    -3.1826  -3.1171  -3.0962  -3.0823  -3.0548  -2.9900  -2.9698  -2.9638
    -2.9008  -2.8946  -2.8380  -2.7843  -2.7603  -2.7432  -2.7105  -2.6873
    -2.6379  -2.6047  -2.5934  -2.5821  -2.5764  -2.5394  -2.5353  -2.4671
    -2.4156  -2.3898  -2.3771  -2.3668  -2.3456  -2.3038  -2.2783  -2.2478
    -2.2224  -2.1981  -2.1918  -2.1877  -2.1784  -2.1599  -2.1258  -2.1124
    -2.1055  -2.0904  -2.0815  -2.0582  -2.0516  -2.0212  -1.9821  -1.9652
    -1.9506  -1.9439  -1.8928  -1.8688  -1.8323  -1.8175  -1.8039  -1.7838
    -1.7764  -1.7602  -1.7554  -1.7485  -1.7446  -1.7174  -1.6977  -1.6909
    -1.6305  -1.6173  -1.6069  -1.6024  -1.5886  -1.5818  -1.5770  -1.5673
    -1.5549  -1.5505  -1.5324  -1.5040  -1.4885  -1.4535  -1.4470  -1.4227
    -1.3672  -1.3575  -1.3209  -1.3035  -1.3003  -1.2882  -1.2743  -1.2279
    -1.2035  -1.1950  -1.1820  -1.1273  -1.0870  -1.0647  -1.0525  -1.0286
    -1.0196  -1.0044  -0.9879  -0.9753  -0.9470  -0.9332  -0.9044  -0.8904
    -0.8532  -0.8441  -0.8332  -0.8172  -0.7984  -0.7772  -0.7364  -0.7328
    -0.7158  -0.7079  -0.6916  -0.6744  -0.6656  -0.6348  -0.6058  -0.5217
    -0.4399  -0.4314  -0.4251  -0.4204  -0.4094  -0.4056  -0.3966  -0.3739
    -0.3480  -0.3432  -0.3329  -0.3213  -0.2736  -0.2561  -0.2038  -0.2012
    -0.1874  -0.1759  -0.1575  -0.1456  -0.1138  -0.0987  -0.0923  -0.0817
    -0.0783  -0.0046  -0.0016   0.0038   0.0201   0.0259   0.0519   0.0844
     0.2150   0.3933   0.5412   0.7299   1.1524   1.2956   1.4239   1.6466
     1.7787   1.8238

          k = 0.2000-0.3464 0.0000 ( 36608 PWs)   bands (ev):

   -21.8272 -10.6843  -7.1650  -6.9053  -6.1378  -5.8355  -5.7782  -5.5733
    -5.3549  -4.6846  -4.6000  -4.3714  -4.3613  -4.3192  -4.1450  -4.1426
    -4.0549  -4.0449  -4.0234  -3.9137  -3.9024  -3.7688  -3.7599  -3.7051
    -3.6545  -3.5703  -3.5636  -3.5361  -3.5116  -3.5046  -3.5029  -3.4694
    -3.4584  -3.4406  -3.4276  -3.3873  -3.3491  -3.3086  -3.2978  -3.1895
    -3.1761  -3.0862  -3.0767  -3.0536  -3.0390  -3.0225  -2.9368  -2.8861
    -2.8732  -2.8681  -2.8476  -2.8371  -2.7972  -2.7853  -2.7638  -2.7551
    -2.7383  -2.6405  -2.6205  -2.5903  -2.5638  -2.5461  -2.5191  -2.5051
    -2.4906  -2.4223  -2.3717  -2.3046  -2.2886  -2.2476  -2.2340  -2.2133
    -2.2014  -2.1957  -2.1856  -2.1594  -2.1500  -2.1411  -2.1297  -2.1144
    -2.1016  -2.0961  -2.0229  -2.0049  -1.9419  -1.9375  -1.9123  -1.9000
    -1.8893  -1.8750  -1.8543  -1.8221  -1.8185  -1.7918  -1.7819  -1.7765
    -1.7662  -1.7549  -1.7438  -1.7341  -1.7225  -1.7176  -1.6967  -1.6822
    -1.6695  -1.6561  -1.6349  -1.6128  -1.5915  -1.5791  -1.5445  -1.5412
    -1.5295  -1.5087  -1.5031  -1.4637  -1.4390  -1.4282  -1.4117  -1.3837
    -1.3642  -1.3597  -1.3571  -1.3348  -1.3267  -1.3127  -1.2971  -1.2532
    -1.2201  -1.1916  -1.1856  -1.1475  -1.0748  -1.0580  -1.0515  -0.9523
    -0.9356  -0.9255  -0.9172  -0.9056  -0.8957  -0.8914  -0.8743  -0.8506
    -0.8419  -0.8296  -0.8026  -0.7722  -0.7591  -0.7500  -0.7310  -0.7134
    -0.6971  -0.6720  -0.6575  -0.6403  -0.6317  -0.6251  -0.5339  -0.4852
    -0.4727  -0.4489  -0.4422  -0.4331  -0.4154  -0.4015  -0.3946  -0.3872
    -0.3746  -0.3480  -0.2965  -0.2944  -0.2768  -0.2745  -0.2351  -0.2216
    -0.2050  -0.2038  -0.1985  -0.1740  -0.1639  -0.1611  -0.1525  -0.1383
    -0.1268  -0.0525  -0.0337  -0.0280  -0.0126   0.0191   0.0256   0.0520
     0.3236   0.3582   0.4287   0.5493   0.6166   0.7175   1.1348   1.2084
     1.2455   1.4355

          k = 0.4000-0.2309 0.0000 ( 36606 PWs)   bands (ev):

   -21.8272 -10.6838  -7.0513  -6.8760  -6.3262  -6.0527  -5.6167  -5.3329
    -5.0954  -5.0826  -4.9563  -4.2486  -4.1964  -4.1890  -4.1756  -4.1116
    -4.0020  -4.0003  -3.9565  -3.8702  -3.8647  -3.8578  -3.7590  -3.6889
    -3.6846  -3.6698  -3.6686  -3.6184  -3.5611  -3.5577  -3.5412  -3.4026
    -3.3964  -3.3854  -3.3798  -3.3490  -3.3462  -3.2562  -3.2370  -3.2330
    -3.2239  -3.2190  -3.1128  -3.0192  -3.0084  -2.9284  -2.9130  -2.8920
    -2.8773  -2.8517  -2.8345  -2.8316  -2.8186  -2.7976  -2.7534  -2.7369
    -2.7142  -2.6717  -2.6641  -2.5867  -2.5248  -2.5146  -2.5032  -2.4738
    -2.4284  -2.4060  -2.3817  -2.3718  -2.3458  -2.2792  -2.2490  -2.2368
    -2.2309  -2.2267  -2.2163  -2.1976  -2.1886  -2.1826  -2.1473  -2.1336
    -2.0987  -2.0807  -2.0645  -2.0415  -2.0098  -2.0012  -1.9517  -1.9198
    -1.9059  -1.9028  -1.8723  -1.8584  -1.8334  -1.8031  -1.7957  -1.7866
    -1.7810  -1.7603  -1.7547  -1.7299  -1.7160  -1.7074  -1.7002  -1.6855
    -1.6653  -1.6502  -1.6058  -1.5960  -1.5423  -1.5251  -1.5086  -1.5001
    -1.4711  -1.4525  -1.4324  -1.3934  -1.3830  -1.3631  -1.3569  -1.3526
    -1.3504  -1.3427  -1.3328  -1.3268  -1.3193  -1.3114  -1.3011  -1.2885
    -1.2830  -1.2532  -1.1848  -1.1529  -1.1261  -1.1177  -1.0996  -1.0884
    -1.0546  -1.0209  -0.9922  -0.9775  -0.9683  -0.9247  -0.8976  -0.8522
    -0.8434  -0.8164  -0.8043  -0.7731  -0.7632  -0.7454  -0.7166  -0.6812
    -0.6324  -0.5979  -0.5950  -0.5887  -0.5754  -0.5711  -0.5593  -0.5528
    -0.5431  -0.5282  -0.4498  -0.4257  -0.4121  -0.4028  -0.3986  -0.3952
    -0.3839  -0.3723  -0.3483  -0.3439  -0.3302  -0.3181  -0.2448  -0.2298
    -0.2236  -0.2120  -0.1918  -0.1519  -0.1257  -0.1081  -0.0881  -0.0561
    -0.0486  -0.0110  -0.0066   0.0111   0.0145   0.0211   0.0293   0.0701
     0.1306   0.1517   0.3282   0.8438   1.0786   1.2122   1.2502   1.3576
     1.4673   1.6058

          k = 0.4000 0.0000 0.0000 ( 36608 PWs)   bands (ev):

   -21.8272 -10.6843  -7.1707  -6.9016  -6.1358  -5.8258  -5.7767  -5.5711
    -5.3685  -4.6814  -4.6045  -4.3697  -4.3618  -4.3204  -4.1460  -4.1423
    -4.0554  -4.0464  -4.0262  -3.9126  -3.8984  -3.7689  -3.7606  -3.7023
    -3.6531  -3.5704  -3.5653  -3.5369  -3.5127  -3.5037  -3.4991  -3.4675
    -3.4600  -3.4412  -3.4191  -3.3889  -3.3498  -3.3092  -3.3032  -3.1906
    -3.1738  -3.0879  -3.0770  -3.0496  -3.0399  -3.0239  -2.9319  -2.8976
    -2.8797  -2.8631  -2.8474  -2.8429  -2.7975  -2.7853  -2.7693  -2.7560
    -2.7390  -2.6409  -2.6211  -2.5762  -2.5655  -2.5446  -2.5281  -2.5038
    -2.4958  -2.4110  -2.3765  -2.3026  -2.2925  -2.2512  -2.2327  -2.2139
    -2.2071  -2.1929  -2.1843  -2.1644  -2.1519  -2.1336  -2.1280  -2.1141
    -2.1099  -2.0869  -2.0272  -1.9939  -1.9424  -1.9364  -1.9135  -1.9030
    -1.8897  -1.8687  -1.8548  -1.8233  -1.8136  -1.7908  -1.7797  -1.7774
    -1.7636  -1.7552  -1.7405  -1.7342  -1.7247  -1.7179  -1.6982  -1.6816
    -1.6713  -1.6581  -1.6292  -1.6090  -1.5879  -1.5756  -1.5428  -1.5364
    -1.5265  -1.5116  -1.5038  -1.4645  -1.4381  -1.4323  -1.4103  -1.3769
    -1.3657  -1.3602  -1.3545  -1.3389  -1.3225  -1.3141  -1.2964  -1.2602
    -1.2172  -1.1939  -1.1835  -1.1414  -1.0729  -1.0591  -1.0469  -0.9646
    -0.9315  -0.9270  -0.9188  -0.9112  -0.8978  -0.8881  -0.8705  -0.8630
    -0.8419  -0.8261  -0.8033  -0.7680  -0.7606  -0.7502  -0.7278  -0.7165
    -0.6968  -0.6797  -0.6505  -0.6431  -0.6337  -0.6240  -0.5387  -0.4817
    -0.4759  -0.4455  -0.4374  -0.4299  -0.4226  -0.4009  -0.3904  -0.3855
    -0.3789  -0.3464  -0.2988  -0.2965  -0.2786  -0.2720  -0.2325  -0.2226
    -0.2062  -0.2015  -0.1980  -0.1752  -0.1664  -0.1594  -0.1564  -0.1315
    -0.1281  -0.0492  -0.0390  -0.0298  -0.0149   0.0190   0.0246   0.0463
     0.3333   0.3582   0.4295   0.5362   0.6347   0.7167   1.0885   1.1921
     1.2608   1.4291

          k = 0.4000 0.2309 0.0000 ( 36606 PWs)   bands (ev):

   -21.8272 -10.6837  -7.0795  -6.8605  -6.2994  -6.0477  -5.5575  -5.4102
    -5.0937  -5.0638  -4.9882  -4.2646  -4.1939  -4.1926  -4.1474  -4.1219
    -4.0025  -3.9977  -3.9597  -3.8669  -3.8629  -3.8597  -3.7711  -3.6863
    -3.6814  -3.6710  -3.6669  -3.6205  -3.5671  -3.5607  -3.5492  -3.4019
    -3.3986  -3.3841  -3.3674  -3.3495  -3.3429  -3.2495  -3.2361  -3.2302
    -3.2278  -3.2211  -3.1121  -3.0430  -3.0128  -2.9423  -2.9167  -2.8943
    -2.8786  -2.8581  -2.8344  -2.8305  -2.8264  -2.8061  -2.7383  -2.7332
    -2.7159  -2.6774  -2.6657  -2.5607  -2.5198  -2.5158  -2.5112  -2.4626
    -2.4229  -2.3934  -2.3881  -2.3753  -2.3373  -2.2827  -2.2489  -2.2379
    -2.2315  -2.2284  -2.2061  -2.1944  -2.1852  -2.1820  -2.1577  -2.1131
    -2.0932  -2.0799  -2.0611  -2.0273  -2.0170  -2.0051  -1.9557  -1.9198
    -1.9088  -1.9032  -1.8757  -1.8599  -1.8217  -1.8001  -1.7933  -1.7915
    -1.7763  -1.7594  -1.7487  -1.7276  -1.7202  -1.7086  -1.6891  -1.6808
    -1.6678  -1.6518  -1.6048  -1.5603  -1.5412  -1.5268  -1.5041  -1.4948
    -1.4679  -1.4599  -1.4314  -1.3881  -1.3752  -1.3735  -1.3594  -1.3539
    -1.3483  -1.3404  -1.3327  -1.3272  -1.3231  -1.3177  -1.3002  -1.2829
    -1.2653  -1.2418  -1.2045  -1.1507  -1.1279  -1.1159  -1.1084  -1.0680
    -1.0537  -1.0235  -0.9996  -0.9788  -0.9712  -0.9203  -0.9121  -0.8670
    -0.8495  -0.8169  -0.8020  -0.7886  -0.7629  -0.7409  -0.7141  -0.6901
    -0.6559  -0.6060  -0.5940  -0.5758  -0.5712  -0.5624  -0.5553  -0.5499
    -0.5410  -0.5270  -0.4460  -0.4250  -0.4196  -0.4082  -0.3961  -0.3896
    -0.3779  -0.3580  -0.3508  -0.3436  -0.3323  -0.3113  -0.2425  -0.2270
    -0.2229  -0.2174  -0.1873  -0.1537  -0.1263  -0.1073  -0.0886  -0.0553
    -0.0465  -0.0082  -0.0063   0.0149   0.0163   0.0204   0.0393   0.0696
     0.1286   0.1473   0.2802   0.8986   0.9835   1.1294   1.2452   1.2812
     1.4686   1.6185

          k = 0.4000-0.6928 0.0000 ( 36660 PWs)   bands (ev):

   -21.8272 -10.6829  -6.9909  -6.5668  -6.5182  -6.0614  -5.8530  -5.4376
    -5.2684  -5.1271  -4.6774  -4.3534  -4.1096  -4.0692  -3.9745  -3.9313
    -3.9257  -3.9117  -3.9003  -3.8784  -3.8249  -3.8191  -3.8168  -3.8067
    -3.7328  -3.7092  -3.6667  -3.6592  -3.6339  -3.6307  -3.5133  -3.4899
    -3.4804  -3.4727  -3.4490  -3.4103  -3.3197  -3.3058  -3.2130  -3.1861
    -3.1839  -3.1188  -3.0985  -3.0846  -3.0556  -2.9839  -2.9719  -2.9623
    -2.8989  -2.8892  -2.8500  -2.7900  -2.7641  -2.7474  -2.7046  -2.6852
    -2.6301  -2.6062  -2.5916  -2.5847  -2.5791  -2.5430  -2.5293  -2.4636
    -2.4235  -2.3885  -2.3806  -2.3684  -2.3391  -2.3076  -2.2889  -2.2459
    -2.2293  -2.2003  -2.1944  -2.1858  -2.1734  -2.1600  -2.1223  -2.1126
    -2.1002  -2.0957  -2.0843  -2.0589  -2.0513  -2.0150  -1.9820  -1.9647
    -1.9529  -1.9454  -1.8793  -1.8752  -1.8346  -1.8122  -1.8001  -1.7906
    -1.7707  -1.7629  -1.7508  -1.7426  -1.7371  -1.7115  -1.7002  -1.6892
    -1.6243  -1.6175  -1.6085  -1.6014  -1.5856  -1.5797  -1.5783  -1.5668
    -1.5609  -1.5527  -1.5317  -1.5121  -1.4889  -1.4525  -1.4442  -1.4254
    -1.3655  -1.3543  -1.3243  -1.3059  -1.2934  -1.2864  -1.2710  -1.2295
    -1.2083  -1.1962  -1.1851  -1.1247  -1.0872  -1.0636  -1.0493  -1.0309
    -1.0168  -0.9941  -0.9895  -0.9779  -0.9480  -0.9358  -0.8984  -0.8899
    -0.8526  -0.8453  -0.8327  -0.8147  -0.7961  -0.7820  -0.7379  -0.7347
    -0.7232  -0.7074  -0.6928  -0.6798  -0.6627  -0.6356  -0.6101  -0.5220
    -0.4401  -0.4315  -0.4283  -0.4157  -0.4114  -0.4030  -0.3913  -0.3769
    -0.3498  -0.3393  -0.3342  -0.3232  -0.2692  -0.2529  -0.2050  -0.2001
    -0.1974  -0.1733  -0.1545  -0.1450  -0.1118  -0.0964  -0.0926  -0.0816
    -0.0786  -0.0089  -0.0035   0.0047   0.0194   0.0266   0.0497   0.0815
     0.1967   0.3946   0.5615   0.7388   1.1228   1.2954   1.3975   1.6946
     1.7506   1.8109

          k = 0.4000-0.4619 0.0000 ( 36660 PWs)   bands (ev):

   -21.8272 -10.6830  -6.9685  -6.5727  -6.5518  -6.0417  -5.8500  -5.5308
    -5.1623  -5.1199  -4.7052  -4.3554  -4.1069  -4.0661  -3.9596  -3.9337
    -3.9272  -3.9057  -3.9000  -3.8773  -3.8300  -3.8196  -3.8175  -3.8047
    -3.7299  -3.7049  -3.6678  -3.6628  -3.6348  -3.6278  -3.5330  -3.4859
    -3.4774  -3.4605  -3.4537  -3.4141  -3.3238  -3.3114  -3.2105  -3.1859
    -3.1800  -3.1098  -3.1007  -3.0830  -3.0544  -2.9730  -2.9706  -2.9642
    -2.9010  -2.8966  -2.8287  -2.7844  -2.7493  -2.7431  -2.7099  -2.6861
    -2.6506  -2.6053  -2.5926  -2.5790  -2.5758  -2.5501  -2.5383  -2.4692
    -2.4292  -2.3917  -2.3721  -2.3654  -2.3439  -2.3083  -2.2958  -2.2454
    -2.2306  -2.2034  -2.1964  -2.1866  -2.1818  -2.1458  -2.1278  -2.1165
    -2.1040  -2.0967  -2.0749  -2.0590  -2.0519  -2.0391  -1.9795  -1.9619
    -1.9478  -1.9245  -1.8929  -1.8725  -1.8312  -1.8243  -1.8140  -1.7911
    -1.7712  -1.7597  -1.7561  -1.7516  -1.7390  -1.7254  -1.7019  -1.6971
    -1.6376  -1.6147  -1.6041  -1.6017  -1.5877  -1.5830  -1.5753  -1.5651
    -1.5595  -1.5512  -1.5335  -1.4991  -1.4929  -1.4527  -1.4466  -1.4159
    -1.3622  -1.3573  -1.3188  -1.3085  -1.2965  -1.2898  -1.2714  -1.2162
    -1.2003  -1.1966  -1.1847  -1.1243  -1.1074  -1.0620  -1.0468  -1.0320
    -1.0111  -0.9985  -0.9913  -0.9748  -0.9444  -0.9334  -0.9066  -0.8955
    -0.8610  -0.8412  -0.8323  -0.8176  -0.8019  -0.7682  -0.7394  -0.7227
    -0.7129  -0.7053  -0.6973  -0.6750  -0.6592  -0.6405  -0.6099  -0.5151
    -0.4444  -0.4313  -0.4273  -0.4196  -0.4124  -0.4055  -0.3921  -0.3788
    -0.3470  -0.3391  -0.3281  -0.3244  -0.2752  -0.2581  -0.2059  -0.2011
    -0.1872  -0.1760  -0.1571  -0.1466  -0.1129  -0.0985  -0.0929  -0.0818
    -0.0694  -0.0147  -0.0047   0.0010   0.0191   0.0265   0.0502   0.0835
     0.2410   0.3770   0.5223   0.7258   1.2447   1.2903   1.4692   1.5925
     1.7797   1.8524

 ------ SPIN DOWN ----------


          k = 0.0000 0.0000 0.0000 ( 36693 PWs)   bands (ev):

   -21.8464 -10.7236  -7.7063  -6.8896  -6.3973  -5.7812  -5.4329  -4.5328
    -4.5056  -4.5024  -4.5017  -4.4829  -4.4789  -4.3798  -3.6335  -3.6272
    -3.6256  -3.6041  -3.5920  -3.5822  -3.4594  -2.6878  -2.6837  -2.6746
    -2.6643  -2.6585  -2.5947  -2.3427  -2.2240  -2.2132  -2.2094  -2.2035
    -2.1976  -2.0642  -2.0107  -1.9965  -1.9378  -1.9305  -1.9142  -1.9107
    -1.8317  -1.8260  -1.7763  -1.7713  -1.7363  -1.6849  -1.6783  -1.6607
    -1.6458  -1.5730  -1.4634  -1.4164  -1.4076  -1.3951  -1.3799  -1.3738
    -1.3729  -1.3704  -1.3472  -1.3297  -1.3135  -1.2948  -1.2916  -1.2909
    -1.2559  -1.1778  -0.8402  -0.7393  -0.7265  -0.7149  -0.7139  -0.5557
    -0.5187  -0.4653  -0.4076  -0.4042  -0.3909  -0.3900  -0.3830  -0.3708
    -0.3402  -0.3210  -0.3013  -0.2923  -0.2914  -0.2835  -0.2731  -0.2341
    -0.2179  -0.1983  -0.1911  -0.1892  -0.1593  -0.1454  -0.1374  -0.1364
    -0.1306  -0.1239  -0.1070  -0.1044  -0.1016  -0.1008  -0.0331  -0.0073
     0.0277   0.0406   0.0444   0.0590   0.1084   0.1153   0.1223   0.1241
     0.1265   0.1301   0.1310   0.1347   0.2046   0.2061   0.2608   0.2821
     0.2937   0.3025   0.3104   0.3189   0.4622   0.5128   0.5278   0.5633
     0.5871   0.6020   0.6130   0.6154   0.6639   0.8698   0.9014   0.9455
     0.9507   1.0470   1.0979   1.1286   1.1440   1.1689   1.1788   1.1826
     1.3140   1.3283   1.3330   1.3391   1.3441   1.3529   1.3612   1.3804
     1.4032   1.4198   1.4348   1.4401   1.4548   1.4613   1.4755   1.4924
     1.4998   1.5017   1.5054   1.5259   1.5544   1.5687   1.5777   1.5934
     1.6004   1.6144   1.6217   1.6250   1.6307   1.6327   1.6385   1.6732
     1.6775   1.6993   1.7029   1.7115   1.7193   1.7272   1.7300   1.7603
     1.7652   1.7684   1.7717   1.7790   1.7811   1.7823   1.7917   1.7929
     1.8064   1.8462   1.8527   1.8617   2.0010   2.0062   2.0080   2.0095
     2.0118   2.0136

          k = 0.0000 0.2309 0.0000 ( 36641 PWs)   bands (ev):

   -21.8464 -10.7219  -7.5596  -6.8845  -6.2968  -5.7768  -5.4986  -5.3809
    -4.8806  -4.8712  -4.3622  -4.2515  -3.9561  -3.9491  -3.8528  -3.8058
    -3.6626  -3.4076  -3.2776  -3.2546  -3.1728  -2.9066  -2.6927  -2.6625
    -2.6222  -2.5837  -2.5497  -2.3611  -2.3142  -2.2471  -2.2444  -2.2352
    -2.2030  -2.1620  -2.1534  -2.1437  -2.1154  -2.0430  -1.9734  -1.9576
    -1.8877  -1.8806  -1.8516  -1.7302  -1.7030  -1.6867  -1.6513  -1.5939
    -1.5474  -1.5133  -1.4765  -1.4570  -1.4263  -1.4075  -1.3860  -1.3824
    -1.3775  -1.3496  -1.3079  -1.2605  -1.2437  -1.2330  -1.2129  -1.1886
    -1.1225  -1.0542  -0.8918  -0.7876  -0.7728  -0.7635  -0.7278  -0.6540
    -0.6383  -0.6073  -0.5541  -0.5312  -0.4557  -0.4272  -0.4126  -0.4002
    -0.3649  -0.3607  -0.3518  -0.3417  -0.3236  -0.3085  -0.2827  -0.2707
    -0.2199  -0.1933  -0.1817  -0.1772  -0.1642  -0.1408  -0.1204  -0.1093
    -0.1008  -0.0915  -0.0859  -0.0793  -0.0779  -0.0736  -0.0627  -0.0329
    -0.0004   0.0087   0.0220   0.0255   0.0429   0.0634   0.0714   0.0937
     0.1294   0.1429   0.1587   0.1887   0.2174   0.2347   0.2416   0.2722
     0.3903   0.4028   0.4526   0.4721   0.5020   0.5179   0.5370   0.5424
     0.5649   0.5749   0.5913   0.5952   0.7316   0.8640   0.8944   0.9128
     0.9207   0.9370   0.9547   0.9645   1.0064   1.0185   1.0929   1.1092
     1.1279   1.1830   1.1938   1.2303   1.2412   1.2631   1.2866   1.3059
     1.3433   1.3770   1.3965   1.4078   1.4102   1.4317   1.4574   1.4734
     1.4911   1.5197   1.5411   1.5590   1.5812   1.5953   1.5998   1.6397
     1.6540   1.6639   1.6693   1.6751   1.6909   1.6990   1.7439   1.7530
     1.7564   1.7645   1.8014   1.8151   1.8201   1.8348   1.8464   1.8588
     1.8682   1.9072   1.9098   1.9258   1.9393   1.9444   1.9536   1.9711
     1.9752   1.9971   2.0007   2.0125   2.0924   2.1069   2.1139   2.1397
     2.1805   2.2095

          k = 0.0000 0.4619 0.0000 ( 36606 PWs)   bands (ev):

   -21.8464 -10.7192  -7.1452  -6.8671  -6.3996  -6.0705  -5.6259  -5.4058
    -5.0997  -5.0718  -4.9619  -4.0237  -3.9756  -3.8771  -3.4068  -3.3341
    -3.3265  -3.2179  -3.0680  -3.0129  -2.8858  -2.8756  -2.7340  -2.7301
    -2.6717  -2.6505  -2.6122  -2.5922  -2.4924  -2.4800  -2.4433  -2.4274
    -2.4013  -2.2717  -2.1952  -2.1731  -2.1150  -2.0766  -2.0018  -1.9867
    -1.9848  -1.9759  -1.8942  -1.7037  -1.6857  -1.6664  -1.6392  -1.5836
    -1.4679  -1.4569  -1.4490  -1.4318  -1.4174  -1.4070  -1.3917  -1.3882
    -1.3296  -1.2938  -1.2725  -1.2631  -1.2390  -1.2038  -1.1080  -1.0580
    -0.9622  -0.9168  -0.9076  -0.8214  -0.7969  -0.7632  -0.7339  -0.7249
    -0.7033  -0.6913  -0.6650  -0.6238  -0.6126  -0.5615  -0.5474  -0.5193
    -0.4857  -0.4581  -0.4365  -0.4307  -0.4139  -0.3796  -0.3368  -0.2864
    -0.2511  -0.2389  -0.2078  -0.1883  -0.1596  -0.1341  -0.1249  -0.0970
    -0.0716  -0.0618  -0.0538  -0.0348  -0.0264  -0.0179  -0.0083   0.0092
     0.0338   0.0603   0.0684   0.0776   0.0841   0.0887   0.1079   0.1215
     0.1380   0.1593   0.1762   0.2677   0.2874   0.2895   0.3185   0.3374
     0.3436   0.3599   0.3681   0.4244   0.4400   0.4514   0.4719   0.4920
     0.5143   0.5456   0.5540   0.5620   0.5955   0.6392   0.7368   0.7637
     0.7757   0.8154   0.8620   0.9559   0.9715   0.9966   1.0152   1.0336
     1.0413   1.0858   1.0996   1.1179   1.1299   1.2084   1.2466   1.3001
     1.3231   1.3621   1.3845   1.4095   1.4240   1.4477   1.4545   1.4847
     1.5013   1.5183   1.5386   1.6044   1.6242   1.6417   1.6508   1.6672
     1.6796   1.6841   1.7186   1.7312   1.7461   1.7624   1.7690   1.8057
     1.8125   1.8452   1.8879   1.9025   1.9145   1.9375   1.9498   1.9566
     1.9650   1.9818   2.0006   2.0079   2.0117   2.0346   2.0371   2.0403
     2.0492   2.0898   2.1760   2.2577   2.2919   2.3552   2.5065   2.7079
     2.7701   2.8050

          k = 0.2000-0.1155 0.0000 ( 36641 PWs)   bands (ev):

   -21.8464 -10.7219  -7.5589  -6.8816  -6.3022  -5.7951  -5.4848  -5.3699
    -4.8820  -4.8786  -4.3680  -4.2218  -3.9541  -3.9518  -3.8472  -3.8347
    -3.6584  -3.4056  -3.2767  -3.2682  -3.1637  -2.8909  -2.6901  -2.6830
    -2.6175  -2.5777  -2.5582  -2.3863  -2.2785  -2.2493  -2.2421  -2.2234
    -2.1994  -2.1745  -2.1515  -2.1425  -2.1162  -2.0472  -1.9750  -1.9540
    -1.8875  -1.8834  -1.8157  -1.7566  -1.7143  -1.6877  -1.6767  -1.5801
    -1.5456  -1.5193  -1.4816  -1.4558  -1.4271  -1.4100  -1.3898  -1.3823
    -1.3785  -1.3665  -1.2952  -1.2603  -1.2441  -1.2338  -1.2036  -1.1886
    -1.1288  -1.0550  -0.8865  -0.7898  -0.7724  -0.7631  -0.7174  -0.6520
    -0.6386  -0.6021  -0.5530  -0.5328  -0.4492  -0.4325  -0.4190  -0.4058
    -0.3631  -0.3576  -0.3494  -0.3422  -0.3328  -0.3220  -0.2795  -0.2590
    -0.2132  -0.1998  -0.1813  -0.1798  -0.1620  -0.1362  -0.1237  -0.1052
    -0.1034  -0.0956  -0.0850  -0.0792  -0.0769  -0.0737  -0.0580  -0.0339
     0.0007   0.0080   0.0167   0.0215   0.0523   0.0683   0.0843   0.0902
     0.1243   0.1446   0.1552   0.1843   0.2229   0.2323   0.2396   0.2713
     0.3918   0.4164   0.4474   0.4774   0.4968   0.5057   0.5440   0.5502
     0.5693   0.5740   0.5847   0.5954   0.7435   0.8431   0.9093   0.9180
     0.9207   0.9392   0.9565   0.9659   1.0098   1.0281   1.0994   1.1060
     1.1239   1.1623   1.1931   1.2240   1.2372   1.2640   1.2842   1.3053
     1.3427   1.3777   1.3902   1.4123   1.4175   1.4282   1.4561   1.4680
     1.4996   1.5206   1.5466   1.5569   1.5745   1.5870   1.6000   1.6217
     1.6572   1.6619   1.6678   1.6759   1.6983   1.7056   1.7478   1.7530
     1.7598   1.7645   1.8036   1.8117   1.8199   1.8387   1.8460   1.8544
     1.8723   1.9055   1.9112   1.9223   1.9397   1.9445   1.9513   1.9737
     1.9782   1.9968   2.0008   2.0149   2.0938   2.1061   2.1151   2.1533
     2.1806   2.2019

          k = 0.2000 0.1155 0.0000 ( 36641 PWs)   bands (ev):

   -21.8464 -10.7219  -7.5603  -6.8865  -6.2939  -5.7692  -5.4762  -5.4155
    -4.8737  -4.8714  -4.3633  -4.2586  -3.9551  -3.9502  -3.8505  -3.8012
    -3.6627  -3.4073  -3.2773  -3.2524  -3.1755  -2.9111  -2.6939  -2.6543
    -2.6320  -2.5790  -2.5487  -2.3559  -2.3217  -2.2496  -2.2434  -2.2331
    -2.2069  -2.1573  -2.1519  -2.1425  -2.1173  -2.0397  -1.9735  -1.9664
    -1.8863  -1.8788  -1.8266  -1.7544  -1.6909  -1.6890  -1.6637  -1.5707
    -1.5614  -1.5193  -1.4817  -1.4576  -1.4302  -1.3995  -1.3923  -1.3819
    -1.3772  -1.3332  -1.3066  -1.2672  -1.2484  -1.2395  -1.2089  -1.1843
    -1.1372  -1.0392  -0.8996  -0.7830  -0.7704  -0.7504  -0.7220  -0.6616
    -0.6492  -0.6084  -0.5494  -0.5305  -0.4529  -0.4236  -0.4192  -0.3943
    -0.3687  -0.3571  -0.3510  -0.3441  -0.3210  -0.3150  -0.2925  -0.2708
    -0.2119  -0.1938  -0.1819  -0.1796  -0.1644  -0.1369  -0.1200  -0.1064
    -0.1007  -0.0927  -0.0895  -0.0798  -0.0781  -0.0728  -0.0554  -0.0334
     0.0027   0.0103   0.0213   0.0233   0.0463   0.0686   0.0751   0.0849
     0.1307   0.1374   0.1713   0.1885   0.2156   0.2305   0.2418   0.2728
     0.3919   0.4059   0.4380   0.4711   0.4885   0.5210   0.5366   0.5473
     0.5588   0.5767   0.5906   0.5956   0.7445   0.8744   0.8939   0.9125
     0.9173   0.9311   0.9566   0.9663   0.9970   1.0288   1.0753   1.0998
     1.1115   1.1882   1.1973   1.2285   1.2446   1.2654   1.2851   1.3059
     1.3423   1.3804   1.4007   1.4076   1.4132   1.4323   1.4613   1.4678
     1.4972   1.5175   1.5424   1.5702   1.5752   1.5961   1.6051   1.6348
     1.6495   1.6606   1.6677   1.6763   1.6884   1.6983   1.7436   1.7470
     1.7584   1.7643   1.8046   1.8160   1.8201   1.8380   1.8436   1.8580
     1.8682   1.9085   1.9104   1.9217   1.9380   1.9448   1.9486   1.9700
     1.9754   2.0012   2.0046   2.0117   2.0929   2.1030   2.1140   2.1396
     2.1844   2.2086

          k = 0.2000 0.3464 0.0000 ( 36608 PWs)   bands (ev):

   -21.8464 -10.7197  -7.2796  -6.8734  -6.1555  -5.8807  -5.8474  -5.5901
    -5.4178  -4.6124  -4.5319  -4.1546  -4.1409  -4.0317  -3.3137  -3.3065
    -3.2986  -3.2897  -3.1850  -3.1017  -3.0038  -2.9934  -2.9691  -2.6340
    -2.5781  -2.5500  -2.5432  -2.4631  -2.4449  -2.4245  -2.3795  -2.3466
    -2.3358  -2.3251  -2.3198  -2.2119  -2.1755  -2.1045  -1.9497  -1.9446
    -1.9195  -1.8936  -1.8266  -1.8163  -1.7670  -1.6616  -1.6120  -1.5946
    -1.5035  -1.4687  -1.4320  -1.4289  -1.4210  -1.4047  -1.3819  -1.3670
    -1.3511  -1.3167  -1.2823  -1.2530  -1.2004  -1.1707  -1.1077  -1.0507
    -0.9838  -0.9513  -0.9117  -0.8353  -0.7592  -0.7407  -0.7263  -0.6924
    -0.6716  -0.6620  -0.6355  -0.6117  -0.5613  -0.5446  -0.5348  -0.5114
    -0.4921  -0.4665  -0.4562  -0.4492  -0.4051  -0.3278  -0.2900  -0.2806
    -0.2652  -0.2516  -0.2186  -0.1953  -0.1788  -0.1707  -0.1457  -0.1371
    -0.1141  -0.0977  -0.0825  -0.0695  -0.0601  -0.0345  -0.0175  -0.0011
     0.0105   0.0194   0.0354   0.0518   0.0635   0.0718   0.0869   0.0947
     0.1124   0.1676   0.1894   0.2095   0.3130   0.3207   0.3418   0.3498
     0.3826   0.3936   0.4332   0.4406   0.4923   0.5093   0.5179   0.5211
     0.5350   0.5450   0.5912   0.6204   0.6650   0.7108   0.8089   0.8364
     0.8956   0.9264   0.9438   0.9719   0.9859   0.9902   0.9972   1.0263
     1.0418   1.0528   1.0644   1.0849   1.1193   1.1604   1.2293   1.2399
     1.2645   1.2739   1.3116   1.3311   1.3356   1.3620   1.3962   1.4220
     1.4833   1.5431   1.5950   1.6293   1.6493   1.6640   1.6756   1.6880
     1.6982   1.7138   1.7231   1.7352   1.7456   1.8021   1.8095   1.8206
     1.8260   1.8553   1.8702   1.8763   1.8892   1.9131   1.9254   1.9420
     1.9498   1.9601   1.9624   1.9799   1.9907   2.0069   2.0373   2.0713
     2.0818   2.0970   2.1860   2.2178   2.3034   2.3284   2.3652   2.4851
     2.6487   2.6803

          k = 0.2000-0.5774 0.0000 ( 36660 PWs)   bands (ev):

   -21.8464 -10.7183  -6.9564  -6.6794  -6.6209  -6.0862  -5.9041  -5.5203
    -5.2641  -5.1369  -4.6441  -4.1994  -3.6786  -3.5516  -3.3383  -3.3340
    -3.2956  -3.1087  -3.0790  -2.9256  -2.9176  -2.9123  -2.7882  -2.7765
    -2.7704  -2.7471  -2.7335  -2.7065  -2.5439  -2.4260  -2.3907  -2.3808
    -2.3557  -2.3506  -2.3026  -2.2906  -2.2271  -2.1753  -2.0827  -1.9397
    -1.8488  -1.8362  -1.8304  -1.7715  -1.7339  -1.6694  -1.5964  -1.5847
    -1.5419  -1.5357  -1.5194  -1.4339  -1.3871  -1.3675  -1.3522  -1.3295
    -1.2936  -1.2445  -1.2107  -1.1847  -1.1367  -1.1079  -1.1024  -1.0443
    -1.0048  -0.9557  -0.8674  -0.8198  -0.8088  -0.7621  -0.7410  -0.7301
    -0.6817  -0.6670  -0.6486  -0.6136  -0.5813  -0.5580  -0.5294  -0.5125
    -0.5063  -0.4764  -0.4666  -0.4539  -0.4457  -0.4348  -0.4059  -0.3804
    -0.3745  -0.3428  -0.3242  -0.2960  -0.2487  -0.2187  -0.1993  -0.1739
    -0.1249  -0.1060  -0.0884  -0.0590  -0.0450  -0.0188  -0.0169   0.0047
     0.0262   0.0709   0.0832   0.0919   0.1070   0.1182   0.1827   0.2166
     0.2363   0.2584   0.2625   0.2783   0.2973   0.3205   0.3506   0.3642
     0.3795   0.3849   0.4344   0.4717   0.4848   0.4993   0.5109   0.5515
     0.5598   0.5655   0.5768   0.6181   0.6283   0.6356   0.6464   0.6687
     0.7426   0.8096   0.8855   0.9093   0.9285   0.9391   0.9704   0.9876
     0.9942   1.0188   1.0353   1.0738   1.1305   1.1718   1.1855   1.1945
     1.2457   1.2551   1.2726   1.3066   1.3271   1.3476   1.4007   1.4293
     1.4450   1.5655   1.5915   1.6153   1.6662   1.6845   1.7142   1.7283
     1.7348   1.7483   1.7574   1.7755   1.8014   1.8174   1.8231   1.8326
     1.8670   1.8873   1.9037   1.9169   1.9206   1.9245   1.9359   1.9361
     1.9474   1.9912   1.9965   2.0216   2.0318   2.0457   2.0545   2.0768
     2.1015   2.1423   2.2330   2.3919   2.5577   2.7294   2.8589   2.9167
     2.9422   2.9705

          k = 0.2000-0.3464 0.0000 ( 36608 PWs)   bands (ev):

   -21.8464 -10.7197  -7.2723  -6.8750  -6.1639  -5.9088  -5.8490  -5.5893
    -5.3832  -4.6296  -4.5142  -4.1493  -4.1336  -4.0365  -3.3145  -3.3067
    -3.2988  -3.2955  -3.1857  -3.1054  -3.0230  -2.9916  -2.9489  -2.6316
    -2.5621  -2.5540  -2.5414  -2.4707  -2.4591  -2.4342  -2.3760  -2.3420
    -2.3385  -2.3292  -2.3216  -2.1804  -2.1704  -2.0754  -1.9687  -1.9516
    -1.9227  -1.8787  -1.8491  -1.8209  -1.7735  -1.6581  -1.6167  -1.5920
    -1.5226  -1.4588  -1.4373  -1.4300  -1.4247  -1.4096  -1.3938  -1.3719
    -1.3530  -1.3306  -1.2833  -1.2650  -1.2070  -1.1559  -1.0969  -1.0525
    -0.9864  -0.9603  -0.8797  -0.8299  -0.7580  -0.7329  -0.7219  -0.7019
    -0.6741  -0.6542  -0.6374  -0.5916  -0.5713  -0.5395  -0.5287  -0.5134
    -0.4979  -0.4737  -0.4617  -0.4518  -0.4174  -0.3436  -0.2874  -0.2759
    -0.2700  -0.2595  -0.2104  -0.1920  -0.1798  -0.1660  -0.1468  -0.1297
    -0.1172  -0.1034  -0.0907  -0.0706  -0.0549  -0.0371  -0.0133  -0.0027
     0.0113   0.0173   0.0232   0.0540   0.0660   0.0789   0.0888   0.0966
     0.1127   0.1851   0.1969   0.2001   0.3148   0.3253   0.3351   0.3677
     0.3840   0.4211   0.4330   0.4572   0.4962   0.5025   0.5110   0.5204
     0.5336   0.5372   0.5834   0.6236   0.6691   0.7038   0.8222   0.8281
     0.8768   0.9107   0.9657   0.9800   0.9901   1.0016   1.0045   1.0211
     1.0278   1.0560   1.0732   1.1016   1.1221   1.1631   1.1944   1.2323
     1.2638   1.2760   1.3083   1.3290   1.3397   1.3661   1.4065   1.4287
     1.4693   1.5204   1.6130   1.6267   1.6403   1.6695   1.6776   1.6814
     1.7061   1.7133   1.7295   1.7362   1.7433   1.8046   1.8099   1.8141
     1.8213   1.8591   1.8632   1.8734   1.8918   1.9125   1.9250   1.9422
     1.9518   1.9588   1.9607   1.9854   1.9915   2.0142   2.0395   2.0710
     2.0902   2.0967   2.1738   2.2136   2.2862   2.3478   2.3880   2.5174
     2.5952   2.6860

          k = 0.4000-0.2309 0.0000 ( 36606 PWs)   bands (ev):

   -21.8464 -10.7192  -7.1359  -6.8662  -6.4165  -6.0771  -5.6559  -5.3595
    -5.0998  -5.0831  -4.9442  -4.0168  -3.9737  -3.8952  -3.3915  -3.3362
    -3.3297  -3.2149  -3.0687  -3.0031  -2.8896  -2.8783  -2.7373  -2.7313
    -2.6757  -2.6639  -2.6124  -2.5950  -2.4994  -2.4820  -2.4447  -2.4218
    -2.4021  -2.2392  -2.1958  -2.1311  -2.1132  -2.1021  -2.0012  -1.9917
    -1.9786  -1.9688  -1.8723  -1.7457  -1.6854  -1.6709  -1.6403  -1.6232
    -1.4734  -1.4594  -1.4474  -1.4444  -1.4291  -1.4012  -1.3946  -1.3851
    -1.3515  -1.2877  -1.2744  -1.2661  -1.2527  -1.2138  -1.1044  -1.0402
    -0.9718  -0.9108  -0.8493  -0.8279  -0.7969  -0.7619  -0.7352  -0.7191
    -0.7068  -0.6943  -0.6632  -0.6326  -0.6076  -0.5603  -0.5542  -0.5193
    -0.4828  -0.4581  -0.4396  -0.4298  -0.4149  -0.3866  -0.3269  -0.2760
    -0.2538  -0.2415  -0.2121  -0.1901  -0.1612  -0.1429  -0.1238  -0.0974
    -0.0737  -0.0647  -0.0499  -0.0264  -0.0222  -0.0203  -0.0170   0.0221
     0.0320   0.0615   0.0684   0.0761   0.0865   0.0891   0.1140   0.1190
     0.1365   0.1588   0.1886   0.2760   0.2826   0.2913   0.3187   0.3361
     0.3420   0.3628   0.3675   0.4265   0.4461   0.4593   0.4753   0.4896
     0.5166   0.5288   0.5518   0.5596   0.5977   0.6773   0.7385   0.7581
     0.7846   0.8258   0.8501   0.9584   0.9770   0.9937   1.0169   1.0287
     1.0371   1.0842   1.0971   1.1142   1.1285   1.1847   1.2356   1.3137
     1.3255   1.3601   1.3759   1.4057   1.4268   1.4436   1.4574   1.4845
[...]
     atom    8 type  1   force =    -0.00163395   -0.00145029   -0.10416923
     atom    9 type  1   force =     0.00011259    0.00136138   -0.10378517
     atom   10 type  1   force =     0.00205149    0.00038532   -0.01121285
     atom   11 type  1   force =    -0.00031261   -0.00202968   -0.01048199
     atom   12 type  1   force =    -0.00106485   -0.00009137   -0.01043563
     atom   13 type  1   force =    -0.00133958    0.00147215   -0.01010896
     atom   14 type  1   force =     0.00019312    0.00023232   -0.00715647
     atom   15 type  1   force =     0.00047309    0.00052868   -0.01083669
     atom   16 type  1   force =    -0.00076794   -0.00111247   -0.01107416
     atom   17 type  1   force =     0.00140663    0.00084568   -0.00968502
     atom   18 type  1   force =     0.00002656   -0.00005931   -0.01101117
     atom   19 type  1   force =    -0.00113022   -0.00115297    0.01490358
     atom   20 type  1   force =    -0.01251771   -0.00218574   -0.00360173
     atom   21 type  1   force =     0.01280731   -0.00827518   -0.00204900
     atom   22 type  1   force =     0.00157953   -0.00032056    0.01514175
     atom   23 type  1   force =     0.00088963    0.01471016   -0.00178595
     atom   24 type  1   force =    -0.00271996   -0.00156365    0.01814812
     atom   25 type  1   force =     0.00030466    0.00011683    0.02000666
     atom   26 type  1   force =    -0.00438384   -0.00250199    0.00955553
     atom   27 type  1   force =     0.00492547    0.00046606    0.01014679
     atom   28 type  1   force =     0.00841387    0.00114334    0.11559312
     atom   29 type  1   force =    -0.00335346    0.02931181    0.15606525
     atom   30 type  1   force =    -0.02214679    0.01429811    0.13434673
     atom   31 type  1   force =     0.03194883   -0.02381341    0.14096118
     atom   32 type  1   force =    -0.04165783   -0.04133699    0.19903716
     atom   33 type  1   force =    -0.00190175   -0.00018084    0.11789496
     atom   34 type  1   force =     0.00200409   -0.00631304    0.12033092
     atom   35 type  1   force =     0.00075566    0.00267931    0.12483652
     atom   36 type  1   force =    -0.00143710    0.00108319    0.10439972
     atom   37 type  2   force =    -0.02330507   -0.00904029    0.29163437
     atom   38 type  3   force =     1.03327893    1.21892633   -2.17738212
     atom   39 type  4   force =    -0.02838095   -0.03242506   -0.02243845
     The ionic contribution  to forces
     atom    1 type  1   force =    -0.00646638    0.00104723 -111.13407477
     atom    2 type  1   force =    -0.00332917    0.00218258 -111.15371790
     atom    3 type  1   force =     0.00979544    0.00084374 -111.14067775
     atom    4 type  1   force =    -0.00390800    0.00525451 -111.13353594
     atom    5 type  1   force =     0.00210127    0.00802063 -111.13718438
     atom    6 type  1   force =     0.00180677   -0.00099554 -111.12941302
     atom    7 type  1   force =     0.00145820   -0.00115398 -111.12894830
     atom    8 type  1   force =    -0.00584770   -0.00611813 -111.13763898
     atom    9 type  1   force =     0.00438956   -0.00908104 -111.14059078
     atom   10 type  1   force =    -0.04060232   -0.01801568  -40.07157461
     atom   11 type  1   force =    -0.01740088   -0.05839409  -40.18822914
     atom   12 type  1   force =     0.05798767   -0.03457961  -40.10449099
     atom   13 type  1   force =    -0.06296114    0.03877291  -40.13980706
     atom   14 type  1   force =     0.04082737    0.04611562  -40.18635103
     atom   15 type  1   force =     0.02215282    0.01321472  -40.06089652
     atom   16 type  1   force =    -0.00562886    0.04228383  -40.06726779
     atom   17 type  1   force =     0.00398935   -0.00354657  -40.06924862
     atom   18 type  1   force =     0.00163831   -0.02585096  -40.05914268
     atom   19 type  1   force =    -0.30967728    0.05026759   31.53669721
     atom   20 type  1   force =    -0.19677521    0.12458047   30.47087944
     atom   21 type  1   force =     0.50180783    0.03781447   31.21918695
     atom   22 type  1   force =    -0.18280224    0.24969543   31.56494096
     atom   23 type  1   force =     0.10550407    0.39660998   31.38984178
     atom   24 type  1   force =     0.07799420   -0.04411657   31.72705154
     atom   25 type  1   force =     0.06033958   -0.05045057   31.74827729
     atom   26 type  1   force =    -0.28443933   -0.30493259   31.36458149
     atom   27 type  1   force =     0.22522731   -0.45824417   31.22456328
     atom   28 type  1   force =    -1.47806005   -0.57994745  103.88576792
     atom   29 type  1   force =    -1.19791632   -4.21228989   98.34463783
     atom   30 type  1   force =     2.37165303   -1.38279946  103.16949390
     atom   31 type  1   force =    -3.18019629    2.02965147  101.73780425
     atom   32 type  1   force =     3.02414365    3.41942923   98.01238337
     atom   33 type  1   force =     0.73120008    0.35005829  104.28275839
     atom   34 type  1   force =    -0.23745693    1.38105542  104.15380153
     atom   35 type  1   force =     0.08979425   -0.14039707  104.07866793
     atom   36 type  1   force =     0.14421154   -0.84194406  104.26272506
     atom   37 type  2   force =     2.20911523    2.90723159   52.83443431
     atom   38 type  3   force =    -3.82080203   -4.47213820   89.08122726
     atom   39 type  4   force =     1.34713259    1.54086591   15.09306855
     The local contribution  to forces
     atom    1 type  1   force =     0.00748091    0.00059148  111.24070792
     atom    2 type  1   force =     0.00499349   -0.00114962  111.25515255
     atom    3 type  1   force =    -0.01219779    0.00169125  111.24313796
     atom    4 type  1   force =     0.00336210   -0.00518398  111.24012921
     atom    5 type  1   force =    -0.00283958   -0.01230163  111.24026560
     atom    6 type  1   force =    -0.00049622    0.00085509  111.23272560
     atom    7 type  1   force =    -0.00339544    0.00024799  111.23485367
     atom    8 type  1   force =     0.00882000    0.00742088  111.24479294
     atom    9 type  1   force =    -0.00556397    0.00797252  111.24548565
     atom   10 type  1   force =     0.03929124    0.01708169   40.06150825
     atom   11 type  1   force =     0.01677769    0.06056971   40.17723540
     atom   12 type  1   force =    -0.05615623    0.03533123   40.09793702
     atom   13 type  1   force =     0.06470188   -0.04115780   40.13272628
     atom   14 type  1   force =    -0.04145562   -0.04586009   40.17081030
     atom   15 type  1   force =    -0.02314861   -0.01407881   40.05165934
     atom   16 type  1   force =     0.00807638   -0.04062829   40.05892091
     atom   17 type  1   force =    -0.00567315    0.00263817   40.06041206
     atom   18 type  1   force =    -0.00188986    0.02609825   40.04910259
     atom   19 type  1   force =     0.30976239   -0.04822361  -31.52849028
     atom   20 type  1   force =     0.20805362   -0.12101714  -30.45275718
     atom   21 type  1   force =    -0.51223654   -0.02985822  -31.19866456
     atom   22 type  1   force =     0.18017120   -0.24891763  -31.55798740
     atom   23 type  1   force =    -0.10558492   -0.41076092  -31.36870616
     atom   24 type  1   force =    -0.07456475    0.04528858  -31.72209841
     atom   25 type  1   force =    -0.06146920    0.05047271  -31.74247692
     atom   26 type  1   force =     0.28715686    0.30572046  -31.35339648
     atom   27 type  1   force =    -0.22884108    0.45667815  -31.21432535
     atom   28 type  1   force =     1.46430566    0.57760475 -104.01019552
     atom   29 type  1   force =     1.19523765    4.16147400  -98.51154815
     atom   30 type  1   force =    -2.33707179    1.35566058 -103.31507937
     atom   31 type  1   force =     3.13071524   -1.99990197 -101.88663846
     atom   32 type  1   force =    -2.96865834   -3.35943114  -98.20053735
     atom   33 type  1   force =    -0.71999266   -0.34854705 -104.41222616
     atom   34 type  1   force =     0.23030536   -1.36382951 -104.28362038
     atom   35 type  1   force =    -0.08772461    0.14067669 -104.21615706
     atom   36 type  1   force =    -0.14203274    0.83716363 -104.37665923
     atom   37 type  2   force =    -2.18647974   -2.89824512  -53.12658370
     atom   38 type  3   force =     2.79879146    3.26985833  -86.91378170
     atom   39 type  4   force =    -1.31662253   -1.50645445  -15.08448107
     The core correction contribution to forces
     atom    1 type  1   force =     0.00012147    0.00018392    0.01014992
     atom    2 type  1   force =     0.00041010    0.00018274    0.01027992
     atom    3 type  1   force =    -0.00009426    0.00015469    0.01033961
     atom    4 type  1   force =    -0.00010559   -0.00005645    0.01011227
     atom    5 type  1   force =    -0.00014553   -0.00034034    0.01039472
     atom    6 type  1   force =     0.00007090   -0.00001438    0.00973627
     atom    7 type  1   force =    -0.00005811   -0.00002119    0.01055698
     atom    8 type  1   force =     0.00005996    0.00008795    0.01027447
     atom    9 type  1   force =    -0.00008446   -0.00001415    0.01007494
     atom   10 type  1   force =    -0.00022213   -0.00018631   -0.00188632
     atom   11 type  1   force =    -0.00004402   -0.00029251   -0.00184726
     atom   12 type  1   force =     0.00034739   -0.00030468   -0.00194280
     atom   13 type  1   force =    -0.00019210   -0.00012356   -0.00169756
     atom   14 type  1   force =     0.00005013    0.00004296   -0.00167086
     atom   15 type  1   force =     0.00025810    0.00000441   -0.00190684
     atom   16 type  1   force =    -0.00001634    0.00048343   -0.00199524
     atom   17 type  1   force =     0.00003910    0.00012109   -0.00175010
     atom   18 type  1   force =    -0.00007910   -0.00003257   -0.00158217
     atom   19 type  1   force =    -0.00008332   -0.00009497    0.00177374
     atom   20 type  1   force =     0.00076449    0.00002041    0.00173464
     atom   21 type  1   force =    -0.00008618    0.00022848    0.00041816
     atom   22 type  1   force =    -0.00017198    0.00024762    0.00154937
     atom   23 type  1   force =     0.00019685    0.00010272    0.00069904
     atom   24 type  1   force =     0.00013473    0.00008768    0.00184056
     atom   25 type  1   force =     0.00045828    0.00022054    0.00223614
     atom   26 type  1   force =     0.00003729    0.00038216    0.00154738
     atom   27 type  1   force =    -0.00010086   -0.00006427    0.00124226
     atom   28 type  1   force =     0.00093977   -0.00000729   -0.00930112
     atom   29 type  1   force =     0.00335057    0.01091699    0.00104882
     atom   30 type  1   force =    -0.00422519    0.00415013   -0.00813182
     atom   31 type  1   force =     0.00685140   -0.00279254   -0.00661909
     atom   32 type  1   force =    -0.01424240   -0.01614658    0.02144535
     atom   33 type  1   force =    -0.00281185    0.00005205   -0.00863971
     atom   34 type  1   force =     0.00198062   -0.00296512   -0.00882031
     atom   35 type  1   force =    -0.00147517   -0.00207603   -0.00813674
     atom   36 type  1   force =    -0.00046676    0.00031462   -0.01056279
     atom   37 type  2   force =    -0.00189085   -0.00226939   -0.00143981
     atom   38 type  3   force =    -0.00817075   -0.00954749    0.01726624
     atom   39 type  4   force =     0.00000000    0.00000000    0.00000000
     The Hubbard contrib.    to forces
     atom    1 type  1   force =     0.00000000    0.00000000    0.00000000
     atom    2 type  1   force =     0.00000000    0.00000000    0.00000000
     atom    3 type  1   force =     0.00000000    0.00000000    0.00000000
     atom    4 type  1   force =     0.00000000    0.00000000    0.00000000
     atom    5 type  1   force =     0.00000000    0.00000000    0.00000000
     atom    6 type  1   force =     0.00000000    0.00000000    0.00000000
     atom    7 type  1   force =     0.00000000    0.00000000    0.00000000
     atom    8 type  1   force =     0.00000000    0.00000000    0.00000000
     atom    9 type  1   force =     0.00000000    0.00000000    0.00000000
     atom   10 type  1   force =     0.00000000    0.00000000    0.00000000
     atom   11 type  1   force =     0.00000000    0.00000000    0.00000000
     atom   12 type  1   force =     0.00000000    0.00000000    0.00000000
     atom   13 type  1   force =     0.00000000    0.00000000    0.00000000
     atom   14 type  1   force =     0.00000000    0.00000000    0.00000000
     atom   15 type  1   force =     0.00000000    0.00000000    0.00000000
     atom   16 type  1   force =     0.00000000    0.00000000    0.00000000
     atom   17 type  1   force =     0.00000000    0.00000000    0.00000000
     atom   18 type  1   force =     0.00000000    0.00000000    0.00000000
     atom   19 type  1   force =     0.00000000    0.00000000    0.00000000
     atom   20 type  1   force =     0.00000000    0.00000000    0.00000000
     atom   21 type  1   force =     0.00000000    0.00000000    0.00000000
     atom   22 type  1   force =     0.00000000    0.00000000    0.00000000
     atom   23 type  1   force =     0.00000000    0.00000000    0.00000000
     atom   24 type  1   force =     0.00000000    0.00000000    0.00000000
     atom   25 type  1   force =     0.00000000    0.00000000    0.00000000
     atom   26 type  1   force =     0.00000000    0.00000000    0.00000000
     atom   27 type  1   force =     0.00000000    0.00000000    0.00000000
     atom   28 type  1   force =     0.00000000    0.00000000    0.00000000
     atom   29 type  1   force =     0.00000000    0.00000000    0.00000000
     atom   30 type  1   force =     0.00000000    0.00000000    0.00000000
     atom   31 type  1   force =     0.00000000    0.00000000    0.00000000
     atom   32 type  1   force =     0.00000000    0.00000000    0.00000000
     atom   33 type  1   force =     0.00000000    0.00000000    0.00000000
     atom   34 type  1   force =     0.00000000    0.00000000    0.00000000
     atom   35 type  1   force =     0.00000000    0.00000000    0.00000000
     atom   36 type  1   force =     0.00000000    0.00000000    0.00000000
     atom   37 type  2   force =     0.00000000    0.00000000    0.00000000
     atom   38 type  3   force =     0.00000000    0.00000000    0.00000000
     atom   39 type  4   force =     0.00000000    0.00000000    0.00000000
     The SCF correction term to forces
     atom    1 type  1   force =     0.00000000   -0.00000000    0.00000000
     atom    2 type  1   force =    -0.00000000   -0.00000000    0.00000000
     atom    3 type  1   force =    -0.00000000   -0.00000000    0.00000000
     atom    4 type  1   force =     0.00000000   -0.00000000    0.00000000
     atom    5 type  1   force =    -0.00000000    0.00000000    0.00000000
     atom    6 type  1   force =    -0.00000000    0.00000000    0.00000000
     atom    7 type  1   force =     0.00000000   -0.00000000    0.00000000
     atom    8 type  1   force =    -0.00000000    0.00000000    0.00000000
     atom    9 type  1   force =    -0.00000000    0.00000000    0.00000000
     atom   10 type  1   force =     0.00000000    0.00000000    0.00000000
     atom   11 type  1   force =     0.00000000    0.00000000    0.00000000
     atom   12 type  1   force =    -0.00000000   -0.00000000    0.00000000
     atom   13 type  1   force =     0.00000000   -0.00000000    0.00000000
     atom   14 type  1   force =    -0.00000000   -0.00000000    0.00000000
     atom   15 type  1   force =     0.00000000    0.00000000    0.00000000
     atom   16 type  1   force =    -0.00000000   -0.00000000    0.00000000
     atom   17 type  1   force =     0.00000000    0.00000000    0.00000000
     atom   18 type  1   force =     0.00000000    0.00000000    0.00000000
     atom   19 type  1   force =     0.00000000    0.00000000   -0.00000000
     atom   20 type  1   force =     0.00000000   -0.00000000    0.00000000
     atom   21 type  1   force =    -0.00000000   -0.00000000    0.00000000
     atom   22 type  1   force =    -0.00000000   -0.00000000    0.00000000
     atom   23 type  1   force =     0.00000000   -0.00000000    0.00000000
     atom   24 type  1   force =     0.00000000    0.00000000    0.00000000
     atom   25 type  1   force =    -0.00000000   -0.00000000    0.00000000
     atom   26 type  1   force =     0.00000000   -0.00000000    0.00000000
     atom   27 type  1   force =    -0.00000000    0.00000000    0.00000000
     atom   28 type  1   force =     0.00000000   -0.00000000   -0.00000000
     atom   29 type  1   force =     0.00000000   -0.00000000   -0.00000000
     atom   30 type  1   force =    -0.00000000   -0.00000000   -0.00000000
     atom   31 type  1   force =     0.00000000    0.00000000   -0.00000000
     atom   32 type  1   force =    -0.00000000   -0.00000000   -0.00000000
     atom   33 type  1   force =    -0.00000000    0.00000000   -0.00000000
     atom   34 type  1   force =    -0.00000000   -0.00000000   -0.00000000
     atom   35 type  1   force =     0.00000000    0.00000000   -0.00000000
     atom   36 type  1   force =    -0.00000000    0.00000000   -0.00000000
     atom   37 type  2   force =     0.00000557   -0.00005884   -0.00018139
     atom   38 type  3   force =     0.00003846   -0.00002009   -0.00023561
     atom   39 type  4   force =    -0.00000920   -0.00001188   -0.00004763

     Total force =     0.018157     Total SCF correction =     0.000310

     Writing all to output data dir ./pwscf.save/

     init_run     :     10.52s CPU     10.93s WALL (       1 calls)
     electrons    :    651.81s CPU    660.15s WALL (       1 calls)
     forces       :      7.89s CPU      7.98s WALL (       1 calls)

     Called by init_run:
     wfcinit      :      7.29s CPU      7.58s WALL (       1 calls)
     potinit      :      2.14s CPU      2.22s WALL (       1 calls)
     hinit0       :      0.84s CPU      0.85s WALL (       1 calls)

     Called by electrons:
     c_bands      :    541.73s CPU    548.16s WALL (      42 calls)
     sum_band     :     77.03s CPU     78.11s WALL (      42 calls)
     v_of_rho     :      7.35s CPU      7.72s WALL (      43 calls)
     newd         :      6.76s CPU      6.83s WALL (      43 calls)
     PAW_pot      :     11.39s CPU     11.51s WALL (      43 calls)
     mix_rho      :      8.52s CPU      8.69s WALL (      42 calls)
     vdW_kernel   :      1.10s CPU      1.11s WALL (       1 calls)

     Called by c_bands:
     init_us_2    :      5.22s CPU      5.33s WALL (    2236 calls)
     init_us_2:cp :      5.21s CPU      5.32s WALL (    2236 calls)
     cegterg      :    524.36s CPU    530.01s WALL (    1092 calls)

     Called by *egterg:
     cdiaghg      :    166.71s CPU    167.73s WALL (    3648 calls)
     h_psi        :    251.18s CPU    254.84s WALL (    3674 calls)
     s_psi        :     23.18s CPU     23.42s WALL (    3674 calls)
     g_psi        :      0.46s CPU      0.47s WALL (    2556 calls)

     Called by h_psi:
     h_psi:calbec :     36.85s CPU     37.40s WALL (    3674 calls)
     vloc_psi     :    188.93s CPU    191.75s WALL (    3674 calls)
     add_vuspsi   :     24.16s CPU     24.45s WALL (    3674 calls)

     General routines
     calbec       :     60.93s CPU     61.67s WALL (    4870 calls)
     fft          :      4.92s CPU      5.29s WALL (    3904 calls)
     ffts         :      5.48s CPU      5.59s WALL (   15017 calls)
     fftw         :    224.28s CPU    227.59s WALL ( 1139400 calls)
     interpolate  :      0.68s CPU      0.70s WALL (      86 calls)

     Parallel routines

     PWSCF        :  11m14.60s CPU  11m28.17s WALL


   This run was terminated on:  15:38:52  20Nov2025            

=------------------------------------------------------------------------------=
   JOB DONE.
=------------------------------------------------------------------------------=
