
     Program PWSCF v.7.1 starts on  8Dec2025 at 15:27:42 
        Git branch: heads/qe-7.1
        Last git commit: 48ba0178f8fede6d020eb786884699a9f063f55d-dirty
        Last git commit date: Fri Jan 27 14:22:33 2023 +0000
        Last git commit subject: Merge branch 'fix_hubbard' into 'develop'

     This program is part of the open-source Quantum ESPRESSO suite
     for quantum simulation of materials; please cite
         "P. Giannozzi et al., J. Phys.:Condens. Matter 21 395502 (2009);
         "P. Giannozzi et al., J. Phys.:Condens. Matter 29 465901 (2017);
         "P. Giannozzi et al., J. Chem. Phys. 152 154105 (2020);
          URL http://www.quantum-espresso.org", 
     in publications or presentations arising from this work. More details at
     http://www.quantum-espresso.org/quote

     Parallel version (MPI), running on    48 processors

     MPI processes distributed on     1 nodes
     24756 MiB available memory on the printing compute node when the environment starts

     Reading input from espresso.pwi
Warning: card &CELL ignored
Warning: card / ignored
Warning: card &FCP ignored
Warning: card / ignored
Warning: card &RISM ignored
Warning: card / ignored

     Current dimensions of program PWSCF are:
     Max number of different atomic species (ntypx) = 10
     Max number of k-points (npk) =  40000
     Max angular momentum in pseudopotentials (lmaxx) =  4
     file Pt.pbe-n-kjpaw_psl.1.0.0.UPF: wavefunction(s)  6S 5D renormalized
     file C.pbe-n-kjpaw_psl.1.0.0.UPF: wavefunction(s)  2S 2P renormalized
     file H.pbe-kjpaw_psl.1.0.0.UPF: wavefunction(s)  1S renormalized

     **************************************************************************
     Initializing libbeef V0.1.2 with the BEEF-vdW functional.
     Citation: Wellendorff et al., PRB 85, 235149 (2012).
     **************************************************************************


     IMPORTANT: XC functional enforced from input :
     Exchange-correlation= BEEF-VDW
                           (   1   4  43  14   2   0   0)
     Any further DFT definition will be discarded
     Please, verify this is what you really want


     R & G space division:  proc/nbgrp/npool/nimage =      48
     Subspace diagonalization in iterative solution of the eigenvalue problem:
     one sub-group per band group will be used
     custom distributed-memory algorithm (size of sub-group:  2*  2 procs)


     Parallelization info
     --------------------
     sticks:   dense  smooth     PW     G-vecs:    dense   smooth      PW
     Min         151      59     16                29407     7165    1028
     Max         152      60     17                29420     7176    1042
     Sum        7267    2839    769              1411785   344073   49691

     Using Slab Decomposition



     bravais-lattice index     =            0
     lattice parameter (alat)  =      16.0349  a.u.
     unit-cell volume          =   10068.6169 (a.u.)^3
     number of atoms/cell      =           39
     number of atomic types    =            3
     number of electrons       =       369.00
     number of Kohn-Sham states=          222
     kinetic-energy cutoff     =      40.0000  Ry
     charge density cutoff     =     410.0000  Ry
     scf convergence threshold =      1.0E-06
     mixing beta               =       0.7000
     number of iterations used =            8  local-TF  mixing
     Exchange-correlation= BEEF-VDW
                           (   1   4  43  14   2   0   0)

     celldm(1)=  16.034858  celldm(2)=   0.000000  celldm(3)=   0.000000
     celldm(4)=   0.000000  celldm(5)=   0.000000  celldm(6)=   0.000000

     crystal axes: (cart. coord. in units of alat)
               a(1) = (   1.000000   0.000000   0.000000 )  
               a(2) = (   0.500000   0.866025   0.000000 )  
               a(3) = (   0.000000   0.000000   2.819966 )  

     reciprocal axes: (cart. coord. in units 2 pi/alat)
               b(1) = (  1.000000 -0.577350  0.000000 )  
               b(2) = (  0.000000  1.154701  0.000000 )  
               b(3) = (  0.000000  0.000000  0.354614 )  


     PseudoPot. # 1 for Pt read from file:
     /users/kbadger1/espresso/pseudo/pslibrary.1.0.0/pbe/PSEUDOPOTENTIALS/Pt.pbe-n-kjpaw_psl.1.0.0.UPF
     MD5 check sum: 2e24a0b5bf98a4ed1a57fa81bca8c143
     Pseudo is Projector augmented-wave + core cor, Zval = 10.0
     Generated using 'atomic' code by A. Dal Corso  v.7.0
     Shape of augmentation charge: PSQ
     Using radial grid of 1277 points,  6 beta functions with: 
                l(1) =   0
                l(2) =   0
                l(3) =   1
                l(4) =   1
                l(5) =   2
                l(6) =   2
     Q(r) pseudized with 0 coefficients 


     PseudoPot. # 2 for C  read from file:
     /users/kbadger1/espresso/pseudo/pslibrary.1.0.0/pbe/PSEUDOPOTENTIALS/C.pbe-n-kjpaw_psl.1.0.0.UPF
     MD5 check sum: 6408e75cdba28732cea38a4db8498ce4
     Pseudo is Projector augmented-wave + core cor, Zval =  4.0
     Generated using 'atomic' code by A. Dal Corso  v.7.0
     Shape of augmentation charge: PSQ
     Using radial grid of 1073 points,  4 beta functions with: 
                l(1) =   0
                l(2) =   0
                l(3) =   1
                l(4) =   1
     Q(r) pseudized with 0 coefficients 


     PseudoPot. # 3 for H  read from file:
     /users/kbadger1/espresso/pseudo/pslibrary.1.0.0/pbe/PSEUDOPOTENTIALS/H.pbe-kjpaw_psl.1.0.0.UPF
     MD5 check sum: fe4c6fa958fa6d3815bf5d2419cbf1df
     Pseudo is Projector augmented-wave, Zval =  1.0
     Generated using 'atomic' code by A. Dal Corso  v.7.0
     Shape of augmentation charge: PSQ
     Using radial grid of  929 points,  2 beta functions with: 
                l(1) =   0
                l(2) =   0
     Q(r) pseudized with 0 coefficients 


     atomic species   valence    mass     pseudopotential
        Pt            10.00   195.08400     Pt( 1.00)
        C              4.00    12.01100     C ( 1.00)
        H              1.00     1.00800     H ( 1.00)

     No symmetry found



   Cartesian axes

     site n.     atom                  positions (alat units)
         1           Pt  tau(   1) = (   0.0000000   0.0000000   1.0017346  )
         2           Pt  tau(   2) = (   0.3333333   0.0000000   1.0017346  )
         3           Pt  tau(   3) = (   0.6666667   0.0000000   1.0017346  )
         4           Pt  tau(   4) = (   0.1666667   0.2886751   1.0017346  )
         5           Pt  tau(   5) = (   0.5000000   0.2886751   1.0017346  )
         6           Pt  tau(   6) = (   0.8333333   0.2886751   1.0017346  )
         7           Pt  tau(   7) = (   0.3333333   0.5773503   1.0017346  )
         8           Pt  tau(   8) = (   0.6666667   0.5773503   1.0017346  )
         9           Pt  tau(   9) = (   1.0000000   0.5773503   1.0017346  )
        10           Pt  tau(  10) = (   0.1666667   0.0962250   1.2739001  )
        11           Pt  tau(  11) = (   0.5000000   0.0962250   1.2739001  )
        12           Pt  tau(  12) = (   0.8333333   0.0962250   1.2739001  )
        13           Pt  tau(  13) = (   0.3333333   0.3849002   1.2739001  )
        14           Pt  tau(  14) = (   0.6666667   0.3849002   1.2739001  )
        15           Pt  tau(  15) = (   1.0000000   0.3849002   1.2739001  )
        16           Pt  tau(  16) = (   0.5000000   0.6735753   1.2739001  )
        17           Pt  tau(  17) = (   0.8333333   0.6735753   1.2739001  )
        18           Pt  tau(  18) = (   1.1666667   0.6735753   1.2739001  )
        19           Pt  tau(  19) = (   0.0021239   0.1901243   1.5485815  )
        20           Pt  tau(  20) = (   0.3311706   0.1901247   1.5485763  )
        21           Pt  tau(  21) = (   0.6666542   0.1927627   1.5377812  )
        22           Pt  tau(  22) = (   0.1666438   0.4784851   1.5487388  )
        23           Pt  tau(  23) = (   0.4974866   0.4820758   1.5456528  )
        24           Pt  tau(  24) = (   0.8358063   0.4820785   1.5456482  )
        25           Pt  tau(  25) = (   0.3353564   0.7682815   1.5479392  )
        26           Pt  tau(  26) = (   0.6666505   0.7707929   1.5477245  )
        27           Pt  tau(  27) = (   0.9979380   0.7682874   1.5479212  )
        28           Pt  tau(  28) = (  -0.0151659  -0.0135431   1.8342760  )
        29           Pt  tau(  29) = (   0.3484132  -0.0135161   1.8342606  )
        30           Pt  tau(  30) = (   0.6666295   0.0020197   1.8124578  )
        31           Pt  tau(  31) = (   0.1666124   0.2811009   1.8397910  )
        32           Pt  tau(  32) = (   0.5050336   0.2855419   1.8134835  )
        33           Pt  tau(  33) = (   0.8282403   0.2855462   1.8134800  )
        34           Pt  tau(  34) = (   0.3362194   0.5708604   1.8373166  )
        35           Pt  tau(  35) = (   0.6666283   0.5696819   1.8140741  )
        36           Pt  tau(  36) = (   0.9970310   0.5708993   1.8372726  )
        37           C   tau(  37) = (   0.1666242   0.0686829   1.9341423  )
        38           H   tau(  38) = (   0.1664812   0.3945122   2.0686260  )
        39           C   tau(  39) = (   0.1665762   0.4875696   1.9726813  )

     number of k points=    13  Marzari-Vanderbilt smearing, width (Ry)=  0.0010
                       cart. coord. in units 2pi/alat
        k(    1) = (   0.0000000   0.0000000   0.0000000), wk =   0.0800000
        k(    2) = (   0.0000000   0.2309401   0.0000000), wk =   0.1600000
        k(    3) = (   0.0000000   0.4618802   0.0000000), wk =   0.1600000
        k(    4) = (   0.2000000  -0.1154701   0.0000000), wk =   0.1600000
        k(    5) = (   0.2000000   0.1154701   0.0000000), wk =   0.1600000
        k(    6) = (   0.2000000   0.3464102   0.0000000), wk =   0.1600000
        k(    7) = (   0.2000000  -0.5773503   0.0000000), wk =   0.1600000
        k(    8) = (   0.2000000  -0.3464102   0.0000000), wk =   0.1600000
        k(    9) = (   0.4000000  -0.2309401   0.0000000), wk =   0.1600000
        k(   10) = (   0.4000000  -0.0000000   0.0000000), wk =   0.1600000
        k(   11) = (   0.4000000   0.2309401   0.0000000), wk =   0.1600000
        k(   12) = (   0.4000000  -0.6928203   0.0000000), wk =   0.1600000
        k(   13) = (   0.4000000  -0.4618802   0.0000000), wk =   0.1600000

     Dense  grid:  1411785 G-vectors     FFT dimensions: ( 108, 108, 300)

     Smooth grid:   344073 G-vectors     FFT dimensions: (  72,  72, 192)

     Estimated max dynamical RAM per process >     207.37 MB

     Estimated total dynamical RAM >       9.72 GB

     Initial potential from superposition of free atoms

     starting charge     368.9938, renormalised to     369.0000

     negative rho (up, down):  3.222E-03 0.000E+00


     %%%%%%%%%%%%%%%%%%%%%%%%%%%%%%%%%%%%%%%%%%%%%%%%%%%%%%%%%%%%%%%%%%%%%%%%
     %                                                                      %
     % You are using vdW-DF, which was implemented by the Thonhauser group. %
     % Please cite the following two papers that made this development      %
     % possible and the two reviews that describe the various versions:     %
     %                                                                      %
     %   T. Thonhauser et al., PRL 115, 136402 (2015).                      %
     %   T. Thonhauser et al., PRB 76, 125112 (2007).                       %
     %   K. Berland et al., Rep. Prog. Phys. 78, 066501 (2015).             %
     %   D.C. Langreth et al., J. Phys.: Condens. Matter 21, 084203 (2009). %
     %                                                                      %
     % If you are calculating stress with vdW-DF, please also cite:         %
     %                                                                      %
     %   R. Sabatini et al., J. Phys.: Condens. Matter 24, 424209 (2012).   %
     %                                                                      %
     %%%%%%%%%%%%%%%%%%%%%%%%%%%%%%%%%%%%%%%%%%%%%%%%%%%%%%%%%%%%%%%%%%%%%%%%

     %%%%%%%%%%%%%%%%%%%%%%%%%%%%%%%%%%%%%%%%%%%%%%%%%%%%%%%%%%%%%%%%%%%%%%%%
     %                                                                      %
     %  vdW-DF NEWS:                                                        %
     %                                                                      %
     %  * vdW-DF3 is now available. DOI: 10.1021/acs.jctc.0c00471           %
     %    use with input_dft = 'vdW-DF3-opt1' or 'vdW-DF3-opt2'             %
     %                                                                      %
     %  * Unscreened and range-separated hybrid vdW-DF-cx functionals       %
     %    DOI: 10.1063/1.4986522 and 10.1088/1361-648X/ac2ad2               %
     %    use with input_dft = 'vdW-DF-cx0'    and 'vdW-DF-ahcx'            %
     %  * Unscreened and range-separated hybrid vdW-DF2-b86r functionals    %
     %    DOI: 10.1063/1.4986522 and DOI: 10.1103/PhysRevX.12.041003        %
     %    use with input_dft = 'vdW-DF2-br0' and 'vdW-DF2-ahbr'             %
     %                                                                      %
     %%%%%%%%%%%%%%%%%%%%%%%%%%%%%%%%%%%%%%%%%%%%%%%%%%%%%%%%%%%%%%%%%%%%%%%%


     Starting wfcs are  333 randomized atomic wfcs
     Checking if some PAW data can be deallocated... 

     total cpu time spent up to now is       11.5 secs

     per-process dynamical memory:   212.7 Mb

     Self-consistent Calculation

     iteration #  1     ecut=    40.00 Ry     beta= 0.70
     Davidson diagonalization with overlap
     ethr =  1.00E-02,  avg # of iterations =  2.0

     Threshold (ethr) on eigenvalues was too large:
     Diagonalizing with lowered threshold

     Davidson diagonalization with overlap
     ethr =  6.54E-04,  avg # of iterations =  2.8

     negative rho (up, down):  1.230E-02 0.000E+00

     total cpu time spent up to now is       58.3 secs

     total energy              =  -27792.88552483 Ry
     estimated scf accuracy    <       2.70788028 Ry

     iteration #  2     ecut=    40.00 Ry     beta= 0.70
     Davidson diagonalization with overlap
     ethr =  7.34E-04,  avg # of iterations =  2.0

     negative rho (up, down):  9.241E-03 0.000E+00

     total cpu time spent up to now is       82.0 secs

     total energy              =  -27793.21651586 Ry
     estimated scf accuracy    <       0.75914140 Ry

     iteration #  3     ecut=    40.00 Ry     beta= 0.70
     Davidson diagonalization with overlap
     ethr =  2.06E-04,  avg # of iterations =  3.8

     negative rho (up, down):  6.206E-03 0.000E+00

     total cpu time spent up to now is       99.3 secs

     total energy              =  -27793.28843770 Ry
     estimated scf accuracy    <       0.30624083 Ry

     iteration #  4     ecut=    40.00 Ry     beta= 0.70
     Davidson diagonalization with overlap
     ethr =  8.30E-05,  avg # of iterations =  7.5

     negative rho (up, down):  2.421E-03 0.000E+00

     total cpu time spent up to now is      128.5 secs

     total energy              =  -27793.31959375 Ry
     estimated scf accuracy    <       0.05583613 Ry

     iteration #  5     ecut=    40.00 Ry     beta= 0.70
     Davidson diagonalization with overlap
     c_bands:  1 eigenvalues not converged
     c_bands:  1 eigenvalues not converged
     ethr =  1.51E-05,  avg # of iterations = 13.8

     negative rho (up, down):  1.388E-03 0.000E+00

     total cpu time spent up to now is      189.0 secs

     total energy              =  -27793.34090159 Ry
     estimated scf accuracy    <       0.04846215 Ry

     iteration #  6     ecut=    40.00 Ry     beta= 0.70
     Davidson diagonalization with overlap
     ethr =  1.31E-05,  avg # of iterations =  1.9

     negative rho (up, down):  4.557E-04 0.000E+00

     total cpu time spent up to now is      213.3 secs

     total energy              =  -27793.34211240 Ry
     estimated scf accuracy    <       0.00675168 Ry

     iteration #  7     ecut=    40.00 Ry     beta= 0.70
     Davidson diagonalization with overlap
     c_bands:  1 eigenvalues not converged
     c_bands:  1 eigenvalues not converged
     c_bands:  1 eigenvalues not converged
     c_bands:  1 eigenvalues not converged
     c_bands:  1 eigenvalues not converged
     c_bands:  1 eigenvalues not converged
     c_bands:  1 eigenvalues not converged
     c_bands:  1 eigenvalues not converged
     ethr =  1.83E-06,  avg # of iterations = 15.5

     negative rho (up, down):  1.862E-04 0.000E+00

     total cpu time spent up to now is      271.9 secs

     total energy              =  -27793.34331555 Ry
     estimated scf accuracy    <       0.00426865 Ry

     iteration #  8     ecut=    40.00 Ry     beta= 0.70
     Davidson diagonalization with overlap
     ethr =  1.16E-06,  avg # of iterations =  2.4

     negative rho (up, down):  1.241E-04 0.000E+00

     total cpu time spent up to now is      296.9 secs

     total energy              =  -27793.34357254 Ry
     estimated scf accuracy    <       0.00092025 Ry

     iteration #  9     ecut=    40.00 Ry     beta= 0.70
     Davidson diagonalization with overlap
     ethr =  2.49E-07,  avg # of iterations =  4.0

     negative rho (up, down):  1.202E-04 0.000E+00

     total cpu time spent up to now is      326.4 secs

     total energy              =  -27793.34372806 Ry
     estimated scf accuracy    <       0.00059885 Ry

     iteration # 10     ecut=    40.00 Ry     beta= 0.70
     Davidson diagonalization with overlap
     ethr =  1.62E-07,  avg # of iterations =  1.9

     negative rho (up, down):  1.478E-04 0.000E+00

     total cpu time spent up to now is      342.0 secs

     total energy              =  -27793.34376798 Ry
     estimated scf accuracy    <       0.00045020 Ry

     iteration # 11     ecut=    40.00 Ry     beta= 0.70
     Davidson diagonalization with overlap
     c_bands:  2 eigenvalues not converged
     c_bands:  2 eigenvalues not converged
     ethr =  1.22E-07,  avg # of iterations =  4.8

     negative rho (up, down):  2.358E-04 0.000E+00

     total cpu time spent up to now is      369.6 secs

     total energy              =  -27793.34383029 Ry
     estimated scf accuracy    <       0.00028399 Ry

     iteration # 12     ecut=    40.00 Ry     beta= 0.70
     Davidson diagonalization with overlap
     ethr =  7.70E-08,  avg # of iterations =  4.8

     negative rho (up, down):  3.084E-04 0.000E+00

     total cpu time spent up to now is      395.8 secs

     total energy              =  -27793.34385539 Ry
     estimated scf accuracy    <       0.00016400 Ry

     iteration # 13     ecut=    40.00 Ry     beta= 0.70
     Davidson diagonalization with overlap
     ethr =  4.44E-08,  avg # of iterations =  1.4

     negative rho (up, down):  7.675E-04 0.000E+00

     total cpu time spent up to now is      418.6 secs

     total energy              =  -27793.34392315 Ry
     estimated scf accuracy    <       0.00006671 Ry

     iteration # 14     ecut=    40.00 Ry     beta= 0.70
     Davidson diagonalization with overlap
     ethr =  1.81E-08,  avg # of iterations =  4.8

     negative rho (up, down):  1.039E-03 0.000E+00

     total cpu time spent up to now is      446.6 secs

     total energy              =  -27793.34395042 Ry
     estimated scf accuracy    <       0.00004003 Ry

     iteration # 15     ecut=    40.00 Ry     beta= 0.70
     Davidson diagonalization with overlap
     ethr =  1.08E-08,  avg # of iterations =  1.6

     negative rho (up, down):  2.158E-03 0.000E+00

     total cpu time spent up to now is      461.8 secs

     total energy              =  -27793.34396297 Ry
     estimated scf accuracy    <       0.00003310 Ry

     iteration # 16     ecut=    40.00 Ry     beta= 0.70
     Davidson diagonalization with overlap
     ethr =  8.97E-09,  avg # of iterations =  2.4

     negative rho (up, down):  2.762E-03 0.000E+00

     total cpu time spent up to now is      485.5 secs

     total energy              =  -27793.34396364 Ry
     estimated scf accuracy    <       0.00000553 Ry

     iteration # 17     ecut=    40.00 Ry     beta= 0.70
     Davidson diagonalization with overlap
     ethr =  1.50E-09,  avg # of iterations =  4.0

     negative rho (up, down):  3.068E-03 0.000E+00

     total cpu time spent up to now is      519.8 secs

     total energy              =  -27793.34396448 Ry
     estimated scf accuracy    <       0.00000460 Ry

     iteration # 18     ecut=    40.00 Ry     beta= 0.70
     Davidson diagonalization with overlap
     ethr =  1.25E-09,  avg # of iterations =  1.2

     negative rho (up, down):  3.108E-03 0.000E+00

     total cpu time spent up to now is      542.6 secs

     End of self-consistent calculation

          k = 0.0000 0.0000 0.0000 ( 42913 PWs)   bands (ev):

   -10.1871  -9.3638  -5.9325  -4.9064  -4.5598  -4.1859  -3.8870  -3.6224
    -3.5986  -3.5514  -3.5504  -3.5236  -3.4413  -3.4146  -3.3597  -3.1335
    -3.0527  -3.0258  -2.9953  -2.9664  -2.9111  -2.8128  -2.7562  -2.6362
    -2.6242  -2.4713  -2.3954  -2.3915  -2.3908  -2.3811  -2.3594  -2.2768
    -2.2527  -2.2374  -2.2270  -2.1986  -2.1799  -2.1393  -2.0924  -2.0656
    -2.0168  -1.9992  -1.9566  -1.9485  -1.8227  -1.7606  -1.6649  -1.5982
    -1.5659  -1.5501  -1.5265  -1.4990  -1.4637  -1.4445  -1.3946  -1.3413
    -1.2499  -1.2358  -1.2025  -1.1533  -1.0333  -0.9672  -0.8966  -0.8434
    -0.7932  -0.7755  -0.7150  -0.6817  -0.6601  -0.5990  -0.5533  -0.5505
    -0.5387  -0.4949  -0.4846  -0.4700  -0.4620  -0.4395  -0.4274  -0.4227
    -0.3999  -0.3754  -0.3683  -0.3597  -0.3373  -0.3334  -0.3310  -0.3002
    -0.2635  -0.2576  -0.2232  -0.1002  -0.0929  -0.0541  -0.0414  -0.0100
     0.0089   0.0194   0.0565   0.0580   0.0845   0.1354   0.1385   0.1690
     0.1839   0.1890   0.2138   0.2409   0.2892   0.3143   0.3261   0.3887
     0.4339   0.5113   0.5903   0.6580   0.6660   0.6810   0.7598   0.7767
     0.8566   0.9418   0.9678   0.9723   0.9852   1.0128   1.0372   1.0402
     1.0496   1.0678   1.1039   1.1126   1.2116   1.2982   1.3203   1.3264
     1.3449   1.3686   1.4364   1.4382   1.5317   1.5330   1.5418   1.5446
     1.5887   1.5948   1.6021   1.6413   1.7265   1.7480   1.7976   1.8558
     1.8842   1.8868   1.9220   1.9253   1.9517   1.9740   1.9899   2.0013
     2.0226   2.0286   2.0394   2.0565   2.0756   2.0811   2.0938   2.1061
     2.1116   2.1191   2.1485   2.1874   2.2145   2.2177   2.2472   2.2801
     2.2878   2.3333   2.3545   2.3739   2.3773   2.3889   2.4016   2.4433
     2.4453   2.4762   2.4992   2.5468   2.5497   2.6721   2.6745   2.7081
     2.7662   2.7914   2.7918   2.8242   2.8358   2.8365   3.1041   3.2152
     3.3943   3.4568   3.6250   3.7041   4.3188   4.6532   4.6837   4.9242
     5.1985   5.7318   5.9243   6.0083   6.2248   6.2372   6.7405   7.1395
     7.6131   7.6275   7.6892   7.6922   7.8318   7.8574

          k = 0.0000 0.2309 0.0000 ( 42996 PWs)   bands (ev):

   -10.1712  -9.3782  -5.7925  -4.8995  -4.4380  -4.1282  -4.0657  -3.8285
    -3.5918  -3.5755  -3.4638  -3.4017  -3.3044  -3.2763  -3.2575  -3.1666
    -3.0401  -3.0051  -2.9684  -2.9484  -2.8757  -2.7834  -2.7611  -2.6096
    -2.5380  -2.5220  -2.4578  -2.4351  -2.4330  -2.3646  -2.3031  -2.2799
    -2.2620  -2.2450  -2.2260  -2.1921  -2.1637  -2.1450  -2.1226  -2.0310
    -2.0046  -1.9900  -1.9150  -1.8779  -1.8130  -1.7610  -1.6778  -1.6624
    -1.6179  -1.5808  -1.5804  -1.5732  -1.4704  -1.4323  -1.3656  -1.3469
    -1.2822  -1.2465  -1.2030  -1.2025  -1.0922  -0.9698  -0.9384  -0.9099
    -0.8767  -0.8506  -0.8247  -0.8221  -0.7764  -0.7240  -0.7094  -0.6441
    -0.6326  -0.5961  -0.5449  -0.5310  -0.5288  -0.4882  -0.4595  -0.4544
    -0.4042  -0.3737  -0.3323  -0.3254  -0.3068  -0.2957  -0.2814  -0.2701
    -0.2567  -0.2047  -0.1321  -0.1232  -0.0965  -0.0927  -0.0624  -0.0565
    -0.0473  -0.0213  -0.0105   0.0073   0.0591   0.0818   0.1011   0.1090
     0.1275   0.1772   0.2093   0.2186   0.2843   0.3099   0.3639   0.3790
     0.4129   0.4246   0.4275   0.4516   0.4550   0.6224   0.6347   0.6920
     0.6959   0.7752   0.7764   0.8373   0.8759   0.9499   0.9525   1.0317
     1.0882   1.0909   1.1414   1.1641   1.1727   1.1986   1.2118   1.2283
     1.2999   1.3079   1.3432   1.3699   1.4275   1.4309   1.4747   1.4952
     1.5458   1.5548   1.5776   1.6047   1.6313   1.6800   1.7039   1.7762
     1.7881   1.8042   1.8193   1.9056   1.9306   1.9596   1.9760   1.9863
     2.0130   2.0459   2.0506   2.1096   2.1225   2.1521   2.2051   2.2276
     2.2651   2.3335   2.3405   2.3600   2.3609   2.3833   2.4239   2.4366
     2.4614   2.4785   2.5235   2.5290   2.5782   2.5933   2.6459   2.6575
     2.6779   2.7117   2.7168   2.7441   2.7910   2.8093   2.8250   2.8398
     2.8789   2.9458   2.9548   3.0491   3.0706   3.1300   3.2659   3.3595
     3.5514   3.7405   3.8555   4.1851   4.4607   4.6345   4.6797   5.1063
     5.1206   5.6389   5.8499   6.1914   6.2941   6.4428   6.5970   6.8160
     6.8924   7.2438   7.4858   7.6430   7.7790   7.8912

          k = 0.0000 0.4619 0.0000 ( 43046 PWs)   bands (ev):

   -10.1442  -9.4029  -5.4001  -4.9434  -4.6458  -4.0829  -4.0227  -3.8472
    -3.6423  -3.5314  -3.4608  -3.3111  -3.1662  -3.1425  -3.0731  -3.0321
    -2.9696  -2.9347  -2.8732  -2.8062  -2.7746  -2.7404  -2.6604  -2.6591
    -2.5906  -2.5809  -2.5714  -2.5096  -2.4747  -2.4457  -2.4390  -2.3648
    -2.3516  -2.2192  -2.2010  -2.1691  -2.1366  -2.0897  -2.0424  -2.0331
    -1.9498  -1.9215  -1.9021  -1.8727  -1.8033  -1.7776  -1.7397  -1.6936
    -1.6225  -1.5947  -1.5828  -1.5039  -1.4975  -1.4416  -1.4223  -1.3982
    -1.3680  -1.3407  -1.2682  -1.2622  -1.1567  -1.1218  -1.1113  -1.0388
    -1.0291  -0.9460  -0.9207  -0.8945  -0.8854  -0.8252  -0.7749  -0.7599
    -0.7533  -0.7040  -0.6813  -0.6646  -0.6413  -0.5722  -0.5434  -0.4996
    -0.4873  -0.4250  -0.3801  -0.3709  -0.3649  -0.3426  -0.3357  -0.2747
    -0.2733  -0.2533  -0.2207  -0.2036  -0.1648  -0.1348  -0.1264  -0.1107
    -0.0566  -0.0299  -0.0289  -0.0022   0.0317   0.0399   0.0579   0.0721
     0.1277   0.1451   0.2036   0.2176   0.2270   0.2837   0.3199   0.3485
     0.3804   0.4140   0.4320   0.4770   0.4989   0.6034   0.6040   0.6486
     0.6726   0.7166   0.7485   0.7984   0.8115   0.8150   0.8270   0.8869
     0.9018   0.9182   0.9623   1.0163   1.0379   1.0613   1.1049   1.1394
     1.1523   1.2306   1.2536   1.2926   1.3683   1.4076   1.4276   1.4572
     1.5313   1.5434   1.5724   1.6008   1.6266   1.6627   1.6640   1.7168
     1.7169   1.7893   1.7985   1.8726   1.8832   1.8985   1.9238   2.0035
     2.0234   2.0244   2.1077   2.1081   2.2023   2.2072   2.2592   2.2954
     2.3631   2.3751   2.3887   2.4213   2.4470   2.4686   2.5201   2.5325
     2.5860   2.5944   2.6359   2.6774   2.6998   2.7073   2.7215   2.7885
     2.8341   2.9127   2.9597   2.9657   2.9759   3.0311   3.0484   3.1035
     3.2107   3.2698   3.4047   3.6625   3.8998   3.9423   4.0647   4.1820
     4.1898   4.4455   4.4822   4.6446   4.8496   4.8706   5.0816   5.2428
     5.3440   5.4367   5.5743   5.6188   5.9366   5.9630   6.2880   6.4541
     6.4874   6.8142   7.0146   7.2151   7.3597   7.7147

          k = 0.2000-0.1155 0.0000 ( 42996 PWs)   bands (ev):

   -10.1770  -9.3674  -5.7931  -4.8660  -4.4597  -4.2489  -3.9582  -3.7918
    -3.6391  -3.5519  -3.4665  -3.4073  -3.3512  -3.2787  -3.2475  -3.1385
    -3.0912  -3.0289  -2.9742  -2.9475  -2.8675  -2.7685  -2.7222  -2.6260
    -2.5820  -2.5275  -2.4577  -2.4377  -2.4173  -2.3334  -2.3146  -2.2897
    -2.2684  -2.2480  -2.2354  -2.2167  -2.1675  -2.1461  -2.0720  -2.0502
    -2.0093  -1.9546  -1.9095  -1.8656  -1.8407  -1.7633  -1.6736  -1.6357
    -1.6044  -1.5859  -1.5769  -1.5399  -1.4753  -1.4400  -1.3624  -1.3364
    -1.3166  -1.2462  -1.2254  -1.1690  -1.1095  -0.9906  -0.9337  -0.9051
    -0.8823  -0.8591  -0.8297  -0.8134  -0.7625  -0.7407  -0.7177  -0.6521
    -0.6279  -0.5895  -0.5616  -0.5299  -0.5192  -0.5013  -0.4851  -0.4133
    -0.3992  -0.3740  -0.3599  -0.3443  -0.3243  -0.2872  -0.2790  -0.2606
    -0.2348  -0.2016  -0.1581  -0.1308  -0.1094  -0.0908  -0.0672  -0.0467
    -0.0340  -0.0098   0.0140   0.0442   0.0633   0.0760   0.0930   0.1150
     0.1316   0.1594   0.2073   0.2336   0.2981   0.3347   0.3545   0.3719
     0.4102   0.4229   0.4457   0.4730   0.5171   0.5599   0.6219   0.6765
     0.7109   0.7682   0.7900   0.8334   0.8695   0.9488   0.9623   1.0199
     1.0670   1.0793   1.1254   1.1494   1.1923   1.2081   1.2235   1.2428
     1.2806   1.3088   1.3548   1.4023   1.4250   1.4536   1.4759   1.5101
     1.5584   1.5647   1.5889   1.6482   1.6656   1.6932   1.7255   1.7744
     1.7920   1.8129   1.8357   1.8974   1.9437   1.9628   1.9869   2.0041
     2.0239   2.0493   2.0753   2.1059   2.1460   2.1654   2.1873   2.2292
     2.2618   2.3004   2.3182   2.3440   2.3641   2.3747   2.4028   2.4245
     2.4491   2.4887   2.5155   2.5360   2.5838   2.5933   2.6371   2.6661
     2.6775   2.7053   2.7298   2.7360   2.7758   2.7872   2.7931   2.8175
     2.8665   2.9443   2.9647   3.0188   3.0591   3.1003   3.1980   3.3559
     3.5861   3.7592   3.9172   4.1156   4.3610   4.6068   4.7201   5.0624
     5.2377   5.6100   5.9183   6.0194   6.3180   6.4245   6.6255   6.6957
     6.8753   7.3353   7.4849   7.7357   7.8318   7.9082

          k = 0.2000 0.1155 0.0000 ( 42996 PWs)   bands (ev):

   -10.1770  -9.3673  -5.7931  -4.8660  -4.4597  -4.2489  -3.9582  -3.7919
    -3.6391  -3.5519  -3.4665  -3.4072  -3.3512  -3.2787  -3.2476  -3.1385
    -3.0911  -3.0290  -2.9741  -2.9474  -2.8675  -2.7686  -2.7222  -2.6260
    -2.5819  -2.5276  -2.4578  -2.4376  -2.4173  -2.3333  -2.3146  -2.2896
    -2.2684  -2.2480  -2.2355  -2.2167  -2.1675  -2.1461  -2.0720  -2.0502
    -2.0092  -1.9546  -1.9095  -1.8656  -1.8407  -1.7633  -1.6736  -1.6356
    -1.6044  -1.5859  -1.5769  -1.5398  -1.4753  -1.4402  -1.3623  -1.3363
    -1.3166  -1.2462  -1.2255  -1.1690  -1.1095  -0.9906  -0.9338  -0.9052
    -0.8823  -0.8592  -0.8296  -0.8133  -0.7625  -0.7407  -0.7177  -0.6522
    -0.6279  -0.5894  -0.5616  -0.5299  -0.5192  -0.5013  -0.4851  -0.4132
    -0.3991  -0.3739  -0.3598  -0.3443  -0.3243  -0.2872  -0.2790  -0.2606
    -0.2348  -0.2018  -0.1580  -0.1309  -0.1094  -0.0907  -0.0672  -0.0466
    -0.0340  -0.0099   0.0139   0.0442   0.0633   0.0760   0.0930   0.1150
     0.1316   0.1594   0.2073   0.2336   0.2982   0.3348   0.3545   0.3719
     0.4102   0.4229   0.4456   0.4729   0.5171   0.5599   0.6218   0.6765
     0.7110   0.7682   0.7901   0.8334   0.8695   0.9488   0.9623   1.0199
     1.0670   1.0794   1.1253   1.1494   1.1923   1.2081   1.2235   1.2429
     1.2806   1.3088   1.3548   1.4023   1.4250   1.4535   1.4759   1.5101
     1.5584   1.5647   1.5889   1.6481   1.6656   1.6932   1.7255   1.7744
     1.7920   1.8129   1.8357   1.8974   1.9437   1.9628   1.9868   2.0040
     2.0239   2.0493   2.0753   2.1059   2.1460   2.1654   2.1873   2.2292
     2.2618   2.3005   2.3183   2.3440   2.3641   2.3747   2.4028   2.4245
     2.4491   2.4886   2.5155   2.5360   2.5839   2.5933   2.6371   2.6661
     2.6776   2.7054   2.7298   2.7360   2.7758   2.7872   2.7931   2.8175
     2.8666   2.9443   2.9646   3.0188   3.0592   3.1003   3.1979   3.3558
     3.5862   3.7592   3.9173   4.1156   4.3609   4.6069   4.7201   5.0625
     5.2377   5.6099   5.9183   6.0195   6.3180   6.4244   6.6255   6.6956
     6.8754   7.3353   7.4849   7.7357   7.8318   7.9081

          k = 0.2000 0.3464 0.0000 ( 43046 PWs)   bands (ev):

   -10.1557  -9.3867  -5.5246  -4.8637  -4.4169  -4.2715  -4.1844  -3.8896
    -3.7064  -3.3465  -3.2671  -3.2490  -3.1997  -3.1904  -3.1613  -3.1095
    -3.0950  -3.0299  -2.9691  -2.9063  -2.7585  -2.6961  -2.6588  -2.6322
    -2.5997  -2.5541  -2.5263  -2.4826  -2.4012  -2.3710  -2.3601  -2.3273
    -2.3233  -2.2866  -2.2352  -2.2198  -2.1588  -2.1478  -2.1109  -2.0874
    -2.0139  -1.9598  -1.9023  -1.8046  -1.7663  -1.7479  -1.6895  -1.6665
    -1.6122  -1.6065  -1.5479  -1.5241  -1.4827  -1.4460  -1.4001  -1.3646
    -1.3195  -1.2609  -1.2143  -1.1944  -1.1713  -1.1340  -1.0858  -1.0427
    -0.9966  -0.9477  -0.9120  -0.8700  -0.8469  -0.8067  -0.7843  -0.7574
    -0.7393  -0.6818  -0.6538  -0.6220  -0.6010  -0.5814  -0.5277  -0.4964
    -0.4578  -0.4302  -0.3981  -0.3856  -0.3557  -0.3286  -0.3126  -0.2800
    -0.2643  -0.2245  -0.1949  -0.1768  -0.1520  -0.1275  -0.1144  -0.0834
    -0.0573  -0.0438  -0.0211   0.0124   0.0314   0.0642   0.0788   0.1111
     0.1411   0.1492   0.1670   0.1992   0.2166   0.2382   0.2851   0.3107
     0.3470   0.3679   0.4037   0.4594   0.5068   0.5649   0.5972   0.6386
     0.6930   0.7317   0.7639   0.7961   0.8413   0.8506   0.8817   0.8940
     0.9601   0.9724   1.0049   1.0283   1.0687   1.1115   1.1628   1.1842
     1.2331   1.2513   1.2943   1.3265   1.3744   1.3981   1.4171   1.4456
     1.4823   1.5282   1.5543   1.5609   1.6233   1.6607   1.7069   1.7261
     1.7631   1.7797   1.7877   1.8321   1.8694   1.8776   1.9329   1.9885
     2.0407   2.0923   2.1039   2.1783   2.2112   2.2429   2.2999   2.3122
     2.3844   2.4141   2.4555   2.4834   2.4946   2.5057   2.5379   2.5622
     2.5914   2.6024   2.6157   2.6466   2.6821   2.7028   2.7188   2.7571
     2.7784   2.8133   2.8398   2.9165   2.9478   3.0085   3.0373   3.0574
     3.1468   3.1829   3.2433   3.2865   3.6979   3.7440   3.8771   3.9433
     4.0575   4.1309   4.2988   4.4980   4.6527   4.7979   5.0611   5.1872
     5.3307   5.4055   5.5758   5.9509   6.1692   6.3136   6.4680   6.6047
     6.8008   6.9203   7.1566   7.2084   7.4334   7.5424

          k = 0.2000-0.5774 0.0000 ( 43014 PWs)   bands (ev):

   -10.1420  -9.3992  -5.1143  -4.9925  -4.7022  -4.4489  -3.8758  -3.8380
    -3.6816  -3.5726  -3.3041  -3.2105  -3.1540  -3.0886  -3.0159  -2.9594
    -2.9247  -2.8686  -2.8079  -2.8017  -2.7395  -2.7326  -2.7059  -2.6946
    -2.6521  -2.6194  -2.5537  -2.5199  -2.4899  -2.4772  -2.4114  -2.3683
    -2.3469  -2.3260  -2.2740  -2.2458  -2.1448  -2.1080  -2.0867  -2.0817
    -2.0195  -1.9300  -1.9091  -1.8053  -1.7743  -1.7376  -1.7280  -1.6697
    -1.6447  -1.5752  -1.5557  -1.4822  -1.4398  -1.3717  -1.3620  -1.3320
    -1.3242  -1.2526  -1.2248  -1.1990  -1.1851  -1.1397  -1.1223  -1.0631
    -1.0346  -1.0029  -0.9725  -0.9345  -0.9294  -0.9013  -0.8517  -0.8230
    -0.8010  -0.7804  -0.7472  -0.7247  -0.6768  -0.6467  -0.6018  -0.5916
    -0.5447  -0.5108  -0.4981  -0.4692  -0.4168  -0.3971  -0.3621  -0.3357
    -0.3043  -0.2514  -0.2280  -0.2040  -0.1717  -0.1206  -0.1089  -0.0821
    -0.0411  -0.0281   0.0110   0.0465   0.0579   0.0758   0.0903   0.0968
     0.1313   0.1736   0.1793   0.2162   0.2285   0.2394   0.2572   0.2644
     0.3269   0.3733   0.3914   0.4727   0.4932   0.5620   0.5674   0.6392
     0.6691   0.6841   0.7059   0.7349   0.7627   0.8198   0.8297   0.8651
     0.8948   0.9080   0.9757   1.0167   1.0389   1.0673   1.0771   1.1345
     1.1812   1.2321   1.2959   1.3316   1.3615   1.4043   1.4185   1.4497
     1.4646   1.4913   1.5106   1.5653   1.5954   1.6145   1.6301   1.6701
     1.6889   1.7218   1.7638   1.7957   1.8657   1.9563   2.0058   2.0250
     2.0518   2.1316   2.1524   2.1772   2.2141   2.2531   2.2803   2.3441
     2.4027   2.4203   2.4595   2.5023   2.5208   2.5425   2.5601   2.6013
     2.6142   2.6691   2.6889   2.6915   2.7305   2.7462   2.7919   2.8310
     2.8726   2.9151   2.9608   2.9765   2.9985   3.0270   3.0488   3.1892
     3.2502   3.6402   3.6939   3.8431   3.9264   4.0361   4.1814   4.2725
     4.3890   4.6218   4.7231   4.7989   4.8927   5.0222   5.1741   5.3065
     5.4256   5.6725   5.7617   5.8304   5.9724   6.0287   6.0746   6.2768
     6.3444   6.3883   6.7718   7.1126   7.2036   7.2898

          k = 0.2000-0.3464 0.0000 ( 43046 PWs)   bands (ev):

   -10.1557  -9.3867  -5.5246  -4.8638  -4.4169  -4.2715  -4.1844  -3.8895
    -3.7064  -3.3465  -3.2671  -3.2491  -3.1996  -3.1904  -3.1613  -3.1095
    -3.0950  -3.0299  -2.9691  -2.9061  -2.7586  -2.6961  -2.6588  -2.6322
    -2.5997  -2.5542  -2.5264  -2.4826  -2.4012  -2.3710  -2.3601  -2.3273
    -2.3232  -2.2867  -2.2353  -2.2197  -2.1587  -2.1478  -2.1109  -2.0874
    -2.0140  -1.9598  -1.9022  -1.8047  -1.7662  -1.7478  -1.6895  -1.6665
    -1.6122  -1.6064  -1.5478  -1.5241  -1.4827  -1.4459  -1.4001  -1.3646
    -1.3195  -1.2608  -1.2143  -1.1945  -1.1712  -1.1339  -1.0858  -1.0427
    -0.9966  -0.9477  -0.9119  -0.8700  -0.8469  -0.8067  -0.7843  -0.7574
    -0.7393  -0.6817  -0.6538  -0.6220  -0.6010  -0.5815  -0.5277  -0.4966
    -0.4577  -0.4302  -0.3981  -0.3856  -0.3558  -0.3286  -0.3125  -0.2800
    -0.2644  -0.2245  -0.1950  -0.1769  -0.1519  -0.1276  -0.1144  -0.0834
    -0.0573  -0.0438  -0.0211   0.0124   0.0314   0.0642   0.0788   0.1113
     0.1411   0.1492   0.1671   0.1992   0.2167   0.2382   0.2851   0.3107
     0.3471   0.3679   0.4036   0.4594   0.5069   0.5649   0.5972   0.6386
     0.6930   0.7317   0.7639   0.7960   0.8413   0.8506   0.8817   0.8940
     0.9601   0.9724   1.0049   1.0283   1.0687   1.1116   1.1628   1.1842
     1.2331   1.2513   1.2943   1.3265   1.3743   1.3981   1.4172   1.4456
     1.4823   1.5282   1.5543   1.5609   1.6233   1.6606   1.7069   1.7261
     1.7632   1.7797   1.7877   1.8321   1.8694   1.8776   1.9329   1.9885
     2.0407   2.0922   2.1039   2.1784   2.2112   2.2429   2.2998   2.3122
     2.3844   2.4140   2.4555   2.4834   2.4947   2.5056   2.5378   2.5622
     2.5914   2.6024   2.6157   2.6466   2.6820   2.7027   2.7187   2.7571
     2.7784   2.8132   2.8397   2.9165   2.9479   3.0086   3.0374   3.0574
     3.1468   3.1829   3.2432   3.2863   3.6979   3.7440   3.8770   3.9433
     4.0576   4.1310   4.2988   4.4978   4.6527   4.7979   5.0610   5.1874
     5.3307   5.4055   5.5758   5.9510   6.1692   6.3135   6.4680   6.6047
     6.8007   6.9205   7.1565   7.2084   7.4334   7.5422

          k = 0.4000-0.2309 0.0000 ( 43046 PWs)   bands (ev):

   -10.1604  -9.3733  -5.3982  -4.8666  -4.7063  -4.1756  -4.0152  -3.7716
    -3.6735  -3.5364  -3.4742  -3.3223  -3.2213  -3.1422  -3.0728  -3.0446
    -2.9618  -2.9538  -2.8850  -2.8127  -2.7530  -2.7268  -2.6866  -2.6726
    -2.5918  -2.5595  -2.5548  -2.5223  -2.5163  -2.4652  -2.4213  -2.3764
    -2.3626  -2.2662  -2.2032  -2.1489  -2.1146  -2.0994  -2.0510  -2.0183
    -1.9531  -1.9214  -1.8914  -1.8596  -1.8287  -1.7776  -1.7024  -1.6686
    -1.6319  -1.5660  -1.5290  -1.5090  -1.4854  -1.4507  -1.4192  -1.4028
    -1.3952  -1.3080  -1.2855  -1.2324  -1.1811  -1.1386  -1.1004  -1.0670
    -1.0380  -1.0045  -0.9504  -0.9214  -0.8578  -0.8210  -0.7904  -0.7596
    -0.7129  -0.6756  -0.6598  -0.6047  -0.5945  -0.5342  -0.5209  -0.5043
    -0.4862  -0.4501  -0.4177  -0.3888  -0.3537  -0.3367  -0.3195  -0.2915
    -0.2663  -0.2453  -0.2333  -0.2240  -0.1756  -0.1432  -0.1233  -0.0973
    -0.0760  -0.0639  -0.0371  -0.0246   0.0318   0.0707   0.0924   0.1086
     0.1257   0.1630   0.1983   0.2362   0.2626   0.2801   0.3044   0.3489
     0.3891   0.3982   0.4284   0.4619   0.5141   0.5869   0.6061   0.6446
     0.6683   0.7112   0.7331   0.7726   0.8011   0.8132   0.8453   0.8697
     0.8973   0.9132   0.9703   1.0357   1.0610   1.0802   1.1130   1.1338
     1.1736   1.2070   1.3039   1.3327   1.3698   1.4421   1.4681   1.4802
     1.5017   1.5701   1.5955   1.6367   1.6579   1.6774   1.6971   1.7154
     1.7612   1.7890   1.8140   1.8723   1.8996   1.9220   1.9570   2.0024
     2.0203   2.0468   2.1390   2.1562   2.1792   2.2105   2.2402   2.3263
     2.3684   2.3785   2.3893   2.4076   2.4343   2.4861   2.5068   2.5416
     2.5654   2.6055   2.6317   2.6472   2.6801   2.6949   2.7245   2.7897
     2.8348   2.8819   2.9437   2.9518   2.9762   3.0060   3.0381   3.1872
     3.2135   3.2510   3.3591   3.5347   3.7171   3.8694   4.0670   4.1372
     4.2262   4.3582   4.4860   4.6537   4.7938   4.8897   5.0625   5.1777
     5.3471   5.4124   5.5108   5.6623   5.9452   6.0377   6.2762   6.3319
     6.4390   6.8173   6.9266   7.2008   7.5370   7.7191

          k = 0.4000-0.0000 0.0000 ( 43046 PWs)   bands (ev):

   -10.1655  -9.3687  -5.5241  -4.8220  -4.3893  -4.3686  -4.2041  -3.8819
    -3.6433  -3.4122  -3.2740  -3.2453  -3.2047  -3.1950  -3.1727  -3.1290
    -3.0974  -3.0203  -2.9686  -2.9070  -2.8451  -2.6553  -2.6488  -2.6244
    -2.5622  -2.5345  -2.5102  -2.4809  -2.4487  -2.4012  -2.3840  -2.3600
    -2.3230  -2.2719  -2.2210  -2.2041  -2.1643  -2.1379  -2.1031  -2.0794
    -2.0240  -1.9979  -1.8710  -1.8157  -1.7512  -1.7472  -1.7123  -1.6489
    -1.5812  -1.5581  -1.5320  -1.5181  -1.4777  -1.4495  -1.4057  -1.3506
    -1.3290  -1.2514  -1.2449  -1.2095  -1.1875  -1.1426  -1.0803  -1.0059
    -0.9909  -0.9644  -0.9352  -0.8840  -0.8476  -0.8134  -0.8008  -0.7546
    -0.7403  -0.6698  -0.6334  -0.6325  -0.5793  -0.5713  -0.5153  -0.5044
    -0.4780  -0.4228  -0.3841  -0.3754  -0.3661  -0.3300  -0.3111  -0.2999
    -0.2597  -0.2087  -0.2021  -0.1817  -0.1567  -0.1420  -0.1210  -0.0745
    -0.0606  -0.0246  -0.0082   0.0144   0.0312   0.0791   0.0969   0.1262
     0.1316   0.1469   0.1545   0.2067   0.2262   0.2346   0.2510   0.3185
     0.3556   0.3803   0.4316   0.4530   0.5056   0.5548   0.6158   0.6384
     0.6658   0.7335   0.7568   0.7982   0.8234   0.8586   0.8615   0.9420
     0.9441   0.9762   1.0016   1.0310   1.0764   1.1008   1.1465   1.1925
     1.2204   1.2613   1.3161   1.3548   1.3951   1.4187   1.4278   1.4429
     1.4778   1.5294   1.5696   1.5795   1.6646   1.6959   1.7003   1.7307
     1.7732   1.7908   1.8128   1.8516   1.8650   1.8834   1.9192   1.9854
     2.0402   2.0706   2.1367   2.1599   2.2425   2.2824   2.3436   2.3549
     2.3881   2.4081   2.4346   2.4792   2.4881   2.5258   2.5366   2.5487
     2.5883   2.6045   2.6219   2.6273   2.6513   2.7052   2.7118   2.7499
     2.7918   2.8418   2.8909   2.9013   2.9591   2.9790   2.9993   3.0468
     3.0554   3.1541   3.2050   3.3251   3.5528   3.7047   3.8094   3.9741
     4.0822   4.1876   4.2969   4.4902   4.6631   4.8901   4.9649   5.0548
     5.2084   5.4653   5.5120   5.8403   6.2157   6.3349   6.4933   6.6982
     6.7657   6.8035   7.0733   7.3243   7.5055   7.5513

          k = 0.4000 0.2309 0.0000 ( 43046 PWs)   bands (ev):

   -10.1604  -9.3733  -5.3982  -4.8666  -4.7063  -4.1756  -4.0153  -3.7716
    -3.6735  -3.5363  -3.4742  -3.3223  -3.2212  -3.1422  -3.0728  -3.0446
    -2.9619  -2.9538  -2.8850  -2.8126  -2.7530  -2.7268  -2.6866  -2.6725
    -2.5918  -2.5594  -2.5548  -2.5222  -2.5163  -2.4651  -2.4213  -2.3765
    -2.3626  -2.2661  -2.2032  -2.1489  -2.1147  -2.0994  -2.0510  -2.0183
    -1.9532  -1.9214  -1.8914  -1.8597  -1.8288  -1.7776  -1.7025  -1.6686
    -1.6318  -1.5660  -1.5290  -1.5089  -1.4853  -1.4507  -1.4192  -1.4029
    -1.3952  -1.3081  -1.2854  -1.2324  -1.1813  -1.1388  -1.1005  -1.0671
    -1.0380  -1.0045  -0.9505  -0.9214  -0.8578  -0.8210  -0.7904  -0.7595
    -0.7129  -0.6756  -0.6599  -0.6046  -0.5946  -0.5341  -0.5209  -0.5042
    -0.4861  -0.4501  -0.4177  -0.3888  -0.3538  -0.3367  -0.3195  -0.2915
    -0.2662  -0.2453  -0.2333  -0.2240  -0.1754  -0.1431  -0.1234  -0.0974
    -0.0760  -0.0639  -0.0371  -0.0246   0.0318   0.0707   0.0925   0.1085
     0.1257   0.1631   0.1983   0.2361   0.2626   0.2801   0.3044   0.3490
     0.3892   0.3982   0.4284   0.4620   0.5140   0.5868   0.6060   0.6446
     0.6683   0.7112   0.7330   0.7726   0.8011   0.8132   0.8453   0.8697
     0.8973   0.9133   0.9703   1.0357   1.0610   1.0801   1.1131   1.1338
     1.1737   1.2070   1.3039   1.3327   1.3699   1.4421   1.4681   1.4803
     1.5016   1.5701   1.5954   1.6367   1.6580   1.6773   1.6971   1.7153
     1.7612   1.7890   1.8140   1.8723   1.8996   1.9220   1.9571   2.0024
     2.0203   2.0468   2.1390   2.1562   2.1792   2.2105   2.2403   2.3263
     2.3684   2.3785   2.3893   2.4076   2.4343   2.4862   2.5068   2.5417
     2.5654   2.6055   2.6317   2.6472   2.6801   2.6950   2.7245   2.7896
     2.8348   2.8820   2.9436   2.9518   2.9761   3.0060   3.0381   3.1872
     3.2135   3.2511   3.3591   3.5349   3.7173   3.8694   4.0670   4.1374
     4.2263   4.3580   4.4859   4.6537   4.7939   4.8895   5.0624   5.1777
     5.3471   5.4124   5.5109   5.6623   5.9454   6.0376   6.2762   6.3318
     6.4388   6.8173   6.9267   7.2007   7.5370   7.7190

          k = 0.4000-0.6928 0.0000 ( 43014 PWs)   bands (ev):

   -10.1522  -9.3808  -5.0917  -4.9832  -4.7551  -4.3748  -4.0246  -3.8370
    -3.6290  -3.5531  -3.2935  -3.2364  -3.1497  -3.1071  -3.0135  -2.9732
    -2.9083  -2.8897  -2.8389  -2.7725  -2.7444  -2.7353  -2.7040  -2.6815
    -2.6443  -2.6216  -2.5991  -2.5211  -2.5017  -2.4820  -2.4363  -2.4164
    -2.3385  -2.3237  -2.2579  -2.2020  -2.1655  -2.1207  -2.0837  -2.0677
    -1.9666  -1.9308  -1.8931  -1.8322  -1.7845  -1.7592  -1.6929  -1.6695
    -1.6437  -1.5975  -1.5199  -1.4729  -1.4289  -1.3836  -1.3651  -1.3359
    -1.2938  -1.2414  -1.2350  -1.2109  -1.1737  -1.1417  -1.1254  -1.0716
    -1.0478  -1.0225  -1.0098  -0.9574  -0.9248  -0.8867  -0.8454  -0.8224
    -0.8101  -0.7809  -0.7116  -0.6696  -0.6459  -0.6297  -0.5996  -0.5827
    -0.5546  -0.5084  -0.4901  -0.4691  -0.4267  -0.4009  -0.3814  -0.3516
    -0.2785  -0.2549  -0.2280  -0.2177  -0.1648  -0.1266  -0.1079  -0.0871
    -0.0545  -0.0228   0.0184   0.0407   0.0626   0.0718   0.0955   0.1314
     0.1374   0.1728   0.1974   0.2172   0.2395   0.2485   0.2608   0.2811
     0.2977   0.3350   0.4018   0.4366   0.4563   0.5571   0.5704   0.6517
     0.6576   0.6811   0.7192   0.7549   0.7774   0.7980   0.8439   0.8778
     0.8951   0.9172   0.9512   1.0102   1.0492   1.0852   1.1053   1.1493
     1.2059   1.2422   1.2721   1.2999   1.3584   1.4098   1.4237   1.4557
     1.4722   1.4901   1.5326   1.5632   1.5929   1.6065   1.6380   1.7003
     1.7266   1.7625   1.7754   1.8116   1.8965   1.9284   1.9700   2.0034
     2.1302   2.1561   2.1633   2.1772   2.2337   2.2657   2.2957   2.3637
     2.4001   2.4428   2.4741   2.4938   2.5301   2.5514   2.5628   2.5868
     2.6035   2.6415   2.6672   2.6948   2.7223   2.7478   2.7652   2.8490
     2.8737   2.9116   2.9545   2.9736   3.0089   3.0435   3.0609   3.2127
     3.2682   3.4382   3.5455   3.8050   3.9857   4.1216   4.1989   4.2326
     4.4275   4.4675   4.6697   4.8148   4.9231   5.0306   5.2036   5.2758
     5.3799   5.4529   5.7250   5.8504   5.9380   6.0451   6.0675   6.2279
     6.4475   6.5719   6.8199   6.9604   7.1349   7.2251

          k = 0.4000-0.4619 0.0000 ( 43014 PWs)   bands (ev):

   -10.1522  -9.3808  -5.0917  -4.9832  -4.7551  -4.3748  -4.0246  -3.8370
    -3.6290  -3.5531  -3.2936  -3.2363  -3.1497  -3.1071  -3.0135  -2.9732
    -2.9082  -2.8897  -2.8389  -2.7724  -2.7445  -2.7353  -2.7040  -2.6815
    -2.6444  -2.6216  -2.5991  -2.5212  -2.5017  -2.4820  -2.4364  -2.4164
    -2.3385  -2.3236  -2.2578  -2.2021  -2.1654  -2.1207  -2.0837  -2.0677
    -1.9666  -1.9308  -1.8930  -1.8322  -1.7844  -1.7592  -1.6930  -1.6695
    -1.6437  -1.5975  -1.5199  -1.4729  -1.4289  -1.3837  -1.3650  -1.3359
    -1.2939  -1.2413  -1.2348  -1.2109  -1.1736  -1.1416  -1.1254  -1.0716
    -1.0478  -1.0225  -1.0098  -0.9574  -0.9248  -0.8867  -0.8454  -0.8224
    -0.8100  -0.7809  -0.7116  -0.6696  -0.6459  -0.6299  -0.5996  -0.5826
    -0.5546  -0.5085  -0.4902  -0.4692  -0.4268  -0.4009  -0.3815  -0.3515
    -0.2785  -0.2549  -0.2281  -0.2177  -0.1649  -0.1266  -0.1079  -0.0871
    -0.0546  -0.0227   0.0184   0.0406   0.0626   0.0718   0.0953   0.1315
     0.1374   0.1727   0.1975   0.2172   0.2394   0.2485   0.2608   0.2811
     0.2977   0.3350   0.4018   0.4367   0.4563   0.5571   0.5705   0.6517
     0.6577   0.6811   0.7192   0.7550   0.7774   0.7980   0.8438   0.8778
     0.8952   0.9172   0.9512   1.0102   1.0492   1.0852   1.1052   1.1493
     1.2059   1.2422   1.2720   1.2999   1.3585   1.4098   1.4237   1.4557
     1.4723   1.4900   1.5327   1.5632   1.5929   1.6065   1.6380   1.7003
     1.7266   1.7624   1.7753   1.8116   1.8965   1.9285   1.9700   2.0034
     2.1302   2.1561   2.1633   2.1771   2.2337   2.2657   2.2956   2.3637
     2.4002   2.4428   2.4741   2.4937   2.5300   2.5514   2.5627   2.5868
     2.6035   2.6415   2.6673   2.6948   2.7223   2.7477   2.7652   2.8490
     2.8736   2.9117   2.9546   2.9737   3.0090   3.0435   3.0610   3.2128
     3.2682   3.4382   3.5454   3.8047   3.9858   4.1213   4.1989   4.2325
     4.4276   4.4675   4.6698   4.8148   4.9233   5.0305   5.2035   5.2758
     5.3798   5.4530   5.7252   5.8505   5.9381   6.0451   6.0674   6.2278
     6.4474   6.5720   6.8199   6.9604   7.1348   7.2245

     the Fermi energy is     2.7581 ev

!    total energy              =  -27793.34396440 Ry
     total all-electron energy =  -1326795.637576 Ry
     estimated scf accuracy    <       0.00000044 Ry
     smearing contrib. (-TS)   =       0.00003923 Ry
     internal energy E=F+TS    =  -27793.34400363 Ry

     The total energy is F=E-TS. E is the sum of the following terms:
     one-electron contribution =  -20794.44110912 Ry
     hartree contribution      =   10710.16457963 Ry
     xc contribution           =    -900.38028044 Ry
     ewald contribution        =    8678.51358780 Ry
     one-center paw contrib.   =  -25487.20078150 Ry

     convergence has been achieved in  18 iterations

     negative rho (up, down):  3.108E-03 0.000E+00

     Forces acting on atoms (cartesian axes, Ry/au):

     atom    1 type  1   force =     0.00006539    0.00002243   -0.00409328
     atom    2 type  1   force =    -0.00005383    0.00001672   -0.00409864
     atom    3 type  1   force =    -0.00000127   -0.00354879   -0.00685516
     atom    4 type  1   force =    -0.00000129    0.00105096   -0.00611318
     atom    5 type  1   force =    -0.00183491    0.00097255   -0.00780068
     atom    6 type  1   force =     0.00184316    0.00097680   -0.00779437
     atom    7 type  1   force =    -0.00187684   -0.00032522   -0.00832694
     atom    8 type  1   force =     0.00001229    0.00092858   -0.00479927
     atom    9 type  1   force =     0.00187791   -0.00032527   -0.00833397
     atom   10 type  1   force =    -0.00000973    0.00006766    0.01667170
     atom   11 type  1   force =    -0.00196294   -0.00024657   -0.00072996
     atom   12 type  1   force =     0.00195374   -0.00024986   -0.00071284
     atom   13 type  1   force =    -0.00043003    0.00027816    0.00804208
     atom   14 type  1   force =     0.00000516    0.00152874   -0.00311112
     atom   15 type  1   force =     0.00040913    0.00027533    0.00803825
     atom   16 type  1   force =    -0.00247351   -0.00066620    0.01096368
     atom   17 type  1   force =     0.00246382   -0.00067534    0.01093770
     atom   18 type  1   force =    -0.00000535    0.00073154    0.00509017
     atom   19 type  1   force =    -0.00152666   -0.00083741   -0.00333838
     atom   20 type  1   force =     0.00152622   -0.00082387   -0.00332998
     atom   21 type  1   force =    -0.00000068   -0.00080062    0.00020368
     atom   22 type  1   force =     0.00000722    0.00076452   -0.00089473
     atom   23 type  1   force =     0.00042746    0.00068176    0.00085112
     atom   24 type  1   force =    -0.00043109    0.00067844    0.00084507
     atom   25 type  1   force =     0.00007676   -0.00076171    0.00083364
     atom   26 type  1   force =    -0.00001222    0.00015052   -0.00042544
     atom   27 type  1   force =    -0.00006701   -0.00076500    0.00085413
     atom   28 type  1   force =    -0.00089084   -0.00189300    0.00161919
     atom   29 type  1   force =     0.00091445   -0.00190574    0.00160947
     atom   30 type  1   force =     0.00000268   -0.00205452   -0.00000038
     atom   31 type  1   force =     0.00002012   -0.01090401   -0.02800910
     atom   32 type  1   force =     0.00019861   -0.00031967   -0.00047382
     atom   33 type  1   force =    -0.00020609   -0.00032630   -0.00046490
     atom   34 type  1   force =    -0.00443393   -0.00455955    0.00693066
     atom   35 type  1   force =     0.00000031   -0.00061177    0.00085963
     atom   36 type  1   force =     0.00435981   -0.00453724    0.00687180
     atom   37 type  2   force =    -0.00001383    0.00579717    0.00020871
     atom   38 type  3   force =     0.00006452    0.06281859    0.01305142
     atom   39 type  2   force =     0.00000327   -0.04060284    0.00522405
     The non-local contrib.  to forces
     atom    1 type  1   force =     0.00025883    0.00000088   -0.01946376
     atom    2 type  1   force =    -0.00025510   -0.00000188   -0.01947006
     atom    3 type  1   force =    -0.00000323   -0.00096909   -0.02190720
     atom    4 type  1   force =    -0.00000303    0.00012810   -0.01930299
     atom    5 type  1   force =     0.00134813   -0.00037955   -0.02524245
     atom    6 type  1   force =    -0.00135142   -0.00037745   -0.02524316
     atom    7 type  1   force =    -0.00167168    0.00026111   -0.01919289
     atom    8 type  1   force =     0.00000698   -0.00037801   -0.02142124
     atom    9 type  1   force =     0.00166989    0.00026159   -0.01919330
     atom   10 type  1   force =    -0.00000511   -0.00104278    0.00153662
     atom   11 type  1   force =    -0.00371951   -0.00055629    0.00048291
     atom   12 type  1   force =     0.00370134   -0.00055318    0.00049581
     atom   13 type  1   force =    -0.00177660   -0.00280059    0.00161369
     atom   14 type  1   force =     0.00000507    0.00347513   -0.00188553
     atom   15 type  1   force =     0.00174986   -0.00279856    0.00161900
     atom   16 type  1   force =     0.00315960    0.00112479    0.00097384
     atom   17 type  1   force =    -0.00316619    0.00111952    0.00095694
     atom   18 type  1   force =    -0.00001474   -0.00034831    0.00315500
     atom   19 type  1   force =    -0.00839985   -0.00108427    0.00888771
     atom   20 type  1   force =     0.00839948   -0.00108626    0.00889112
     atom   21 type  1   force =    -0.00000023    0.00196580    0.01548936
     atom   22 type  1   force =    -0.00000611    0.00433829    0.02727567
     atom   23 type  1   force =     0.01011862   -0.00714788    0.00384861
     atom   24 type  1   force =    -0.01010375   -0.00714706    0.00385389
     atom   25 type  1   force =    -0.00329187    0.00303951   -0.00043672
     atom   26 type  1   force =    -0.00000303   -0.00299913    0.01619286
     atom   27 type  1   force =     0.00329769    0.00302834   -0.00041425
     atom   28 type  1   force =     0.08167527    0.04567748   -0.00795815
     atom   29 type  1   force =    -0.08165977    0.04561487   -0.00795482
     atom   30 type  1   force =    -0.00000402   -0.02994677    0.02356613
     atom   31 type  1   force =     0.00001148   -0.00755162    0.01835673
     atom   32 type  1   force =    -0.02216217   -0.00528822    0.01943379
     atom   33 type  1   force =     0.02217817   -0.00527903    0.01945388
     atom   34 type  1   force =    -0.05119145   -0.01262564   -0.04581011
     atom   35 type  1   force =     0.00003385    0.02959906    0.02609975
     atom   36 type  1   force =     0.05118974   -0.01268069   -0.04580847
     atom   37 type  2   force =     0.00003016    0.07076414   -0.29605344
     atom   38 type  3   force =     0.00005470    0.04987213   -0.05011773
     atom   39 type  2   force =     0.00003787   -0.27155553   -0.20164330
     The ionic contribution  to forces
     atom    1 type  1   force =     0.00663957   -0.00448166  -94.44398822
     atom    2 type  1   force =    -0.00670684   -0.00443711  -94.44411797
     atom    3 type  1   force =     0.00006663   -0.03218769  -94.46010698
     atom    4 type  1   force =     0.00000352    0.00812570  -94.43028452
     atom    5 type  1   force =    -0.02663669    0.00630272  -94.47662770
     atom    6 type  1   force =     0.02663282    0.00622901  -94.47664172
     atom    7 type  1   force =    -0.01576633    0.00154631  -94.43063182
     atom    8 type  1   force =    -0.00006769    0.01732186  -94.45631270
     atom    9 type  1   force =     0.01583307    0.00150660  -94.43076600
     atom   10 type  1   force =    -0.00039144    0.02887750  -33.47315271
     atom   11 type  1   force =    -0.21906230   -0.16072021  -33.55513718
     atom   12 type  1   force =     0.21923502   -0.16140192  -33.55464269
     atom   13 type  1   force =    -0.13293077   -0.00237905  -33.39408244
     atom   14 type  1   force =    -0.00034948    0.24425965  -33.63729181
     atom   15 type  1   force =     0.13297677   -0.00282487  -33.39440485
     atom   16 type  1   force =    -0.01204688    0.04690225  -33.47288073
     atom   17 type  1   force =     0.01129671    0.04675571  -33.47384882
     atom   18 type  1   force =     0.00054332   -0.06816253  -33.23075946
     atom   19 type  1   force =     0.05751196    0.01720842   28.35518768
     atom   20 type  1   force =    -0.05715056    0.01883140   28.35485343
     atom   21 type  1   force =    -0.00045661   -0.09877891   25.96256553
     atom   22 type  1   force =     0.00139746    0.24671463   28.37040105
     atom   23 type  1   force =    -0.16100703    0.05697552   27.52696950
     atom   24 type  1   force =     0.15981114    0.05650374   27.52545696
     atom   25 type  1   force =    -0.22234458   -0.26125649   27.99697314
     atom   26 type  1   force =    -0.00110456    0.07032541   28.30520748
     atom   27 type  1   force =     0.22337295   -0.26027851   27.99326849
     atom   28 type  1   force =    -2.52368332   -1.09147098   89.41905186
     atom   29 type  1   force =     2.52395682   -1.09077115   89.41681422
     atom   30 type  1   force =     0.00024193    0.37559582   88.25535880
     atom   31 type  1   force =     0.00194064   -0.51455131   87.02719380
     atom   32 type  1   force =     0.67009127   -0.19020478   88.55299454
     atom   33 type  1   force =    -0.67197046   -0.19066176   88.55230615
     atom   34 type  1   force =     3.15577828    1.66613783   88.89835321
     atom   35 type  1   force =    -0.00026869   -0.25931829   88.66631595
     atom   36 type  1   force =    -3.15487099    1.66714998   88.89010547
     atom   37 type  2   force =     0.00017287   -0.61989049   45.24384476
     atom   38 type  3   force =    -0.00155000   -0.93749945   12.32050737
     atom   39 type  2   force =     0.00086245    1.36800711   45.60194891
     The local contribution  to forces
     atom    1 type  1   force =    -0.00699853    0.00460515   94.44277035
     atom    2 type  1   force =     0.00705845    0.00458196   94.44290154
     atom    3 type  1   force =    -0.00004994    0.02972796   94.45839153
     atom    4 type  1   force =     0.00000919   -0.00728765   94.42688273
     atom    5 type  1   force =     0.02347494   -0.00502400   94.47748949
     atom    6 type  1   force =    -0.02347245   -0.00497652   94.47748977
     atom    7 type  1   force =     0.01564423   -0.00205320   94.42466842
     atom    8 type  1   force =     0.00004261   -0.01610855   94.45660846
     atom    9 type  1   force =    -0.01568098   -0.00201535   94.42477617
     atom   10 type  1   force =     0.00038583   -0.02768840   33.48888251
     atom   11 type  1   force =     0.22023995    0.16060189   33.55398118
     atom   12 type  1   force =    -0.22040892    0.16124327   33.55347852
     atom   13 type  1   force =     0.13435121    0.00530055   33.40132234
     atom   14 type  1   force =     0.00031584   -0.24564113   33.63612259
     atom   15 type  1   force =    -0.13436187    0.00572650   33.40163600
     atom   16 type  1   force =     0.00626501   -0.04844511   33.48342694
     atom   17 type  1   force =    -0.00554777   -0.04828517   33.48439147
     atom   18 type  1   force =    -0.00050522    0.06933207   33.23427436
     atom   19 type  1   force =    -0.05085357   -0.01683739  -28.36489068
     atom   20 type  1   force =     0.05051680   -0.01842225  -28.36453838
     atom   21 type  1   force =     0.00043115    0.09566690  -25.97624025
     atom   22 type  1   force =    -0.00135718   -0.24974427  -28.39489577
     atom   23 type  1   force =     0.15081034   -0.04948428  -27.52889727
     atom   24 type  1   force =    -0.14966104   -0.04900702  -27.52739038
     atom   25 type  1   force =     0.22461431    0.25675657  -27.99420313
     atom   26 type  1   force =     0.00108471   -0.06700276  -28.31926731
     atom   27 type  1   force =    -0.22563137    0.25582173  -27.99048371
     atom   28 type  1   force =     2.42131345    1.03546815  -89.40819534
     atom   29 type  1   force =    -2.42155972    1.03485226  -89.40597857
     atom   30 type  1   force =    -0.00025169   -0.34950640  -88.26347832
     atom   31 type  1   force =    -0.00189292    0.51593549  -87.08423520
     atom   32 type  1   force =    -0.65047438    0.19466261  -88.55684743
     atom   33 type  1   force =     0.65228768    0.19510765  -88.55616278
     atom   34 type  1   force =    -3.09148756   -1.64968958  -88.84478358
     atom   35 type  1   force =     0.00021721    0.23119178  -88.67511719
     atom   36 type  1   force =     3.09051064   -1.65059668  -88.83660315
     atom   37 type  2   force =    -0.00021390    0.55637520  -44.95304096
     atom   38 type  3   force =     0.00156015    0.95045471  -12.25736660
     atom   39 type  2   force =    -0.00087043   -1.14195328  -45.39910236
     The core correction contribution to forces
     atom    1 type  1   force =     0.00009925   -0.00009243    0.01692197
     atom    2 type  1   force =    -0.00009933   -0.00009232    0.01692216
     atom    3 type  1   force =    -0.00000029   -0.00010552    0.01712798
     atom    4 type  1   force =    -0.00000011    0.00008471    0.01690781
     atom    5 type  1   force =    -0.00001489    0.00002719    0.01691820
     atom    6 type  1   force =     0.00001451    0.00002695    0.01691788
     atom    7 type  1   force =    -0.00010376   -0.00004071    0.01715292
     atom    8 type  1   force =    -0.00000029    0.00009355    0.01663329
     atom    9 type  1   force =     0.00010383   -0.00004080    0.01715281
     atom   10 type  1   force =     0.00000062   -0.00007668   -0.00012967
     atom   11 type  1   force =     0.00065206    0.00042283    0.00041825
     atom   12 type  1   force =    -0.00065137    0.00042420    0.00041648
     atom   13 type  1   force =    -0.00005379    0.00017205   -0.00032421
     atom   14 type  1   force =     0.00000080   -0.00065828    0.00042771
     atom   15 type  1   force =     0.00005487    0.00017312   -0.00032362
     atom   16 type  1   force =     0.00005971   -0.00022208   -0.00007249
     atom   17 type  1   force =    -0.00005792   -0.00022159   -0.00007048
     atom   18 type  1   force =    -0.00000068   -0.00002335   -0.00106574
     atom   19 type  1   force =     0.00020279   -0.00012061   -0.00249820
     atom   20 type  1   force =    -0.00020392   -0.00012480   -0.00249978
     atom   21 type  1   force =     0.00000196    0.00025914   -0.00161984
     atom   22 type  1   force =    -0.00000327   -0.00052537   -0.00363845
     atom   23 type  1   force =     0.00041838    0.00035193   -0.00105196
     atom   24 type  1   force =    -0.00041638    0.00035300   -0.00105189
     atom   25 type  1   force =     0.00105629    0.00069390   -0.00143903
     atom   26 type  1   force =     0.00000248   -0.00016684   -0.00257993
     atom   27 type  1   force =    -0.00105813    0.00069196   -0.00144151
     atom   28 type  1   force =     0.01942566    0.00832464   -0.00152680
     atom   29 type  1   force =    -0.01943015    0.00832504   -0.00152305
     atom   30 type  1   force =    -0.00000058    0.00187967   -0.01550577
     atom   31 type  1   force =    -0.00000758   -0.00464501    0.01024426
     atom   32 type  1   force =     0.00281185    0.00042175   -0.01606402
     atom   33 type  1   force =    -0.00280684    0.00042205   -0.01606426
     atom   34 type  1   force =    -0.01739650   -0.00826641   -0.00109798
     atom   35 type  1   force =     0.00000070   -0.00217108   -0.01648454
     atom   36 type  1   force =     0.01740340   -0.00827309   -0.00108158
     atom   37 type  2   force =     0.00000403   -0.00143968    0.00551492
     atom   38 type  3   force =     0.00000000    0.00000000    0.00000000
     atom   39 type  2   force =    -0.00002207    0.00501147    0.00400026
     The Hubbard contrib.    to forces
     atom    1 type  1   force =     0.00000000    0.00000000    0.00000000
     atom    2 type  1   force =     0.00000000    0.00000000    0.00000000
     atom    3 type  1   force =     0.00000000    0.00000000    0.00000000
     atom    4 type  1   force =     0.00000000    0.00000000    0.00000000
     atom    5 type  1   force =     0.00000000    0.00000000    0.00000000
     atom    6 type  1   force =     0.00000000    0.00000000    0.00000000
     atom    7 type  1   force =     0.00000000    0.00000000    0.00000000
     atom    8 type  1   force =     0.00000000    0.00000000    0.00000000
     atom    9 type  1   force =     0.00000000    0.00000000    0.00000000
     atom   10 type  1   force =     0.00000000    0.00000000    0.00000000
     atom   11 type  1   force =     0.00000000    0.00000000    0.00000000
     atom   12 type  1   force =     0.00000000    0.00000000    0.00000000
     atom   13 type  1   force =     0.00000000    0.00000000    0.00000000
     atom   14 type  1   force =     0.00000000    0.00000000    0.00000000
     atom   15 type  1   force =     0.00000000    0.00000000    0.00000000
     atom   16 type  1   force =     0.00000000    0.00000000    0.00000000
     atom   17 type  1   force =     0.00000000    0.00000000    0.00000000
     atom   18 type  1   force =     0.00000000    0.00000000    0.00000000
     atom   19 type  1   force =     0.00000000    0.00000000    0.00000000
     atom   20 type  1   force =     0.00000000    0.00000000    0.00000000
     atom   21 type  1   force =     0.00000000    0.00000000    0.00000000
     atom   22 type  1   force =     0.00000000    0.00000000    0.00000000
     atom   23 type  1   force =     0.00000000    0.00000000    0.00000000
     atom   24 type  1   force =     0.00000000    0.00000000    0.00000000
     atom   25 type  1   force =     0.00000000    0.00000000    0.00000000
     atom   26 type  1   force =     0.00000000    0.00000000    0.00000000
     atom   27 type  1   force =     0.00000000    0.00000000    0.00000000
     atom   28 type  1   force =     0.00000000    0.00000000    0.00000000
     atom   29 type  1   force =     0.00000000    0.00000000    0.00000000
     atom   30 type  1   force =     0.00000000    0.00000000    0.00000000
     atom   31 type  1   force =     0.00000000    0.00000000    0.00000000
     atom   32 type  1   force =     0.00000000    0.00000000    0.00000000
     atom   33 type  1   force =     0.00000000    0.00000000    0.00000000
     atom   34 type  1   force =     0.00000000    0.00000000    0.00000000
     atom   35 type  1   force =     0.00000000    0.00000000    0.00000000
     atom   36 type  1   force =     0.00000000    0.00000000    0.00000000
     atom   37 type  2   force =     0.00000000    0.00000000    0.00000000
     atom   38 type  3   force =     0.00000000    0.00000000    0.00000000
     atom   39 type  2   force =     0.00000000    0.00000000    0.00000000
     The SCF correction term to forces
     atom    1 type  1   force =     0.00000000   -0.00000000   -0.00000000
     atom    2 type  1   force =    -0.00000000   -0.00000000   -0.00000000
     atom    3 type  1   force =    -0.00000000   -0.00000000   -0.00000000
     atom    4 type  1   force =    -0.00000000    0.00000000   -0.00000000
     atom    5 type  1   force =    -0.00000000    0.00000000   -0.00000000
     atom    6 type  1   force =     0.00000000    0.00000000   -0.00000000
     atom    7 type  1   force =     0.00000000   -0.00000000   -0.00000000
     atom    8 type  1   force =     0.00000000    0.00000000   -0.00000000
     atom    9 type  1   force =    -0.00000000   -0.00000000   -0.00000000
     atom   10 type  1   force =    -0.00000000   -0.00000000   -0.00000000
     atom   11 type  1   force =    -0.00000000    0.00000000   -0.00000000
     atom   12 type  1   force =     0.00000000    0.00000000   -0.00000000
     atom   13 type  1   force =    -0.00000000   -0.00000000   -0.00000000
     atom   14 type  1   force =     0.00000000    0.00000000   -0.00000000
     atom   15 type  1   force =    -0.00000000    0.00000000   -0.00000000
     atom   16 type  1   force =     0.00000000   -0.00000000   -0.00000000
     atom   17 type  1   force =    -0.00000000   -0.00000000   -0.00000000
     atom   18 type  1   force =    -0.00000000   -0.00000000   -0.00000000
     atom   19 type  1   force =     0.00001129   -0.00000196   -0.00008708
     atom   20 type  1   force =    -0.00003630   -0.00002036   -0.00009855
     atom   21 type  1   force =     0.00002233    0.00008804   -0.00005330
     atom   22 type  1   force =    -0.00002440   -0.00001716   -0.00009940
     atom   23 type  1   force =     0.00008643   -0.00001193   -0.00007994
     atom   24 type  1   force =    -0.00006177   -0.00002262   -0.00008570
     atom   25 type  1   force =     0.00004188    0.00000639   -0.00012280
     atom   26 type  1   force =     0.00000747   -0.00000457   -0.00004072
     atom   27 type  1   force =    -0.00004887   -0.00002693   -0.00013708
     atom   28 type  1   force =     0.00037739    0.00010930    0.00018544
     atom   29 type  1   force =    -0.00039345    0.00007483    0.00018950
     atom   30 type  1   force =     0.00001634   -0.00007525   -0.00000340
     atom   31 type  1   force =    -0.00003222   -0.00008997    0.00036912
     atom   32 type  1   force =    -0.00006867    0.00009056   -0.00005288
     atom   33 type  1   force =     0.00010465    0.00008639   -0.00006007
     atom   34 type  1   force =    -0.00013742   -0.00011415    0.00020694
     atom   35 type  1   force =     0.00001652    0.00008836   -0.00001653
     atom   36 type  1   force =     0.00012631   -0.00013517    0.00019735
     atom   37 type  2   force =    -0.00000769   -0.00001040   -0.00011876
     atom   38 type  3   force =    -0.00000104   -0.00000721   -0.00003380
     atom   39 type  2   force =    -0.00000526   -0.00011101   -0.00004165

     Total force =     0.083431     Total SCF correction =     0.000931

     Writing all to output data dir ./pwscf.save/

     init_run     :     10.91s CPU     11.22s WALL (       1 calls)
     electrons    :    505.64s CPU    531.36s WALL (       1 calls)
     forces       :      4.83s CPU      5.68s WALL (       1 calls)

     Called by init_run:
     wfcinit      :      6.06s CPU      6.23s WALL (       1 calls)
     potinit      :      3.24s CPU      3.31s WALL (       1 calls)
     hinit0       :      1.02s CPU      1.04s WALL (       1 calls)

     Called by electrons:
     c_bands      :    442.01s CPU    461.14s WALL (      19 calls)
     sum_band     :     35.62s CPU     37.38s WALL (      19 calls)
     v_of_rho     :     11.34s CPU     13.98s WALL (      19 calls)
     newd         :      3.24s CPU      4.90s WALL (      19 calls)
     PAW_pot      :      4.34s CPU      4.49s WALL (      19 calls)
     mix_rho      :     11.03s CPU     11.19s WALL (      19 calls)
     vdW_kernel   :      1.71s CPU      1.72s WALL (       1 calls)

     Called by c_bands:
     init_us_2    :      2.58s CPU      2.66s WALL (     520 calls)
     init_us_2:cp :      2.57s CPU      2.66s WALL (     520 calls)
     cegterg      :    433.48s CPU    452.16s WALL (     247 calls)

     Called by *egterg:
     cdiaghg      :     86.28s CPU     88.53s WALL (    1308 calls)
     h_psi        :    208.72s CPU    218.79s WALL (    1334 calls)
     s_psi        :     19.06s CPU     20.59s WALL (    1334 calls)
     g_psi        :      0.99s CPU      1.01s WALL (    1074 calls)

     Called by h_psi:
     h_psi:calbec :     31.73s CPU     33.30s WALL (    1334 calls)
     vloc_psi     :    154.64s CPU    162.69s WALL (    1334 calls)
     add_vuspsi   :     20.05s CPU     20.45s WALL (    1334 calls)

     General routines
     calbec       :     42.43s CPU     44.16s WALL (    1633 calls)
     fft          :      9.01s CPU     11.24s WALL (    1257 calls)
     ffts         :      4.06s CPU      4.10s WALL (    4545 calls)
     fftw         :    152.03s CPU    159.05s WALL (  316964 calls)
     interpolate  :      0.61s CPU      0.66s WALL (      19 calls)

     Parallel routines

     PWSCF        :   8m51.30s CPU   9m21.63s WALL


   This run was terminated on:  15:37: 3   8Dec2025            

=------------------------------------------------------------------------------=
   JOB DONE.
=------------------------------------------------------------------------------=
