
     Program PWSCF v.7.1 starts on 24Feb2025 at  1:27:56 
        Git branch: heads/qe-7.1
        Last git commit: 48ba0178f8fede6d020eb786884699a9f063f55d-dirty
        Last git commit date: Fri Jan 27 14:22:33 2023 +0000
        Last git commit subject: Merge branch 'fix_hubbard' into 'develop'

     This program is part of the open-source Quantum ESPRESSO suite
     for quantum simulation of materials; please cite
         "P. Giannozzi et al., J. Phys.:Condens. Matter 21 395502 (2009);
         "P. Giannozzi et al., J. Phys.:Condens. Matter 29 465901 (2017);
         "P. Giannozzi et al., J. Chem. Phys. 152 154105 (2020);
          URL http://www.quantum-espresso.org", 
     in publications or presentations arising from this work. More details at
     http://www.quantum-espresso.org/quote

     Parallel version (MPI), running on    48 processors

     MPI processes distributed on     1 nodes
     250375 MiB available memory on the printing compute node when the environment starts

     Reading input from espresso.pwi
Warning: card &CELL ignored
Warning: card / ignored
Warning: card &FCP ignored
Warning: card / ignored
Warning: card &RISM ignored
Warning: card / ignored

     Current dimensions of program PWSCF are:
     Max number of different atomic species (ntypx) = 10
     Max number of k-points (npk) =  40000
     Max angular momentum in pseudopotentials (lmaxx) =  4
     file Pt.pbe-n-kjpaw_psl.1.0.0.UPF: wavefunction(s)  6S 5D renormalized
     file O.pbe-nl-kjpaw_psl.1.0.0.UPF: wavefunction(s)  2S 2P renormalized
     file H.pbe-kjpaw_psl.1.0.0.UPF: wavefunction(s)  1S renormalized

     **************************************************************************
     Initializing libbeef V0.1.2 with the BEEF-vdW functional.
     Citation: Wellendorff et al., PRB 85, 235149 (2012).
     **************************************************************************


     IMPORTANT: XC functional enforced from input :
     Exchange-correlation= BEEF-VDW
                           (   1   4  43  14   2   0   0)
     Any further DFT definition will be discarded
     Please, verify this is what you really want


     R & G space division:  proc/nbgrp/npool/nimage =      48
     Subspace diagonalization in iterative solution of the eigenvalue problem:
     one sub-group per band group will be used
     custom distributed-memory algorithm (size of sub-group:  2*  2 procs)


     Parallelization info
     --------------------
     sticks:   dense  smooth     PW     G-vecs:    dense   smooth      PW
     Min         151      59     16                29407     7165    1028
     Max         152      60     17                29420     7176    1042
     Sum        7267    2839    769              1411785   344073   49691

     Using Slab Decomposition



     bravais-lattice index     =            0
     lattice parameter (alat)  =      16.0349  a.u.
     unit-cell volume          =   10068.6169 (a.u.)^3
     number of atoms/cell      =           39
     number of atomic types    =            3
     number of electrons       =       368.00
     number of Kohn-Sham states=          221
     kinetic-energy cutoff     =      40.0000  Ry
     charge density cutoff     =     410.0000  Ry
     scf convergence threshold =      1.0E-06
     mixing beta               =       0.7000
     number of iterations used =            8  local-TF  mixing
     Exchange-correlation= BEEF-VDW
                           (   1   4  43  14   2   0   0)

     celldm(1)=  16.034858  celldm(2)=   0.000000  celldm(3)=   0.000000
     celldm(4)=   0.000000  celldm(5)=   0.000000  celldm(6)=   0.000000

     crystal axes: (cart. coord. in units of alat)
               a(1) = (   1.000000   0.000000   0.000000 )  
               a(2) = (   0.500000   0.866025   0.000000 )  
               a(3) = (   0.000000   0.000000   2.819966 )  

     reciprocal axes: (cart. coord. in units 2 pi/alat)
               b(1) = (  1.000000 -0.577350  0.000000 )  
               b(2) = (  0.000000  1.154701  0.000000 )  
               b(3) = (  0.000000  0.000000  0.354614 )  


     PseudoPot. # 1 for Pt read from file:
     /users/kbadger1/espresso/pseudo/pslibrary.1.0.0/pbe/PSEUDOPOTENTIALS/Pt.pbe-n-kjpaw_psl.1.0.0.UPF
     MD5 check sum: 2e24a0b5bf98a4ed1a57fa81bca8c143
     Pseudo is Projector augmented-wave + core cor, Zval = 10.0
     Generated using 'atomic' code by A. Dal Corso  v.7.0
     Shape of augmentation charge: PSQ
     Using radial grid of 1277 points,  6 beta functions with: 
                l(1) =   0
                l(2) =   0
                l(3) =   1
                l(4) =   1
                l(5) =   2
                l(6) =   2
     Q(r) pseudized with 0 coefficients 


     PseudoPot. # 2 for O  read from file:
     /users/kbadger1/espresso/pseudo/pslibrary.1.0.0/pbe/PSEUDOPOTENTIALS/O.pbe-nl-kjpaw_psl.1.0.0.UPF
     MD5 check sum: f0439fab3598ca4e468f064226030408
     Pseudo is Projector augmented-wave + core cor, Zval =  6.0
     Generated using 'atomic' code by A. Dal Corso  v.7.0
     Shape of augmentation charge: PSQ
     Using radial grid of 1095 points,  4 beta functions with: 
                l(1) =   0
                l(2) =   0
                l(3) =   1
                l(4) =   1
     Q(r) pseudized with 0 coefficients 


     PseudoPot. # 3 for H  read from file:
     /users/kbadger1/espresso/pseudo/pslibrary.1.0.0/pbe/PSEUDOPOTENTIALS/H.pbe-kjpaw_psl.1.0.0.UPF
     MD5 check sum: fe4c6fa958fa6d3815bf5d2419cbf1df
     Pseudo is Projector augmented-wave, Zval =  1.0
     Generated using 'atomic' code by A. Dal Corso  v.7.0
     Shape of augmentation charge: PSQ
     Using radial grid of  929 points,  2 beta functions with: 
                l(1) =   0
                l(2) =   0
     Q(r) pseudized with 0 coefficients 


     atomic species   valence    mass     pseudopotential
        Pt            10.00   195.08400     Pt( 1.00)
        O              6.00    15.99900     O ( 1.00)
        H              1.00     1.00800     H ( 1.00)

     No symmetry found



   Cartesian axes

     site n.     atom                  positions (alat units)
         1           Pt  tau(   1) = (   0.0000000   0.0000000   1.0017346  )
         2           Pt  tau(   2) = (   0.3333333   0.0000000   1.0017346  )
         3           Pt  tau(   3) = (   0.6666667   0.0000000   1.0017346  )
         4           Pt  tau(   4) = (   0.1666667   0.2886751   1.0017346  )
         5           Pt  tau(   5) = (   0.5000000   0.2886751   1.0017346  )
         6           Pt  tau(   6) = (   0.8333333   0.2886751   1.0017346  )
         7           Pt  tau(   7) = (   0.3333333   0.5773503   1.0017346  )
         8           Pt  tau(   8) = (   0.6666667   0.5773503   1.0017346  )
         9           Pt  tau(   9) = (   1.0000000   0.5773503   1.0017346  )
        10           Pt  tau(  10) = (   0.1666667   0.0962250   1.2739001  )
        11           Pt  tau(  11) = (   0.5000000   0.0962250   1.2739001  )
        12           Pt  tau(  12) = (   0.8333333   0.0962250   1.2739001  )
        13           Pt  tau(  13) = (   0.3333333   0.3849002   1.2739001  )
        14           Pt  tau(  14) = (   0.6666667   0.3849002   1.2739001  )
        15           Pt  tau(  15) = (   1.0000000   0.3849002   1.2739001  )
        16           Pt  tau(  16) = (   0.5000000   0.6735753   1.2739001  )
        17           Pt  tau(  17) = (   0.8333333   0.6735753   1.2739001  )
        18           Pt  tau(  18) = (   1.1666667   0.6735753   1.2739001  )
        19           Pt  tau(  19) = (   0.0007154   0.1918101   1.5420195  )
        20           Pt  tau(  20) = (   0.3346016   0.1922506   1.5437038  )
        21           Pt  tau(  21) = (   0.6669736   0.1922252   1.5436188  )
        22           Pt  tau(  22) = (   0.1673032   0.4807177   1.5428551  )
        23           Pt  tau(  23) = (   0.5007793   0.4801351   1.5437119  )
        24           Pt  tau(  24) = (   0.8341674   0.4806937   1.5427986  )
        25           Pt  tau(  25) = (   0.3342023   0.7694444   1.5420664  )
        26           Pt  tau(  26) = (   0.6672787   0.7693983   1.5422075  )
        27           Pt  tau(  27) = (   1.0007568   0.7691997   1.5427378  )
        28           Pt  tau(  28) = (   0.0015178  -0.0010866   1.8170201  )
        29           Pt  tau(  29) = (   0.3344045  -0.0021070   1.8165310  )
        30           Pt  tau(  30) = (   0.6685898  -0.0020741   1.8165322  )
        31           Pt  tau(  31) = (   0.1670360   0.2877104   1.8163672  )
        32           Pt  tau(  32) = (   0.5012194   0.2877669   1.8195903  )
        33           Pt  tau(  33) = (   0.8359640   0.2878538   1.8164446  )
        34           Pt  tau(  34) = (   0.3342322   0.5773282   1.8164083  )
        35           Pt  tau(  35) = (   0.6689075   0.5772435   1.8166503  )
        36           Pt  tau(  36) = (   1.0015021   0.5763053   1.8177559  )
        37           O   tau(  37) = (   0.5092140   0.2833218   2.1264155  )
        38           H   tau(  38) = (   0.6044057   0.3437699   2.1449582  )
        39           H   tau(  39) = (   0.5395152   0.1744622   2.1435551  )

     number of k points=    13  Marzari-Vanderbilt smearing, width (Ry)=  0.0200
                       cart. coord. in units 2pi/alat
        k(    1) = (   0.0000000   0.0000000   0.0000000), wk =   0.0800000
        k(    2) = (   0.0000000   0.2309401   0.0000000), wk =   0.1600000
        k(    3) = (   0.0000000   0.4618802   0.0000000), wk =   0.1600000
        k(    4) = (   0.2000000  -0.1154701   0.0000000), wk =   0.1600000
        k(    5) = (   0.2000000   0.1154701   0.0000000), wk =   0.1600000
        k(    6) = (   0.2000000   0.3464102   0.0000000), wk =   0.1600000
        k(    7) = (   0.2000000  -0.5773503   0.0000000), wk =   0.1600000
        k(    8) = (   0.2000000  -0.3464102   0.0000000), wk =   0.1600000
        k(    9) = (   0.4000000  -0.2309401   0.0000000), wk =   0.1600000
        k(   10) = (   0.4000000  -0.0000000   0.0000000), wk =   0.1600000
        k(   11) = (   0.4000000   0.2309401   0.0000000), wk =   0.1600000
        k(   12) = (   0.4000000  -0.6928203   0.0000000), wk =   0.1600000
        k(   13) = (   0.4000000  -0.4618802   0.0000000), wk =   0.1600000

     Dense  grid:  1411785 G-vectors     FFT dimensions: ( 108, 108, 300)

     Smooth grid:   344073 G-vectors     FFT dimensions: (  72,  72, 192)

     Estimated max dynamical RAM per process >     207.10 MB

     Estimated total dynamical RAM >       9.71 GB

     Initial potential from superposition of free atoms

     starting charge     367.9939, renormalised to     368.0000

     negative rho (up, down):  2.948E-03 0.000E+00


     %%%%%%%%%%%%%%%%%%%%%%%%%%%%%%%%%%%%%%%%%%%%%%%%%%%%%%%%%%%%%%%%%%%%%%%%
     %                                                                      %
     % You are using vdW-DF, which was implemented by the Thonhauser group. %
     % Please cite the following two papers that made this development      %
     % possible and the two reviews that describe the various versions:     %
     %                                                                      %
     %   T. Thonhauser et al., PRL 115, 136402 (2015).                      %
     %   T. Thonhauser et al., PRB 76, 125112 (2007).                       %
     %   K. Berland et al., Rep. Prog. Phys. 78, 066501 (2015).             %
     %   D.C. Langreth et al., J. Phys.: Condens. Matter 21, 084203 (2009). %
     %                                                                      %
     % If you are calculating stress with vdW-DF, please also cite:         %
     %                                                                      %
     %   R. Sabatini et al., J. Phys.: Condens. Matter 24, 424209 (2012).   %
     %                                                                      %
     %%%%%%%%%%%%%%%%%%%%%%%%%%%%%%%%%%%%%%%%%%%%%%%%%%%%%%%%%%%%%%%%%%%%%%%%

     %%%%%%%%%%%%%%%%%%%%%%%%%%%%%%%%%%%%%%%%%%%%%%%%%%%%%%%%%%%%%%%%%%%%%%%%
     %                                                                      %
     %  vdW-DF NEWS:                                                        %
     %                                                                      %
     %  * vdW-DF3 is now available. DOI: 10.1021/acs.jctc.0c00471           %
     %    use with input_dft = 'vdW-DF3-opt1' or 'vdW-DF3-opt2'             %
     %                                                                      %
     %  * Unscreened and range-separated hybrid vdW-DF-cx functionals       %
     %    DOI: 10.1063/1.4986522 and 10.1088/1361-648X/ac2ad2               %
     %    use with input_dft = 'vdW-DF-cx0'    and 'vdW-DF-ahcx'            %
     %  * Unscreened and range-separated hybrid vdW-DF2-b86r functionals    %
     %    DOI: 10.1063/1.4986522 and DOI: 10.1103/PhysRevX.12.041003        %
     %    use with input_dft = 'vdW-DF2-br0' and 'vdW-DF2-ahbr'             %
     %                                                                      %
     %%%%%%%%%%%%%%%%%%%%%%%%%%%%%%%%%%%%%%%%%%%%%%%%%%%%%%%%%%%%%%%%%%%%%%%%


     Starting wfcs are  330 randomized atomic wfcs
     Checking if some PAW data can be deallocated... 

     total cpu time spent up to now is       11.3 secs

     per-process dynamical memory:   212.1 Mb

     Self-consistent Calculation

     iteration #  1     ecut=    40.00 Ry     beta= 0.70
     Davidson diagonalization with overlap
     ethr =  1.00E-02,  avg # of iterations =  2.9

     Threshold (ethr) on eigenvalues was too large:
     Diagonalizing with lowered threshold

     Davidson diagonalization with overlap
     ethr =  4.95E-04,  avg # of iterations =  4.2

     negative rho (up, down):  7.115E-03 0.000E+00

     total cpu time spent up to now is       43.4 secs

     total energy              =  -27798.95969034 Ry
     estimated scf accuracy    <       1.99020335 Ry

     iteration #  2     ecut=    40.00 Ry     beta= 0.70
     Davidson diagonalization with overlap
     ethr =  5.41E-04,  avg # of iterations =  3.2

     negative rho (up, down):  5.163E-03 0.000E+00

     total cpu time spent up to now is       56.6 secs

     total energy              =  -27799.11768973 Ry
     estimated scf accuracy    <       0.92912095 Ry

     iteration #  3     ecut=    40.00 Ry     beta= 0.70
     Davidson diagonalization with overlap
     ethr =  2.52E-04,  avg # of iterations =  3.7

     negative rho (up, down):  1.531E-03 0.000E+00

     total cpu time spent up to now is       70.5 secs

     total energy              =  -27799.17254780 Ry
     estimated scf accuracy    <       0.13406168 Ry

     iteration #  4     ecut=    40.00 Ry     beta= 0.70
     Davidson diagonalization with overlap
     c_bands:  1 eigenvalues not converged
     ethr =  3.64E-05,  avg # of iterations = 11.8

     negative rho (up, down):  3.061E-04 0.000E+00

     total cpu time spent up to now is      102.2 secs

     total energy              =  -27799.21974820 Ry
     estimated scf accuracy    <       0.06966648 Ry

     iteration #  5     ecut=    40.00 Ry     beta= 0.70
     Davidson diagonalization with overlap
     ethr =  1.89E-05,  avg # of iterations =  3.8

     negative rho (up, down):  8.011E-05 0.000E+00

     total cpu time spent up to now is      117.0 secs

     total energy              =  -27799.22322631 Ry
     estimated scf accuracy    <       0.03696446 Ry

     iteration #  6     ecut=    40.00 Ry     beta= 0.70
     Davidson diagonalization with overlap
     ethr =  1.00E-05,  avg # of iterations =  3.0

     negative rho (up, down):  2.994E-05 0.000E+00

     total cpu time spent up to now is      130.9 secs

     total energy              =  -27799.22466317 Ry
     estimated scf accuracy    <       0.00290143 Ry

     iteration #  7     ecut=    40.00 Ry     beta= 0.70
     Davidson diagonalization with overlap
     c_bands:  1 eigenvalues not converged
     c_bands:  1 eigenvalues not converged
     c_bands:  2 eigenvalues not converged
     c_bands:  2 eigenvalues not converged
     c_bands:  3 eigenvalues not converged
     c_bands:  1 eigenvalues not converged
     ethr =  7.88E-07,  avg # of iterations = 14.4

     negative rho (up, down):  2.369E-05 0.000E+00

     total cpu time spent up to now is      167.8 secs

     total energy              =  -27799.22636690 Ry
     estimated scf accuracy    <       0.00319582 Ry

     iteration #  8     ecut=    40.00 Ry     beta= 0.70
     Davidson diagonalization with overlap
     ethr =  7.88E-07,  avg # of iterations =  5.1

     negative rho (up, down):  2.396E-05 0.000E+00

     total cpu time spent up to now is      184.0 secs

     total energy              =  -27799.22657893 Ry
     estimated scf accuracy    <       0.00053796 Ry

     iteration #  9     ecut=    40.00 Ry     beta= 0.70
     Davidson diagonalization with overlap
     ethr =  1.46E-07,  avg # of iterations =  4.0

     negative rho (up, down):  4.041E-05 0.000E+00

     total cpu time spent up to now is      199.8 secs

     total energy              =  -27799.22671318 Ry
     estimated scf accuracy    <       0.00045905 Ry

     iteration # 10     ecut=    40.00 Ry     beta= 0.70
     Davidson diagonalization with overlap
     c_bands:  1 eigenvalues not converged
     ethr =  1.25E-07,  avg # of iterations =  8.6

     negative rho (up, down):  9.402E-05 0.000E+00

     total cpu time spent up to now is      216.4 secs

     total energy              =  -27799.22680954 Ry
     estimated scf accuracy    <       0.00031121 Ry

     iteration # 11     ecut=    40.00 Ry     beta= 0.70
     Davidson diagonalization with overlap
     ethr =  8.46E-08,  avg # of iterations =  1.8

     negative rho (up, down):  3.235E-04 0.000E+00

     total cpu time spent up to now is      229.0 secs

     total energy              =  -27799.22691602 Ry
     estimated scf accuracy    <       0.00022793 Ry

     iteration # 12     ecut=    40.00 Ry     beta= 0.70
     Davidson diagonalization with overlap
     c_bands:  1 eigenvalues not converged
     ethr =  6.19E-08,  avg # of iterations =  5.9

     negative rho (up, down):  1.991E-03 0.000E+00

     total cpu time spent up to now is      245.3 secs

     total energy              =  -27799.22700967 Ry
     estimated scf accuracy    <       0.00012056 Ry

     iteration # 13     ecut=    40.00 Ry     beta= 0.70
     Davidson diagonalization with overlap
     ethr =  3.28E-08,  avg # of iterations =  4.5

     negative rho (up, down):  2.397E-03 0.000E+00

     total cpu time spent up to now is      259.5 secs

     total energy              =  -27799.22701580 Ry
     estimated scf accuracy    <       0.00004329 Ry

     iteration # 14     ecut=    40.00 Ry     beta= 0.70
     Davidson diagonalization with overlap
     ethr =  1.18E-08,  avg # of iterations =  2.3

     negative rho (up, down):  2.720E-03 0.000E+00

     total cpu time spent up to now is      272.6 secs

     total energy              =  -27799.22701249 Ry
     estimated scf accuracy    <       0.00001910 Ry

     iteration # 15     ecut=    40.00 Ry     beta= 0.70
     Davidson diagonalization with overlap
     ethr =  5.19E-09,  avg # of iterations =  3.8

     negative rho (up, down):  2.981E-03 0.000E+00

     total cpu time spent up to now is      289.4 secs

     total energy              =  -27799.22701366 Ry
     estimated scf accuracy    <       0.00001560 Ry

     iteration # 16     ecut=    40.00 Ry     beta= 0.70
     Davidson diagonalization with overlap
     ethr =  4.24E-09,  avg # of iterations =  1.7

     negative rho (up, down):  3.077E-03 0.000E+00

     total cpu time spent up to now is      303.7 secs

     total energy              =  -27799.22701379 Ry
     estimated scf accuracy    <       0.00000373 Ry

     iteration # 17     ecut=    40.00 Ry     beta= 0.70
     Davidson diagonalization with overlap
     ethr =  1.01E-09,  avg # of iterations =  4.0

     negative rho (up, down):  3.082E-03 0.000E+00

     total cpu time spent up to now is      320.3 secs

     total energy              =  -27799.22701469 Ry
     estimated scf accuracy    <       0.00000251 Ry

     iteration # 18     ecut=    40.00 Ry     beta= 0.70
     Davidson diagonalization with overlap
     ethr =  6.82E-10,  avg # of iterations =  1.8

     negative rho (up, down):  2.917E-03 0.000E+00

     total cpu time spent up to now is      332.5 secs

     total energy              =  -27799.22701579 Ry
     estimated scf accuracy    <       0.00000115 Ry

     iteration # 19     ecut=    40.00 Ry     beta= 0.70
     Davidson diagonalization with overlap
     ethr =  3.12E-10,  avg # of iterations =  2.0

     negative rho (up, down):  2.846E-03 0.000E+00

     total cpu time spent up to now is      345.6 secs

     End of self-consistent calculation

          k = 0.0000 0.0000 0.0000 ( 42913 PWs)   bands (ev):

   -18.5927  -6.2210  -6.0463  -4.7443  -3.6695  -3.6277  -3.6273  -3.6267
    -3.6231  -3.6175  -3.6158  -3.6139  -3.0828  -3.0667  -3.0655  -3.0646
    -3.0640  -3.0629  -2.6703  -2.5972  -2.5968  -2.5937  -2.5888  -2.5887
    -2.5586  -2.3825  -2.3771  -2.3766  -2.3765  -2.3754  -2.3456  -2.1467
    -2.1465  -2.1398  -2.1394  -2.1385  -2.1364  -2.1343  -2.1303  -2.1294
    -2.1276  -2.1091  -2.1013  -1.5327  -1.5322  -1.5032  -1.5008  -1.4707
    -1.4499  -1.4473  -1.4445  -1.4442  -1.4392  -1.3119  -1.3044  -1.2387
    -1.2050  -0.9594  -0.7058  -0.7010  -0.6994  -0.6977  -0.6971  -0.6835
    -0.6331  -0.5394  -0.5389  -0.5126  -0.5103  -0.5008  -0.5003  -0.4821
    -0.4778  -0.4755  -0.4730  -0.4721  -0.4710  -0.4375  -0.4351  -0.4186
    -0.2877  -0.2861  -0.2834  -0.2809  -0.2796  -0.2345  -0.1302  -0.1240
    -0.1207  -0.1199  -0.1173  -0.1114  -0.0340  -0.0328   0.0610   0.0619
     0.1185   0.1228   0.1329   0.1352   0.1732   0.1748   0.1801   0.1907
     0.3353   0.3360   0.3383   0.3447   0.3451   0.3463   0.4492   0.8298
     0.8318   0.8353   0.8408   0.8413   0.8436   0.8905   0.9065   0.9084
     0.9104   0.9112   0.9215   0.9812   0.9874   1.1375   1.1499   1.1528
     1.1536   1.1649   1.1802   1.2872   1.2887   1.2999   1.3140   1.3153
     1.3174   1.5612   1.5624   1.5703   1.5704   1.5739   1.5769   1.6470
     1.6492   1.8231   1.8252   1.8271   1.8320   1.8370   1.8554   1.9961
     1.9979   2.0032   2.0058   2.0059   2.0133   2.0358   2.0384   2.0411
     2.0468   2.0476   2.1114   2.1757   2.1877   2.1899   2.1913   2.1937
     2.2014   2.2016   2.2064   2.2833   2.2838   2.3038   2.3053   2.3054
     2.3092   2.3168   2.3175   2.3981   2.3990   2.4097   2.4140   2.4149
     2.4164   2.4919   2.5112   2.5149   2.5175   2.5246   2.5267   2.6541
     2.7273   2.7390   2.8323   2.8355   2.8443   2.8462   2.8472   2.8527
     3.6224   3.7033   3.7165   3.7262   3.7297   3.7374   3.9282   5.9994
     6.0239   6.0368   6.0457   6.0619   6.1953   6.8096   7.6015   7.6027
     7.6505   7.6547   7.6595   7.6676   7.7192

          k = 0.0000 0.2309 0.0000 ( 42996 PWs)   bands (ev):

   -18.5927  -6.2213  -5.8992  -4.5994  -4.1400  -3.7413  -3.7358  -3.5212
    -3.4806  -3.4340  -3.3900  -3.3845  -3.1885  -3.1597  -3.0109  -3.0027
    -2.9927  -2.9861  -2.7087  -2.6428  -2.5703  -2.5666  -2.5441  -2.5335
    -2.4756  -2.4685  -2.4089  -2.4060  -2.3977  -2.3901  -2.3225  -2.2940
    -2.2906  -2.1831  -2.1777  -2.1659  -2.1206  -2.1176  -1.9572  -1.9484
    -1.9289  -1.9239  -1.8939  -1.6595  -1.6556  -1.6211  -1.5723  -1.5696
    -1.5329  -1.5245  -1.3597  -1.3469  -1.2880  -1.2779  -1.2452  -1.2186
    -1.2027  -1.0387  -0.9608  -0.8981  -0.8732  -0.8143  -0.8003  -0.7769
    -0.7225  -0.7030  -0.6890  -0.6767  -0.6599  -0.6421  -0.6095  -0.5410
    -0.5214  -0.5070  -0.5001  -0.4341  -0.4209  -0.4149  -0.3561  -0.3419
    -0.3285  -0.2709  -0.2406  -0.2249  -0.2204  -0.2068  -0.1339  -0.1272
    -0.1171  -0.1102  -0.1090  -0.0401  -0.0368  -0.0102  -0.0008   0.0612
     0.0637   0.0692   0.1072   0.1111   0.1492   0.1570   0.1651   0.2710
     0.3266   0.3406   0.3418   0.3463   0.3620   0.3723   0.3832   0.4032
     0.4353   0.4483   0.4582   0.4748   0.6775   0.7534   0.8063   0.8534
     0.8555   0.8645   0.8721   0.8950   0.8967   1.0551   1.0573   1.0715
     1.1711   1.2112   1.2242   1.2272   1.2391   1.3292   1.3319   1.3429
     1.3500   1.4310   1.4424   1.4448   1.4684   1.4755   1.6586   1.6696
     1.6945   1.6961   1.7022   1.7253   1.7376   1.8147   1.8377   1.8454
     1.8723   1.8891   1.9364   1.9428   1.9475   1.9541   2.0579   2.0635
     2.0894   2.1042   2.1820   2.2299   2.2361   2.2390   2.2463   2.2608
     2.3032   2.3160   2.3710   2.3777   2.4329   2.4401   2.4435   2.4881
     2.4923   2.4940   2.4989   2.5006   2.5172   2.5700   2.5783   2.7255
     2.7288   2.7429   2.7599   2.7706   2.7752   2.8070   2.8472   2.8515
     2.8631   2.9628   2.9641   2.9864   3.1443   3.1490   3.1515   3.1598
     3.2528   3.5953   3.6489   4.2891   4.3164   4.3630   4.5004   5.3251
     5.7552   5.8218   6.4699   6.4715   6.5835   6.6428   6.8769   6.9119
     7.4357   7.4479   7.5430   7.8270   7.8364

          k = 0.0000 0.4619 0.0000 ( 43046 PWs)   bands (ev):

   -18.5927  -6.2216  -5.4761  -4.8410  -4.1930  -3.7753  -3.7703  -3.6373
    -3.4077  -3.2507  -3.1281  -3.0935  -3.0490  -3.0439  -2.8883  -2.8692
    -2.8329  -2.8264  -2.8210  -2.7096  -2.6720  -2.6617  -2.6325  -2.6109
    -2.5804  -2.5531  -2.5200  -2.4731  -2.4687  -2.4437  -2.2023  -2.1997
    -2.1887  -2.1872  -2.1841  -2.1780  -1.9624  -1.9537  -1.9052  -1.9028
    -1.8920  -1.8848  -1.7135  -1.6114  -1.6072  -1.5963  -1.5911  -1.5347
    -1.5272  -1.4803  -1.4690  -1.4594  -1.3898  -1.3838  -1.2590  -1.2507
    -1.2116  -1.2012  -1.1237  -1.0836  -1.0458  -1.0240  -1.0203  -0.9303
    -0.8628  -0.7999  -0.7980  -0.7835  -0.7664  -0.6972  -0.6783  -0.6684
    -0.5633  -0.5536  -0.5430  -0.5310  -0.4219  -0.4118  -0.4102  -0.4068
    -0.3970  -0.3360  -0.3154  -0.3106  -0.3070  -0.2861  -0.2822  -0.2757
    -0.2610  -0.2227  -0.1554  -0.1405  -0.1315  -0.1285  -0.0942  -0.0888
    -0.0454   0.0179   0.0765   0.1093   0.1144   0.1546   0.1617   0.1816
     0.1928   0.2098   0.3260   0.3323   0.3552   0.4025   0.4118   0.4534
     0.5874   0.5914   0.6237   0.6768   0.7518   0.7626   0.7757   0.7970
     0.7996   0.8016   0.8124   0.8907   0.9018   0.9184   0.9293   0.9409
     0.9570   0.9689   0.9817   1.0179   1.0502   1.1343   1.1619   1.1718
     1.2380   1.3021   1.3329   1.3340   1.4668   1.4678   1.5347   1.5869
     1.6350   1.6404   1.6632   1.6836   1.7222   1.7292   1.7833   1.7908
     1.8348   1.8390   1.8929   1.9422   1.9517   1.9946   1.9973   2.0119
     2.0128   2.0912   2.1899   2.2088   2.2682   2.2826   2.2927   2.2963
     2.3771   2.3967   2.4023   2.4900   2.4960   2.5000   2.5334   2.5764
     2.5957   2.5976   2.6070   2.7261   2.7334   2.7492   2.7549   2.7630
     2.7705   2.7854   2.8100   2.9569   2.9974   3.0023   3.0071   3.0197
     3.1945   3.2278   3.6044   3.6391   3.6767   3.9119   4.0461   4.0479
     4.4440   4.4464   4.6254   4.7834   5.2575   5.2609   5.2802   5.3537
     5.5225   5.5442   5.6529   5.7248   5.9245   5.9324   6.4336   6.5654
     7.0758   7.1016   7.1713   7.5447   7.6110

          k = 0.2000-0.1155 0.0000 ( 42996 PWs)   bands (ev):

   -18.5927  -6.2211  -5.8992  -4.5995  -4.1376  -3.7421  -3.7383  -3.5213
    -3.4804  -3.4292  -3.3913  -3.3883  -3.1909  -3.1606  -3.0083  -3.0013
    -2.9913  -2.9848  -2.7172  -2.6347  -2.5713  -2.5688  -2.5430  -2.5219
    -2.4757  -2.4715  -2.4089  -2.4051  -2.3987  -2.3969  -2.3225  -2.2956
    -2.2914  -2.1795  -2.1750  -2.1705  -2.1200  -2.1178  -1.9553  -1.9493
    -1.9288  -1.9249  -1.8963  -1.6577  -1.6572  -1.6132  -1.5705  -1.5698
    -1.5364  -1.5280  -1.3632  -1.3495  -1.2932  -1.2777  -1.2383  -1.2228
    -1.2027  -1.0351  -0.9672  -0.8978  -0.8701  -0.8226  -0.8141  -0.7675
    -0.7247  -0.6968  -0.6921  -0.6723  -0.6601  -0.6432  -0.6083  -0.5397
    -0.5202  -0.5085  -0.5002  -0.4338  -0.4043  -0.4033  -0.3573  -0.3479
    -0.3250  -0.2692  -0.2350  -0.2325  -0.2300  -0.2190  -0.1263  -0.1235
    -0.1197  -0.1135  -0.1102  -0.0429  -0.0355  -0.0065   0.0077   0.0546
     0.0623   0.0672   0.1071   0.1125   0.1536   0.1580   0.1642   0.2714
     0.3330   0.3374   0.3423   0.3459   0.3628   0.3764   0.3779   0.4024
     0.4305   0.4495   0.4618   0.4652   0.6791   0.7491   0.8072   0.8526
     0.8555   0.8680   0.8730   0.8964   0.8994   1.0576   1.0613   1.0672
     1.1753   1.2119   1.2178   1.2299   1.2448   1.3292   1.3354   1.3460
     1.3478   1.4306   1.4435   1.4455   1.4681   1.4708   1.6638   1.6721
     1.6951   1.6959   1.7004   1.7238   1.7372   1.8101   1.8383   1.8447
     1.8725   1.8818   1.9373   1.9415   1.9471   1.9538   2.0568   2.0642
     2.0875   2.1032   2.1889   2.2317   2.2344   2.2406   2.2469   2.2635
     2.3029   2.3226   2.3716   2.3770   2.4311   2.4397   2.4439   2.4871
     2.4908   2.4946   2.4996   2.5008   2.5168   2.5740   2.5820   2.7293
     2.7297   2.7376   2.7586   2.7683   2.7720   2.8023   2.8429   2.8462
     2.8632   2.9632   2.9652   2.9862   3.1420   3.1494   3.1505   3.1643
     3.2526   3.5863   3.6494   4.2950   4.3088   4.3697   4.5020   5.3285
     5.7478   5.8244   6.4711   6.4713   6.5848   6.6464   6.8201   6.9441
     7.4364   7.4537   7.6118   7.8264   7.8360

          k = 0.2000 0.1155 0.0000 ( 42996 PWs)   bands (ev):

   -18.5927  -6.2212  -5.8992  -4.5994  -4.1399  -3.7414  -3.7359  -3.5213
    -3.4806  -3.4339  -3.3902  -3.3846  -3.1887  -3.1597  -3.0108  -3.0026
    -2.9925  -2.9859  -2.7079  -2.6450  -2.5704  -2.5668  -2.5436  -2.5326
    -2.4757  -2.4691  -2.4087  -2.4061  -2.3971  -2.3897  -2.3216  -2.2941
    -2.2911  -2.1822  -2.1771  -2.1667  -2.1211  -2.1177  -1.9575  -1.9483
    -1.9291  -1.9238  -1.8945  -1.6601  -1.6559  -1.6222  -1.5723  -1.5693
    -1.5314  -1.5244  -1.3584  -1.3470  -1.2879  -1.2779  -1.2470  -1.2173
    -1.2025  -1.0402  -0.9597  -0.8983  -0.8743  -0.8146  -0.8005  -0.7762
    -0.7225  -0.7027  -0.6896  -0.6769  -0.6600  -0.6406  -0.6094  -0.5408
    -0.5221  -0.5077  -0.5000  -0.4341  -0.4199  -0.4139  -0.3561  -0.3429
    -0.3289  -0.2709  -0.2402  -0.2257  -0.2215  -0.2073  -0.1337  -0.1271
    -0.1174  -0.1102  -0.1084  -0.0406  -0.0357  -0.0102  -0.0003   0.0613
     0.0633   0.0704   0.1070   0.1121   0.1493   0.1572   0.1651   0.2715
     0.3275   0.3412   0.3418   0.3448   0.3626   0.3728   0.3818   0.4047
     0.4342   0.4495   0.4588   0.4724   0.6763   0.7532   0.8063   0.8535
     0.8558   0.8645   0.8721   0.8951   0.8964   1.0552   1.0576   1.0702
     1.1716   1.2108   1.2237   1.2273   1.2397   1.3286   1.3327   1.3430
     1.3487   1.4309   1.4427   1.4447   1.4684   1.4753   1.6591   1.6700
     1.6948   1.6960   1.7024   1.7263   1.7375   1.8140   1.8383   1.8450
     1.8723   1.8900   1.9365   1.9426   1.9475   1.9542   2.0573   2.0633
     2.0893   2.1041   2.1828   2.2299   2.2359   2.2390   2.2461   2.2607
     2.3028   2.3161   2.3711   2.3776   2.4329   2.4407   2.4436   2.4879
     2.4922   2.4941   2.4990   2.5006   2.5173   2.5703   2.5790   2.7261
     2.7291   2.7422   2.7598   2.7701   2.7751   2.8066   2.8465   2.8513
     2.8631   2.9629   2.9639   2.9864   3.1442   3.1494   3.1513   3.1614
     3.2508   3.5943   3.6494   4.2882   4.3162   4.3653   4.5000   5.3233
     5.7577   5.8218   6.4701   6.4715   6.5864   6.6418   6.8571   6.9240
     7.4389   7.4482   7.5495   7.8267   7.8365

          k = 0.2000 0.3464 0.0000 ( 43046 PWs)   bands (ev):

   -18.5927  -6.2215  -5.6135  -4.3892  -4.3854  -4.3221  -3.3141  -3.3089
    -3.2915  -3.2829  -3.2410  -3.2346  -3.2290  -3.2244  -3.1199  -3.1174
    -2.7577  -2.7329  -2.7270  -2.7232  -2.6728  -2.6417  -2.5938  -2.4930
    -2.4770  -2.4664  -2.4486  -2.4433  -2.3713  -2.3216  -2.3164  -2.2875
    -2.2841  -2.2371  -2.2004  -2.1917  -2.1499  -2.1426  -2.0755  -1.8031
    -1.7123  -1.7015  -1.6897  -1.6695  -1.6610  -1.6530  -1.6508  -1.5926
    -1.5760  -1.4170  -1.4145  -1.4034  -1.3287  -1.2998  -1.2656  -1.2457
    -1.2340  -1.1654  -1.1456  -1.0175  -0.9706  -0.9652  -0.9179  -0.8692
    -0.8646  -0.8375  -0.8303  -0.7801  -0.7621  -0.7541  -0.6044  -0.5895
    -0.5877  -0.5741  -0.5207  -0.5132  -0.4533  -0.4497  -0.4399  -0.4295
    -0.3092  -0.2869  -0.2767  -0.2636  -0.2614  -0.2576  -0.2453  -0.2139
    -0.1953  -0.1318  -0.1249  -0.1018  -0.0788  -0.0261  -0.0236   0.0298
     0.0562   0.0877   0.0956   0.1062   0.1462   0.1526   0.1547   0.1749
     0.1806   0.1944   0.2090   0.2268   0.2635   0.2736   0.3711   0.4157
     0.4194   0.4829   0.4889   0.4944   0.5183   0.6822   0.6884   0.8149
     0.8403   0.8736   0.8788   0.8897   0.9093   0.9151   0.9573   0.9650
     0.9875   1.0061   1.0452   1.0871   1.1888   1.2697   1.2734   1.3146
     1.3236   1.3378   1.3705   1.3919   1.5136   1.5185   1.5249   1.5747
     1.5799   1.6483   1.7096   1.7271   1.7347   1.7424   1.8120   1.8142
     1.8188   1.8320   1.8433   1.8553   1.8619   1.8759   1.8938   1.9994
     2.0734   2.0827   2.2090   2.2098   2.2458   2.3779   2.3821   2.3853
     2.4038   2.4921   2.5142   2.5307   2.5350   2.5459   2.5731   2.5807
     2.5966   2.5999   2.6164   2.6619   2.6638   2.6929   2.7546   2.7771
     2.7862   2.8150   2.8186   2.8612   3.0006   3.0503   3.0515   3.1216
     3.1301   3.1343   3.1794   3.2779   3.2880   3.7176   3.8074   3.8168
     4.3463   4.3544   4.3759   4.4109   5.0353   5.0504   5.1226   5.2709
     5.3150   5.3517   5.9784   6.4599   6.4967   6.5373   6.6991   6.8708
     7.1649   7.2174   7.2580   7.2879   7.3143

          k = 0.2000-0.5774 0.0000 ( 43014 PWs)   bands (ev):

   -18.5927  -6.2215  -5.0798  -5.0764  -4.4698  -3.8306  -3.8235  -3.3143
    -3.3068  -3.1697  -3.1361  -3.0308  -3.0236  -2.9227  -2.9164  -2.8050
    -2.7983  -2.7910  -2.7559  -2.7509  -2.7442  -2.7326  -2.6456  -2.5889
    -2.5839  -2.5647  -2.5391  -2.5194  -2.4471  -2.3549  -2.3287  -2.2675
    -2.1729  -2.1688  -2.1577  -2.1561  -2.1336  -2.0324  -2.0284  -1.9308
    -1.9291  -1.7588  -1.7443  -1.6953  -1.5966  -1.5879  -1.5429  -1.5363
    -1.4368  -1.3820  -1.3403  -1.3306  -1.3118  -1.2710  -1.2575  -1.2354
    -1.1530  -1.1279  -1.1155  -1.0951  -1.0910  -1.0891  -1.0844  -1.0181
    -1.0126  -0.9026  -0.8838  -0.8524  -0.8114  -0.7933  -0.6973  -0.6543
    -0.6526  -0.6379  -0.5979  -0.5690  -0.5662  -0.4809  -0.4604  -0.4508
    -0.4380  -0.4071  -0.3827  -0.3334  -0.3307  -0.2864  -0.2301  -0.2244
    -0.2168  -0.1895  -0.1019  -0.0542  -0.0447  -0.0108  -0.0065   0.0360
     0.0397   0.0469   0.0520   0.0758   0.0891   0.1277   0.1337   0.1747
     0.1818   0.1879   0.1905   0.1961   0.2073   0.2352   0.2974   0.3011
     0.3146   0.5113   0.5292   0.6113   0.6187   0.7239   0.7297   0.7364
     0.7677   0.8157   0.8236   0.8290   0.8424   0.8639   0.9406   0.9641
     0.9688   1.0358   1.0429   1.0769   1.1169   1.1344   1.1864   1.3131
     1.3742   1.3776   1.3978   1.4021   1.4876   1.4967   1.5006   1.5210
     1.5311   1.5552   1.5775   1.5839   1.6920   1.6990   1.7182   1.7623
     1.7669   1.7864   1.7939   1.8086   1.8328   1.9716   2.0195   2.0572
     2.1270   2.1393   2.2137   2.2187   2.2994   2.3417   2.3499   2.3646
     2.4519   2.4735   2.5270   2.5551   2.5701   2.5763   2.5880   2.6175
     2.6358   2.6728   2.7355   2.7387   2.7595   2.7825   2.7878   2.7902
     2.8364   2.8651   2.9929   3.0006   3.0028   3.0083   3.0178   3.0794
     3.1639   3.1957   3.3311   4.1535   4.1548   4.3471   4.3873   4.4540
     4.5500   4.5565   4.5677   4.9951   5.1639   5.1687   5.6213   5.6358
     5.6689   5.7653   5.7692   5.9885   6.0420   6.0674   6.0970   6.4963
     6.5947   6.6110   6.9357   7.2402   7.2500

          k = 0.2000-0.3464 0.0000 ( 43046 PWs)   bands (ev):

   -18.5927  -6.2213  -5.6134  -4.3885  -4.3852  -4.3222  -3.3130  -3.3061
    -3.2927  -3.2823  -3.2414  -3.2373  -3.2328  -3.2240  -3.1212  -3.1170
    -2.7538  -2.7310  -2.7263  -2.7240  -2.6600  -2.6506  -2.5921  -2.4959
    -2.4746  -2.4665  -2.4489  -2.4406  -2.3752  -2.3238  -2.3189  -2.2866
    -2.2850  -2.2385  -2.1998  -2.1916  -2.1524  -2.1475  -2.0693  -1.8054
    -1.7064  -1.7040  -1.6888  -1.6688  -1.6624  -1.6520  -1.6447  -1.5921
    -1.5768  -1.4277  -1.4156  -1.4094  -1.3268  -1.3010  -1.2682  -1.2474
    -1.2322  -1.1570  -1.1454  -1.0332  -0.9753  -0.9636  -0.9242  -0.8749
    -0.8559  -0.8376  -0.8327  -0.7834  -0.7592  -0.7458  -0.6041  -0.5876
    -0.5784  -0.5700  -0.5177  -0.5055  -0.4559  -0.4488  -0.4454  -0.4289
    -0.3117  -0.2874  -0.2795  -0.2655  -0.2611  -0.2569  -0.2462  -0.2115
    -0.1947  -0.1309  -0.1220  -0.1011  -0.0756  -0.0295  -0.0231   0.0294
     0.0545   0.0920   0.0967   0.1049   0.1474   0.1511   0.1556   0.1695
     0.1801   0.1938   0.2056   0.2260   0.2665   0.2749   0.3712   0.4106
     0.4159   0.4873   0.4916   0.4973   0.5239   0.6816   0.6869   0.8222
     0.8397   0.8740   0.8782   0.8931   0.9087   0.9166   0.9549   0.9637
     0.9863   1.0073   1.0462   1.0791   1.1955   1.2666   1.2766   1.3155
     1.3238   1.3404   1.3722   1.3930   1.5114   1.5198   1.5273   1.5740
     1.5804   1.6509   1.7051   1.7266   1.7339   1.7421   1.8117   1.8147
     1.8189   1.8312   1.8380   1.8563   1.8614   1.8725   1.8896   2.0068
     2.0704   2.0823   2.2108   2.2132   2.2468   2.3798   2.3811   2.3852
     2.4043   2.4938   2.5100   2.5307   2.5335   2.5457   2.5732   2.5801
     2.5988   2.6028   2.6199   2.6599   2.6656   2.6883   2.7577   2.7772
     2.7884   2.8149   2.8185   2.8623   2.9944   3.0439   3.0484   3.1198
     3.1291   3.1354   3.1791   3.2775   3.2894   3.7202   3.8088   3.8189
     4.3442   4.3502   4.3726   4.4102   5.0384   5.0480   5.1288   5.2705
     5.3154   5.3488   5.9771   6.4592   6.4979   6.5295   6.7027   6.8688
     7.1429   7.1922   7.2836   7.2893   7.3194

          k = 0.4000-0.2309 0.0000 ( 43046 PWs)   bands (ev):

   -18.5927  -6.2212  -5.4759  -4.8401  -4.1933  -3.7760  -3.7718  -3.6382
    -3.4033  -3.2515  -3.1288  -3.0926  -3.0512  -3.0471  -2.8838  -2.8664
    -2.8357  -2.8241  -2.8190  -2.7125  -2.6732  -2.6633  -2.6238  -2.6092
    -2.5879  -2.5475  -2.5107  -2.4747  -2.4709  -2.4457  -2.2026  -2.2019
    -2.1896  -2.1889  -2.1870  -2.1832  -1.9615  -1.9580  -1.9043  -1.9029
    -1.8920  -1.8888  -1.7053  -1.6071  -1.6063  -1.5963  -1.5916  -1.5374
    -1.5310  -1.4825  -1.4696  -1.4594  -1.3909  -1.3865  -1.2618  -1.2529
    -1.2105  -1.2024  -1.1292  -1.0838  -1.0456  -1.0283  -1.0231  -0.9549
    -0.8679  -0.8022  -0.7878  -0.7821  -0.7554  -0.6942  -0.6806  -0.6476
    -0.5500  -0.5431  -0.5365  -0.5281  -0.4197  -0.4143  -0.4121  -0.4113
    -0.4001  -0.3362  -0.3197  -0.3105  -0.3008  -0.2880  -0.2871  -0.2801
    -0.2652  -0.2225  -0.1538  -0.1448  -0.1387  -0.1290  -0.1009  -0.0950
    -0.0391   0.0246   0.0766   0.1154   0.1201   0.1471   0.1578   0.1876
     0.2002   0.2140   0.3266   0.3304   0.3515   0.4026   0.4167   0.4527
     0.5891   0.5919   0.6210   0.6770   0.7546   0.7598   0.7772   0.7925
     0.7970   0.7989   0.8065   0.8904   0.9022   0.9224   0.9295   0.9453
     0.9516   0.9712   0.9896   1.0125   1.0575   1.1391   1.1668   1.1692
     1.2383   1.3103   1.3354   1.3369   1.4676   1.4683   1.5329   1.5806
     1.6336   1.6403   1.6684   1.6878   1.7206   1.7245   1.7787   1.7873
     1.8321   1.8368   1.8928   1.9401   1.9512   1.9946   1.9959   2.0114
     2.0134   2.0961   2.1883   2.2134   2.2695   2.2838   2.2933   2.2971
     2.3784   2.3978   2.4017   2.4914   2.4984   2.4998   2.5335   2.5812
     2.5997   2.6008   2.6069   2.7270   2.7340   2.7470   2.7548   2.7573
     2.7661   2.7795   2.8111   2.9573   2.9943   2.9979   3.0008   3.0145
     3.1948   3.2283   3.5960   3.6393   3.6817   3.9153   4.0470   4.0479
     4.4425   4.4482   4.6285   4.7772   5.2581   5.2607   5.2749   5.3589
     5.5165   5.5489   5.6449   5.7286   5.9225   5.9340   6.4265   6.5571
     7.0719   7.1020   7.2001   7.5316   7.6155

          k = 0.4000-0.0000 0.0000 ( 43046 PWs)   bands (ev):

   -18.5927  -6.2212  -5.6134  -4.3885  -4.3852  -4.3223  -3.3131  -3.3061
    -3.2928  -3.2822  -3.2416  -3.2375  -3.2329  -3.2240  -3.1212  -3.1170
    -2.7532  -2.7308  -2.7263  -2.7241  -2.6605  -2.6486  -2.5940  -2.4961
    -2.4744  -2.4665  -2.4487  -2.4407  -2.3757  -2.3239  -2.3190  -2.2867
    -2.2842  -2.2384  -2.1985  -2.1922  -2.1515  -2.1481  -2.0690  -1.8053
    -1.7080  -1.7038  -1.6900  -1.6696  -1.6628  -1.6524  -1.6448  -1.5920
    -1.5763  -1.4249  -1.4157  -1.4090  -1.3268  -1.3013  -1.2675  -1.2478
    -1.2323  -1.1583  -1.1454  -1.0296  -0.9754  -0.9657  -0.9263  -0.8750
    -0.8559  -0.8380  -0.8328  -0.7821  -0.7594  -0.7463  -0.6036  -0.5869
    -0.5788  -0.5698  -0.5176  -0.5061  -0.4558  -0.4487  -0.4452  -0.4292
    -0.3138  -0.2873  -0.2793  -0.2644  -0.2613  -0.2569  -0.2461  -0.2112
    -0.1949  -0.1302  -0.1214  -0.1006  -0.0752  -0.0294  -0.0232   0.0288
     0.0551   0.0923   0.0967   0.1048   0.1483   0.1514   0.1572   0.1686
     0.1807   0.1940   0.2034   0.2258   0.2676   0.2752   0.3713   0.4090
     0.4157   0.4880   0.4915   0.4972   0.5235   0.6813   0.6869   0.8226
     0.8397   0.8732   0.8778   0.8936   0.9085   0.9164   0.9546   0.9634
     0.9861   1.0075   1.0453   1.0786   1.1959   1.2666   1.2759   1.3159
     1.3236   1.3408   1.3718   1.3931   1.5117   1.5193   1.5277   1.5747
     1.5802   1.6515   1.7046   1.7273   1.7338   1.7427   1.8123   1.8153
     1.8193   1.8305   1.8377   1.8563   1.8618   1.8723   1.8899   2.0063
     2.0702   2.0826   2.2106   2.2125   2.2470   2.3788   2.3815   2.3852
     2.4043   2.4941   2.5098   2.5306   2.5335   2.5460   2.5731   2.5802
     2.5993   2.6029   2.6201   2.6604   2.6655   2.6877   2.7579   2.7775
     2.7885   2.8148   2.8185   2.8624   2.9938   3.0438   3.0477   3.1181
     3.1292   3.1353   3.1800   3.2772   3.2896   3.7200   3.8094   3.8187
     4.3445   4.3499   4.3706   4.4123   5.0391   5.0456   5.1307   5.2705
     5.3142   5.3489   5.9776   6.4591   6.4953   6.5390   6.7024   6.8637
     7.1356   7.1817   7.2836   7.2914   7.3193

          k = 0.4000 0.2309 0.0000 ( 43046 PWs)   bands (ev):

   -18.5927  -6.2214  -5.4761  -4.8409  -4.1931  -3.7754  -3.7704  -3.6376
    -3.4076  -3.2508  -3.1283  -3.0938  -3.0489  -3.0440  -2.8874  -2.8688
    -2.8328  -2.8266  -2.8207  -2.7108  -2.6715  -2.6616  -2.6337  -2.6105
    -2.5828  -2.5535  -2.5174  -2.4732  -2.4686  -2.4412  -2.2021  -2.1998
    -2.1885  -2.1872  -2.1842  -2.1786  -1.9619  -1.9545  -1.9060  -1.9029
    -1.8919  -1.8856  -1.7149  -1.6120  -1.6071  -1.5965  -1.5909  -1.5335
    -1.5267  -1.4811  -1.4686  -1.4597  -1.3889  -1.3833  -1.2585  -1.2508
    -1.2117  -1.2009  -1.1249  -1.0847  -1.0467  -1.0237  -1.0210  -0.9274
    -0.8623  -0.7999  -0.7967  -0.7834  -0.7667  -0.6972  -0.6768  -0.6697
    -0.5630  -0.5526  -0.5424  -0.5327  -0.4216  -0.4126  -0.4106  -0.4072
    -0.3973  -0.3359  -0.3159  -0.3112  -0.3065  -0.2863  -0.2828  -0.2770
    -0.2616  -0.2229  -0.1552  -0.1411  -0.1304  -0.1285  -0.0947  -0.0880
    -0.0451   0.0183   0.0768   0.1097   0.1154   0.1536   0.1615   0.1822
     0.1933   0.2108   0.3260   0.3321   0.3568   0.4020   0.4118   0.4533
     0.5882   0.5913   0.6240   0.6769   0.7519   0.7616   0.7760   0.7975
     0.7994   0.8014   0.8118   0.8907   0.9009   0.9183   0.9289   0.9409
     0.9557   0.9676   0.9818   1.0181   1.0507   1.1346   1.1620   1.1707
     1.2380   1.3023   1.3334   1.3339   1.4669   1.4683   1.5357   1.5865
     1.6351   1.6414   1.6637   1.6840   1.7223   1.7289   1.7829   1.7918
     1.8345   1.8388   1.8926   1.9419   1.9515   1.9944   1.9970   2.0119
     2.0126   2.0928   2.1889   2.2087   2.2679   2.2826   2.2925   2.2963
     2.3771   2.3966   2.4023   2.4904   2.4968   2.5000   2.5337   2.5763
     2.5961   2.5979   2.6069   2.7259   2.7335   2.7490   2.7548   2.7625
     2.7703   2.7849   2.8103   2.9568   2.9968   3.0020   3.0068   3.0194
     3.1945   3.2278   3.6033   3.6390   3.6781   3.9119   4.0463   4.0478
     4.4439   4.4467   4.6245   4.7833   5.2575   5.2608   5.2797   5.3524
     5.5230   5.5451   5.6546   5.7253   5.9245   5.9327   6.4288   6.5638
     7.0759   7.1016   7.1819   7.5514   7.6117

          k = 0.4000-0.6928 0.0000 ( 43014 PWs)   bands (ev):

   -18.5927  -6.2215  -5.0798  -5.0764  -4.4698  -3.8307  -3.8238  -3.3139
    -3.3067  -3.1698  -3.1361  -3.0306  -3.0237  -2.9226  -2.9163  -2.8045
    -2.7993  -2.7908  -2.7561  -2.7511  -2.7458  -2.7331  -2.6443  -2.5892
    -2.5839  -2.5638  -2.5393  -2.5175  -2.4473  -2.3535  -2.3289  -2.2683
    -2.1729  -2.1686  -2.1577  -2.1560  -2.1339  -2.0332  -2.0287  -1.9312
    -1.9293  -1.7588  -1.7445  -1.6965  -1.5952  -1.5876  -1.5434  -1.5358
    -1.4364  -1.3816  -1.3393  -1.3305  -1.3122  -1.2727  -1.2578  -1.2355
    -1.1541  -1.1272  -1.1152  -1.0959  -1.0909  -1.0887  -1.0838  -1.0183
    -1.0128  -0.8982  -0.8846  -0.8530  -0.8115  -0.7958  -0.6972  -0.6545
    -0.6523  -0.6356  -0.5979  -0.5687  -0.5658  -0.4808  -0.4603  -0.4511
    -0.4380  -0.4082  -0.3850  -0.3334  -0.3305  -0.2856  -0.2310  -0.2249
    -0.2167  -0.1901  -0.1017  -0.0546  -0.0445  -0.0105  -0.0064   0.0361
     0.0395   0.0466   0.0538   0.0759   0.0900   0.1285   0.1332   0.1735
     0.1818   0.1880   0.1903   0.1969   0.2072   0.2345   0.2964   0.3019
     0.3159   0.5113   0.5289   0.6115   0.6186   0.7238   0.7296   0.7368
     0.7670   0.8151   0.8235   0.8289   0.8428   0.8636   0.9399   0.9642
     0.9693   1.0355   1.0444   1.0765   1.1176   1.1346   1.1858   1.3130
     1.3743   1.3772   1.3970   1.4017   1.4873   1.4980   1.5007   1.5210
     1.5316   1.5557   1.5774   1.5829   1.6914   1.6988   1.7181   1.7623
     1.7669   1.7864   1.7937   1.8093   1.8331   1.9719   2.0210   2.0569
     2.1274   2.1382   2.2135   2.2186   2.2994   2.3415   2.3501   2.3639
     2.4528   2.4731   2.5268   2.5558   2.5703   2.5771   2.5876   2.6171
     2.6364   2.6723   2.7353   2.7387   2.7601   2.7834   2.7873   2.7902
     2.8364   2.8645   2.9929   2.9999   3.0025   3.0082   3.0176   3.0795
     3.1635   3.1956   3.3309   4.1535   4.1548   4.3484   4.3847   4.4539
     4.5505   4.5576   4.5673   4.9961   5.1636   5.1688   5.6223   5.6378
     5.6666   5.7653   5.7692   5.9866   6.0257   6.0669   6.1125   6.4993
     6.5968   6.6098   6.9405   7.2407   7.2507

          k = 0.4000-0.4619 0.0000 ( 43014 PWs)   bands (ev):

   -18.5927  -6.2213  -5.0798  -5.0756  -4.4705  -3.8309  -3.8242  -3.3126
    -3.3030  -3.1710  -3.1369  -3.0327  -3.0258  -2.9190  -2.9157  -2.8137
    -2.7968  -2.7917  -2.7584  -2.7533  -2.7420  -2.7341  -2.6302  -2.5868
    -2.5841  -2.5615  -2.5393  -2.5218  -2.4427  -2.3561  -2.3310  -2.2736
    -2.1712  -2.1697  -2.1591  -2.1581  -2.1394  -2.0324  -2.0265  -1.9323
    -1.9306  -1.7551  -1.7472  -1.6871  -1.5995  -1.5926  -1.5407  -1.5378
    -1.4315  -1.3813  -1.3426  -1.3298  -1.3126  -1.2723  -1.2652  -1.2363
    -1.1573  -1.1278  -1.1148  -1.0989  -1.0938  -1.0917  -1.0833  -1.0146
    -1.0119  -0.9432  -0.8674  -0.8375  -0.8127  -0.7684  -0.6953  -0.6595
    -0.6493  -0.6382  -0.6014  -0.5602  -0.5558  -0.4802  -0.4615  -0.4512
    -0.4394  -0.4119  -0.3906  -0.3377  -0.3328  -0.2799  -0.2383  -0.2331
    -0.2135  -0.1884  -0.0961  -0.0523  -0.0494  -0.0125  -0.0090   0.0398
     0.0431   0.0484   0.0527   0.0865   0.0918   0.1324   0.1403   0.1576
     0.1828   0.1881   0.1904   0.1960   0.2127   0.2288   0.2965   0.3024
     0.3098   0.5141   0.5362   0.6112   0.6180   0.7253   0.7320   0.7366
     0.7593   0.8169   0.8272   0.8295   0.8404   0.8600   0.9348   0.9670
     0.9703   1.0338   1.0504   1.0770   1.1200   1.1353   1.1944   1.3132
     1.3731   1.3760   1.3944   1.4006   1.4878   1.4950   1.4992   1.5227
     1.5331   1.5516   1.5761   1.5847   1.6926   1.6968   1.7162   1.7618
     1.7669   1.7847   1.7937   1.8131   1.8337   1.9683   2.0246   2.0603
     2.1270   2.1387   2.2139   2.2166   2.3004   2.3421   2.3494   2.3637
     2.4533   2.4732   2.5271   2.5607   2.5690   2.5788   2.5897   2.6179
     2.6326   2.6707   2.7359   2.7374   2.7667   2.7796   2.7892   2.7910
     2.8357   2.8642   2.9936   2.9982   2.9996   3.0025   3.0138   3.0788
     3.1604   3.1955   3.3317   4.1534   4.1551   4.3489   4.3872   4.4532
     4.5511   4.5561   4.5736   4.9925   5.1631   5.1682   5.6198   5.6387
     5.6678   5.7661   5.7702   5.9700   5.9975   6.0648   6.1469   6.4945
     6.6016   6.6095   6.9484   7.2479   7.2528

     the Fermi energy is     2.7710 ev

!    total energy              =  -27799.22701626 Ry
     total all-electron energy =  -1326794.839324 Ry
     estimated scf accuracy    <       0.00000017 Ry
     smearing contrib. (-TS)   =       0.00175109 Ry
     internal energy E=F+TS    =  -27799.22876736 Ry

     The total energy is F=E-TS. E is the sum of the following terms:
     one-electron contribution =  -20594.32309939 Ry
     hartree contribution      =   10611.24769747 Ry
     xc contribution           =    -899.23524285 Ry
     ewald contribution        =    8567.18955664 Ry
     one-center paw contrib.   =  -25484.10767923 Ry

     convergence has been achieved in  19 iterations

     negative rho (up, down):  2.846E-03 0.000E+00

     Forces acting on atoms (cartesian axes, Ry/au):

     atom    1 type  1   force =    -0.00016122    0.00010899   -0.00560114
     atom    2 type  1   force =    -0.00038347    0.00010823   -0.00319400
     atom    3 type  1   force =     0.00021483    0.00018282   -0.00332566
     atom    4 type  1   force =    -0.00021826   -0.00014723   -0.00325010
     atom    5 type  1   force =    -0.00007152    0.00005857   -0.00380414
     atom    6 type  1   force =    -0.00004583   -0.00025583   -0.00331360
     atom    7 type  1   force =     0.00003129    0.00027382   -0.00326695
     atom    8 type  1   force =    -0.00026412    0.00027694   -0.00315334
     atom    9 type  1   force =    -0.00011198    0.00006300   -0.00337701
     atom   10 type  1   force =     0.00105829    0.00008869    0.00347632
     atom   11 type  1   force =     0.00023161    0.00057971    0.00414832
     atom   12 type  1   force =    -0.00017240    0.00009054    0.00394927
     atom   13 type  1   force =     0.00088415   -0.00050808    0.00408303
     atom   14 type  1   force =    -0.00036214   -0.00048426    0.00417897
     atom   15 type  1   force =     0.00038003    0.00039174    0.00294041
     atom   16 type  1   force =     0.00048227   -0.00090909    0.00351692
     atom   17 type  1   force =     0.00055750   -0.00038542    0.00283408
     atom   18 type  1   force =    -0.00011119   -0.00056090    0.00306159
     atom   19 type  1   force =     0.00011632    0.00002488    0.00029310
     atom   20 type  1   force =    -0.00006031    0.00016377   -0.00007627
     atom   21 type  1   force =    -0.00022790    0.00011434    0.00000094
     atom   22 type  1   force =    -0.00010518    0.00005918   -0.00008666
     atom   23 type  1   force =    -0.00019240   -0.00018428   -0.00002597
     atom   24 type  1   force =    -0.00004635    0.00014762    0.00013183
     atom   25 type  1   force =     0.00003163   -0.00013040    0.00006058
     atom   26 type  1   force =    -0.00013242    0.00012966   -0.00018217
     atom   27 type  1   force =    -0.00016662   -0.00001060    0.00033553
     atom   28 type  1   force =    -0.00016577    0.00022300    0.00003853
     atom   29 type  1   force =    -0.00007387   -0.00012835   -0.00000470
     atom   30 type  1   force =    -0.00009062   -0.00006596   -0.00002841
     atom   31 type  1   force =    -0.00021363    0.00004765   -0.00008635
     atom   32 type  1   force =    -0.00022141    0.00010451   -0.00009438
     atom   33 type  1   force =     0.00003937    0.00001959   -0.00003336
     atom   34 type  1   force =    -0.00013976    0.00006421   -0.00000797
     atom   35 type  1   force =     0.00001244    0.00008528    0.00003430
     atom   36 type  1   force =    -0.00016226    0.00020550   -0.00012257
     atom   37 type  2   force =    -0.00000545   -0.00002054   -0.00004356
     atom   38 type  3   force =     0.00002025    0.00022320   -0.00001137
     atom   39 type  3   force =    -0.00015392   -0.00004447    0.00000595
     The non-local contrib.  to forces
     atom    1 type  1   force =     0.00007452   -0.00001774   -0.01511421
     atom    2 type  1   force =     0.00023587   -0.00017517   -0.01791939
     atom    3 type  1   force =    -0.00020916   -0.00017717   -0.01775070
     atom    4 type  1   force =    -0.00003665    0.00019847   -0.01793451
     atom    5 type  1   force =     0.00000405    0.00000311   -0.01802242
     atom    6 type  1   force =     0.00007834    0.00026664   -0.01777583
     atom    7 type  1   force =    -0.00017832   -0.00010168   -0.01789260
     atom    8 type  1   force =     0.00026121   -0.00012864   -0.01795388
     atom    9 type  1   force =    -0.00000664   -0.00000899   -0.01833020
     atom   10 type  1   force =     0.00023940   -0.00026192    0.00001638
     atom   11 type  1   force =     0.00047465    0.00025494    0.00159635
     atom   12 type  1   force =     0.00029536   -0.00020790   -0.00006310
     atom   13 type  1   force =     0.00072030   -0.00040851    0.00177940
     atom   14 type  1   force =    -0.00000730   -0.00058599    0.00162459
     atom   15 type  1   force =     0.00030900   -0.00014788    0.00008104
     atom   16 type  1   force =     0.00027024   -0.00007327    0.00000203
     atom   17 type  1   force =     0.00043395   -0.00024961    0.00003169
     atom   18 type  1   force =     0.00030383   -0.00022384    0.00005214
     atom   19 type  1   force =     0.00006448    0.00078897    0.00361420
     atom   20 type  1   force =    -0.00279949   -0.00141536   -0.00327615
     atom   21 type  1   force =     0.00225480   -0.00128756   -0.00254527
     atom   22 type  1   force =    -0.00022185    0.00008940    0.00101728
     atom   23 type  1   force =    -0.00019825    0.00290839   -0.00310143
     atom   24 type  1   force =     0.00026960    0.00019458    0.00158794
     atom   25 type  1   force =    -0.00063065   -0.00045921    0.00355356
     atom   26 type  1   force =     0.00060407   -0.00033638    0.00330740
     atom   27 type  1   force =    -0.00010100   -0.00029137    0.00176121
     atom   28 type  1   force =    -0.00028912    0.00045195    0.01416804
     atom   29 type  1   force =     0.00181917    0.00492804    0.01456334
     atom   30 type  1   force =    -0.00276305    0.00505910    0.01162137
     atom   31 type  1   force =     0.00543655    0.00052685    0.01895899
     atom   32 type  1   force =     0.00203272   -0.00091946    0.06309507
     atom   33 type  1   force =    -0.00605102   -0.00018551    0.01289159
     atom   34 type  1   force =     0.00204988   -0.00496566    0.01805928
     atom   35 type  1   force =    -0.00316258   -0.00389686    0.01276390
     atom   36 type  1   force =    -0.00013716    0.00021386    0.01414568
     atom   37 type  2   force =     2.29162543   -0.88107171    0.44391374
     atom   38 type  3   force =    -0.09314647   -0.06404259   -0.01785915
     atom   39 type  3   force =    -0.02636250    0.11010620   -0.01640449
     The ionic contribution  to forces
     atom    1 type  1   force =     0.00094734   -0.00054683  -94.21341186
     atom    2 type  1   force =     0.00135428    0.00161302  -94.20771456
     atom    3 type  1   force =    -0.00227371    0.00087894  -94.20948995
     atom    4 type  1   force =     0.00301824    0.00123663  -94.20728182
     atom    5 type  1   force =    -0.00108048    0.00064353  -94.20489616
     atom    6 type  1   force =    -0.00190829    0.00160884  -94.20941788
     atom    7 type  1   force =     0.00044060   -0.00323678  -94.20730004
     atom    8 type  1   force =    -0.00065790   -0.00203270  -94.20768760
     atom    9 type  1   force =     0.00024443   -0.00021775  -94.20847929
     atom   10 type  1   force =     0.04402494    0.01726423  -33.07953655
     atom   11 type  1   force =    -0.00389338    0.00391585  -33.08175230
     atom   12 type  1   force =    -0.02954529    0.01621289  -33.09464597
     atom   13 type  1   force =     0.00497896   -0.00307397  -33.06899221
     atom   14 type  1   force =    -0.00484737    0.00119268  -33.08113445
     atom   15 type  1   force =     0.01007737    0.01340744  -33.08765195
     atom   16 type  1   force =     0.00600352   -0.04597704  -33.08081563
     atom   17 type  1   force =     0.00958869   -0.00667548  -33.08663133
     atom   18 type  1   force =    -0.00506091   -0.01589901  -33.08836384
     atom   19 type  1   force =     0.02915046   -0.02955194   28.76786236
     atom   20 type  1   force =    -0.17923430   -0.08191484   28.81610832
     atom   21 type  1   force =     0.14579383   -0.08712352   28.76646999
     atom   22 type  1   force =    -0.07172021    0.04016907   28.87832795
     atom   23 type  1   force =    -0.02049598    0.18919330   28.81417520
     atom   24 type  1   force =     0.09294923    0.06263242   28.83150496
     atom   25 type  1   force =     0.03522068   -0.00704753   28.77227593
     atom   26 type  1   force =    -0.02867767    0.02164715   28.80014535
     atom   27 type  1   force =    -0.00749843   -0.10806726   28.82780038
     atom   28 type  1   force =     0.05228993   -0.00716101   90.68858637
     atom   29 type  1   force =    -0.61107747   -0.77020116   89.83090937
     atom   30 type  1   force =     0.55726075   -0.95042043   89.65766501
     atom   31 type  1   force =    -0.87225886    0.00061395   89.97116649
     atom   32 type  1   force =    -0.30573962    0.14171500   86.43430772
     atom   33 type  1   force =     1.11596800   -0.02820462   89.64638874
     atom   34 type  1   force =    -0.46152682    0.74827601   89.95566858
     atom   35 type  1   force =     0.38028212    0.93920238   89.80412614
     atom   36 type  1   force =     0.07653870   -0.03348308   90.80073257
     atom   37 type  2   force =    -3.86823705    1.48672290   58.99635816
     atom   38 type  3   force =     3.04735969    2.09489718   10.29660308
     atom   39 type  3   force =     0.86224197   -3.60220847   10.26802071
     The local contribution  to forces
     atom    1 type  1   force =    -0.00115843    0.00064219   94.20564630
     atom    2 type  1   force =    -0.00200355   -0.00135063   94.20511718
     atom    3 type  1   force =     0.00268819   -0.00059848   94.20659752
     atom    4 type  1   force =    -0.00318792   -0.00157823   94.20462480
     atom    5 type  1   force =     0.00095381   -0.00056999   94.20177566
     atom    6 type  1   force =     0.00182059   -0.00211235   94.20655795
     atom    7 type  1   force =    -0.00025210    0.00363227   94.20457720
     atom    8 type  1   force =     0.00012054    0.00249589   94.20515419
     atom    9 type  1   force =    -0.00032456    0.00032133   94.20621819
     atom   10 type  1   force =    -0.04293091   -0.01684041   33.08151261
     atom   11 type  1   force =     0.00359865   -0.00373563   33.08286290
     atom   12 type  1   force =     0.02891312   -0.01583920   33.09713379
     atom   13 type  1   force =    -0.00488087    0.00300429   33.06982995
     atom   14 type  1   force =     0.00456165   -0.00100593   33.08222036
     atom   15 type  1   force =    -0.00996627   -0.01277653   33.08884871
     atom   16 type  1   force =    -0.00573883    0.04489137   33.08282059
     atom   17 type  1   force =    -0.00939534    0.00654455   33.08779983
     atom   18 type  1   force =     0.00457004    0.01551152   33.08971158
     atom   19 type  1   force =    -0.02901121    0.02870175  -28.76935914
     atom   20 type  1   force =     0.18177432    0.08329990  -28.81103413
     atom   21 type  1   force =    -0.14817402    0.08839615  -28.76203630
     atom   22 type  1   force =     0.07192469   -0.04023440  -28.87769743
     atom   23 type  1   force =     0.02050896   -0.19207753  -28.80923054
     atom   24 type  1   force =    -0.09332461   -0.06263363  -28.83124458
     atom   25 type  1   force =    -0.03452888    0.00737196  -28.77397024
     atom   26 type  1   force =     0.02797378   -0.02112506  -28.80184076
     atom   27 type  1   force =     0.00738217    0.10844342  -28.82746875
     atom   28 type  1   force =    -0.05211172    0.00697410  -90.68656336
     atom   29 type  1   force =     0.60923612    0.76570697  -89.82928751
     atom   30 type  1   force =    -0.55470087    0.94570295  -89.65334656
     atom   31 type  1   force =     0.86726153   -0.00120320  -89.97364968
     atom   32 type  1   force =     0.30279182   -0.14042763  -86.48526213
     atom   33 type  1   force =    -1.11026863    0.02820598  -89.64327437
     atom   34 type  1   force =     0.45966913   -0.74376947  -89.95722839
     atom   35 type  1   force =    -0.37753179   -0.93545441  -89.80074105
     atom   36 type  1   force =    -0.07650069    0.03350867  -90.79873255
     atom   37 type  2   force =     1.59719282   -0.61358861  -59.43650261
     atom   38 type  3   force =    -2.95420434   -2.03063199  -10.27872775
     atom   39 type  3   force =    -0.83604221    3.49206528  -10.25158379
     The core correction contribution to forces
     atom    1 type  1   force =     0.00000896   -0.00000579    0.01724719
     atom    2 type  1   force =     0.00000969   -0.00001302    0.01727133
     atom    3 type  1   force =    -0.00000218   -0.00000472    0.01726118
     atom    4 type  1   force =     0.00000071    0.00000978    0.01726951
     atom    5 type  1   force =     0.00000309   -0.00000085    0.01718841
     atom    6 type  1   force =     0.00000217    0.00000520    0.01726145
     atom    7 type  1   force =    -0.00000832   -0.00000585    0.01726514
     atom    8 type  1   force =     0.00001580   -0.00000377    0.01727492
     atom    9 type  1   force =     0.00000290   -0.00000192    0.01721134
     atom   10 type  1   force =    -0.00029149   -0.00013029    0.00138299
     atom   11 type  1   force =     0.00000672    0.00001867    0.00134237
     atom   12 type  1   force =     0.00022787   -0.00013035    0.00141042
     atom   13 type  1   force =    -0.00000216    0.00000256    0.00132763
     atom   14 type  1   force =    -0.00001537   -0.00001968    0.00133494
     atom   15 type  1   force =    -0.00002403   -0.00006785    0.00147523
     atom   16 type  1   force =    -0.00003700    0.00031439    0.00137920
     atom   17 type  1   force =    -0.00004822    0.00003939    0.00146813
     atom   18 type  1   force =     0.00004149    0.00005725    0.00147535
     atom   19 type  1   force =    -0.00000776    0.00000387   -0.00205795
     atom   20 type  1   force =     0.00019844    0.00014209   -0.00195751
     atom   21 type  1   force =    -0.00018083    0.00010957   -0.00202823
     atom   22 type  1   force =    -0.00002720    0.00001502   -0.00194954
     atom   23 type  1   force =    -0.00002521   -0.00022252   -0.00197157
     atom   24 type  1   force =     0.00001989    0.00000021   -0.00197210
     atom   25 type  1   force =     0.00000915    0.00000436   -0.00204113
     atom   26 type  1   force =    -0.00001481    0.00001131   -0.00202286
     atom   27 type  1   force =    -0.00000390   -0.00002101   -0.00199583
     atom   28 type  1   force =     0.00001614   -0.00004795   -0.01637084
     atom   29 type  1   force =    -0.00004888   -0.00041563   -0.01641142
     atom   30 type  1   force =     0.00004057   -0.00033262   -0.01616197
     atom   31 type  1   force =    -0.00048312    0.00004004   -0.01673491
     atom   32 type  1   force =     0.00060443   -0.00027051   -0.01230025
     atom   33 type  1   force =     0.00031843    0.00016507   -0.01619924
     atom   34 type  1   force =    -0.00024099    0.00040938   -0.01667250
     atom   35 type  1   force =     0.00031499    0.00021270   -0.01630246
     atom   36 type  1   force =    -0.00004219    0.00000099   -0.01643108
     atom   37 type  2   force =    -0.02065077    0.00793557   -0.00392127
     atom   38 type  3   force =     0.00000000    0.00000000    0.00000000
     atom   39 type  3   force =     0.00000000    0.00000000    0.00000000
     The Hubbard contrib.    to forces
     atom    1 type  1   force =     0.00000000    0.00000000    0.00000000
     atom    2 type  1   force =     0.00000000    0.00000000    0.00000000
     atom    3 type  1   force =     0.00000000    0.00000000    0.00000000
     atom    4 type  1   force =     0.00000000    0.00000000    0.00000000
     atom    5 type  1   force =     0.00000000    0.00000000    0.00000000
     atom    6 type  1   force =     0.00000000    0.00000000    0.00000000
     atom    7 type  1   force =     0.00000000    0.00000000    0.00000000
     atom    8 type  1   force =     0.00000000    0.00000000    0.00000000
     atom    9 type  1   force =     0.00000000    0.00000000    0.00000000
     atom   10 type  1   force =     0.00000000    0.00000000    0.00000000
     atom   11 type  1   force =     0.00000000    0.00000000    0.00000000
     atom   12 type  1   force =     0.00000000    0.00000000    0.00000000
     atom   13 type  1   force =     0.00000000    0.00000000    0.00000000
     atom   14 type  1   force =     0.00000000    0.00000000    0.00000000
     atom   15 type  1   force =     0.00000000    0.00000000    0.00000000
     atom   16 type  1   force =     0.00000000    0.00000000    0.00000000
     atom   17 type  1   force =     0.00000000    0.00000000    0.00000000
     atom   18 type  1   force =     0.00000000    0.00000000    0.00000000
     atom   19 type  1   force =     0.00000000    0.00000000    0.00000000
     atom   20 type  1   force =     0.00000000    0.00000000    0.00000000
     atom   21 type  1   force =     0.00000000    0.00000000    0.00000000
     atom   22 type  1   force =     0.00000000    0.00000000    0.00000000
     atom   23 type  1   force =     0.00000000    0.00000000    0.00000000
     atom   24 type  1   force =     0.00000000    0.00000000    0.00000000
     atom   25 type  1   force =     0.00000000    0.00000000    0.00000000
     atom   26 type  1   force =     0.00000000    0.00000000    0.00000000
     atom   27 type  1   force =     0.00000000    0.00000000    0.00000000
     atom   28 type  1   force =     0.00000000    0.00000000    0.00000000
     atom   29 type  1   force =     0.00000000    0.00000000    0.00000000
     atom   30 type  1   force =     0.00000000    0.00000000    0.00000000
     atom   31 type  1   force =     0.00000000    0.00000000    0.00000000
     atom   32 type  1   force =     0.00000000    0.00000000    0.00000000
     atom   33 type  1   force =     0.00000000    0.00000000    0.00000000
     atom   34 type  1   force =     0.00000000    0.00000000    0.00000000
     atom   35 type  1   force =     0.00000000    0.00000000    0.00000000
     atom   36 type  1   force =     0.00000000    0.00000000    0.00000000
     atom   37 type  2   force =     0.00000000    0.00000000    0.00000000
     atom   38 type  3   force =     0.00000000    0.00000000    0.00000000
     atom   39 type  3   force =     0.00000000    0.00000000    0.00000000
     The SCF correction term to forces
     atom    1 type  1   force =    -0.00000000    0.00000000    0.00000000
     atom    2 type  1   force =     0.00000000    0.00000000    0.00000000
     atom    3 type  1   force =     0.00000000    0.00000000    0.00000000
     atom    4 type  1   force =    -0.00000000   -0.00000000    0.00000000
     atom    5 type  1   force =     0.00000000   -0.00000000    0.00000000
     atom    6 type  1   force =    -0.00000000   -0.00000000    0.00000000
     atom    7 type  1   force =     0.00000000   -0.00000000    0.00000000
     atom    8 type  1   force =    -0.00000000   -0.00000000    0.00000000
     atom    9 type  1   force =    -0.00000000   -0.00000000    0.00000000
     atom   10 type  1   force =     0.00000000    0.00000000    0.00000000
     atom   11 type  1   force =     0.00000000    0.00000000    0.00000000
     atom   12 type  1   force =    -0.00000000    0.00000000    0.00000000
     atom   13 type  1   force =     0.00000000   -0.00000000    0.00000000
     atom   14 type  1   force =    -0.00000000   -0.00000000    0.00000000
     atom   15 type  1   force =    -0.00000000   -0.00000000    0.00000000
     atom   16 type  1   force =    -0.00000000   -0.00000000    0.00000000
     atom   17 type  1   force =    -0.00000000   -0.00000000    0.00000000
     atom   18 type  1   force =     0.00000000   -0.00000000    0.00000000
     atom   19 type  1   force =    -0.00007895    0.00008214    0.00027378
     atom   20 type  1   force =     0.00000142    0.00005190    0.00012335
     atom   21 type  1   force =     0.00007902    0.00001962    0.00018091
     atom   22 type  1   force =    -0.00005989    0.00002000    0.00025523
     atom   23 type  1   force =     0.00001879    0.00001400    0.00014252
     atom   24 type  1   force =     0.00004025   -0.00004605    0.00029576
     atom   25 type  1   force =    -0.00003796   -0.00000006    0.00028262
     atom   26 type  1   force =    -0.00001708   -0.00006745    0.00026885
     atom   27 type  1   force =     0.00005525   -0.00007447    0.00027867
     atom   28 type  1   force =    -0.00007029    0.00000582    0.00025848
     atom   29 type  1   force =    -0.00000210   -0.00014665    0.00026166
     atom   30 type  1   force =     0.00007269   -0.00007504    0.00023389
     atom   31 type  1   force =    -0.00016903    0.00006994    0.00021291
     atom   32 type  1   force =     0.00008994    0.00000702    0.00010536
     atom   33 type  1   force =     0.00007330    0.00003858    0.00020008
     atom   34 type  1   force =    -0.00009025    0.00011387    0.00020521
     atom   35 type  1   force =     0.00011041    0.00002139    0.00022792
     atom   36 type  1   force =    -0.00002022   -0.00003504    0.00020296
     atom   37 type  2   force =     0.00006483   -0.00001878    0.00014857
     atom   38 type  3   force =     0.00001208    0.00000052    0.00001260
     atom   39 type  3   force =     0.00000953   -0.00000757    0.00001367

     Total force =     0.001001     Total SCF correction =     0.001068
     SCF correction compared to forces is large: reduce conv_thr to get better values

     Writing all to output data dir ./pwscf.save/

     init_run     :     10.74s CPU     11.03s WALL (       1 calls)
     electrons    :    326.09s CPU    334.59s WALL (       1 calls)
     forces       :      3.82s CPU      4.36s WALL (       1 calls)

     Called by init_run:
     wfcinit      :      5.88s CPU      6.03s WALL (       1 calls)
     potinit      :      3.26s CPU      3.34s WALL (       1 calls)
     hinit0       :      1.01s CPU      1.03s WALL (       1 calls)

     Called by electrons:
     c_bands      :    274.20s CPU    278.66s WALL (      20 calls)
     sum_band     :     32.37s CPU     33.48s WALL (      20 calls)
     v_of_rho     :      9.53s CPU     11.28s WALL (      20 calls)
     newd         :      2.85s CPU      3.54s WALL (      20 calls)
     PAW_pot      :      4.35s CPU      4.45s WALL (      20 calls)
     mix_rho      :      4.96s CPU      5.15s WALL (      20 calls)
     vdW_kernel   :      1.71s CPU      1.73s WALL (       1 calls)

     Called by c_bands:
     init_us_2    :      2.79s CPU      2.82s WALL (     546 calls)
     init_us_2:cp :      2.78s CPU      2.82s WALL (     546 calls)
     cegterg      :    267.01s CPU    271.13s WALL (     260 calls)

     Called by *egterg:
     cdiaghg      :     80.00s CPU     80.75s WALL (    1450 calls)
     h_psi        :    119.61s CPU    121.86s WALL (    1476 calls)
     s_psi        :     14.85s CPU     14.98s WALL (    1476 calls)
     g_psi        :      0.45s CPU      0.46s WALL (    1203 calls)

     Called by h_psi:
     h_psi:calbec :     19.13s CPU     19.56s WALL (    1476 calls)
     vloc_psi     :     83.82s CPU     85.39s WALL (    1476 calls)
     add_vuspsi   :     15.54s CPU     15.78s WALL (    1476 calls)

     General routines
     calbec       :     27.52s CPU     28.06s WALL (    1788 calls)
     fft          :      5.72s CPU      7.48s WALL (    1320 calls)
     ffts         :      2.83s CPU      2.86s WALL (    5538 calls)
     fftw         :     82.21s CPU     83.75s WALL (  334446 calls)
     interpolate  :      0.60s CPU      0.65s WALL (      20 calls)

     Parallel routines

     PWSCF        :   5m42.43s CPU   5m54.62s WALL


   This run was terminated on:   1:33:51  24Feb2025            

=------------------------------------------------------------------------------=
   JOB DONE.
=------------------------------------------------------------------------------=
