  37  37   0   0
  0.4190497E+02  0.8468310E-09  0.8468310E-09  0.2496566E-08  0.5000000E-15
  1.000000000000000E-004
  CAR 
 unknown system                          
      8.62529744     -9.91207563  301     -0.07347100      1.00000000
     -9.912  0.0000E+00  0.0000E+00
     -9.850  0.0000E+00  0.0000E+00
     -9.788  0.0000E+00  0.0000E+00
     -9.727 -0.4498E-28 -0.2780E-29
     -9.665 -0.6685E-24 -0.4131E-25
     -9.603 -0.4599E-20 -0.2842E-21
     -9.541 -0.1462E-16 -0.9037E-18
     -9.480 -0.2080E-13 -0.1286E-14
     -9.418 -0.1392E-10 -0.8617E-12
     -9.356 -0.4261E-08 -0.2641E-09
     -9.294 -0.5908E-06 -0.3677E-07
     -9.232 -0.3658E-04 -0.2297E-05
     -9.171 -0.9801E-03 -0.6286E-04
     -9.109 -0.1053E-01 -0.7133E-03
     -9.047 -0.3366E-01 -0.2793E-02
     -8.985  0.5321E-01  0.4945E-03
     -8.923  0.3318E+00  0.2100E-01
     -8.862  0.6227E+00  0.5948E-01
     -8.800  0.2105E+01  0.1896E+00
     -8.738  0.3817E+01  0.4254E+00
     -8.676  0.2179E+01  0.5601E+00
     -8.614 -0.5149E-01  0.5569E+00
     -8.553  0.2781E+00  0.5741E+00
     -8.491  0.2701E+01  0.7410E+00
     -8.429  0.3836E+01  0.9780E+00
     -8.367  0.3651E+01  0.1204E+01
     -8.306  0.3691E+01  0.1432E+01
     -8.244  0.1633E+01  0.1533E+01
     -8.182 -0.1204E+00  0.1525E+01
     -8.120 -0.3782E+00  0.1502E+01
     -8.058  0.4817E+00  0.1532E+01
     -7.997  0.3351E+01  0.1739E+01
     -7.935  0.5850E+01  0.2100E+01
     -7.873  0.5149E+01  0.2418E+01
     -7.811  0.4307E+01  0.2684E+01
     -7.749  0.6647E+01  0.3095E+01
     -7.688  0.6471E+01  0.3495E+01
     -7.626  0.4232E+01  0.3756E+01
     -7.564  0.2997E+01  0.3942E+01
     -7.502  0.4069E+01  0.4193E+01
     -7.440  0.7312E+01  0.4645E+01
     -7.379  0.4537E+01  0.4925E+01
     -7.317  0.3896E+00  0.4949E+01
     -7.255  0.4458E+01  0.5225E+01
     -7.193  0.1162E+02  0.5943E+01
     -7.131  0.1042E+02  0.6587E+01
     -7.070  0.4753E+01  0.6881E+01
     -7.008  0.1248E+01  0.6958E+01
     -6.946  0.3402E+01  0.7168E+01
     -6.884  0.9201E+01  0.7736E+01
     -6.823  0.8517E+01  0.8263E+01
     -6.761  0.2705E+01  0.8430E+01
     -6.699  0.1915E+01  0.8548E+01
     -6.637  0.6418E+01  0.8945E+01
     -6.575  0.1354E+02  0.9782E+01
     -6.514  0.1568E+02  0.1075E+02
     -6.452  0.1256E+02  0.1153E+02
     -6.390  0.1062E+02  0.1218E+02
     -6.328  0.7832E+01  0.1267E+02
     -6.266  0.8540E+01  0.1320E+02
     -6.205  0.1721E+02  0.1426E+02
     -6.143  0.3045E+02  0.1614E+02
     -6.081  0.3739E+02  0.1845E+02
     -6.019  0.3176E+02  0.2041E+02
     -5.957  0.2939E+02  0.2223E+02
     -5.896  0.3242E+02  0.2423E+02
     -5.834  0.3606E+02  0.2646E+02
     -5.772  0.3155E+02  0.2841E+02
     -5.710  0.2604E+02  0.3002E+02
     -5.648  0.3183E+02  0.3199E+02
     -5.587  0.3926E+02  0.3441E+02
     -5.525  0.4222E+02  0.3702E+02
     -5.463  0.4964E+02  0.4009E+02
     -5.401  0.6244E+02  0.4395E+02
     -5.340  0.6426E+02  0.4792E+02
     -5.278  0.5491E+02  0.5131E+02
     -5.216  0.4694E+02  0.5421E+02
     -5.154  0.4369E+02  0.5691E+02
     -5.092  0.4844E+02  0.5990E+02
     -5.031  0.6774E+02  0.6409E+02
     -4.969  0.6478E+02  0.6809E+02
     -4.907  0.3457E+02  0.7023E+02
     -4.845  0.2267E+02  0.7163E+02
     -4.783  0.3783E+02  0.7397E+02
     -4.722  0.4031E+02  0.7646E+02
     -4.660  0.2341E+02  0.7790E+02
     -4.598  0.2348E+02  0.7935E+02
     -4.536  0.4047E+02  0.8186E+02
     -4.474  0.5623E+02  0.8533E+02
     -4.413  0.6165E+02  0.8914E+02
     -4.351  0.5485E+02  0.9253E+02
     -4.289  0.4567E+02  0.9535E+02
     -4.227  0.3909E+02  0.9777E+02
     -4.165  0.4359E+02  0.1005E+03
     -4.104  0.6026E+02  0.1042E+03
     -4.042  0.6097E+02  0.1079E+03
     -3.980  0.5084E+02  0.1111E+03
     -3.918  0.4631E+02  0.1140E+03
     -3.857  0.4295E+02  0.1166E+03
     -3.795  0.3710E+02  0.1189E+03
     -3.733  0.4147E+02  0.1215E+03
     -3.671  0.5926E+02  0.1251E+03
     -3.609  0.6205E+02  0.1290E+03
     -3.548  0.5375E+02  0.1323E+03
     -3.486  0.5469E+02  0.1357E+03
     -3.424  0.6820E+02  0.1399E+03
     -3.362  0.7718E+02  0.1446E+03
     -3.300  0.7153E+02  0.1491E+03
     -3.239  0.6503E+02  0.1531E+03
     -3.177  0.7002E+02  0.1574E+03
     -3.115  0.8599E+02  0.1627E+03
     -3.053  0.8685E+02  0.1681E+03
     -2.991  0.7939E+02  0.1730E+03
     -2.930  0.7962E+02  0.1779E+03
     -2.868  0.7426E+02  0.1825E+03
     -2.806  0.8331E+02  0.1876E+03
     -2.744  0.1029E+03  0.1940E+03
     -2.683  0.1041E+03  0.2004E+03
     -2.621  0.8511E+02  0.2057E+03
     -2.559  0.6348E+02  0.2096E+03
     -2.497  0.6324E+02  0.2135E+03
     -2.435  0.6185E+02  0.2173E+03
     -2.374  0.4418E+02  0.2201E+03
     -2.312  0.2962E+02  0.2219E+03
     -2.250  0.2375E+02  0.2234E+03
     -2.188  0.2788E+02  0.2251E+03
     -2.126  0.4273E+02  0.2277E+03
     -2.065  0.6356E+02  0.2317E+03
     -2.003  0.8625E+02  0.2370E+03
     -1.941  0.9347E+02  0.2428E+03
     -1.879  0.8320E+02  0.2479E+03
     -1.817  0.6277E+02  0.2518E+03
     -1.756  0.4384E+02  0.2545E+03
     -1.694  0.4048E+02  0.2570E+03
     -1.632  0.4760E+02  0.2599E+03
     -1.570  0.5885E+02  0.2636E+03
     -1.508  0.5825E+02  0.2672E+03
     -1.447  0.5068E+02  0.2703E+03
     -1.385  0.5693E+02  0.2738E+03
     -1.323  0.6171E+02  0.2776E+03
     -1.261  0.5164E+02  0.2808E+03
     -1.200  0.5376E+02  0.2842E+03
     -1.138  0.7388E+02  0.2887E+03
     -1.076  0.8504E+02  0.2940E+03
     -1.014  0.8553E+02  0.2993E+03
     -0.952  0.7245E+02  0.3037E+03
     -0.891  0.5817E+02  0.3073E+03
     -0.829  0.5685E+02  0.3108E+03
     -0.767  0.5184E+02  0.3140E+03
     -0.705  0.4296E+02  0.3167E+03
     -0.643  0.5013E+02  0.3198E+03
     -0.582  0.6262E+02  0.3237E+03
     -0.520  0.5997E+02  0.3274E+03
     -0.458  0.5828E+02  0.3310E+03
     -0.396  0.6788E+02  0.3352E+03
     -0.334  0.8812E+02  0.3406E+03
     -0.273  0.9650E+02  0.3466E+03
     -0.211  0.7287E+02  0.3511E+03
     -0.149  0.5476E+02  0.3545E+03
     -0.087  0.8296E+02  0.3596E+03
     -0.025  0.9836E+02  0.3657E+03
      0.036  0.5872E+02  0.3693E+03
      0.098  0.3218E+02  0.3713E+03
      0.160  0.4992E+02  0.3744E+03
      0.222  0.5677E+02  0.3779E+03
      0.283  0.4454E+02  0.3806E+03
      0.345  0.3924E+02  0.3831E+03
      0.407  0.2819E+02  0.3848E+03
      0.469  0.1327E+02  0.3856E+03
      0.531  0.3255E+01  0.3858E+03
      0.592  0.6133E+00  0.3859E+03
      0.654  0.4192E+01  0.3861E+03
      0.716  0.1143E+02  0.3868E+03
      0.778  0.1729E+02  0.3879E+03
      0.840  0.1348E+02  0.3887E+03
      0.901  0.7868E+01  0.3892E+03
      0.963  0.1010E+02  0.3898E+03
      1.025  0.9941E+01  0.3904E+03
      1.087  0.2955E+01  0.3906E+03
      1.149  0.7999E+00  0.3907E+03
      1.210  0.8437E+01  0.3912E+03
      1.272  0.1537E+02  0.3921E+03
      1.334  0.1479E+02  0.3931E+03
      1.396  0.1140E+02  0.3938E+03
      1.458  0.1422E+02  0.3946E+03
      1.519  0.2604E+02  0.3963E+03
      1.581  0.2687E+02  0.3979E+03
      1.643  0.1832E+02  0.3990E+03
      1.705  0.1487E+02  0.4000E+03
      1.766  0.1035E+02  0.4006E+03
      1.828  0.2914E+01  0.4008E+03
      1.890  0.1901E+01  0.4009E+03
      1.952  0.3271E+01  0.4011E+03
      2.014  0.4151E+01  0.4014E+03
      2.075  0.6594E+01  0.4018E+03
      2.137  0.6451E+01  0.4022E+03
      2.199  0.8884E+01  0.4027E+03
      2.261  0.1203E+02  0.4035E+03
      2.323  0.1115E+02  0.4041E+03
      2.384  0.1388E+02  0.4050E+03
      2.446  0.2053E+02  0.4063E+03
      2.508  0.2109E+02  0.4076E+03
      2.570  0.1253E+02  0.4084E+03
      2.632  0.6777E+01  0.4088E+03
      2.693  0.6082E+01  0.4091E+03
      2.755  0.9225E+01  0.4097E+03
      2.817  0.1768E+02  0.4108E+03
      2.879  0.2002E+02  0.4120E+03
      2.941  0.1434E+02  0.4129E+03
      3.002  0.8489E+01  0.4135E+03
      3.064  0.1097E+02  0.4141E+03
      3.126  0.1390E+02  0.4150E+03
      3.188  0.1063E+02  0.4156E+03
      3.249  0.9906E+01  0.4163E+03
      3.311  0.8943E+01  0.4168E+03
      3.373  0.3657E+01  0.4170E+03
      3.435 -0.5684E+00  0.4170E+03
      3.497  0.7417E+00  0.4171E+03
      3.558  0.9681E+01  0.4176E+03
      3.620  0.2248E+02  0.4190E+03
      3.682  0.2857E+02  0.4208E+03
      3.744  0.2224E+02  0.4222E+03
      3.806  0.1113E+02  0.4229E+03
      3.867  0.4763E+01  0.4232E+03
      3.929  0.3146E+01  0.4234E+03
      3.991  0.3345E+01  0.4236E+03
      4.053  0.2862E+01  0.4237E+03
      4.115  0.5043E+01  0.4240E+03
      4.176  0.9586E+01  0.4246E+03
      4.238  0.9555E+01  0.4252E+03
      4.300  0.6603E+01  0.4256E+03
      4.362  0.1152E+02  0.4264E+03
      4.423  0.2335E+02  0.4278E+03
      4.485  0.2134E+02  0.4291E+03
      4.547  0.8207E+01  0.4296E+03
      4.609  0.6115E+01  0.4300E+03
      4.671  0.1244E+02  0.4308E+03
      4.732  0.1619E+02  0.4318E+03
      4.794  0.1374E+02  0.4326E+03
      4.856  0.8178E+01  0.4331E+03
      4.918  0.5513E+01  0.4335E+03
      4.980  0.8885E+01  0.4340E+03
      5.041  0.1006E+02  0.4346E+03
      5.103  0.4272E+01  0.4349E+03
      5.165  0.3874E+01  0.4351E+03
      5.227  0.1124E+02  0.4358E+03
      5.289  0.1517E+02  0.4368E+03
      5.350  0.1221E+02  0.4375E+03
      5.412  0.9460E+01  0.4381E+03
      5.474  0.1545E+02  0.4391E+03
      5.536  0.2413E+02  0.4406E+03
      5.598  0.2798E+02  0.4423E+03
      5.659  0.2534E+02  0.4438E+03
      5.721  0.2065E+02  0.4451E+03
      5.783  0.1916E+02  0.4463E+03
      5.845  0.1814E+02  0.4474E+03
      5.906  0.1548E+02  0.4484E+03
      5.968  0.2225E+02  0.4498E+03
      6.030  0.3501E+02  0.4519E+03
      6.092  0.2897E+02  0.4537E+03
      6.154  0.1136E+02  0.4544E+03
      6.215  0.9674E+01  0.4550E+03
      6.277  0.2312E+02  0.4564E+03
      6.339  0.3301E+02  0.4585E+03
      6.401  0.2531E+02  0.4600E+03
      6.463  0.1539E+02  0.4610E+03
      6.524  0.1872E+02  0.4622E+03
      6.586  0.2351E+02  0.4636E+03
      6.648  0.2515E+02  0.4652E+03
      6.710  0.2566E+02  0.4667E+03
      6.772  0.2608E+02  0.4684E+03
      6.833  0.2014E+02  0.4696E+03
      6.895  0.1134E+02  0.4703E+03
      6.957  0.1238E+02  0.4711E+03
      7.019  0.1440E+02  0.4720E+03
      7.081  0.1657E+02  0.4730E+03
      7.142  0.2439E+02  0.4745E+03
      7.204  0.2641E+02  0.4761E+03
      7.266  0.2119E+02  0.4774E+03
      7.328  0.1258E+02  0.4782E+03
      7.389  0.5268E+01  0.4785E+03
      7.451  0.2948E+01  0.4787E+03
      7.513  0.3899E+01  0.4790E+03
      7.575  0.5875E+01  0.4793E+03
      7.637  0.7219E+01  0.4798E+03
      7.698  0.3903E+01  0.4800E+03
      7.760  0.2889E+00  0.4800E+03
      7.822 -0.3025E+00  0.4800E+03
      7.884 -0.7512E-01  0.4800E+03
      7.946 -0.6261E-02  0.4800E+03
      8.007 -0.2180E-03  0.4800E+03
      8.069 -0.3358E-05  0.4800E+03
      8.131 -0.2338E-07  0.4800E+03
      8.193 -0.7431E-10  0.4800E+03
      8.255 -0.1092E-12  0.4800E+03
      8.316  0.0000E+00  0.4800E+03
      8.378  0.0000E+00  0.4800E+03
      8.440  0.0000E+00  0.4800E+03
      8.502  0.0000E+00  0.4800E+03
      8.564  0.0000E+00  0.4800E+03
      8.625  0.0000E+00  0.4800E+03
