   37   37    1    1
  0.4190497E+02  0.8468310E-09  0.8468310E-09  0.2496566E-08  0.5000000E-15
  1.000000000000000E-004
  CAR 
 unknown system                          
    361     13    240
 
  0.1276756E-14  0.1276756E-14  0.1276756E-14  0.4000000E-01
      1         -8.912076   1.000000
      2         -7.880345   1.000000
      3         -7.162546   1.000000
      4         -6.503659   1.000000
      5         -6.468785   1.000000
      6         -6.463927   1.000000
      7         -6.460524   1.000000
      8         -6.437865   1.000000
      9         -6.432729   1.000000
     10         -6.431792   1.000000
     11         -6.145906   1.000000
     12         -5.919587   1.000000
     13         -5.915665   1.000000
     14         -5.910362   1.000000
     15         -5.906315   1.000000
     16         -5.903075   1.000000
     17         -5.821330   1.000000
     18         -5.478756   1.000000
     19         -5.475464   1.000000
     20         -5.452824   1.000000
     21         -5.449287   1.000000
     22         -5.439086   1.000000
     23         -5.355681   1.000000
     24         -5.234463   1.000000
     25         -5.231884   1.000000
     26         -5.223217   1.000000
     27         -5.220771   1.000000
     28         -5.216699   1.000000
     29         -5.126413   1.000000
     30         -5.046451   1.000000
     31         -5.037559   1.000000
     32         -5.025559   1.000000
     33         -5.017794   1.000000
     34         -5.006041   1.000000
     35         -4.970448   1.000000
     36         -4.960438   1.000000
     37         -4.954797   1.000000
     38         -4.953028   1.000000
     39         -4.917633   1.000000
     40         -4.916665   1.000000
     41         -4.564786   1.000000
     42         -4.383101   1.000000
     43         -4.380685   1.000000
     44         -4.352245   1.000000
     45         -4.336570   1.000000
     46         -4.322769   1.000000
     47         -4.318005   1.000000
     48         -4.295725   1.000000
     49         -4.292793   1.000000
     50         -4.286237   1.000000
     51         -4.135259   1.000000
     52         -4.134954   1.000000
     53         -4.042571   1.000000
     54         -4.035659   1.000000
     55         -4.034793   1.000000
     56         -3.582975   1.000000
     57         -3.579689   1.000000
     58         -3.570667   1.000000
     59         -3.560142   1.000000
     60         -3.557888   1.000000
     61         -3.501305   1.000000
     62         -3.462912   1.000000
     63         -3.387535   1.000000
     64         -3.384597   1.000000
     65         -3.372662   1.000000
     66         -3.372011   1.000000
     67         -3.364646   1.000000
     68         -3.355092   1.000000
     69         -3.345581   1.000000
     70         -3.316050   1.000000
     71         -3.313181   1.000000
     72         -3.308760   1.000000
     73         -3.302831   1.000000
     74         -3.301013   1.000000
     75         -3.270917   1.000000
     76         -3.260128   1.000000
     77         -3.259461   1.000000
     78         -3.154276   1.000000
     79         -3.150350   1.000000
     80         -3.148373   1.000000
     81         -3.142189   1.000000
     82         -3.137300   1.000000
     83         -3.134576   1.000000
     84         -2.943651   1.000000
     85         -2.942322   1.000000
     86         -2.939656   1.000000
     87         -2.924408   1.000000
     88         -2.919910   1.000000
     89         -2.907106   1.000000
     90         -2.900437   1.000000
     91         -2.891857   1.000000
     92         -2.836503   1.000000
     93         -2.836278   1.000000
     94         -2.768504   1.000000
     95         -2.756032   1.000000
     96         -2.755704   1.000000
     97         -2.724378   1.000000
     98         -2.723847   1.000000
     99         -2.694177   1.000000
    100         -2.688952   1.000000
    101         -2.628632   1.000000
    102         -2.522002   1.000000
    103         -2.518215   1.000000
    104         -2.512984   1.000000
    105         -2.506661   1.000000
    106         -2.502407   1.000000
    107         -2.500178   1.000000
    108         -2.278152   1.000000
    109         -2.015443   1.000000
    110         -2.014039   1.000000
    111         -1.998636   1.000000
    112         -1.988146   1.000000
    113         -1.987145   1.000000
    114         -1.977527   1.000000
    115         -1.977238   1.000000
    116         -1.973778   1.000000
    117         -1.963122   1.000000
    118         -1.961900   1.000000
    119         -1.945955   1.000000
    120         -1.864804   1.000000
    121         -1.864155   1.000000
    122         -1.808486   1.000000
    123         -1.734089   1.000000
    124         -1.733023   1.000000
    125         -1.727810   1.000000
    126         -1.727167   1.000000
    127         -1.708178   1.000000
    128         -1.599562   1.000000
    129         -1.588586   1.000000
    130         -1.537721   1.000000
    131         -1.537667   1.000000
    132         -1.514095   1.000000
    133         -1.499317   1.000000
    134         -1.281037   1.000000
    135         -1.279043   1.000000
    136         -1.273765   1.000000
    137         -1.258183   1.000000
    138         -1.253364   1.000000
    139         -1.250253   1.000000
    140         -1.180075   1.000000
    141         -1.178603   1.000000
    142         -1.046062   1.000000
    143         -1.044154   1.000000
    144         -1.029818   1.000000
    145         -1.025838   1.000000
    146         -1.023015   1.000000
    147         -1.019958   1.000000
    148         -0.891407   1.000000
    149         -0.888604   1.000000
    150         -0.859914   1.000000
    151         -0.855393   1.000000
    152         -0.830189   1.000000
    153         -0.825340   1.000000
    154         -0.824013   1.000000
    155         -0.811349   1.000000
    156         -0.810524   1.000000
    157         -0.802029   1.000000
    158         -0.801061   1.000000
    159         -0.796000   1.000000
    160         -0.731344   1.000000
    161         -0.715421   1.000000
    162         -0.714481   1.000000
    163         -0.674547   1.000000
    164         -0.672675   1.000000
    165         -0.652260   1.000000
    166         -0.649436   1.000000
    167         -0.643381   1.000000
    168         -0.604752   1.000000
    169         -0.594472   1.000000
    170         -0.582174   1.000000
    171         -0.553175   1.000000
    172         -0.546787   1.000000
    173         -0.544200   1.000000
    174         -0.538783   1.000000
    175         -0.536346   1.000000
    176         -0.457820   1.000000
    177         -0.447817   1.000001
    178         -0.442767   1.000001
    179         -0.437471   1.000002
    180         -0.433624   1.000002
    181         -0.428888   1.000003
    182         -0.374847   1.000086
    183         -0.341196   1.000506
    184         -0.339224   1.000557
    185         -0.320276   1.001334
    186         -0.318297   1.001455
    187         -0.312579   1.001858
    188         -0.304587   1.002581
    189         -0.113200   0.808604
    190         -0.105087   0.753310
    191         -0.015104   0.087448
    192         -0.012697   0.076542
    193         -0.010249   0.066050
    194          0.007395   0.007771
    195          0.008500   0.005080
    196          0.010563   0.000340
    197          0.561130  -0.000000
    198          0.821396  -0.000000
    199          0.856269  -0.000000
    200          0.859203  -0.000000
    201          0.897025  -0.000000
    202          0.897862  -0.000000
    203          0.905274  -0.000000
    204          2.921790   0.000000
    205          3.137581   0.000000
    206          3.142604   0.000000
    207          3.211678   0.000000
    208          3.214238   0.000000
    209          3.218298   0.000000
    210          4.712903   0.000000
    211          4.713400   0.000000
    212          4.763725   0.000000
    213          4.817604   0.000000
    214          4.819134   0.000000
    215          4.823778   0.000000
    216          4.924968   0.000000
    217          5.108738   0.000000
    218          5.338566   0.000000
    219          5.438485   0.000000
    220          5.440089   0.000000
    221          5.795873   0.000000
    222          5.801251   0.000000
    223          5.852915   0.000000
    224          5.862725   0.000000
    225          5.868330   0.000000
    226          6.146487   0.000000
    227          6.365255   0.000000
    228          6.600035   0.000000
    229          6.600801   0.000000
    230          6.622493   0.000000
    231          6.857858   0.000000
    232          7.063728   0.000000
    233          7.144630   0.000000
    234          7.145912   0.000000
    235          7.162941   0.000000
    236          7.171967   0.000000
    237          7.172735   0.000000
    238          7.269877   0.000000
    239          7.270856   0.000000
    240          7.323347   0.000000
 
  0.2000000E+00  0.1278043E-14  0.1276756E-14  0.8000000E-01
      1         -8.764814   1.000000
      2         -7.772403   1.000000
      3         -7.108580   1.000000
      4         -6.925798   1.000000
      5         -6.564724   1.000000
      6         -6.551882   1.000000
      7         -6.360451   1.000000
      8         -6.268775   1.000000
      9         -6.222680   1.000000
     10         -6.216138   1.000000
     11         -6.122043   1.000000
     12         -6.004191   1.000000
     13         -5.955312   1.000000
     14         -5.848493   1.000000
     15         -5.840204   1.000000
     16         -5.829045   1.000000
     17         -5.753603   1.000000
     18         -5.537120   1.000000
     19         -5.423388   1.000000
     20         -5.420219   1.000000
     21         -5.413539   1.000000
     22         -5.378390   1.000000
     23         -5.340925   1.000000
     24         -5.305256   1.000000
     25         -5.279822   1.000000
     26         -5.241853   1.000000
     27         -5.221586   1.000000
     28         -5.214832   1.000000
     29         -5.143265   1.000000
     30         -5.117340   1.000000
     31         -5.110157   1.000000
     32         -5.036737   1.000000
     33         -5.022239   1.000000
     34         -5.013934   1.000000
     35         -5.011063   1.000000
     36         -4.858881   1.000000
     37         -4.816736   1.000000
     38         -4.782747   1.000000
     39         -4.775643   1.000000
     40         -4.755379   1.000000
     41         -4.568750   1.000000
     42         -4.498317   1.000000
     43         -4.493542   1.000000
     44         -4.446020   1.000000
     45         -4.417020   1.000000
     46         -4.403060   1.000000
     47         -4.390604   1.000000
     48         -4.291289   1.000000
     49         -4.216097   1.000000
     50         -4.152711   1.000000
     51         -4.126639   1.000000
     52         -4.113566   1.000000
     53         -4.067495   1.000000
     54         -4.047703   1.000000
     55         -3.983069   1.000000
     56         -3.831716   1.000000
     57         -3.736266   1.000000
     58         -3.730496   1.000000
     59         -3.682534   1.000000
     60         -3.673168   1.000000
     61         -3.639436   1.000000
     62         -3.584220   1.000000
     63         -3.566368   1.000000
     64         -3.558051   1.000000
     65         -3.527916   1.000000
     66         -3.525858   1.000000
     67         -3.455849   1.000000
     68         -3.436544   1.000000
     69         -3.398882   1.000000
     70         -3.377996   1.000000
     71         -3.363849   1.000000
     72         -3.315966   1.000000
     73         -3.270825   1.000000
     74         -3.263366   1.000000
     75         -3.259368   1.000000
     76         -3.181984   1.000000
     77         -3.176662   1.000000
     78         -3.164231   1.000000
     79         -3.130044   1.000000
     80         -3.088956   1.000000
     81         -3.075675   1.000000
     82         -3.066245   1.000000
     83         -3.033524   1.000000
     84         -3.019991   1.000000
     85         -2.969017   1.000000
     86         -2.956483   1.000000
     87         -2.938903   1.000000
     88         -2.936845   1.000000
     89         -2.919814   1.000000
     90         -2.909428   1.000000
     91         -2.860864   1.000000
     92         -2.838820   1.000000
     93         -2.797907   1.000000
     94         -2.790797   1.000000
     95         -2.775126   1.000000
     96         -2.765996   1.000000
     97         -2.758170   1.000000
     98         -2.734343   1.000000
     99         -2.698392   1.000000
    100         -2.690269   1.000000
    101         -2.614106   1.000000
    102         -2.566337   1.000000
    103         -2.557674   1.000000
    104         -2.522052   1.000000
    105         -2.512120   1.000000
    106         -2.503206   1.000000
    107         -2.496033   1.000000
    108         -2.493819   1.000000
    109         -2.448638   1.000000
    110         -2.439152   1.000000
    111         -2.428852   1.000000
    112         -2.417155   1.000000
    113         -2.185884   1.000000
    114         -2.076269   1.000000
    115         -2.027762   1.000000
    116         -2.006264   1.000000
    117         -1.992577   1.000000
    118         -1.987971   1.000000
    119         -1.986959   1.000000
    120         -1.945428   1.000000
    121         -1.936553   1.000000
    122         -1.894609   1.000000
    123         -1.808818   1.000000
    124         -1.780079   1.000000
    125         -1.704665   1.000000
    126         -1.652912   1.000000
    127         -1.650991   1.000000
    128         -1.598627   1.000000
    129         -1.588603   1.000000
    130         -1.578470   1.000000
    131         -1.542879   1.000000
    132         -1.533533   1.000000
    133         -1.530338   1.000000
    134         -1.446755   1.000000
    135         -1.398790   1.000000
    136         -1.394242   1.000000
    137         -1.384087   1.000000
    138         -1.379719   1.000000
    139         -1.228477   1.000000
    140         -1.204076   1.000000
    141         -1.167290   1.000000
    142         -1.164483   1.000000
    143         -1.150135   1.000000
    144         -1.147467   1.000000
    145         -1.124698   1.000000
    146         -1.056910   1.000000
    147         -1.034690   1.000000
    148         -1.006836   1.000000
    149         -0.989462   1.000000
    150         -0.980674   1.000000
    151         -0.930938   1.000000
    152         -0.922871   1.000000
    153         -0.904685   1.000000
    154         -0.904020   1.000000
    155         -0.813264   1.000000
    156         -0.794432   1.000000
    157         -0.768216   1.000000
    158         -0.764495   1.000000
    159         -0.723254   1.000000
    160         -0.672724   1.000000
    161         -0.656008   1.000000
    162         -0.611350   1.000000
    163         -0.607624   1.000000
    164         -0.592547   1.000000
    165         -0.561975   1.000000
    166         -0.543049   1.000000
    167         -0.482526   1.000000
    168         -0.475950   1.000000
    169         -0.411880   1.000009
    170         -0.406843   1.000013
    171         -0.387648   1.000041
    172         -0.386055   1.000045
    173         -0.359462   1.000200
    174         -0.350411   1.000320
    175         -0.347063   1.000379
    176         -0.335924   1.000652
    177         -0.328114   1.000939
    178         -0.271346   1.008558
    179         -0.267817   1.009556
    180         -0.125036   0.878569
    181         -0.121732   0.860397
    182         -0.102216   0.732478
    183         -0.085893   0.604226
    184         -0.070402   0.474037
    185         -0.066051   0.437398
    186         -0.037484   0.216212
    187         -0.018460   0.103630
    188         -0.004533   0.043889
    189          0.004933   0.014148
    190          0.085255  -0.023656
    191          0.100368  -0.016907
    192          0.130110  -0.007109
    193          0.188666  -0.000662
    194          0.292639  -0.000001
    195          0.302916  -0.000001
    196          0.313226  -0.000000
    197          0.359281  -0.000000
    198          0.706267  -0.000000
    199          0.746079  -0.000000
    200          1.273185  -0.000000
    201          1.460211  -0.000000
    202          1.480834  -0.000000
    203          1.598166  -0.000000
    204          2.411326  -0.000000
    205          2.845075   0.000000
    206          2.906527   0.000000
    207          3.576349   0.000000
    208          3.650358   0.000000
    209          3.672001   0.000000
    210          3.740703   0.000000
    211          3.975902   0.000000
    212          4.456578   0.000000
    213          4.607203   0.000000
    214          4.763369   0.000000
    215          4.972889   0.000000
    216          4.987183   0.000000
    217          5.021124   0.000000
    218          5.236552   0.000000
    219          5.344426   0.000000
    220          5.462780   0.000000
    221          5.645044   0.000000
    222          5.706223   0.000000
    223          5.861573   0.000000
    224          5.881665   0.000000
    225          6.069677   0.000000
    226          6.220545   0.000000
    227          6.269672   0.000000
    228          6.335278   0.000000
    229          6.351082   0.000000
    230          6.540373   0.000000
    231          6.697313   0.000000
    232          6.767829   0.000000
    233          6.798009   0.000000
    234          6.830000   0.000000
    235          6.952108   0.000000
    236          7.069379   0.000000
    237          7.256992   0.000000
    238          7.475738   0.000000
    239          7.585652   0.000000
    240          7.623376   0.000000
 
  0.2000000E+00  0.2000000E+00  0.1276756E-14  0.8000000E-01
      1         -8.764809   1.000000
      2         -7.772131   1.000000
      3         -7.107043   1.000000
      4         -6.929720   1.000000
      5         -6.563203   1.000000
      6         -6.550267   1.000000
      7         -6.360736   1.000000
      8         -6.271524   1.000000
      9         -6.220457   1.000000
     10         -6.215270   1.000000
     11         -6.121268   1.000000
     12         -6.002654   1.000000
     13         -5.958937   1.000000
     14         -5.847095   1.000000
     15         -5.842116   1.000000
     16         -5.831232   1.000000
     17         -5.751953   1.000000
     18         -5.536115   1.000000
     19         -5.423189   1.000000
     20         -5.419997   1.000000
     21         -5.413078   1.000000
     22         -5.379414   1.000000
     23         -5.340493   1.000000
     24         -5.307239   1.000000
     25         -5.279265   1.000000
     26         -5.241432   1.000000
     27         -5.221201   1.000000
     28         -5.216683   1.000000
     29         -5.142562   1.000000
     30         -5.117319   1.000000
     31         -5.110249   1.000000
     32         -5.039708   1.000000
     33         -5.023061   1.000000
     34         -5.012463   1.000000
     35         -5.011139   1.000000
     36         -4.858027   1.000000
     37         -4.817064   1.000000
     38         -4.781937   1.000000
     39         -4.776123   1.000000
     40         -4.752900   1.000000
     41         -4.570266   1.000000
     42         -4.496605   1.000000
     43         -4.491337   1.000000
     44         -4.445546   1.000000
     45         -4.417989   1.000000
     46         -4.402688   1.000000
     47         -4.390847   1.000000
     48         -4.290617   1.000000
     49         -4.214855   1.000000
     50         -4.153794   1.000000
     51         -4.126386   1.000000
     52         -4.114332   1.000000
     53         -4.067805   1.000000
     54         -4.048511   1.000000
     55         -3.984184   1.000000
     56         -3.828469   1.000000
     57         -3.736638   1.000000
     58         -3.731215   1.000000
     59         -3.679302   1.000000
     60         -3.670470   1.000000
     61         -3.637697   1.000000
     62         -3.580913   1.000000
     63         -3.569772   1.000000
     64         -3.559504   1.000000
     65         -3.528628   1.000000
     66         -3.527501   1.000000
     67         -3.454958   1.000000
     68         -3.437388   1.000000
     69         -3.395072   1.000000
     70         -3.376324   1.000000
     71         -3.363413   1.000000
     72         -3.315965   1.000000
     73         -3.276036   1.000000
     74         -3.267022   1.000000
     75         -3.265363   1.000000
     76         -3.182142   1.000000
     77         -3.175142   1.000000
     78         -3.163272   1.000000
     79         -3.130922   1.000000
     80         -3.087701   1.000000
     81         -3.069174   1.000000
     82         -3.063664   1.000000
     83         -3.038718   1.000000
     84         -3.019160   1.000000
     85         -2.969237   1.000000
     86         -2.955581   1.000000
     87         -2.938924   1.000000
     88         -2.937349   1.000000
     89         -2.918911   1.000000
     90         -2.910339   1.000000
     91         -2.859707   1.000000
     92         -2.839169   1.000000
     93         -2.799076   1.000000
     94         -2.789966   1.000000
     95         -2.774920   1.000000
     96         -2.767856   1.000000
     97         -2.757585   1.000000
     98         -2.734144   1.000000
     99         -2.699219   1.000000
    100         -2.692268   1.000000
    101         -2.614419   1.000000
    102         -2.566845   1.000000
    103         -2.556908   1.000000
    104         -2.521960   1.000000
    105         -2.514302   1.000000
    106         -2.503270   1.000000
    107         -2.495894   1.000000
    108         -2.492027   1.000000
    109         -2.448624   1.000000
    110         -2.435371   1.000000
    111         -2.429826   1.000000
    112         -2.419503   1.000000
    113         -2.183291   1.000000
    114         -2.074000   1.000000
    115         -2.028440   1.000000
    116         -2.006549   1.000000
    117         -1.994381   1.000000
    118         -1.991023   1.000000
    119         -1.985209   1.000000
    120         -1.945521   1.000000
    121         -1.938040   1.000000
    122         -1.893988   1.000000
    123         -1.808669   1.000000
    124         -1.781884   1.000000
    125         -1.706306   1.000000
    126         -1.654305   1.000000
    127         -1.652164   1.000000
    128         -1.593825   1.000000
    129         -1.587259   1.000000
    130         -1.583660   1.000000
    131         -1.544678   1.000000
    132         -1.533615   1.000000
    133         -1.531253   1.000000
    134         -1.447507   1.000000
    135         -1.399817   1.000000
    136         -1.393379   1.000000
    137         -1.382772   1.000000
    138         -1.378948   1.000000
    139         -1.229161   1.000000
    140         -1.204229   1.000000
    141         -1.168566   1.000000
    142         -1.164529   1.000000
    143         -1.148748   1.000000
    144         -1.147236   1.000000
    145         -1.124329   1.000000
    146         -1.055225   1.000000
    147         -1.034010   1.000000
    148         -1.005678   1.000000
    149         -0.990363   1.000000
    150         -0.979371   1.000000
    151         -0.931549   1.000000
    152         -0.920434   1.000000
    153         -0.906287   1.000000
    154         -0.902071   1.000000
    155         -0.813258   1.000000
    156         -0.795486   1.000000
    157         -0.767652   1.000000
    158         -0.763262   1.000000
    159         -0.724061   1.000000
    160         -0.673501   1.000000
    161         -0.655475   1.000000
    162         -0.611889   1.000000
    163         -0.608724   1.000000
    164         -0.593965   1.000000
    165         -0.566271   1.000000
    166         -0.544223   1.000000
    167         -0.481459   1.000000
    168         -0.476196   1.000000
    169         -0.411958   1.000009
    170         -0.405379   1.000014
    171         -0.389831   1.000036
    172         -0.384606   1.000049
    173         -0.358014   1.000216
    174         -0.349610   1.000333
    175         -0.348232   1.000357
    176         -0.336868   1.000623
    177         -0.326847   1.000994
    178         -0.273261   1.008049
    179         -0.270596   1.008763
    180         -0.128639   0.897154
    181         -0.122580   0.865164
    182         -0.098117   0.701712
    183         -0.085048   0.597247
    184         -0.067736   0.451554
    185         -0.065789   0.435204
    186         -0.036951   0.212603
    187         -0.016636   0.094693
    188         -0.000805   0.031164
    189          0.007619   0.007217
    190          0.083182  -0.024615
    191          0.100497  -0.016853
    192          0.129506  -0.007253
    193          0.189228  -0.000644
    194          0.292421  -0.000001
    195          0.305614  -0.000001
    196          0.312747  -0.000000
    197          0.355423  -0.000000
    198          0.710382  -0.000000
    199          0.749840  -0.000000
    200          1.270742  -0.000000
    201          1.460243  -0.000000
    202          1.479735  -0.000000
    203          1.596775  -0.000000
    204          2.408558  -0.000000
    205          2.847147   0.000000
    206          2.909318   0.000000
    207          3.576389   0.000000
    208          3.650950   0.000000
    209          3.670404   0.000000
    210          3.740578   0.000000
    211          3.976707   0.000000
    212          4.455606   0.000000
    213          4.606900   0.000000
    214          4.758219   0.000000
    215          4.974515   0.000000
    216          4.987412   0.000000
    217          5.021151   0.000000
    218          5.236062   0.000000
    219          5.345514   0.000000
    220          5.466571   0.000000
    221          5.643288   0.000000
    222          5.704180   0.000000
    223          5.864275   0.000000
    224          5.883925   0.000000
    225          6.069280   0.000000
    226          6.216647   0.000000
    227          6.269976   0.000000
    228          6.336237   0.000000
    229          6.354874   0.000000
    230          6.539662   0.000000
    231          6.698190   0.000000
    232          6.766757   0.000000
    233          6.797193   0.000000
    234          6.833645   0.000000
    235          6.952216   0.000000
    236          7.068952   0.000000
    237          7.255306   0.000000
    238          7.473049   0.000000
    239          7.582626   0.000000
    240          7.622995   0.000000
 
  0.1276756E-14  0.2000000E+00  0.1276756E-14  0.8000000E-01
      1         -8.764756   1.000000
      2         -7.772382   1.000000
      3         -7.105158   1.000000
      4         -6.929756   1.000000
      5         -6.564435   1.000000
      6         -6.551630   1.000000
      7         -6.360594   1.000000
      8         -6.268133   1.000000
      9         -6.221785   1.000000
     10         -6.216860   1.000000
     11         -6.121930   1.000000
     12         -6.002838   1.000000
     13         -5.957807   1.000000
     14         -5.846306   1.000000
     15         -5.842558   1.000000
     16         -5.830568   1.000000
     17         -5.750998   1.000000
     18         -5.537807   1.000000
     19         -5.422320   1.000000
     20         -5.420582   1.000000
     21         -5.409589   1.000000
     22         -5.379189   1.000000
     23         -5.341938   1.000000
     24         -5.308076   1.000000
     25         -5.279847   1.000000
     26         -5.242433   1.000000
     27         -5.220463   1.000000
     28         -5.216247   1.000000
     29         -5.140988   1.000000
     30         -5.118381   1.000000
     31         -5.112268   1.000000
     32         -5.037605   1.000000
     33         -5.023365   1.000000
     34         -5.011691   1.000000
     35         -5.010059   1.000000
     36         -4.858032   1.000000
     37         -4.818208   1.000000
     38         -4.782769   1.000000
     39         -4.774948   1.000000
     40         -4.755807   1.000000
     41         -4.571484   1.000000
     42         -4.497568   1.000000
     43         -4.491817   1.000000
     44         -4.443142   1.000000
     45         -4.417245   1.000000
     46         -4.403735   1.000000
     47         -4.390676   1.000000
     48         -4.290837   1.000000
     49         -4.216376   1.000000
     50         -4.154356   1.000000
     51         -4.126423   1.000000
     52         -4.114243   1.000000
     53         -4.070135   1.000000
     54         -4.047621   1.000000
     55         -3.981279   1.000000
     56         -3.832413   1.000000
     57         -3.736037   1.000000
     58         -3.731524   1.000000
     59         -3.683102   1.000000
     60         -3.673984   1.000000
     61         -3.640217   1.000000
     62         -3.586016   1.000000
     63         -3.565119   1.000000
     64         -3.555665   1.000000
     65         -3.527653   1.000000
     66         -3.525317   1.000000
     67         -3.453940   1.000000
     68         -3.439053   1.000000
     69         -3.399835   1.000000
     70         -3.376367   1.000000
     71         -3.364036   1.000000
     72         -3.315599   1.000000
     73         -3.269757   1.000000
     74         -3.261665   1.000000
     75         -3.257580   1.000000
     76         -3.181719   1.000000
     77         -3.177928   1.000000
     78         -3.164121   1.000000