 vasp.6.4.2 20Jul23 (build Mar 01 2024 16:46:03) complex                        
  
 executed on             LinuxIFC date 2025.01.11  15:46:39
 running   48 mpi-ranks, on    1 nodes
 distrk:  each k-point on   48 cores,    1 groups
 distr:  one band on NCORE=   1 cores,   48 groups


--------------------------------------------------------------------------------------------------------


 INCAR:
   ENCUT = 680.290000
   SIGMA = 0.100000
   ZAB_VDW = -1.886700
   EDIFF = 1.00e-05
   ALGO = Fast
   GGA = BF
   IBRION = -1
   ISMEAR = 1
   ISPIN = 1
   ISYM = 0
   LUSE_VDW = .TRUE.
   LREAL = Auto

 POTCAR:    PAW_PBE Pt 04Feb2005                  
 POTCAR:    PAW_PBE H 15Jun2001                   
 -----------------------------------------------------------------------------
|                                                                             |
|           W    W    AA    RRRRR   N    N  II  N    N   GGGG   !!!           |
|           W    W   A  A   R    R  NN   N  II  NN   N  G    G  !!!           |
|           W    W  A    A  R    R  N N  N  II  N N  N  G       !!!           |
|           W WW W  AAAAAA  RRRRR   N  N N  II  N  N N  G  GGG   !            |
|           WW  WW  A    A  R   R   N   NN  II  N   NN  G    G                |
|           W    W  A    A  R    R  N    N  II  N    N   GGGG   !!!           |
|                                                                             |
|     For optimal performance we recommend to set                             |
|       NCORE = 2 up to number-of-cores-per-socket                            |
|     NCORE specifies how many cores store one orbital (NPAR=cpu/NCORE).      |
|     This setting can greatly improve the performance of VASP for DFT.       |
|     The default, NCORE=1 might be grossly inefficient on modern             |
|     multi-core architectures or massively parallel machines. Do your        |
|     own testing! More info at https://www.vasp.at/wiki/index.php/NCORE      |
|     Unfortunately you need to use the default for GW and RPA                |
|     calculations (for HF NCORE is supported but not extensively tested      |
|     yet).                                                                   |
|                                                                             |
 -----------------------------------------------------------------------------

 -----------------------------------------------------------------------------
|                                                                             |
|               ----> ADVICE to this user running VASP <----                  |
|                                                                             |
|     You have switched on vdW-DFT.                                           |
|     This routine was written and supplied by Jiri Klimes. We recommend      |
|     that you carefully read and cite the following publications:            |
|       J. Klimes, D.R. Bowler, A. Michelides                                 |
|          J. Phys.: Cond Matt. 22 022201 (2010)                              |
|       J. Klimes, D.R. Bowler, A. Michelides                                 |
|          Phys. Rev. B. 83, 195131 (2011)                                    |
|     and references therein.                                                 |
|                                                                             |
 -----------------------------------------------------------------------------

 POTCAR:    PAW_PBE Pt 04Feb2005                  
   SHA256 =  3ed90460adef76debcff1cfb73ee1349b515b1a3db03439735b44de3a8db7dc8 Pt/POTCAR             
   COPYR  = (c) Copyright 04Feb2005 Georg Kresse                                                    
   COPYR  = This file is part of the software VASP. Any use, copying, and all other rights are regul
   COPYR  = If you do not have a valid VASP license, you may not use, copy or distribute this file. 
   VRHFIN =Pt: s1d9                                                                                 
   LEXCH  = PE                                                                                      
   EATOM  =   729.1176 eV,   53.5886 Ry                                                             
                                                                                                    
   TITEL  = PAW_PBE Pt 04Feb2005                                                                    
   LULTRA =        F    use ultrasoft PP ?                                                          
   IUNSCR =        1    unscreen: 0-lin 1-nonlin 2-no                                               
   RPACOR =    2.330    partial core radius                                                         
   POMASS =  195.080; ZVAL   =   10.000    mass and valenz                                          
   RCORE  =    2.600    outmost cutoff radius                                                       
   RWIGS  =    2.750; RWIGS  =    1.455    wigner-seitz radius (au A)                               
   ENMAX  =  230.283; ENMIN  =  172.712 eV                                                          
   ICORE  =        3    local potential                                                             
   LCOR   =        T    correct aug charges                                                         
   LPAW   =        T    paw PP                                                                      
   EAUG   =  358.966                                                                                
   DEXC   =    0.000                                                                                
   RMAX   =    2.658    core radius for proj-oper                                                   
   RAUG   =    1.300    factor for augmentation sphere                                              
   RDEP   =    2.761    radius for radial grids                                                     
   RDEPT  =    2.203    core radius for aug-charge                                                  
                                                                                                    
   Atomic configuration                                                                             
   16 entries                                                                                       
     n  l   j            E        occ.                                                              
     1  0  0.50    -78401.1885   2.0000                                                             
     2  0  0.50    -13770.7750   2.0000                                                             
     2  1  1.50    -11931.0468   6.0000                                                             
     3  0  0.50     -3234.7234   2.0000                                                             
     3  1  1.50     -2699.2216   6.0000                                                             
     3  2  2.50     -2119.5714  10.0000                                                             
     4  0  0.50      -695.1528   2.0000                                                             
     4  1  1.50      -519.6034   6.0000                                                             
     4  2  2.50      -306.6786  10.0000                                                             
     4  3  3.50       -70.1041  14.0000                                                             
     5  0  0.50      -101.7747   2.0000                                                             
     5  1  1.50       -55.9873   6.0000                                                             
     5  2  2.50        -6.1423   9.0000                                                             
     6  0  0.50        -5.6573   1.0000                                                             
     6  1  1.50        -6.8029   0.0000                                                             
     5  3  2.50        -1.3606   0.0000                                                             
   Description                                                                                      
     l       E           TYP  RCUT    TYP  RCUT                                                     
     2     -6.1423404     23  2.500                                                                 
     2     -7.5029230     23  2.500                                                                 
     0     -5.6573207     23  2.500                                                                 
     0      0.7416693     23  2.500                                                                 
     1     -2.7211652     23  2.600                                                                 
     1     20.4087390     23  2.600                                                                 
     3     -1.3605826     23  2.500                                                                 
  local pseudopotential read in
  partial core-charges read in
  partial kinetic energy density read in
  atomic valenz-charges read in
  non local Contribution for L=           2  read in
    real space projection operators read in
  non local Contribution for L=           2  read in
    real space projection operators read in
  non local Contribution for L=           0  read in
    real space projection operators read in
  non local Contribution for L=           0  read in
    real space projection operators read in
  non local Contribution for L=           1  read in
    real space projection operators read in
  non local Contribution for L=           1  read in
    real space projection operators read in
    PAW grid and wavefunctions read in
 
   number of l-projection  operators is LMAX  =           6
   number of lm-projection operators is LMMAX =          18
 
 POTCAR:    PAW_PBE H 15Jun2001                   
   SHA256 =  030f79b5d3ab3cf0e668861823c8fb652ff669f3e15e46930bd03bfd63a607b6 H/POTCAR              
   COPYR  = (c) Copyright 15Jun2001 Georg Kresse                                                    
   COPYR  = This file is part of the software VASP. Any use, copying, and all other rights are regul
   COPYR  = If you do not have a valid VASP license, you may not use, copy or distribute this file. 
   VRHFIN =H: ultrasoft test                                                                        
   LEXCH  = PE                                                                                      
   EATOM  =    12.4884 eV,    0.9179 Ry                                                             
                                                                                                    
   TITEL  = PAW_PBE H 15Jun2001                                                                     
   LULTRA =        F    use ultrasoft PP ?                                                          
   IUNSCR =        0    unscreen: 0-lin 1-nonlin 2-no                                               
   RPACOR =    0.000    partial core radius                                                         
   POMASS =    1.000; ZVAL   =    1.000    mass and valenz                                          
   RCORE  =    1.100    outmost cutoff radius                                                       
   RWIGS  =    0.700; RWIGS  =    0.370    wigner-seitz radius (au A)                               
   ENMAX  =  250.000; ENMIN  =  200.000 eV                                                          
   RCLOC  =    0.701    cutoff for local pot                                                        
   LCOR   =        T    correct aug charges                                                         
   LPAW   =        T    paw PP                                                                      
   EAUG   =  400.000                                                                                
   RMAX   =    1.123    core radius for proj-oper                                                   
   RAUG   =    1.200    factor for augmentation sphere                                              
   RDEP   =    1.112    radius for radial grids                                                     
   RDEPT  =    0.926    core radius for aug-charge                                                  
                                                                                                    
   Atomic configuration                                                                             
    2 entries                                                                                       
     n  l   j            E        occ.                                                              
     1  0  0.50        -6.4927   1.0000                                                             
     2  1  0.50        -3.4015   0.0000                                                             
   Description                                                                                      
     l       E           TYP  RCUT    TYP  RCUT                                                     
     0     -6.4927494     23  1.100                                                                 
     0      6.8029130     23  1.100                                                                 
     1     -4.0817478     23  1.100                                                                 
  local pseudopotential read in
  atomic valenz-charges read in
  non local Contribution for L=           0  read in
    real space projection operators read in
  non local Contribution for L=           0  read in
    real space projection operators read in
  non local Contribution for L=           1  read in
    real space projection operators read in
    PAW grid and wavefunctions read in
 
   number of l-projection  operators is LMAX  =           3
   number of lm-projection operators is LMMAX =           5
 
 Optimization of the real space projectors (new method)

 maximal supplied QI-value         = 14.36
 optimisation between [QCUT,QGAM] = [ 13.36, 26.71] = [ 49.96,199.83] Ry 
 Optimized for a Real-space Cutoff    1.42 Angstroem

   l    n(q)    QCUT    max X(q) W(low)/X(q) W(high)/X(q)  e(spline) 
   2     11    13.357    66.195    0.16E-03    0.81E-04    0.36E-06
   2     11    13.357    64.643    0.16E-03    0.82E-04    0.36E-06
   0     11    13.357    95.520    0.60E-04    0.72E-05    0.55E-06
   0     11    13.357    63.403    0.58E-04    0.70E-05    0.53E-06
   1     11    13.357    19.961    0.21E-03    0.56E-03    0.21E-05
   1     11    13.357    13.289    0.17E-03    0.46E-03    0.17E-05
 Optimization of the real space projectors (new method)

 maximal supplied QI-value         = 34.20
 optimisation between [QCUT,QGAM] = [ 13.34, 26.68] = [ 49.83,199.32] Ry 
 Optimized for a Real-space Cutoff    0.91 Angstroem

   l    n(q)    QCUT    max X(q) W(low)/X(q) W(high)/X(q)  e(spline) 
   0      7    13.340    19.460    0.48E-03    0.16E-03    0.16E-06
   0      7    13.340    12.209    0.46E-03    0.14E-03    0.15E-06
   1      7    13.340     4.655    0.46E-03    0.87E-03    0.11E-06
 -----------------------------------------------------------------------------
|                                                                             |
|               ----> ADVICE to this user running VASP <----                  |
|                                                                             |
|     You enforced a specific xc type in the INCAR file but a different       |
|     type was found in the POTCAR file.                                      |
|     I HOPE YOU KNOW WHAT YOU ARE DOING!                                     |
|                                                                             |
 -----------------------------------------------------------------------------

  PAW_PBE Pt 04Feb2005                  :
 energy of atom  1       EATOM= -729.1176
 kinetic energy error for atom=    0.0010 (will be added to EATOM!!)
  PAW_PBE H 15Jun2001                   :
 energy of atom  2       EATOM=  -12.4884
 kinetic energy error for atom=    0.0002 (will be added to EATOM!!)
 
 
 POSCAR: Pt  H
  positions in cartesian coordinates
  No initial velocities read in
 exchange correlation table for  LEXCH =       17
   RHO(1)=    0.500       N(1)  =     2000
   RHO(2)=  100.500       N(2)  =     4000
 


--------------------------------------------------------------------------------------------------------


 ion  position               nearest neighbor table
   1  0.000  0.000  0.340-   3 2.81   7 2.81   6 2.82   8 2.82  12 2.82  16 2.82   2 2.83   4 2.83
                            10 2.83
   2  0.334  0.000  0.340-   8 2.81   9 2.82  17 2.82   1 2.83   3 2.83   4 2.83   5 2.83  10 2.83
                            11 2.83
   3  0.668  0.000  0.340-   7 2.81   1 2.81   9 2.81  18 2.82   5 2.83   2 2.83   6 2.83  11 2.83
                            12 2.83
   4  0.000  0.334  0.340-   6 2.81   9 2.82  15 2.82   5 2.83   2 2.83   1 2.83   7 2.83  10 2.83
                            13 2.83
   5  0.334  0.334  0.340-   3 2.83   4 2.83   6 2.83   7 2.83   2 2.83   8 2.83  11 2.83  13 2.83
                            14 2.83
   6  0.668  0.334  0.340-   4 2.81   1 2.82   5 2.83   8 2.83   3 2.83   9 2.83  12 2.83  14 2.83
                            15 2.83
   7  0.000  0.668  0.340-   3 2.81   1 2.81   9 2.81  18 2.82   5 2.83   8 2.83   4 2.83  13 2.83
                            16 2.83
   8  0.334  0.668  0.340-   2 2.81   1 2.82   6 2.83   7 2.83   9 2.83   5 2.83  14 2.83  16 2.83
                            17 2.83
   9  0.668  0.668  0.340-   3 2.81   7 2.81   4 2.82   2 2.82   8 2.83   6 2.83  15 2.83  17 2.83
                            18 2.83
  10  0.111  0.111  0.433-  26 2.80  19 2.81  12 2.81  16 2.81  15 2.82  17 2.82  11 2.83  13 2.83
                             2 2.83   4 2.83   1 2.83  20 2.83
  11  0.445  0.111  0.433-  27 2.80  17 2.81  21 2.81  18 2.82  20 2.82  13 2.83  10 2.83  12 2.83
                            14 2.83   5 2.83   3 2.83   2 2.83
  12  0.779  0.111  0.433-  16 2.81  10 2.81  18 2.81  25 2.81  21 2.81  19 2.82   1 2.82  14 2.83
                            11 2.83  15 2.83   6 2.83   3 2.83
  13  0.111  0.445  0.433-  15 2.81  22 2.81  20 2.81  18 2.82  23 2.82  14 2.83  11 2.83  10 2.83
                            16 2.83   7 2.83   5 2.83   4 2.83
  14  0.445  0.445  0.433-  24 2.80  21 2.81  23 2.82  16 2.83  12 2.83  13 2.83  15 2.83  17 2.83
                            11 2.83   8 2.83   6 2.83   5 2.83
  15  0.779  0.445  0.433-  24 2.80  19 2.81  13 2.81  10 2.82   4 2.82  22 2.82  17 2.83  14 2.83
                            18 2.83  12 2.83   9 2.83   6 2.83
  16  0.111  0.779  0.433-  26 2.81  25 2.81  12 2.81  10 2.81  18 2.81   1 2.82  23 2.82  14 2.83
                            17 2.83  13 2.83   8 2.83   7 2.83
  17  0.445  0.779  0.433-  24 2.80  26 2.80  27 2.80  11 2.81  10 2.82   2 2.82  15 2.83  16 2.83
                            18 2.83  14 2.83   9 2.83   8 2.83
  18  0.779  0.779  0.433-  27 2.80  25 2.81  12 2.81  16 2.81  13 2.82  11 2.82   3 2.82   7 2.82
                            22 2.82  17 2.83  15 2.83   9 2.83
  19  0.890  0.224  0.525-  10 2.81  15 2.81  20 2.82  22 2.82  12 2.82  24 2.82  26 2.82  25 2.83
                            21 2.83  33 2.84  28 2.84  31 2.85
  20  0.223  0.224  0.525-  13 2.81  22 2.82  23 2.82  19 2.82  21 2.82  11 2.82  26 2.83  27 2.83
                            10 2.83  29 2.83  32 2.88  31 2.88
  21  0.556  0.224  0.525-  14 2.81  11 2.81  12 2.81  23 2.82  20 2.82  27 2.82  24 2.82  19 2.83
                            25 2.83  30 2.84  33 2.84  32 2.85
  22  0.891  0.557  0.525-  13 2.81  23 2.82  20 2.82  25 2.82  19 2.82  18 2.82  15 2.82  27 2.83
                            24 2.83  36 2.83  34 2.88  31 2.88
  23  0.223  0.557  0.525-  22 2.82  25 2.82  20 2.82  21 2.82  14 2.82  16 2.82  13 2.82  26 2.83
                            24 2.83  35 2.84  32 2.87  34 2.88
  24  0.557  0.557  0.524-  15 2.80  17 2.80  14 2.80  19 2.82  21 2.82  26 2.82  27 2.83  23 2.83
                            22 2.83  36 2.84  35 2.84  33 2.85
  25  0.891  0.889  0.525-  16 2.81  18 2.81  12 2.81  23 2.82  22 2.82  26 2.82  27 2.82  19 2.83
                            21 2.83  30 2.84  28 2.84  34 2.84
  26  0.223  0.890  0.524-  10 2.80  17 2.80  16 2.81  25 2.82  19 2.82  24 2.82  27 2.83  20 2.83
                            23 2.83  35 2.84  29 2.84  28 2.85
  27  0.557  0.890  0.524-  11 2.80  18 2.80  17 2.80  21 2.82  25 2.82  26 2.83  22 2.83  24 2.83
                            20 2.83  36 2.84  29 2.84  30 2.85
  28  0.001  0.002  0.618-  31 2.79  34 2.79  29 2.82  35 2.82  33 2.83  30 2.83  25 2.84  19 2.84
                            26 2.85
  29  0.335  1.000  0.618-  35 2.80  36 2.80  28 2.82  30 2.82  20 2.83  31 2.84  32 2.84  26 2.84
                            27 2.84
  30  0.668  0.002  0.618-  32 2.79  34 2.79  29 2.82  36 2.82  33 2.83  28 2.83  25 2.84  21 2.84
                            27 2.85
  31  0.998  0.332  0.620-  37 1.86  28 2.79  33 2.79  29 2.84  36 2.84  19 2.85  22 2.88  20 2.88
                            32 2.89  34 2.89
  32  0.340  0.332  0.619-  37 1.88  30 2.79  33 2.79  29 2.84  35 2.84  21 2.85  23 2.87  20 2.88
                            34 2.89  31 2.89
  33  0.668  0.335  0.618-  31 2.79  32 2.79  36 2.82  35 2.82  30 2.83  28 2.83  19 2.84  21 2.84
                            24 2.85
  34  0.998  0.674  0.620-  37 1.87  28 2.79  30 2.79  35 2.84  36 2.84  25 2.84  22 2.88  23 2.88
                            32 2.89  31 2.89
  35  0.336  0.669  0.618-  36 2.79  29 2.80  33 2.82  28 2.82  26 2.84  23 2.84  34 2.84  32 2.84
                            24 2.84
  36  0.665  0.669  0.617-  35 2.79  29 2.80  33 2.82  30 2.82  22 2.83  27 2.84  31 2.84  34 2.84
                            24 2.84
  37  0.111  0.446  0.653-  31 1.86  34 1.87  32 1.88
 

IMPORTANT INFORMATION: All symmetrisations will be switched off!
NOSYMM: (Re-)initialisation of all symmetry stuff for point group C_1.


----------------------------------------------------------------------------------------

                                     Primitive cell                                     

  volume of cell :    1550.4837

  direct lattice vectors                    reciprocal lattice vectors
     8.468310000  0.000000000  0.000000000     0.118087316 -0.068177744  0.000000000
     4.234155000  7.333771587  0.000000000     0.000000000  0.136355488  0.000000000
     0.000000000  0.000000000 24.965661990     0.000000000  0.000000000  0.040055016

  length of vectors
     8.468310000  8.468310000 24.965661990     0.136355488  0.136355488  0.040055016

  position of ions in fractional coordinates (direct lattice)
     0.000000000  0.000000000  0.340467639
     0.334001368  0.000000000  0.340467639
     0.668002736  0.000000000  0.340467639
     1.000000000  0.334001368  0.340467639
     0.334001368  0.334001368  0.340467639
     0.668002736  0.334001368  0.340467639
     1.000000000  0.668002736  0.340467639
     0.334001368  0.668002736  0.340467639
     0.668002736  0.668002736  0.340467639
     0.111333789  0.111333789  0.432970737
     0.445335157  0.111333789  0.432970737
     0.779336525  0.111333789  0.432970737
     0.111333789  0.445335157  0.432970737
     0.445335157  0.445335157  0.432970737
     0.779336525  0.445335157  0.432970737
     0.111333789  0.779336525  0.432970737
     0.445335157  0.779336525  0.432970737
     0.779336525  0.779336525  0.432970737
     0.890373365  0.224095054  0.524749932
     0.222964131  0.224169355  0.525125581
     0.555928763  0.223934884  0.524590420
     0.890594130  0.556787219  0.525201117
     0.223101147  0.556723613  0.525109718
     0.556817988  0.556736137  0.524126146
     0.890707294  0.889441832  0.524843359
     0.223276714  0.890334036  0.524326368
     0.556898370  0.890331917  0.524288810
     0.001444475  0.001588360  0.617858804
     0.335419686  0.999609550  0.617534631
     0.667538551  0.001742177  0.617770897
     0.998248261  0.332135571  0.619603867
     0.339915112  0.332251791  0.619434419
     0.667657190  0.335317877  0.617730803
     0.998331010  0.673910666  0.619559209
     0.335570662  0.669450880  0.617534911
     0.665473795  0.669421086  0.617486175
     0.110974646  0.446481148  0.653103299

  ion indices of the primitive-cell ions
   primitive index   ion index
                 1           1
                 2           2
                 3           3
                 4           4
                 5           5
                 6           6
                 7           7
                 8           8
                 9           9
                10          10
                11          11
                12          12
                13          13
                14          14
                15          15
                16          16
                17          17
                18          18
                19          19
                20          20
                21          21
                22          22
                23          23
                24          24
                25          25
                26          26
                27          27
                28          28
                29          29
                30          30
                31          31
                32          32
                33          33
                34          34
                35          35
                36          36
                37          37

----------------------------------------------------------------------------------------

 
 
 KPOINTS: KPOINTS created by Atomic Simulation Env

Automatic generation of k-mesh.
 Grid dimensions read from file:
 generate k-points for:    5    5    1

 Generating k-lattice:

  Cartesian coordinates                     Fractional coordinates (reciprocal lattice)
     0.023617463 -0.013635549  0.000000000     0.200000000 -0.000000000  0.000000000
     0.000000000  0.027271098  0.000000000     0.000000000  0.200000000  0.000000000
     0.000000000  0.000000000  0.040055016     0.000000000  0.000000000  1.000000000

  Length of vectors
     0.027271098  0.027271098  0.040055016

  Shift w.r.t. Gamma in fractional coordinates (k-lattice)
     0.000000000  0.000000000  0.000000000

 
 Subroutine IBZKPT returns following result:
 ===========================================
 
 Found     13 irreducible k-points:
 
 Following reciprocal coordinates:
            Coordinates               Weight
  0.000000  0.000000  0.000000      1.000000
  0.200000  0.000000  0.000000      2.000000
  0.200000  0.200000  0.000000      2.000000
  0.000000  0.200000  0.000000      2.000000
  0.400000  0.000000  0.000000      2.000000
  0.400000  0.400000  0.000000      2.000000
  0.000000  0.400000  0.000000      2.000000
  0.400000  0.200000  0.000000      2.000000
  0.200000  0.400000  0.000000      2.000000
 -0.200000  0.200000  0.000000      2.000000
 -0.400000  0.200000  0.000000      2.000000
  0.400000 -0.400000  0.000000      2.000000
 -0.200000  0.400000  0.000000      2.000000
 
 Following cartesian coordinates:
            Coordinates               Weight
  0.000000  0.000000  0.000000      1.000000
  0.023617 -0.013636  0.000000      2.000000
  0.023617  0.013636  0.000000      2.000000
  0.000000  0.027271  0.000000      2.000000
  0.047235 -0.027271  0.000000      2.000000
  0.047235  0.027271  0.000000      2.000000
  0.000000  0.054542  0.000000      2.000000
  0.047235  0.000000  0.000000      2.000000
  0.023617  0.040907  0.000000      2.000000
 -0.023617  0.040907  0.000000      2.000000
 -0.047235  0.054542  0.000000      2.000000
  0.047235 -0.081813  0.000000      2.000000
 -0.023617  0.068178  0.000000      2.000000
 


--------------------------------------------------------------------------------------------------------




 Dimension of arrays:
   k-points           NKPTS =     13   k-points in BZ     NKDIM =     13   number of bands    NBANDS=    240
   number of dos      NEDOS =    301   number of ions     NIONS =     37
   non local maximal  LDIM  =      6   non local SUM 2l+1 LMDIM =     18
   total plane-waves  NPLWV = 466560
   max r-space proj   IRMAX =   3679   max aug-charges    IRDMAX=  18423
   dimension x,y,z NGX =    54 NGY =   54 NGZ =  160
   dimension x,y,z NGXF=   108 NGYF=  108 NGZF=  320
   support grid    NGXF=   108 NGYF=  108 NGZF=  320
   ions per type =              36   1
   NGX,Y,Z   is equivalent  to a cutoff of  10.60, 10.60, 10.65 a.u.
   NGXF,Y,Z  is equivalent  to a cutoff of  21.20, 21.20, 21.31 a.u.

 SYSTEM =  unknown system                          
 POSCAR =  Pt  H                                   

 Startparameter for this run:
   NWRITE =      2    write-flag & timer
   PREC   = normal    normal or accurate (medium, high low for compatibility)
   ISTART =      1    job   : 0-new  1-cont  2-samecut
   ICHARG =      0    charge: 1-file 2-atom 10-const
   ISPIN  =      1    spin polarized calculation?
   LNONCOLLINEAR =      F non collinear calculations
   LSORBIT =      F    spin-orbit coupling
   INIWAV =      1    electr: 0-lowe 1-rand  2-diag
   LASPH  =      F    aspherical Exc in radial PAW
 Electronic Relaxation 1
   ENCUT  =  680.3 eV  50.00 Ry    7.07 a.u.  18.01 18.01 53.09*2*pi/ulx,y,z
   ENINI  =  680.3     initial cutoff
   ENAUG  =  400.0 eV  augmentation charge cutoff
   NELM   =     60;   NELMIN=  2; NELMDL=  0     # of ELM steps 
   EDIFF  = 0.1E-04   stopping-criterion for ELM
   LREAL  =      T    real-space projection
   NLSPLINE    = F    spline interpolate recip. space projectors
   LCOMPAT=      F    compatible to vasp.4.4
   GGA_COMPAT  = T    GGA compatible to vasp.4.4-vasp.4.6
   LMAXPAW     = -100 max onsite density
   LMAXMIX     =    2 max onsite mixed and CHGCAR
   VOSKOWN=      0    Vosko Wilk Nusair interpolation
   ROPT   =   -0.00050  -0.00050
 Ionic relaxation
   EDIFFG = 0.1E-03   stopping-criterion for IOM
   NSW    =      0    number of steps for IOM
   NBLOCK =      1;   KBLOCK =      1    inner block; outer block 
   IBRION =     -1    ionic relax: 0-MD 1-quasi-New 2-CG
   NFREE  =      0    steps in history (QN), initial steepest desc. (CG)
   ISIF   =      2    stress and relaxation
   IWAVPR =     10    prediction:  0-non 1-charg 2-wave 3-comb
   ISYM   =      0    0-nonsym 1-usesym 2-fastsym
   LCORR  =      T    Harris-Foulkes like correction to forces

   POTIM  = 0.5000    time-step for ionic-motion
   TEIN   =    0.0    initial temperature
   TEBEG  =    0.0;   TEEND  =   0.0 temperature during run
   SMASS  =  -3.00    Nose mass-parameter (am)
   estimated Nose-frequenzy (Omega)   =  0.10E-29 period in steps = 0.13E+47 mass=  -0.164E-26a.u.
   SCALEE = 1.0000    scale energy and forces
   NPACO  =    256;   APACO  = 10.0  distance and # of slots for P.C.
   PSTRESS=    0.0 pullay stress

  Mass of Ions in am
   POMASS = 195.08  1.00
  Ionic Valenz
   ZVAL   =  10.00  1.00
  Atomic Wigner-Seitz radii
   RWIGS  =  -1.00 -1.00
  virtual crystal weights 
   VCA    =   1.00  1.00
   NELECT =     361.0000    total number of electrons
   NUPDOWN=      -1.0000    fix difference up-down

 DOS related values:
   EMIN   =  10.00;   EMAX   =-10.00  energy-range for DOS
   EFERMI =   0.00;   METHOD = LEGACY      
   ISMEAR =     1;   SIGMA  =   0.10  broadening in eV -4-tet -1-fermi 0-gaus

 Electronic relaxation 2 (details)
   IALGO  =     68    algorithm
   LDIAG  =      T    sub-space diagonalisation (order eigenvalues)
   LSUBROT=      F    optimize rotation matrix (better conditioning)
   TURBO    =      0    0=normal 1=particle mesh
   IRESTART =      0    0=no restart 2=restart with 2 vectors
   NREBOOT  =      0    no. of reboots
   NMIN     =      0    reboot dimension
   EREF     =   0.00    reference energy to select bands
   IMIX   =      4    mixing-type and parameters
     AMIX     =   0.40;   BMIX     =  1.00
     AMIX_MAG =   1.60;   BMIX_MAG =  1.00
     AMIN     =   0.10
     WC   =   100.;   INIMIX=   1;  MIXPRE=   1;  MAXMIX= -45

 Intra band minimization:
   WEIMIN = 0.0000     energy-eigenvalue tresh-hold
   EBREAK =  0.10E-07  absolut break condition
   DEPER  =   0.30     relativ break condition  

   TIME   =   0.40     timestep for ELM

  volume/ion in A,a.u.               =      41.90       282.79
  Fermi-wavevector in a.u.,A,eV,Ry     =   1.007136  1.903211 13.800704  1.014323
  Thomas-Fermi vector in A             =   2.139922
 
 Write flags
   LWAVE        =      T    write WAVECAR
   LDOWNSAMPLE  =      F    k-point downsampling of WAVECAR
   LCHARG       =      T    write CHGCAR
   LVTOT        =      F    write LOCPOT, total local potential
   LVHAR        =      F    write LOCPOT, Hartree potential only
   LELF         =      F    write electronic localiz. function (ELF)
   LORBIT       =      0    0 simple, 1 ext, 2 COOP (PROOUT), +10 PAW based schemes


 Dipole corrections
   LMONO  =      F    monopole corrections only (constant potential shift)
   LDIPOL =      F    correct potential (dipole corrections)
   IDIPOL =      0    1-x, 2-y, 3-z, 4-all directions 
   EPSILON=  1.0000000 bulk dielectric constant

 Exchange correlation treatment:
   GGA     =    BF    GGA type
   LEXCH   =    17    internal setting for exchange type
   LIBXC   =     F    Libxc                    
   VOSKOWN =     0    Vosko Wilk Nusair interpolation
   LHFCALC =     F    Hartree Fock is set to
   LHFONE  =     F    Hartree Fock one center treatment
   AEXX    =    0.0000 exact exchange contribution

 vdW DFT:
   LUSE_VDW   =     T    switch on vdW DFT
   IVDW_NL    =     1    kernel type
   LSPIN_VDW  =     F    use spin-polarized vdW DFT
   Zab_VDW    =******    correlation parameter
   PARAM1     =0.1234
   PARAM2     =1.0000
   PARAM3     =0.0000
   -- rVV10 --
   BPARAM     = 6.3000
   CPARAM     = 0.0093

 Linear response parameters
   LEPSILON=     F    determine dielectric tensor
   LRPA    =     F    only Hartree local field effects (RPA)
   LNABLA  =     F    use nabla operator in PAW spheres
   LVEL    =     F    velocity operator in full k-point grid
   CSHIFT  =0.1000    complex shift for real part using Kramers Kronig
   OMEGAMAX=  -1.0    maximum frequency
   DEG_THRESHOLD= 0.2000000E-02 threshold for treating states as degnerate
   RTIME   =   -0.100 relaxation time in fs
  (WPLASMAI=    0.000 imaginary part of plasma frequency in eV, 0.658/RTIME)
   DFIELD  = 0.0000000 0.0000000 0.0000000 field for delta impulse in time
 
  Optional k-point grid parameters
   LKPOINTS_OPT  =     F    use optional k-point grid
   KPOINTS_OPT_MODE=     1    mode for optional k-point grid
 
 Orbital magnetization related:
   ORBITALMAG=     F  switch on orbital magnetization
   LCHIMAG   =     F  perturbation theory with respect to B field
   DQ        =  0.001000  dq finite difference perturbation B field
   LLRAUG    =     F  two centre corrections for induced B field
   LBONE     =     F  B-component reconstruction in AE one-centre
   LVGVCALC  =     T  calculate vGv susceptibility
   LVGVAPPL  =     F  apply vGv susceptibility instead of pGv for G=0

 Random number generation:
   RANDOM_GENERATOR = DEFAULT
   PCG_SEED         = not used


--------------------------------------------------------------------------------------------------------


 Static calculation
 charge density and potential will be updated during run
 non-spin polarized calculation
 RMM-DIIS sequential band-by-band and
  variant of blocked Davidson during initial phase
 perform sub-space diagonalisation
    before iterative eigenvector-optimisation
 modified Broyden-mixing scheme, WC =      100.0
 initial mixing is a Kerker type mixing with AMIX =  0.4000 and BMIX =      1.0000
 Hartree-type preconditioning will be used
 using additional bands           59
 real space projection scheme for non local part
 use partial core corrections
 calculate Harris-corrections to forces 
   (improved forces if not selfconsistent)
 use gradient corrections 
 use of overlap-Matrix (Vanderbilt PP)
 Methfessel and Paxton  Order N= 1 SIGMA  =   0.10


--------------------------------------------------------------------------------------------------------


  energy-cutoff  :      680.29
  volume of cell :     1550.48
      direct lattice vectors                 reciprocal lattice vectors
     8.468310000  0.000000000  0.000000000     0.118087316 -0.068177744  0.000000000
     4.234155000  7.333771587  0.000000000     0.000000000  0.136355488  0.000000000
     0.000000000  0.000000000 24.965661990     0.000000000  0.000000000  0.040055016

  length of vectors
     8.468310000  8.468310000 24.965661990     0.136355488  0.136355488  0.040055016


 
 old parameters found on file WAVECAR:
  energy-cutoff  :      680.29
  volume of cell :     1550.48
      direct lattice vectors                 reciprocal lattice vectors
     8.468310000  0.000000000  0.000000000     0.118087316 -0.068177744  0.000000000
     4.234155000  7.333771587  0.000000000     0.000000000  0.136355488  0.000000000
     0.000000000  0.000000000 24.965661990     0.000000000  0.000000000  0.040055016

  length of vectors

 
 k-points in units of 2pi/SCALE and weight: KPOINTS created by Atomic Simulation Env
   0.00000000  0.00000000  0.00000000       0.040
   0.02361746 -0.01363555  0.00000000       0.080
   0.02361746  0.01363555  0.00000000       0.080
   0.00000000  0.02727110  0.00000000       0.080
   0.04723493 -0.02727110  0.00000000       0.080
   0.04723493  0.02727110  0.00000000       0.080
   0.00000000  0.05454220  0.00000000       0.080
   0.04723493  0.00000000  0.00000000       0.080
   0.02361746  0.04090665  0.00000000       0.080
  -0.02361746  0.04090665  0.00000000       0.080
  -0.04723493  0.05454220  0.00000000       0.080
   0.04723493 -0.08181329  0.00000000       0.080
  -0.02361746  0.06817774  0.00000000       0.080
 
 k-points in reciprocal lattice and weights: KPOINTS created by Atomic Simulation Env
   0.00000000  0.00000000  0.00000000       0.040
   0.20000000  0.00000000  0.00000000       0.080
   0.20000000  0.20000000  0.00000000       0.080
   0.00000000  0.20000000  0.00000000       0.080
   0.40000000  0.00000000  0.00000000       0.080
   0.40000000  0.40000000  0.00000000       0.080
   0.00000000  0.40000000  0.00000000       0.080
   0.40000000  0.20000000  0.00000000       0.080
   0.20000000  0.40000000  0.00000000       0.080
  -0.20000000  0.20000000  0.00000000       0.080
  -0.40000000  0.20000000  0.00000000       0.080
   0.40000000 -0.40000000  0.00000000       0.080
  -0.20000000  0.40000000  0.00000000       0.080
 
 position of ions in fractional coordinates (direct lattice) 
   0.00000000  0.00000000  0.34046764
   0.33400137  0.00000000  0.34046764
   0.66800274  0.00000000  0.34046764
   0.00000000  0.33400137  0.34046764
   0.33400137  0.33400137  0.34046764
   0.66800274  0.33400137  0.34046764
   0.00000000  0.66800274  0.34046764
   0.33400137  0.66800274  0.34046764
   0.66800274  0.66800274  0.34046764
   0.11133379  0.11133379  0.43297074
   0.44533516  0.11133379  0.43297074
   0.77933653  0.11133379  0.43297074
   0.11133379  0.44533516  0.43297074
   0.44533516  0.44533516  0.43297074
   0.77933653  0.44533516  0.43297074
   0.11133379  0.77933653  0.43297074
   0.44533516  0.77933653  0.43297074
   0.77933653  0.77933653  0.43297074
   0.89037336  0.22409505  0.52474993
   0.22296413  0.22416936  0.52512558
   0.55592876  0.22393488  0.52459042
   0.89059413  0.55678722  0.52520112
   0.22310115  0.55672361  0.52510972
   0.55681799  0.55673614  0.52412615
   0.89070729  0.88944183  0.52484336
   0.22327671  0.89033404  0.52432637
   0.55689837  0.89033192  0.52428881
   0.00144447  0.00158836  0.61785880
   0.33541969  0.99960955  0.61753463
   0.66753855  0.00174218  0.61777090
   0.99824826  0.33213557  0.61960387
   0.33991511  0.33225179  0.61943442
   0.66765719  0.33531788  0.61773080
   0.99833101  0.67391067  0.61955921
   0.33557066  0.66945088  0.61753491
   0.66547379  0.66942109  0.61748617
   0.11097465  0.44648115  0.65310330
 
 position of ions in cartesian coordinates  (Angst):
   0.00000000  0.00000000  8.50000000
   2.82842712  0.00000000  8.50000000
   5.65685425  0.00000000  8.50000000
   1.41421356  2.44948974  8.50000000
   4.24264069  2.44948974  8.50000000
   7.07106781  2.44948974  8.50000000
   2.82842712  4.89897949  8.50000000
   5.65685425  4.89897949  8.50000000
   8.48528137  4.89897949  8.50000000
   1.41421356  0.81649658 10.80940108
   4.24264069  0.81649658 10.80940108
   7.07106781  0.81649658 10.80940108
   2.82842712  3.26598632 10.80940108
   5.65685425  3.26598632 10.80940108
   8.48528137  3.26598632 10.80940108
   4.24264069  5.71547607 10.80940108
   7.07106781  5.71547607 10.80940108
   9.89949494  5.71547607 10.80940108
   8.48881086  1.64346194 13.10072944
   2.83729718  1.64400685 13.11010776
   5.65595211  1.64228729 13.09674712
   9.89935056  4.08335029 13.11199357
   4.24654374  4.08288382 13.10971172
   7.07261443  4.08297566 13.08515621
  11.30882007  6.52296324 13.10306190
   5.66058874  6.52950645 13.09015488
   8.48579137  6.52949092 13.08921722
   0.01895762  0.01164867 15.42525407
   7.07293965  7.33090811 15.41716086
   5.66030004  0.01277673 15.42305940
   9.85978922  2.43580641 15.46882072
   4.28531213  2.43665875 15.46459032
   7.07371592  2.45914472 15.42205842
  11.30761869  4.94230689 15.46770581
   5.67627519  4.90959985 15.41716785
   8.46987103  4.90938134 15.41595112
   2.83023809  3.27439076 16.30515622
 


--------------------------------------------------------------------------------------------------------


 k-point   1 :   0.0000 0.0000 0.0000  plane waves:   62399
 k-point   2 :   0.2000 0.0000 0.0000  plane waves:   62407
 k-point   3 :   0.2000 0.2000 0.0000  plane waves:   62407
 k-point   4 :   0.0000 0.2000 0.0000  plane waves:   62407
 k-point   5 :   0.4000 0.0000 0.0000  plane waves:   62451
 k-point   6 :   0.4000 0.4000 0.0000  plane waves:   62451
 k-point   7 :   0.0000 0.4000 0.0000  plane waves:   62451
 k-point   8 :   0.4000 0.2000 0.0000  plane waves:   62510
 k-point   9 :   0.2000 0.4000 0.0000  plane waves:   62510
 k-point  10 :  -0.2000 0.2000 0.0000  plane waves:   62510
 k-point  11 :  -0.4000 0.2000 0.0000  plane waves:   62498
 k-point  12 :   0.4000-0.4000 0.0000  plane waves:   62498
 k-point  13 :  -0.2000 0.4000 0.0000  plane waves:   62498

 maximum and minimum number of plane-waves per node :     62510    62399

 maximum number of plane-waves:     62510
 maximum index in each direction: 
   IXMAX=   18   IYMAX=   18   IZMAX=   53
   IXMIN=  -18   IYMIN=  -18   IZMIN=  -53


 serial   3D FFT for wavefunctions
 parallel 3D FFT for charge:
    minimum data exchange during FFTs selected (reduces bandwidth)


 total amount of memory used by VASP MPI-rank0   148539. kBytes
=======================================================================

   base      :      30000. kBytes
   nonlr-proj:      22466. kBytes
   fftplans  :       5213. kBytes
   grid      :      24541. kBytes
   one-center:        575. kBytes
   wavefun   :      65744. kBytes
 
     INWAV:  cpu time      7.2743: real time     13.1260
 Broyden mixing: mesh for mixing (old mesh)
   NGX = 37   NGY = 37   NGZ =107
  (NGX  =108   NGY  =108   NGZ  =320)
  gives a total of 146483 points

 charge density for first step will be calculated from the start-wavefunctions


--------------------------------------------------------------------------------------------------------


 Maximum index for non-local projection operator         3550
 Maximum index for augmentation-charges         1167 (set IRDMAX)


--------------------------------------------------------------------------------------------------------


 initial charge from wavefunction
 First call to EWALD:  gamma=   0.153
 Maximum number of real-space cells 4x 4x 2
 Maximum number of reciprocal cells 2x 2x 5

    FEWALD:  cpu time      0.0278: real time      0.0279


--------------------------------------- Ionic step        1  -------------------------------------------




--------------------------------------- Iteration      1(   1)  ---------------------------------------


vdW kernel read from vdw_kernel.bindat
  0.0000  0.2424  0.5071  0.7962  1.1119  1.4567  1.8333  2.2446  2.6937  3.1842
  3.7199  4.3049  4.9438  5.6415  6.4036  7.2358  8.1446  9.1372 10.2212 11.4050
 12.6979 14.1099 15.6519 17.3360 19.1751 21.1837 23.3773 25.7729 28.3892 31.2465
 34.3669 37.7748 41.4965 45.5611 50.0000
 
    POTLOK:  cpu time      2.9315: real time      2.9593
    SETDIJ:  cpu time      0.0056: real time      0.0056
     EDDAV:  cpu time     14.6955: real time     14.8464
       DOS:  cpu time      0.0010: real time      0.0010
    CHARGE:  cpu time      0.7552: real time      0.7610
    MIXING:  cpu time      0.0032: real time      0.0032
    --------------------------------------------
      LOOP:  cpu time     18.3920: real time     18.5765

 eigenvalue-minimisations  :  6240
 total energy-change (2. order) :-0.1046002E+03  (-0.6529381E-03)
 number of electron     360.9999937 magnetization 
 augmentation part      114.1823925 magnetization 

 Broyden mixing:
  rms(total) = 0.20557E-01    rms(broyden)= 0.20557E-01
  rms(prec ) = 0.27744E-01
  weight for this iteration     100.00

 Free energy of the ion-electron system (eV)
  ---------------------------------------------------
  alpha Z        PSCENC =       797.33612757
  Ewald energy   TEWEN  =    132307.57818638
  -Hartree energ DENC   =   -159706.85165489
  -exchange      EXHF   =         0.00000000
  -V(xc)+E(xc)   XCENC  =        89.77820574
  PAW double counting   =     32186.38523759   -31188.50212492
  entropy T*S    EENTRO =        -0.09851802
  eigenvalues    EBANDS =     -1087.02885336
  atomic energy  EATOM  =     26496.80315902
  Solvation  Ediel_sol  =         0.00000000
  ---------------------------------------------------
  free energy    TOTEN  =      -104.60023488 eV

  energy without entropy =     -104.50171686  energy(sigma->0) =     -104.56739554


--------------------------------------------------------------------------------------------------------




--------------------------------------- Iteration      1(   2)  ---------------------------------------


    POTLOK:  cpu time      2.2807: real time      2.2938
    SETDIJ:  cpu time      0.0081: real time      0.0082
    EDDIAG:  cpu time      2.7983: real time      2.8202
  RMM-DIIS:  cpu time      8.2490: real time      8.3096
    ORTHCH:  cpu time      0.6271: real time      0.6320
       DOS:  cpu time      0.0012: real time      0.0012
    CHARGE:  cpu time      0.7650: real time      0.7718
    MIXING:  cpu time      0.0026: real time      0.0026
    --------------------------------------------
      LOOP:  cpu time     14.7320: real time     14.8394

 eigenvalue-minimisations  :  6643
 total energy-change (2. order) :-0.2214236E-01  (-0.5703617E-03)
 number of electron     360.9999936 magnetization 
 augmentation part      114.1929549 magnetization 

 Broyden mixing:
  rms(total) = 0.16508E+00    rms(broyden)= 0.16508E+00
  rms(prec ) = 0.23330E+00
  weight for this iteration     100.00

 eigenvalues of (default mixing * dielectric matrix)
  average eigenvalue GAMMA=   0.1007
  0.1007

 Free energy of the ion-electron system (eV)
  ---------------------------------------------------
  alpha Z        PSCENC =       797.33612757
  Ewald energy   TEWEN  =    132307.57818638
  -Hartree energ DENC   =   -159704.42026844
  -exchange      EXHF   =         0.00000000
  -V(xc)+E(xc)   XCENC  =        89.78155401
  PAW double counting   =     32185.62936457   -31187.75080488
  entropy T*S    EENTRO =        -0.09858979
  eigenvalues    EBANDS =     -1089.48110569
  atomic energy  EATOM  =     26496.80315902
  Solvation  Ediel_sol  =         0.00000000
  ---------------------------------------------------
  free energy    TOTEN  =      -104.62237725 eV

  energy without entropy =     -104.52378746  energy(sigma->0) =     -104.58951398


--------------------------------------------------------------------------------------------------------




--------------------------------------- Iteration      1(   3)  ---------------------------------------


    POTLOK:  cpu time      2.3543: real time      2.4003
    SETDIJ:  cpu time      0.0045: real time      0.0045
    EDDIAG:  cpu time      2.8038: real time      2.8235
  RMM-DIIS:  cpu time      8.3591: real time      8.4147
    ORTHCH:  cpu time      0.6102: real time      0.6152
       DOS:  cpu time      0.0012: real time      0.0012
    CHARGE:  cpu time      0.7729: real time      0.7784
    MIXING:  cpu time      0.0020: real time      0.0020
    --------------------------------------------
      LOOP:  cpu time     14.9080: real time     15.0397

 eigenvalue-minimisations  :  6577
 total energy-change (2. order) : 0.2130522E-01  (-0.2913202E-03)
 number of electron     360.9999937 magnetization 
 augmentation part      114.1884364 magnetization 

 Broyden mixing:
  rms(total) = 0.39007E-01    rms(broyden)= 0.39007E-01
  rms(prec ) = 0.47196E-01
  weight for this iteration     100.00

 eigenvalues of (default mixing * dielectric matrix)
  average eigenvalue GAMMA=   0.1398
  0.1862  0.0933

 Free energy of the ion-electron system (eV)
  ---------------------------------------------------
  alpha Z        PSCENC =       797.33612757
  Ewald energy   TEWEN  =    132307.57818638
  -Hartree energ DENC   =   -159705.10464261
  -exchange      EXHF   =         0.00000000
  -V(xc)+E(xc)   XCENC  =        89.77950009
  PAW double counting   =     32185.87666130   -31187.99638644
  entropy T*S    EENTRO =        -0.09893331
  eigenvalues    EBANDS =     -1088.77474403
  atomic energy  EATOM  =     26496.80315902
  Solvation  Ediel_sol  =         0.00000000
  ---------------------------------------------------
  free energy    TOTEN  =      -104.60107202 eV

  energy without entropy =     -104.50213872  energy(sigma->0) =     -104.56809425


--------------------------------------------------------------------------------------------------------




--------------------------------------- Iteration      1(   4)  ---------------------------------------


    POTLOK:  cpu time      2.3209: real time      2.3351
    SETDIJ:  cpu time      0.0043: real time      0.0044
    EDDIAG:  cpu time      2.8056: real time      2.8352
  RMM-DIIS:  cpu time      8.5312: real time      8.5929
    ORTHCH:  cpu time      0.7008: real time      0.7069
       DOS:  cpu time      0.0011: real time      0.0011
    CHARGE:  cpu time      0.7528: real time      0.7585
    MIXING:  cpu time      0.0021: real time      0.0021
    --------------------------------------------
      LOOP:  cpu time     15.1189: real time     15.2362

 eigenvalue-minimisations  :  6747
 total energy-change (2. order) : 0.1289004E-02  (-0.5600113E-04)
 number of electron     360.9999937 magnetization 
 augmentation part      114.1865423 magnetization 

 Broyden mixing:
  rms(total) = 0.61629E-02    rms(broyden)= 0.61629E-02
  rms(prec ) = 0.80466E-02
  weight for this iteration     100.00

 eigenvalues of (default mixing * dielectric matrix)
  average eigenvalue GAMMA=   0.2796
  0.5281  0.2235  0.0870

 Free energy of the ion-electron system (eV)
  ---------------------------------------------------
  alpha Z        PSCENC =       797.33612757
  Ewald energy   TEWEN  =    132307.57818638
  -Hartree energ DENC   =   -159705.78745724
  -exchange      EXHF   =         0.00000000
  -V(xc)+E(xc)   XCENC  =        89.77731624
  PAW double counting   =     32186.10617283   -31188.22601247
  entropy T*S    EENTRO =        -0.09868122
  eigenvalues    EBANDS =     -1088.08859412
  atomic energy  EATOM  =     26496.80315902
  Solvation  Ediel_sol  =         0.00000000
  ---------------------------------------------------
  free energy    TOTEN  =      -104.59978302 eV

  energy without entropy =     -104.50110180  energy(sigma->0) =     -104.56688928


--------------------------------------------------------------------------------------------------------




--------------------------------------- Iteration      1(   5)  ---------------------------------------


    POTLOK:  cpu time      2.2980: real time      2.3349
    SETDIJ:  cpu time      0.0043: real time      0.0043
    EDDIAG:  cpu time      2.8043: real time      2.8245
  RMM-DIIS:  cpu time      8.6892: real time      8.7462
    ORTHCH:  cpu time      0.6272: real time      0.6329
       DOS:  cpu time      0.0011: real time      0.0011
    CHARGE:  cpu time      0.7562: real time      0.7615
    MIXING:  cpu time      0.0022: real time      0.0022
    --------------------------------------------
      LOOP:  cpu time     15.1825: real time     15.3076

 eigenvalue-minimisations  :  6709
 total energy-change (2. order) : 0.1825222E-04  (-0.9362669E-05)
 number of electron     360.9999937 magnetization 
 augmentation part      114.1866401 magnetization 

 Broyden mixing:
  rms(total) = 0.45989E-02    rms(broyden)= 0.45989E-02
  rms(prec ) = 0.53373E-02
  weight for this iteration     100.00

 eigenvalues of (default mixing * dielectric matrix)
  average eigenvalue GAMMA=   0.4052
  0.9986  0.0876  0.2064  0.3283

 Free energy of the ion-electron system (eV)
  ---------------------------------------------------
  alpha Z        PSCENC =       797.33612757
  Ewald energy   TEWEN  =    132307.57818638
  -Hartree energ DENC   =   -159705.70578597
  -exchange      EXHF   =         0.00000000
  -V(xc)+E(xc)   XCENC  =        89.77737675
  PAW double counting   =     32186.13114568   -31188.24994509
  entropy T*S    EENTRO =        -0.09874260
  eigenvalues    EBANDS =     -1088.17128651
  atomic energy  EATOM  =     26496.80315902
  Solvation  Ediel_sol  =         0.00000000
  ---------------------------------------------------
  free energy    TOTEN  =      -104.59976477 eV

  energy without entropy =     -104.50102217  energy(sigma->0) =     -104.56685057


--------------------------------------------------------------------------------------------------------




--------------------------------------- Iteration      1(   6)  ---------------------------------------


    POTLOK:  cpu time      2.3876: real time      2.4016
    SETDIJ:  cpu time      0.0053: real time      0.0053
    EDDIAG:  cpu time      2.8553: real time      2.8825
  RMM-DIIS:  cpu time      7.1570: real time      7.2045
    ORTHCH:  cpu time      0.6070: real time      0.6148
       DOS:  cpu time      0.0012: real time      0.0012
    CHARGE:  cpu time      0.7505: real time      0.7563
    MIXING:  cpu time      0.0043: real time      0.0043
    --------------------------------------------
      LOOP:  cpu time     13.7682: real time     13.8704

 eigenvalue-minimisations  :  5003
 total energy-change (2. order) : 0.1402959E-04  (-0.2493064E-05)
 number of electron     360.9999937 magnetization 
 augmentation part      114.1864587 magnetization 

 Broyden mixing:
  rms(total) = 0.15733E-02    rms(broyden)= 0.15733E-02
  rms(prec ) = 0.16742E-02
  weight for this iteration     100.00

 eigenvalues of (default mixing * dielectric matrix)
  average eigenvalue GAMMA=   0.5411
  1.3155  0.8133  0.0875  0.2094  0.2797

 Free energy of the ion-electron system (eV)
  ---------------------------------------------------
  alpha Z        PSCENC =       797.33612757
  Ewald energy   TEWEN  =    132307.57818638
  -Hartree energ DENC   =   -159705.69839982
  -exchange      EXHF   =         0.00000000
  -V(xc)+E(xc)   XCENC  =        89.77730711
  PAW double counting   =     32186.16785515   -31188.28543666
  entropy T*S    EENTRO =        -0.09870005
  eigenvalues    EBANDS =     -1088.17984944
  atomic energy  EATOM  =     26496.80315902
  Solvation  Ediel_sol  =         0.00000000
  ---------------------------------------------------
  free energy    TOTEN  =      -104.59975074 eV

  energy without entropy =     -104.50105068  energy(sigma->0) =     -104.56685072


--------------------------------------------------------------------------------------------------------




--------------------------------------- Iteration      1(   7)  ---------------------------------------


    POTLOK:  cpu time      2.3957: real time      2.4103
    SETDIJ:  cpu time      0.0045: real time      0.0045
    EDDIAG:  cpu time      2.8057: real time      2.8355
  RMM-DIIS:  cpu time      6.5320: real time      6.5746
    ORTHCH:  cpu time      0.4471: real time      0.4506
       DOS:  cpu time      0.0010: real time      0.0010
    --------------------------------------------
      LOOP:  cpu time     12.1861: real time     12.2765

 eigenvalue-minimisations  :  4300
 total energy-change (2. order) :-0.2840883E-05  (-0.8349975E-06)
 number of electron     360.9999937 magnetization 
 augmentation part      114.1864587 magnetization 

 Free energy of the ion-electron system (eV)
  ---------------------------------------------------
  alpha Z        PSCENC =       797.33612757
  Ewald energy   TEWEN  =    132307.57818638
  -Hartree energ DENC   =   -159705.69338492
  -exchange      EXHF   =         0.00000000
  -V(xc)+E(xc)   XCENC  =        89.77722747
  PAW double counting   =     32186.22355680   -31188.34003972
  entropy T*S    EENTRO =        -0.09869164
  eigenvalues    EBANDS =     -1088.18589454
  atomic energy  EATOM  =     26496.80315902
  Solvation  Ediel_sol  =         0.00000000
  ---------------------------------------------------
  free energy    TOTEN  =      -104.59975358 eV

  energy without entropy =     -104.50106194  energy(sigma->0) =     -104.56685637


--------------------------------------------------------------------------------------------------------




 average (electrostatic) potential at core
  the test charge radii are     1.2059  0.5201
  (the norm of the test charge is              1.0000)
       1 -73.5436       2 -73.5356       3 -73.5394       4 -73.5366       5 -73.5245
       6 -73.5272       7 -73.5450       8 -73.5316       9 -73.5396      10 -73.9827
      11 -73.9791      12 -73.9346      13 -73.9690      14 -73.9750      15 -73.9815
      16 -73.9857      17 -73.9953      18 -73.9883      19 -73.9544      20 -73.9289
      21 -73.9538      22 -73.9340      23 -73.9307      24 -73.9752      25 -73.9570
      26 -73.9736      27 -73.9760      28 -73.5585      29 -73.5347      30 -73.5587
      31 -73.5940      32 -73.5895      33 -73.5598      34 -73.5912      35 -73.5333
      36 -73.5339      37 -38.4886
 
 
 
 E-fermi :  -0.0735     XC(G=0):  -5.8688     alpha+bet : -5.8354

 Fermi energy:        -0.0734709970

 k-point     1 :       0.0000    0.0000    0.0000
  band No.  band energies     occupation 
      1      -8.9121      2.00000
      2      -7.8803      2.00000
      3      -7.1625      2.00000
      4      -6.5037      2.00000
      5      -6.4688      2.00000
      6      -6.4639      2.00000
      7      -6.4605      2.00000
      8      -6.4379      2.00000
      9      -6.4327      2.00000
     10      -6.4318      2.00000
     11      -6.1459      2.00000
     12      -5.9196      2.00000
     13      -5.9157      2.00000
     14      -5.9104      2.00000
     15      -5.9063      2.00000
     16      -5.9031      2.00000
     17      -5.8213      2.00000
     18      -5.4788      2.00000
     19      -5.4755      2.00000
     20      -5.4528      2.00000
     21      -5.4493      2.00000
     22      -5.4391      2.00000
     23      -5.3557      2.00000
     24      -5.2345      2.00000
     25      -5.2319      2.00000
     26      -5.2232      2.00000
     27      -5.2208      2.00000
     28      -5.2167      2.00000
     29      -5.1264      2.00000
     30      -5.0465      2.00000
     31      -5.0376      2.00000
     32      -5.0256      2.00000
     33      -5.0178      2.00000
     34      -5.0060      2.00000
     35      -4.9704      2.00000
     36      -4.9604      2.00000
     37      -4.9548      2.00000
     38      -4.9530      2.00000
     39      -4.9176      2.00000
     40      -4.9167      2.00000
     41      -4.5648      2.00000
     42      -4.3831      2.00000
     43      -4.3807      2.00000
     44      -4.3522      2.00000
     45      -4.3366      2.00000
     46      -4.3228      2.00000
     47      -4.3180      2.00000
     48      -4.2957      2.00000
     49      -4.2928      2.00000
     50      -4.2862      2.00000
     51      -4.1353      2.00000
     52      -4.1350      2.00000
     53      -4.0426      2.00000
     54      -4.0357      2.00000
     55      -4.0348      2.00000
     56      -3.5830      2.00000
     57      -3.5797      2.00000
     58      -3.5707      2.00000
     59      -3.5601      2.00000
     60      -3.5579      2.00000
     61      -3.5013      2.00000
     62      -3.4629      2.00000
     63      -3.3875      2.00000
     64      -3.3846      2.00000
     65      -3.3727      2.00000
     66      -3.3720      2.00000
     67      -3.3646      2.00000
     68      -3.3551      2.00000
     69      -3.3456      2.00000
     70      -3.3161      2.00000
     71      -3.3132      2.00000
     72      -3.3088      2.00000
     73      -3.3028      2.00000
     74      -3.3010      2.00000
     75      -3.2709      2.00000
     76      -3.2601      2.00000
     77      -3.2595      2.00000
     78      -3.1543      2.00000
     79      -3.1503      2.00000
     80      -3.1484      2.00000
     81      -3.1422      2.00000
     82      -3.1373      2.00000
     83      -3.1346      2.00000
     84      -2.9437      2.00000
     85      -2.9423      2.00000
     86      -2.9397      2.00000
     87      -2.9244      2.00000
     88      -2.9199      2.00000
     89      -2.9071      2.00000
     90      -2.9004      2.00000
     91      -2.8919      2.00000
     92      -2.8365      2.00000
     93      -2.8363      2.00000
     94      -2.7685      2.00000
     95      -2.7560      2.00000
     96      -2.7557      2.00000
     97      -2.7244      2.00000
     98      -2.7238      2.00000
     99      -2.6942      2.00000
    100      -2.6890      2.00000
    101      -2.6286      2.00000
    102      -2.5220      2.00000
    103      -2.5182      2.00000
    104      -2.5130      2.00000
    105      -2.5067      2.00000
    106      -2.5024      2.00000
    107      -2.5002      2.00000
    108      -2.2782      2.00000
    109      -2.0154      2.00000
    110      -2.0140      2.00000
    111      -1.9986      2.00000
    112      -1.9881      2.00000
    113      -1.9871      2.00000
    114      -1.9775      2.00000
    115      -1.9772      2.00000
    116      -1.9738      2.00000
    117      -1.9631      2.00000
    118      -1.9619      2.00000
    119      -1.9460      2.00000
    120      -1.8648      2.00000
    121      -1.8642      2.00000
    122      -1.8085      2.00000
    123      -1.7341      2.00000
    124      -1.7330      2.00000
    125      -1.7278      2.00000
    126      -1.7272      2.00000
    127      -1.7082      2.00000
    128      -1.5996      2.00000
    129      -1.5886      2.00000
    130      -1.5377      2.00000
    131      -1.5377      2.00000
    132      -1.5141      2.00000
    133      -1.4993      2.00000
    134      -1.2810      2.00000
    135      -1.2790      2.00000
    136      -1.2738      2.00000
    137      -1.2582      2.00000
    138      -1.2534      2.00000
    139      -1.2503      2.00000
    140      -1.1801      2.00000
    141      -1.1786      2.00000
    142      -1.0461      2.00000
    143      -1.0442      2.00000
    144      -1.0298      2.00000
    145      -1.0258      2.00000
    146      -1.0230      2.00000
    147      -1.0200      2.00000
    148      -0.8914      2.00000
    149      -0.8886      2.00000
    150      -0.8599      2.00000
    151      -0.8554      2.00000
    152      -0.8302      2.00000
    153      -0.8253      2.00000
    154      -0.8240      2.00000
    155      -0.8113      2.00000
    156      -0.8105      2.00000
    157      -0.8020      2.00000
    158      -0.8011      2.00000
    159      -0.7960      2.00000
    160      -0.7313      2.00000
    161      -0.7154      2.00000
    162      -0.7145      2.00000
    163      -0.6745      2.00000
    164      -0.6727      2.00000
    165      -0.6523      2.00000
    166      -0.6494      2.00000
    167      -0.6434      2.00000
    168      -0.6048      2.00000
    169      -0.5945      2.00000
    170      -0.5822      2.00000
    171      -0.5532      2.00000
    172      -0.5468      2.00000
    173      -0.5442      2.00000
    174      -0.5388      2.00000
    175      -0.5363      2.00000
    176      -0.4578      2.00000
    177      -0.4478      2.00000
    178      -0.4428      2.00000
    179      -0.4375      2.00000
    180      -0.4336      2.00000
    181      -0.4289      2.00001
    182      -0.3748      2.00017
    183      -0.3412      2.00101
    184      -0.3392      2.00111
    185      -0.3203      2.00267
    186      -0.3183      2.00291
    187      -0.3126      2.00372
    188      -0.3046      2.00516
    189      -0.1132      1.61721
    190      -0.1051      1.50662
    191      -0.0151      0.17490
    192      -0.0127      0.15308
    193      -0.0102      0.13210
    194       0.0074      0.01554
    195       0.0085      0.01016
    196       0.0106      0.00068
    197       0.5611     -0.00000
    198       0.8214     -0.00000
    199       0.8563     -0.00000
    200       0.8592     -0.00000
    201       0.8970     -0.00000
    202       0.8979     -0.00000
    203       0.9053     -0.00000
    204       2.9218      0.00000
    205       3.1376      0.00000
    206       3.1426      0.00000
    207       3.2117      0.00000
    208       3.2142      0.00000
    209       3.2183      0.00000
    210       4.7129      0.00000
    211       4.7134      0.00000
    212       4.7637      0.00000
    213       4.8176      0.00000
    214       4.8191      0.00000
    215       4.8238      0.00000
    216       4.9250      0.00000
    217       5.1087      0.00000
    218       5.3386      0.00000
    219       5.4385      0.00000
    220       5.4401      0.00000
    221       5.7959      0.00000
    222       5.8013      0.00000
    223       5.8529      0.00000
    224       5.8627      0.00000
    225       5.8683      0.00000
    226       6.1465      0.00000
    227       6.3653      0.00000
    228       6.6000      0.00000
    229       6.6008      0.00000
    230       6.6225      0.00000
    231       6.8579      0.00000
    232       7.0637      0.00000
    233       7.1446      0.00000
    234       7.1459      0.00000
    235       7.1629      0.00000
    236       7.1720      0.00000
    237       7.1727      0.00000
    238       7.2699      0.00000
    239       7.2709      0.00000
    240       7.3233      0.00000

 k-point     2 :       0.2000    0.0000    0.0000
  band No.  band energies     occupation 
      1      -8.7648      2.00000
      2      -7.7724      2.00000
      3      -7.1086      2.00000
      4      -6.9258      2.00000
      5      -6.5647      2.00000
      6      -6.5519      2.00000
      7      -6.3605      2.00000
      8      -6.2688      2.00000
      9      -6.2227      2.00000
     10      -6.2161      2.00000
     11      -6.1220      2.00000
     12      -6.0042      2.00000
     13      -5.9553      2.00000
     14      -5.8485      2.00000
     15      -5.8402      2.00000
     16      -5.8290      2.00000
     17      -5.7536      2.00000
     18      -5.5371      2.00000
     19      -5.4234      2.00000
     20      -5.4202      2.00000
     21      -5.4135      2.00000
     22      -5.3784      2.00000
     23      -5.3409      2.00000
     24      -5.3053      2.00000
     25      -5.2798      2.00000
     26      -5.2419      2.00000
     27      -5.2216      2.00000
     28      -5.2148      2.00000
     29      -5.1433      2.00000
     30      -5.1173      2.00000
     31      -5.1102      2.00000
     32      -5.0367      2.00000
     33      -5.0222      2.00000
     34      -5.0139      2.00000
     35      -5.0111      2.00000
     36      -4.8589      2.00000
     37      -4.8167      2.00000
     38      -4.7827      2.00000
     39      -4.7756      2.00000
     40      -4.7554      2.00000
     41      -4.5688      2.00000
     42      -4.4983      2.00000
     43      -4.4935      2.00000
     44      -4.4460      2.00000
     45      -4.4170      2.00000
     46      -4.4031      2.00000
     47      -4.3906      2.00000
     48      -4.2913      2.00000
     49      -4.2161      2.00000
     50      -4.1527      2.00000
     51      -4.1266      2.00000
     52      -4.1136      2.00000
     53      -4.0675      2.00000
     54      -4.0477      2.00000
     55      -3.9831      2.00000
     56      -3.8317      2.00000
     57      -3.7363      2.00000
     58      -3.7305      2.00000
     59      -3.6825      2.00000
     60      -3.6732      2.00000
     61      -3.6394      2.00000
     62      -3.5842      2.00000
     63      -3.5664      2.00000
     64      -3.5581      2.00000
     65      -3.5279      2.00000
     66      -3.5259      2.00000
     67      -3.4558      2.00000
     68      -3.4365      2.00000
     69      -3.3989      2.00000
     70      -3.3780      2.00000
     71      -3.3638      2.00000
     72      -3.3160      2.00000
     73      -3.2708      2.00000
     74      -3.2634      2.00000
     75      -3.2594      2.00000
     76      -3.1820      2.00000
     77      -3.1767      2.00000
     78      -3.1642      2.00000
     79      -3.1300      2.00000
     80      -3.0890      2.00000
     81      -3.0757      2.00000
     82      -3.0662      2.00000
     83      -3.0335      2.00000
     84      -3.0200      2.00000
     85      -2.9690      2.00000
     86      -2.9565      2.00000
     87      -2.9389      2.00000
     88      -2.9368      2.00000
     89      -2.9198      2.00000
     90      -2.9094      2.00000
     91      -2.8609      2.00000
     92      -2.8388      2.00000
     93      -2.7979      2.00000
     94      -2.7908      2.00000
     95      -2.7751      2.00000
     96      -2.7660      2.00000
     97      -2.7582      2.00000
     98      -2.7343      2.00000
     99      -2.6984      2.00000
    100      -2.6903      2.00000
    101      -2.6141      2.00000
    102      -2.5663      2.00000
    103      -2.5577      2.00000
    104      -2.5221      2.00000
    105      -2.5121      2.00000
    106      -2.5032      2.00000
    107      -2.4960      2.00000
    108      -2.4938      2.00000
    109      -2.4486      2.00000
    110      -2.4392      2.00000
    111      -2.4289      2.00000
    112      -2.4172      2.00000
    113      -2.1859      2.00000
    114      -2.0763      2.00000
    115      -2.0278      2.00000
    116      -2.0063      2.00000
    117      -1.9926      2.00000
    118      -1.9880      2.00000
    119      -1.9870      2.00000
    120      -1.9454      2.00000
    121      -1.9366      2.00000
    122      -1.8946      2.00000
    123      -1.8088      2.00000
    124      -1.7801      2.00000
    125      -1.7047      2.00000
    126      -1.6529      2.00000
    127      -1.6510      2.00000
    128      -1.5986      2.00000
    129      -1.5886      2.00000
    130      -1.5785      2.00000
    131      -1.5429      2.00000
    132      -1.5335      2.00000
    133      -1.5303      2.00000
    134      -1.4468      2.00000
    135      -1.3988      2.00000
    136      -1.3942      2.00000
    137      -1.3841      2.00000
    138      -1.3797      2.00000
    139      -1.2285      2.00000
    140      -1.2041      2.00000
    141      -1.1673      2.00000
    142      -1.1645      2.00000
    143      -1.1501      2.00000
    144      -1.1475      2.00000
    145      -1.1247      2.00000
    146      -1.0569      2.00000
    147      -1.0347      2.00000
    148      -1.0068      2.00000
    149      -0.9895      2.00000
    150      -0.9807      2.00000
    151      -0.9309      2.00000
    152      -0.9229      2.00000
    153      -0.9047      2.00000
    154      -0.9040      2.00000
    155      -0.8133      2.00000
    156      -0.7944      2.00000
    157      -0.7682      2.00000
    158      -0.7645      2.00000
    159      -0.7233      2.00000
    160      -0.6727      2.00000
    161      -0.6560      2.00000
    162      -0.6114      2.00000
    163      -0.6076      2.00000
    164      -0.5925      2.00000
    165      -0.5620      2.00000
    166      -0.5430      2.00000
    167      -0.4825      2.00000
    168      -0.4760      2.00000
    169      -0.4119      2.00002
    170      -0.4068      2.00003
    171      -0.3876      2.00008
    172      -0.3861      2.00009
    173      -0.3595      2.00040
    174      -0.3504      2.00064
    175      -0.3471      2.00076
    176      -0.3359      2.00130
    177      -0.3281      2.00188
    178      -0.2713      2.01712
    179      -0.2678      2.01911
    180      -0.1250      1.75714
    181      -0.1217      1.72079
    182      -0.1022      1.46496
    183      -0.0859      1.20845
    184      -0.0704      0.94807
    185      -0.0661      0.87480
    186      -0.0375      0.43242
    187      -0.0185      0.20726
    188      -0.0045      0.08778
    189       0.0049      0.02830
    190       0.0853     -0.04731
    191       0.1004     -0.03381
    192       0.1301     -0.01422
    193       0.1887     -0.00132
    194       0.2926     -0.00000
    195       0.3029     -0.00000
    196       0.3132     -0.00000
    197       0.3593     -0.00000
    198       0.7063     -0.00000
    199       0.7461     -0.00000
    200       1.2732     -0.00000
    201       1.4602     -0.00000
    202       1.4808     -0.00000
    203       1.5982     -0.00000
    204       2.4113     -0.00000
    205       2.8451      0.00000
    206       2.9065      0.00000
    207       3.5763      0.00000
    208       3.6504      0.00000
    209       3.6720      0.00000
    210       3.7407      0.00000
    211       3.9759      0.00000
    212       4.4566      0.00000
    213       4.6072      0.00000
    214       4.7634      0.00000
    215       4.9729      0.00000
    216       4.9872      0.00000
    217       5.0211      0.00000
    218       5.2366      0.00000
    219       5.3444      0.00000
    220       5.4628      0.00000
    221       5.6450      0.00000
    222       5.7062      0.00000
    223       5.8616      0.00000
    224       5.8817      0.00000
    225       6.0697      0.00000
    226       6.2205      0.00000
    227       6.2697      0.00000
    228       6.3353      0.00000
    229       6.3511      0.00000
    230       6.5404      0.00000
    231       6.6973      0.00000
    232       6.7678      0.00000
    233       6.7980      0.00000
    234       6.8300      0.00000
    235       6.9521      0.00000
    236       7.0694      0.00000
    237       7.2570      0.00000
    238       7.4757      0.00000
    239       7.5857      0.00000
    240       7.6234      0.00000

 k-point     3 :       0.2000    0.2000    0.0000
  band No.  band energies     occupation 
      1      -8.7648      2.00000
      2      -7.7721      2.00000
      3      -7.1070      2.00000
      4      -6.9297      2.00000
      5      -6.5632      2.00000
      6      -6.5503      2.00000
      7      -6.3607      2.00000
      8      -6.2715      2.00000
      9      -6.2205      2.00000
     10      -6.2153      2.00000
     11      -6.1213      2.00000
     12      -6.0027      2.00000
     13      -5.9589      2.00000
     14      -5.8471      2.00000
     15      -5.8421      2.00000
     16      -5.8312      2.00000
     17      -5.7520      2.00000
     18      -5.5361      2.00000
     19      -5.4232      2.00000
     20      -5.4200      2.00000
     21      -5.4131      2.00000
     22      -5.3794      2.00000
     23      -5.3405      2.00000
     24      -5.3072      2.00000
     25      -5.2793      2.00000
     26      -5.2414      2.00000
     27      -5.2212      2.00000
     28      -5.2167      2.00000
     29      -5.1426      2.00000
     30      -5.1173      2.00000
     31      -5.1102      2.00000
     32      -5.0397      2.00000
     33      -5.0231      2.00000
     34      -5.0125      2.00000
     35      -5.0111      2.00000
     36      -4.8580      2.00000
     37      -4.8171      2.00000
     38      -4.7819      2.00000
     39      -4.7761      2.00000
     40      -4.7529      2.00000
     41      -4.5703      2.00000
     42      -4.4966      2.00000
     43      -4.4913      2.00000
     44      -4.4455      2.00000
     45      -4.4180      2.00000
     46      -4.4027      2.00000
     47      -4.3908      2.00000
     48      -4.2906      2.00000
     49      -4.2149      2.00000
     50      -4.1538      2.00000
     51      -4.1264      2.00000
     52      -4.1143      2.00000
     53      -4.0678      2.00000
     54      -4.0485      2.00000
     55      -3.9842      2.00000
     56      -3.8285      2.00000
     57      -3.7366      2.00000
     58      -3.7312      2.00000
     59      -3.6793      2.00000
     60      -3.6705      2.00000
     61      -3.6377      2.00000
     62      -3.5809      2.00000
     63      -3.5698      2.00000
     64      -3.5595      2.00000
     65      -3.5286      2.00000
     66      -3.5275      2.00000
     67      -3.4550      2.00000
     68      -3.4374      2.00000
     69      -3.3951      2.00000
     70      -3.3763      2.00000
     71      -3.3634      2.00000
     72      -3.3160      2.00000
     73      -3.2760      2.00000
     74      -3.2670      2.00000
     75      -3.2654      2.00000
     76      -3.1821      2.00000
     77      -3.1751      2.00000
     78      -3.1633      2.00000
     79      -3.1309      2.00000
     80      -3.0877      2.00000
     81      -3.0692      2.00000
     82      -3.0637      2.00000
     83      -3.0387      2.00000
     84      -3.0192      2.00000
     85      -2.9692      2.00000
     86      -2.9556      2.00000
     87      -2.9389      2.00000
     88      -2.9373      2.00000
     89      -2.9189      2.00000
     90      -2.9103      2.00000
     91      -2.8597      2.00000
     92      -2.8392      2.00000
     93      -2.7991      2.00000
     94      -2.7900      2.00000
     95      -2.7749      2.00000
     96      -2.7679      2.00000
     97      -2.7576      2.00000
     98      -2.7341      2.00000
     99      -2.6992      2.00000
    100      -2.6923      2.00000
    101      -2.6144      2.00000
    102      -2.5668      2.00000
    103      -2.5569      2.00000
    104      -2.5220      2.00000
    105      -2.5143      2.00000
    106      -2.5033      2.00000
    107      -2.4959      2.00000
    108      -2.4920      2.00000
    109      -2.4486      2.00000
    110      -2.4354      2.00000
    111      -2.4298      2.00000
    112      -2.4195      2.00000
    113      -2.1833      2.00000
    114      -2.0740      2.00000
    115      -2.0284      2.00000
    116      -2.0065      2.00000
    117      -1.9944      2.00000
    118      -1.9910      2.00000
    119      -1.9852      2.00000
    120      -1.9455      2.00000
    121      -1.9380      2.00000
    122      -1.8940      2.00000
    123      -1.8087      2.00000
    124      -1.7819      2.00000
    125      -1.7063      2.00000
    126      -1.6543      2.00000
    127      -1.6522      2.00000
    128      -1.5938      2.00000
    129      -1.5873      2.00000
    130      -1.5837      2.00000
    131      -1.5447      2.00000
    132      -1.5336      2.00000
[...]
    148      -1.1031      2.00000
    149      -1.1000      2.00000
    150      -1.0735      2.00000
    151      -1.0701      2.00000
    152      -1.0374      2.00000
    153      -1.0268      2.00000
    154      -0.8907      2.00000
    155      -0.8520      2.00000
    156      -0.7978      2.00000
    157      -0.7395      2.00000
    158      -0.7093      2.00000
    159      -0.6290      2.00000
    160      -0.6165      2.00000
    161      -0.5831      2.00000
    162      -0.5124      2.00000
    163      -0.5083      2.00000
    164      -0.4908      2.00000
    165      -0.4008      2.00004
    166      -0.3898      2.00007
    167      -0.3092      2.00428
    168      -0.2999      2.00623
    169      -0.2864      2.01030
    170      -0.2686      2.01863
    171      -0.2671      2.01956
    172      -0.2336      2.04602
    173      -0.2179      2.06014
    174      -0.1762      2.05553
    175      -0.1129      1.61325
    176      -0.1078      1.54428
    177      -0.0793      1.09922
    178      -0.0604      0.78061
    179      -0.0584      0.74799
    180      -0.0504      0.62057
    181      -0.0411      0.48311
    182       0.0252     -0.04749
    183       0.1140     -0.02347
    184       0.1544     -0.00587
    185       0.1642     -0.00395
    186       0.1665     -0.00358
    187       0.1750     -0.00248
    188       0.2276     -0.00018
    189       0.2777     -0.00001
    190       0.3558     -0.00000
    191       0.4464     -0.00000
    192       1.2350     -0.00000
    193       1.3355     -0.00000
    194       1.3627     -0.00000
    195       1.5116     -0.00000
    196       1.5685     -0.00000
    197       1.6498     -0.00000
    198       1.6955     -0.00000
    199       1.7198     -0.00000
    200       2.0712     -0.00000
    201       2.2979     -0.00000
    202       2.3407     -0.00000
    203       2.5328     -0.00000
    204       2.7846      0.00000
    205       2.7979      0.00000
    206       2.8842      0.00000
    207       2.9266      0.00000
    208       3.0823      0.00000
    209       3.1943      0.00000
    210       3.2643      0.00000
    211       3.2964      0.00000
    212       3.5795      0.00000
    213       3.6871      0.00000
    214       3.7584      0.00000
    215       4.2135      0.00000
    216       4.3944      0.00000
    217       4.4247      0.00000
    218       4.6787      0.00000
    219       4.7321      0.00000
    220       5.4528      0.00000
    221       5.5397      0.00000
    222       5.5738      0.00000
    223       5.6029      0.00000
    224       5.7159      0.00000
    225       5.7854      0.00000
    226       5.9521      0.00000
    227       5.9847      0.00000
    228       6.0041      0.00000
    229       6.0150      0.00000
    230       6.0266      0.00000
    231       6.3204      0.00000
    232       6.4552      0.00000
    233       6.6128      0.00000
    234       6.7421      0.00000
    235       6.8029      0.00000
    236       6.9464      0.00000
    237       6.9611      0.00000
    238       7.1374      0.00000
    239       7.2281      0.00000
    240       7.3463      0.00000


--------------------------------------------------------------------------------------------------------


 soft charge-density along one line, spin component           1
         0         1         2         3         4         5         6         7         8         9
 total charge-density along one line
 
 pseudopotential strength for first ion, spin component:           1
 -6.579   0.000  -0.000  -0.010  -0.000  -6.674   0.000  -0.000
  0.000  -6.465   0.000   0.000  -0.010   0.000  -6.563   0.000
 -0.000   0.000  -6.455   0.000   0.000  -0.000   0.000  -6.553
 -0.010   0.000   0.000  -6.464   0.000  -0.010   0.000   0.000
 -0.000  -0.010   0.000   0.000  -6.579  -0.000  -0.010   0.000
 -6.674   0.000  -0.000  -0.010  -0.000  -6.753   0.000  -0.000
  0.000  -6.563   0.000   0.000  -0.010   0.000  -6.645   0.000
 -0.000   0.000  -6.553   0.000   0.000  -0.000   0.000  -6.635
 -0.010   0.000   0.000  -6.562   0.000  -0.010   0.000   0.000
 -0.000  -0.010   0.000   0.000  -6.674  -0.000  -0.009   0.000
 -0.000  -0.000  -0.035  -0.000  -0.000  -0.000  -0.000  -0.034
 -0.000  -0.000  -0.052  -0.000  -0.000  -0.000  -0.000  -0.051
 -0.000  -0.005  -0.000  -0.000   0.000  -0.000  -0.004  -0.000
 -0.000   0.000  -0.008  -0.000   0.000  -0.000   0.000  -0.008
  0.000  -0.000   0.000  -0.005  -0.000   0.000  -0.000   0.000
 -0.000  -0.004   0.000  -0.000   0.001  -0.000  -0.003   0.000
 -0.000   0.000  -0.009  -0.000   0.000  -0.000   0.000  -0.008
  0.001  -0.000   0.000  -0.004  -0.000   0.001  -0.000   0.000
 total augmentation occupancy for first ion, spin component:           1
  3.240  -0.002   0.001  -0.259  -0.007  -1.906   0.002  -0.000   0.080   0.005   0.002  -0.000   0.005   0.000  -0.043  -0.000
 -0.002   4.241   0.005  -0.002  -0.249   0.002  -2.185  -0.002   0.004   0.081   0.004  -0.001  -0.246   0.001   0.001   0.014
  0.001   0.005   4.358   0.009   0.008  -0.000  -0.002  -2.549  -0.005  -0.005   0.840  -0.183  -0.004  -0.279  -0.003   0.000
 -0.259  -0.002   0.009   4.264  -0.002   0.089   0.004  -0.005  -2.196   0.002   0.003  -0.002   0.001   0.004  -0.246  -0.000
 -0.007  -0.249   0.008  -0.002   3.243   0.005   0.072  -0.004   0.002  -1.908   0.003  -0.001  -0.048  -0.000   0.005   0.004
 -1.906   0.002  -0.000   0.089   0.005   2.221  -0.002  -0.001   0.039  -0.003  -0.002   0.000  -0.006  -0.000   0.042   0.000
  0.002  -2.185  -0.002   0.004   0.072  -0.002   1.979  -0.000  -0.005   0.046  -0.004   0.001   0.237  -0.002  -0.001  -0.019
 -0.000  -0.002  -2.549  -0.005  -0.004  -0.001  -0.000   2.522   0.001   0.002  -0.707   0.127   0.004   0.336   0.005  -0.000
  0.080   0.004  -0.005  -2.196   0.002   0.039  -0.005   0.001   1.983  -0.002  -0.002   0.001  -0.001  -0.004   0.236   0.000
  0.005   0.081  -0.005   0.002  -1.908  -0.003   0.046   0.002  -0.002   2.222  -0.002   0.000   0.048  -0.000  -0.006  -0.004
  0.002   0.004   0.840   0.003   0.003  -0.002  -0.004  -0.707  -0.002  -0.002   2.505  -0.575  -0.003   0.192  -0.005   0.000
 -0.000  -0.001  -0.183  -0.002  -0.001   0.000   0.001   0.127   0.001   0.000  -0.575   0.148   0.001  -0.068   0.001  -0.000
  0.005  -0.246  -0.004   0.001  -0.048  -0.006   0.237   0.004  -0.001   0.048  -0.003   0.001   0.254   0.000  -0.000  -0.018
  0.000   0.001  -0.279   0.004  -0.000  -0.000  -0.002   0.336  -0.004  -0.000   0.192  -0.068   0.000   0.142  -0.000   0.000
 -0.043   0.001  -0.003  -0.246   0.005   0.042  -0.001   0.005   0.236  -0.006  -0.005   0.001  -0.000  -0.000   0.254   0.000
 -0.000   0.014   0.000  -0.000   0.004   0.000  -0.019  -0.000   0.000  -0.004   0.000  -0.000  -0.018   0.000   0.000   0.001
 -0.000   0.000   0.007  -0.000  -0.000   0.000   0.000  -0.023   0.000   0.000  -0.021   0.007  -0.000  -0.011   0.000  -0.000
  0.004  -0.000   0.000   0.014  -0.000  -0.003   0.000  -0.000  -0.019   0.000   0.000  -0.000   0.000   0.000  -0.018  -0.000


------------------------ aborting loop because EDIFF is reached ----------------------------------------


    CHARGE:  cpu time      0.7602: real time      0.7673
    FORLOC:  cpu time      0.0171: real time      0.0171
    FORNL :  cpu time      2.6280: real time      2.6481
    STRESS:  cpu time      7.7308: real time      7.7821
    FORCOR:  cpu time      2.2786: real time      2.2909
    FORHAR:  cpu time      0.0163: real time      0.0164
    MIXING:  cpu time      0.0061: real time      0.0062
    OFIELD:  cpu time      0.0000: real time      0.0000

  FORCE on cell =-STRESS in cart. coord.  units (eV):
  Direction    XX          YY          ZZ          XY          YZ          ZX
  --------------------------------------------------------------------------------------
  Alpha Z   797.33613   797.33613   797.33613
  Ewald  152044.60506152048.96671************    -1.51113    -2.12650    -1.82703
  Hartree157993.21407157994.49940************    -0.45829    -0.48469    -0.41417
  E(xc)   -1657.74435 -1657.69499 -1667.00237    -0.01836    -0.02817    -0.02909
  Local  ************************321528.00738     1.62329     1.95511     1.58073
  n-local   108.82635   109.10945    86.22172    -0.11908    -0.16026    -0.10199
  augment  1891.39971  1890.98961  1954.87745     0.18479     0.27693     0.27780
  Kinetic  5210.06941  5209.20915  5371.67842     0.33314     0.56517     0.55114
  Fock        0.00000     0.00000     0.00000     0.00000     0.00000     0.00000
  -------------------------------------------------------------------------------------
  Total     -32.69801   -32.71684     2.34276     0.03436    -0.00241     0.03738
  in kB     -33.78818   -33.80763     2.42087     0.03550    -0.00249     0.03863
  external pressure =      -21.72 kB  Pullay stress =        0.00 kB


 VOLUME and BASIS-vectors are now :
 -----------------------------------------------------------------------------
  energy-cutoff  :      680.29
  volume of cell :     1550.48
      direct lattice vectors                 reciprocal lattice vectors
     8.468310000  0.000000000  0.000000000     0.118087316 -0.068177744  0.000000000
     4.234155000  7.333771587  0.000000000     0.000000000  0.136355488  0.000000000
     0.000000000  0.000000000 24.965661990     0.000000000  0.000000000  0.040055016

  length of vectors
     8.468310000  8.468310000 24.965661990     0.136355488  0.136355488  0.040055016


 FORCES acting on ions
    electron-ion (+dipol)            ewald-force                    non-local-force                 convergence-correction
 -----------------------------------------------------------------------------------------------
   -.346E+01 -.212E+01 0.248E+04   0.343E+01 0.207E+01 -.248E+04   0.106E+00 0.702E-01 -.131E+01   0.229E-02 0.132E-02 0.113E-01
   -.449E+00 -.398E+01 0.248E+04   0.449E+00 0.395E+01 -.248E+04   0.229E-01 0.974E-01 -.131E+01   -.117E-01 -.235E-01 0.143E-02
   0.333E+01 -.578E+01 0.248E+04   -.335E+01 0.572E+01 -.248E+04   -.396E-01 0.123E+00 -.130E+01   0.948E-02 0.459E-02 -.297E-02
   -.361E+01 0.135E+01 0.248E+04   0.358E+01 -.133E+01 -.247E+04   0.975E-01 -.271E-01 -.128E+01   -.264E-01 -.110E-01 -.103E-02
   -.146E+00 -.304E+00 0.247E+04   0.133E+00 0.294E+00 -.247E+04   0.635E-03 0.256E-02 -.130E+01   0.236E-01 0.725E-03 -.299E-02
   0.355E+01 -.208E+01 0.247E+04   -.353E+01 0.209E+01 -.247E+04   -.693E-01 0.125E-01 -.130E+01   0.257E-02 0.483E-02 0.119E-01
   -.324E+01 0.606E+01 0.248E+04   0.320E+01 -.603E+01 -.247E+04   0.783E-01 -.102E+00 -.128E+01   0.860E-02 0.189E-01 -.190E-02
   0.117E+00 0.432E+01 0.247E+04   -.128E+00 -.430E+01 -.247E+04   -.165E-01 -.713E-01 -.130E+01   0.165E-01 0.632E-02 0.150E-01
   0.352E+01 0.232E+01 0.248E+04   -.346E+01 -.230E+01 -.247E+04   -.975E-01 -.562E-01 -.128E+01   -.253E-01 -.184E-02 0.285E-02
   -.445E+01 -.413E+01 0.836E+03   0.441E+01 0.414E+01 -.835E+03   0.137E+00 0.830E-01 -.316E+00   -.278E-01 -.264E-01 -.436E-01
   0.920E+00 -.606E+01 0.836E+03   -.902E+00 0.605E+01 -.836E+03   -.228E-01 0.106E+00 -.318E+00   0.160E-01 -.688E-02 -.343E-01
   0.291E+01 -.549E+01 0.834E+03   -.292E+01 0.546E+01 -.833E+03   -.636E-01 0.104E+00 -.301E+00   0.118E-01 0.135E-01 -.294E-01
   -.350E+01 0.206E+01 0.834E+03   0.347E+01 -.208E+01 -.833E+03   0.783E-01 -.156E-01 -.287E+00   0.102E-01 0.102E-01 -.326E-01
   0.253E+01 0.471E+00 0.837E+03   -.255E+01 -.532E+00 -.837E+03   -.423E-01 0.285E-01 -.328E+00   0.312E-01 0.164E-01 -.173E-01
   0.928E+00 -.973E+00 0.835E+03   -.897E+00 0.930E+00 -.835E+03   -.406E-01 0.539E-01 -.298E+00   -.418E-01 -.314E-02 -.331E-01
   -.202E+01 0.697E+01 0.835E+03   0.196E+01 -.693E+01 -.834E+03   0.588E-01 -.155E+00 -.292E+00   0.273E-01 0.106E-01 -.285E-01
   0.456E+00 0.327E+01 0.838E+03   -.430E+00 -.323E+01 -.837E+03   -.185E-01 -.846E-01 -.368E+00   -.230E-01 -.238E-01 -.340E-01
   0.196E+01 0.354E+01 0.833E+03   -.192E+01 -.350E+01 -.833E+03   -.981E-01 -.105E+00 -.263E+00   -.405E-02 0.960E-02 -.347E-01
   0.682E+00 -.687E+00 -.821E+03   -.528E+00 0.762E+00 0.820E+03   -.115E+00 -.694E-01 0.330E+00   -.377E-01 -.273E-02 -.499E-01
   -.699E+00 -.416E+01 -.830E+03   0.698E+00 0.422E+01 0.829E+03   -.824E-02 -.543E-01 0.478E+00   0.623E-02 -.705E-02 -.449E-01
   0.185E+00 -.691E+00 -.817E+03   -.325E+00 0.741E+00 0.817E+03   0.107E+00 -.706E-01 0.361E+00   0.318E-01 0.183E-01 -.502E-01
   -.297E+01 0.219E+01 -.832E+03   0.303E+01 -.223E+01 0.832E+03   -.481E-01 0.262E-01 0.485E+00   -.205E-01 0.112E-01 -.404E-01
   0.271E+01 0.301E+01 -.830E+03   -.278E+01 -.305E+01 0.829E+03   0.361E-01 0.222E-01 0.491E+00   0.400E-01 0.153E-01 -.529E-01
   0.504E+00 0.173E+01 -.810E+03   -.485E+00 -.175E+01 0.810E+03   -.338E-03 0.284E-01 0.530E+00   -.194E-01 -.992E-02 -.589E-01
   0.623E+00 -.465E+00 -.823E+03   -.633E+00 0.318E+00 0.823E+03   -.878E-02 0.132E+00 0.319E+00   0.152E-01 0.165E-01 -.440E-01
   0.564E+00 0.103E-01 -.814E+03   -.569E+00 0.325E-01 0.814E+03   0.169E-01 -.171E-01 0.489E+00   -.123E-01 -.279E-01 -.575E-01
   -.108E+01 -.685E+00 -.814E+03   0.110E+01 0.715E+00 0.813E+03   -.216E-01 -.156E-01 0.498E+00   -.252E-02 -.141E-01 -.451E-01
   0.295E+00 0.235E+00 -.246E+04   -.259E+00 -.240E+00 0.246E+04   -.323E-01 0.429E-02 0.115E+01   -.882E-02 0.464E-03 -.144E-01
   -.672E+00 -.288E+01 -.245E+04   0.681E+00 0.267E+01 0.245E+04   0.350E-02 0.223E+00 0.123E+01   -.900E-02 -.144E-01 -.597E-02
   0.391E+00 0.589E-02 -.246E+04   -.424E+00 -.600E-02 0.245E+04   0.192E-01 -.501E-02 0.115E+01   0.178E-01 0.235E-02 -.183E-01
   0.934E+01 0.518E+01 -.246E+04   -.989E+01 -.551E+01 0.246E+04   0.578E+00 0.338E+00 0.585E+00   -.217E-01 -.313E-02 -.859E-03
   -.967E+01 0.517E+01 -.246E+04   0.103E+02 -.554E+01 0.246E+04   -.639E+00 0.365E+00 0.648E+00   0.188E-01 0.525E-02 -.156E-01
   0.892E+00 -.362E+00 -.245E+04   -.878E+00 0.396E+00 0.245E+04   -.206E-01 -.318E-01 0.114E+01   0.284E-02 -.285E-02 -.293E-01
   -.282E-01 -.108E+02 -.246E+04   0.322E-01 0.115E+02 0.246E+04   -.118E-01 -.678E+00 0.610E+00   0.612E-02 0.161E-01 -.114E-01
   0.261E+01 0.229E+01 -.245E+04   -.241E+01 -.217E+01 0.245E+04   -.213E+00 -.133E+00 0.123E+01   0.326E-02 0.650E-03 -.289E-01
   -.263E+01 0.138E+01 -.245E+04   0.243E+01 -.125E+01 0.245E+04   0.212E+00 -.119E+00 0.124E+01   -.952E-02 -.630E-02 -.166E-01
   -.325E+00 0.939E-01 -.305E+03   0.362E+00 -.109E+00 0.307E+03   -.283E-01 0.102E-01 -.134E+01   -.821E-03 0.117E-02 0.106E-02
 -----------------------------------------------------------------------------------------------
   0.802E-01 -.377E-01 0.368E+01   -.314E-13 0.202E-12 0.432E-11   -.104E+00 0.186E-01 -.281E+01   -.949E-03 -.676E-03 -.838E+00
 
 
 POSITION                                       TOTAL-FORCE (eV/Angst)
 -----------------------------------------------------------------------------------
      0.00000      0.00000      8.50000         0.071456      0.027919     -0.139833
      2.82843      0.00000      8.50000         0.011880      0.052369     -0.097812
      5.65685      0.00000      8.50000        -0.045929      0.062143     -0.131780
      1.41421      2.44949      8.50000         0.040739     -0.023297     -0.082628
      4.24264      2.44949      8.50000         0.012118     -0.006635     -0.057482
      7.07107      2.44949      8.50000        -0.046086      0.027698     -0.094414
      2.82843      4.89898      8.50000         0.043302     -0.052200     -0.108572
      5.65685      4.89898      8.50000        -0.010943     -0.047779     -0.085481
      8.48528      4.89898      8.50000        -0.066962     -0.039170     -0.100358
      1.41421      0.81650     10.80940         0.070713      0.067723      0.093775
      4.24264      0.81650     10.80940         0.012175      0.091855      0.082003
      7.07107      0.81650     10.80940        -0.058146      0.092301      0.018383
      2.82843      3.26599     10.80940         0.063593     -0.023426      0.183636
      5.65685      3.26599     10.80940        -0.021265     -0.014881      0.068290
      8.48528      3.26599     10.80940        -0.050724      0.008412      0.103625
      4.24264      5.71548     10.80940         0.031456     -0.104245      0.117451
      7.07107      5.71548     10.80940        -0.015625     -0.071237      0.061768
      9.89949      5.71548     10.80940        -0.056404     -0.051640      0.143995
      8.48881      1.64346     13.10073         0.001917      0.002869      0.003884
      2.83730      1.64401     13.11011        -0.002366     -0.000488     -0.001906
      5.65595      1.64229     13.09675        -0.000335     -0.001110      0.007630
      9.89935      4.08335     13.11199        -0.004091      0.003661      0.000686
      4.24654      4.08288     13.10971         0.002858     -0.000618      0.001731
      7.07261      4.08298     13.08516         0.000292      0.001008      0.004568
     11.30882      6.52296     13.10306        -0.002056      0.001901      0.003287
      5.66059      6.52951     13.09015         0.000296     -0.001687      0.000041
      8.48579      6.52949     13.08922         0.003051      0.000892     -0.000915
      0.01896      0.01165     15.42525        -0.004301      0.000892     -0.002477
      7.07294      7.33091     15.41716         0.003609      0.000006      0.001006
      5.66030      0.01278     15.42306         0.004185     -0.002241     -0.001433
      9.85979      2.43581     15.46882         0.001496     -0.000149      0.000771
      4.28531      2.43666     15.46459         0.003879      0.002679      0.004069
      7.07372      2.45914     15.42206        -0.003744     -0.000059     -0.001686
     11.30762      4.94231     15.46771        -0.000972      0.003430      0.002324
      5.67628      4.90960     15.41717        -0.001467     -0.006515      0.000194
      8.46987      4.90938     15.41595         0.003736      0.002372      0.002757
      2.83024      3.27439     16.30516         0.008668     -0.002753      0.000903
 -----------------------------------------------------------------------------------
    total drift:                               -0.024369     -0.019750      0.028341


--------------------------------------------------------------------------------------------------------



  FREE ENERGIE OF THE ION-ELECTRON SYSTEM (eV)
  ---------------------------------------------------
  free  energy   TOTEN  =      -104.59975358 eV

  energy  without entropy=     -104.50106194  energy(sigma->0) =     -104.56685637
 


--------------------------------------------------------------------------------------------------------


    POTLOK:  cpu time      2.4164: real time      2.4444


--------------------------------------------------------------------------------------------------------


 writing wavefunctions
     LOOP+:  cpu time    131.2351: real time    132.9217
    4ORBIT:  cpu time      0.0000: real time      0.0000

 total amount of memory used by VASP MPI-rank0   148539. kBytes
=======================================================================

   base      :      30000. kBytes
   nonlr-proj:      22466. kBytes
   fftplans  :       5213. kBytes
   grid      :      24541. kBytes
   one-center:        575. kBytes
   wavefun   :      65744. kBytes
 
  
  
 General timing and accounting informations for this job:
 ========================================================
  
                  Total CPU time used (sec):      144.034
                            User time (sec):      140.752
                          System time (sec):        3.283
                         Elapsed time (sec):      152.349
  
                   Maximum memory used (kb):      628152.
                   Average memory used (kb):          N/A
  
                          Minor page faults:       208865
                          Major page faults:          736
                 Voluntary context switches:         5820
