unknown system                          
           1
     8.468310    0.000000    0.000000
     4.234155    7.333772    0.000000
     0.000000    0.000000   24.965662
   Pt   H 
    36     1
Direct configuration=     1
   0.00000000  0.00000000  0.34046764
   0.33400137  0.00000000  0.34046764
   0.66800274  0.00000000  0.34046764
   0.00000000  0.33400137  0.34046764
   0.33400137  0.33400137  0.34046764
   0.66800274  0.33400137  0.34046764
   0.00000000  0.66800274  0.34046764
   0.33400137  0.66800274  0.34046764
   0.66800274  0.66800274  0.34046764
   0.11133379  0.11133379  0.43297074
   0.44533516  0.11133379  0.43297074
   0.77933653  0.11133379  0.43297074
   0.11133379  0.44533516  0.43297074
   0.44533516  0.44533516  0.43297074
   0.77933653  0.44533516  0.43297074
   0.11133379  0.77933653  0.43297074
   0.44533516  0.77933653  0.43297074
   0.77933653  0.77933653  0.43297074
   0.89037336  0.22409505  0.52474993
   0.22296413  0.22416936  0.52512558
   0.55592876  0.22393488  0.52459042
   0.89059413  0.55678722  0.52520112
   0.22310115  0.55672361  0.52510972
   0.55681799  0.55673614  0.52412615
   0.89070729  0.88944183  0.52484336
   0.22327671  0.89033404  0.52432637
   0.55689837  0.89033192  0.52428881
   0.00144447  0.00158836  0.61785880
   0.33541969  0.99960955  0.61753463
   0.66753855  0.00174218  0.61777090
   0.99824826  0.33213557  0.61960387
   0.33991511  0.33225179  0.61943442
   0.66765719  0.33531788  0.61773080
   0.99833101  0.67391067  0.61955921
   0.33557066  0.66945088  0.61753491
   0.66547379  0.66942109  0.61748617
   0.11097465  0.44648115  0.65310330
