
     Program PWSCF v.7.1 starts on  7Dec2025 at 20:53:14 
        Git branch: heads/qe-7.1
        Last git commit: 48ba0178f8fede6d020eb786884699a9f063f55d-dirty
        Last git commit date: Fri Jan 27 14:22:33 2023 +0000
        Last git commit subject: Merge branch 'fix_hubbard' into 'develop'

     This program is part of the open-source Quantum ESPRESSO suite
     for quantum simulation of materials; please cite
         "P. Giannozzi et al., J. Phys.:Condens. Matter 21 395502 (2009);
         "P. Giannozzi et al., J. Phys.:Condens. Matter 29 465901 (2017);
         "P. Giannozzi et al., J. Chem. Phys. 152 154105 (2020);
          URL http://www.quantum-espresso.org", 
     in publications or presentations arising from this work. More details at
     http://www.quantum-espresso.org/quote

     Parallel version (MPI), running on    96 processors

     MPI processes distributed on     2 nodes
     119719 MiB available memory on the printing compute node when the environment starts

     Reading input from espresso.pwi
Warning: card &CELL ignored
Warning: card / ignored
Warning: card &FCP ignored
Warning: card / ignored
Warning: card &RISM ignored
Warning: card / ignored

     Current dimensions of program PWSCF are:
     Max number of different atomic species (ntypx) = 10
     Max number of k-points (npk) =  40000
     Max angular momentum in pseudopotentials (lmaxx) =  4
     file Co.pbe-n-kjpaw_psl.1.0.0.UPF: wavefunction(s)  4S 3D renormalized
     file C.pbe-n-kjpaw_psl.1.0.0.UPF: wavefunction(s)  2S 2P renormalized
     file O.pbe-nl-kjpaw_psl.1.0.0.UPF: wavefunction(s)  2S 2P renormalized
     file H.pbe-kjpaw_psl.1.0.0.UPF: wavefunction(s)  1S renormalized

     **************************************************************************
     Initializing libbeef V0.1.2 with the BEEF-vdW functional.
     Citation: Wellendorff et al., PRB 85, 235149 (2012).
     **************************************************************************


     IMPORTANT: XC functional enforced from input :
     Exchange-correlation= BEEF-VDW
                           (   1   4  43  14   2   0   0)
     Any further DFT definition will be discarded
     Please, verify this is what you really want


     R & G space division:  proc/nbgrp/npool/nimage =      96
     Subspace diagonalization in iterative solution of the eigenvalue problem:
     one sub-group per band group will be used
     custom distributed-memory algorithm (size of sub-group:  2*  2 procs)


     Parallelization info
     --------------------
     sticks:   dense  smooth     PW     G-vecs:    dense   smooth      PW
     Min          43      28      7                 7829     4248     595
     Max          44      29      8                 7845     4281     630
     Sum        4153    2773    757               752179   409445   59217

     Using Slab Decomposition



     bravais-lattice index     =            0
     lattice parameter (alat)  =      14.1729  a.u.
     unit-cell volume          =    8574.3059 (a.u.)^3
     number of atoms/cell      =           39
     number of atomic types    =            4
     number of electrons       =       335.00
     number of Kohn-Sham states=          202
     kinetic-energy cutoff     =      50.0000  Ry
     charge density cutoff     =     300.0000  Ry
     scf convergence threshold =      1.0E-08
     mixing beta               =       0.7000
     number of iterations used =            8  local-TF  mixing
     Exchange-correlation= BEEF-VDW
                           (   1   4  43  14   2   0   0)

     celldm(1)=  14.172946  celldm(2)=   0.000000  celldm(3)=   0.000000
     celldm(4)=   0.000000  celldm(5)=   0.000000  celldm(6)=   0.000000

     crystal axes: (cart. coord. in units of alat)
               a(1) = (   1.000000   0.000000   0.000000 )  
               a(2) = (   0.500000   0.866025   0.000000 )  
               a(3) = (   0.000000   0.000000   3.477667 )  

     reciprocal axes: (cart. coord. in units 2 pi/alat)
               b(1) = (  1.000000 -0.577350  0.000000 )  
               b(2) = (  0.000000  1.154701  0.000000 )  
               b(3) = (  0.000000  0.000000  0.287549 )  


     PseudoPot. # 1 for Co read from file:
     /users/kbadger1/espresso/pseudo/pslibrary.1.0.0/pbe/PSEUDOPOTENTIALS/Co.pbe-n-kjpaw_psl.1.0.0.UPF
     MD5 check sum: 88af6ec42553d4236c267fdfcb472151
     Pseudo is Projector augmented-wave + core cor, Zval =  9.0
     Generated using 'atomic' code by A. Dal Corso  v.7.0
     Shape of augmentation charge: PSQ
     Using radial grid of 1193 points,  6 beta functions with: 
                l(1) =   0
                l(2) =   0
                l(3) =   1
                l(4) =   1
                l(5) =   2
                l(6) =   2
     Q(r) pseudized with 0 coefficients 


     PseudoPot. # 2 for C  read from file:
     /users/kbadger1/espresso/pseudo/pslibrary.1.0.0/pbe/PSEUDOPOTENTIALS/C.pbe-n-kjpaw_psl.1.0.0.UPF
     MD5 check sum: 6408e75cdba28732cea38a4db8498ce4
     Pseudo is Projector augmented-wave + core cor, Zval =  4.0
     Generated using 'atomic' code by A. Dal Corso  v.7.0
     Shape of augmentation charge: PSQ
     Using radial grid of 1073 points,  4 beta functions with: 
                l(1) =   0
                l(2) =   0
                l(3) =   1
                l(4) =   1
     Q(r) pseudized with 0 coefficients 


     PseudoPot. # 3 for O  read from file:
     /users/kbadger1/espresso/pseudo/pslibrary.1.0.0/pbe/PSEUDOPOTENTIALS/O.pbe-nl-kjpaw_psl.1.0.0.UPF
     MD5 check sum: f0439fab3598ca4e468f064226030408
     Pseudo is Projector augmented-wave + core cor, Zval =  6.0
     Generated using 'atomic' code by A. Dal Corso  v.7.0
     Shape of augmentation charge: PSQ
     Using radial grid of 1095 points,  4 beta functions with: 
                l(1) =   0
                l(2) =   0
                l(3) =   1
                l(4) =   1
     Q(r) pseudized with 0 coefficients 


     PseudoPot. # 4 for H  read from file:
     /users/kbadger1/espresso/pseudo/pslibrary.1.0.0/pbe/PSEUDOPOTENTIALS/H.pbe-kjpaw_psl.1.0.0.UPF
     MD5 check sum: fe4c6fa958fa6d3815bf5d2419cbf1df
     Pseudo is Projector augmented-wave, Zval =  1.0
     Generated using 'atomic' code by A. Dal Corso  v.7.0
     Shape of augmentation charge: PSQ
     Using radial grid of  929 points,  2 beta functions with: 
                l(1) =   0
                l(2) =   0
     Q(r) pseudized with 0 coefficients 


     atomic species   valence    mass     pseudopotential
        Co             9.00    58.93319     Co( 1.00)
        C              4.00    12.00000     C ( 1.00)
        O              6.00    15.99491     O ( 1.00)
        H              1.00     1.00783     H ( 1.00)

     Starting magnetic structure 
     atomic species   magnetization
        Co           1.000
        C            1.000
        O            0.000
        H            0.000

     No symmetry found



   Cartesian axes

     site n.     atom                  positions (alat units)
         1           Co  tau(   1) = (   0.0000000   0.1924501   1.3333333  )
         2           Co  tau(   2) = (   0.3333333   0.1924501   1.3333333  )
         3           Co  tau(   3) = (   0.6666667   0.1924501   1.3333333  )
         4           Co  tau(   4) = (   0.1666667   0.4811252   1.3333333  )
         5           Co  tau(   5) = (   0.5000000   0.4811252   1.3333333  )
         6           Co  tau(   6) = (   0.8333333   0.4811252   1.3333333  )
         7           Co  tau(   7) = (   0.3333333   0.7698004   1.3333333  )
         8           Co  tau(   8) = (   0.6666667   0.7698004   1.3333333  )
         9           Co  tau(   9) = (   1.0000000   0.7698004   1.3333333  )
        10           Co  tau(  10) = (   0.0000000   0.0000000   1.6036667  )
        11           Co  tau(  11) = (   0.3333333   0.0000000   1.6036667  )
        12           Co  tau(  12) = (   0.6666667   0.0000000   1.6036667  )
        13           Co  tau(  13) = (   0.1666667   0.2886751   1.6036667  )
        14           Co  tau(  14) = (   0.5000000   0.2886751   1.6036667  )
        15           Co  tau(  15) = (   0.8333333   0.2886751   1.6036667  )
        16           Co  tau(  16) = (   0.3333333   0.5773503   1.6036667  )
        17           Co  tau(  17) = (   0.6666667   0.5773503   1.6036667  )
        18           Co  tau(  18) = (   1.0000000   0.5773503   1.6036667  )
        19           Co  tau(  19) = (   0.0000000   0.1924501   1.8740000  )
        20           Co  tau(  20) = (   0.3333333   0.1924501   1.8740000  )
        21           Co  tau(  21) = (   0.6666667   0.1924501   1.8740000  )
        22           Co  tau(  22) = (   0.1666667   0.4811252   1.8740000  )
        23           Co  tau(  23) = (   0.5000000   0.4811252   1.8740000  )
        24           Co  tau(  24) = (   0.8333333   0.4811252   1.8740000  )
        25           Co  tau(  25) = (   0.3333333   0.7698004   1.8740000  )
        26           Co  tau(  26) = (   0.6666667   0.7698004   1.8740000  )
        27           Co  tau(  27) = (   1.0000000   0.7698004   1.8740000  )
        28           Co  tau(  28) = (   0.0000000   0.0000000   2.1443333  )
        29           Co  tau(  29) = (   0.3333333   0.0000000   2.1443333  )
        30           Co  tau(  30) = (   0.6666667   0.0000000   2.1443333  )
        31           Co  tau(  31) = (   0.1666667   0.2886751   2.1443333  )
        32           Co  tau(  32) = (   0.5000000   0.2886751   2.1443333  )
        33           Co  tau(  33) = (   0.8333333   0.2886751   2.1443333  )
        34           Co  tau(  34) = (   0.3333333   0.5773503   2.1443333  )
        35           Co  tau(  35) = (   0.6666667   0.5773503   2.1443333  )
        36           Co  tau(  36) = (   1.0000000   0.5773503   2.1443333  )
        37           C   tau(  37) = (   0.3885061   0.2496226   2.3609377  )
        38           O   tau(  38) = (   0.2652583   0.1314673   2.3852899  )
        39           H   tau(  39) = (   0.4331080   0.3176356   2.4833228  )

     number of k points=    13  Marzari-Vanderbilt smearing, width (Ry)=  0.0010
                       cart. coord. in units 2pi/alat
        k(    1) = (   0.0000000   0.0000000   0.0000000), wk =   0.0400000
        k(    2) = (   0.0000000   0.2309401   0.0000000), wk =   0.0800000
        k(    3) = (   0.0000000   0.4618802   0.0000000), wk =   0.0800000
        k(    4) = (   0.2000000  -0.1154701   0.0000000), wk =   0.0800000
        k(    5) = (   0.2000000   0.1154701   0.0000000), wk =   0.0800000
        k(    6) = (   0.2000000   0.3464102   0.0000000), wk =   0.0800000
        k(    7) = (   0.2000000  -0.5773503   0.0000000), wk =   0.0800000
        k(    8) = (   0.2000000  -0.3464102   0.0000000), wk =   0.0800000
        k(    9) = (   0.4000000  -0.2309401   0.0000000), wk =   0.0800000
        k(   10) = (   0.4000000   0.0000000   0.0000000), wk =   0.0800000
        k(   11) = (   0.4000000   0.2309401   0.0000000), wk =   0.0800000
        k(   12) = (   0.4000000  -0.6928203   0.0000000), wk =   0.0800000
        k(   13) = (   0.4000000  -0.4618802   0.0000000), wk =   0.0800000

     Dense  grid:   752179 G-vectors     FFT dimensions: (  80,  80, 288)

     Smooth grid:   409445 G-vectors     FFT dimensions: (  64,  64, 225)

     Estimated max dynamical RAM per process >      99.02 MB

     Estimated total dynamical RAM >       9.28 GB
     Generating pointlists ...
     new r_m :   0.1018 (alat units)  1.4424 (a.u.) for type    1
     new r_m :   0.0606 (alat units)  0.8591 (a.u.) for type    2
     new r_m :   0.0711 (alat units)  1.0083 (a.u.) for type    3
     new r_m :   0.0606 (alat units)  0.8591 (a.u.) for type    4

     Initial potential from superposition of free atoms

     starting charge     334.9897, renormalised to     335.0000

     negative rho (up, down):  3.000E-03 4.686E-04


     %%%%%%%%%%%%%%%%%%%%%%%%%%%%%%%%%%%%%%%%%%%%%%%%%%%%%%%%%%%%%%%%%%%%%%%%
     %                                                                      %
     % You are using vdW-DF, which was implemented by the Thonhauser group. %
     % Please cite the following two papers that made this development      %
     % possible and the two reviews that describe the various versions:     %
     %                                                                      %
     %   T. Thonhauser et al., PRL 115, 136402 (2015).                      %
     %   T. Thonhauser et al., PRB 76, 125112 (2007).                       %
     %   K. Berland et al., Rep. Prog. Phys. 78, 066501 (2015).             %
     %   D.C. Langreth et al., J. Phys.: Condens. Matter 21, 084203 (2009). %
     %                                                                      %
     % If you are calculating stress with vdW-DF, please also cite:         %
     %                                                                      %
     %   R. Sabatini et al., J. Phys.: Condens. Matter 24, 424209 (2012).   %
     %   C.M. Frostenson et al., Electr. Struct. 4, 014001 (2022).          %
     %                                                                      %
     %%%%%%%%%%%%%%%%%%%%%%%%%%%%%%%%%%%%%%%%%%%%%%%%%%%%%%%%%%%%%%%%%%%%%%%%

     %%%%%%%%%%%%%%%%%%%%%%%%%%%%%%%%%%%%%%%%%%%%%%%%%%%%%%%%%%%%%%%%%%%%%%%%
     %                                                                      %
     %  vdW-DF NEWS:                                                        %
     %                                                                      %
     %  * vdW-DF3 is now available. DOI: 10.1021/acs.jctc.0c00471           %
     %    use with input_dft = 'vdW-DF3-opt1' or 'vdW-DF3-opt2'             %
     %                                                                      %
     %  * Unscreened and range-separated hybrid vdW-DF-cx functionals       %
     %    DOI: 10.1063/1.4986522 and 10.1088/1361-648X/ac2ad2               %
     %    use with input_dft = 'vdW-DF-cx0'    and 'vdW-DF-ahcx'            %
     %  * Unscreened and range-separated hybrid vdW-DF2-b86r functionals    %
     %    DOI: 10.1063/1.4986522 and DOI: 10.1103/PhysRevX.12.041003        %
     %    use with input_dft = 'vdW-DF2-br0' and 'vdW-DF2-ahbr'             %
     %                                                                      %
     %%%%%%%%%%%%%%%%%%%%%%%%%%%%%%%%%%%%%%%%%%%%%%%%%%%%%%%%%%%%%%%%%%%%%%%%


     Starting wfcs are  333 randomized atomic wfcs
     Checking if some PAW data can be deallocated... 

     total cpu time spent up to now is       12.4 secs

     per-process dynamical memory:   232.0 Mb

     Self-consistent Calculation

     iteration #  1     ecut=    50.00 Ry     beta= 0.70
     Davidson diagonalization with overlap
     ethr =  1.00E-02,  avg # of iterations =  2.0

     negative rho (up, down):  2.252E-05 3.912E-08

     total cpu time spent up to now is       37.6 secs

     total energy              =   -6053.06206865 Ry
     estimated scf accuracy    <      39.73754979 Ry

     total magnetization       =    69.00 Bohr mag/cell
     absolute magnetization    =    81.09 Bohr mag/cell

     iteration #  2     ecut=    50.00 Ry     beta= 0.70
     Davidson diagonalization with overlap
     ethr =  1.00E-02,  avg # of iterations =  1.0

     negative rho (up, down):  2.437E-06 1.102E-08

     total cpu time spent up to now is       51.1 secs

     total energy              =   -6052.43805759 Ry
     estimated scf accuracy    <      25.64090695 Ry

     total magnetization       =    69.00 Bohr mag/cell
     absolute magnetization    =    76.72 Bohr mag/cell

     iteration #  3     ecut=    50.00 Ry     beta= 0.70
     Davidson diagonalization with overlap
     ethr =  7.65E-03,  avg # of iterations =  1.0

     negative rho (up, down):  1.866E-08 0.000E+00

     total cpu time spent up to now is       69.9 secs

     total energy              =   -6055.18085957 Ry
     estimated scf accuracy    <      83.62488904 Ry

     total magnetization       =    66.28 Bohr mag/cell
     absolute magnetization    =    73.29 Bohr mag/cell

     iteration #  4     ecut=    50.00 Ry     beta= 0.70
     Davidson diagonalization with overlap
     ethr =  7.65E-03,  avg # of iterations =  1.0

     total cpu time spent up to now is       86.7 secs

     total energy              =   -6056.34943313 Ry
     estimated scf accuracy    <       5.76815998 Ry

     total magnetization       =    60.77 Bohr mag/cell
     absolute magnetization    =    70.39 Bohr mag/cell

     iteration #  5     ecut=    50.00 Ry     beta= 0.70
     Davidson diagonalization with overlap
     ethr =  1.72E-03,  avg # of iterations =  1.2

     total cpu time spent up to now is      103.1 secs

     total energy              =   -6056.37884557 Ry
     estimated scf accuracy    <       3.17599072 Ry

     total magnetization       =    60.46 Bohr mag/cell
     absolute magnetization    =    69.67 Bohr mag/cell

     iteration #  6     ecut=    50.00 Ry     beta= 0.70
     Davidson diagonalization with overlap
     ethr =  9.48E-04,  avg # of iterations =  1.4

     total cpu time spent up to now is      120.3 secs

     total energy              =   -6056.48655147 Ry
     estimated scf accuracy    <       0.52859061 Ry

     total magnetization       =    60.44 Bohr mag/cell
     absolute magnetization    =    69.44 Bohr mag/cell

     iteration #  7     ecut=    50.00 Ry     beta= 0.70
     Davidson diagonalization with overlap
     ethr =  1.58E-04,  avg # of iterations =  6.2

     total cpu time spent up to now is      146.4 secs

     total energy              =   -6056.52039182 Ry
     estimated scf accuracy    <       0.75038152 Ry

     total magnetization       =    60.77 Bohr mag/cell
     absolute magnetization    =    69.30 Bohr mag/cell

     iteration #  8     ecut=    50.00 Ry     beta= 0.70
     Davidson diagonalization with overlap
     ethr =  1.58E-04,  avg # of iterations =  1.6

     total cpu time spent up to now is      160.4 secs

     total energy              =   -6056.53619621 Ry
     estimated scf accuracy    <       0.16061494 Ry

     total magnetization       =    60.94 Bohr mag/cell
     absolute magnetization    =    69.28 Bohr mag/cell

     iteration #  9     ecut=    50.00 Ry     beta= 0.70
     Davidson diagonalization with overlap
     ethr =  4.79E-05,  avg # of iterations =  9.3

     total cpu time spent up to now is      189.3 secs

     total energy              =   -6056.54418008 Ry
     estimated scf accuracy    <       0.17139332 Ry

     total magnetization       =    61.33 Bohr mag/cell
     absolute magnetization    =    69.37 Bohr mag/cell

     iteration # 10     ecut=    50.00 Ry     beta= 0.70
     Davidson diagonalization with overlap
     ethr =  4.79E-05,  avg # of iterations =  2.5

     total cpu time spent up to now is      210.5 secs

     total energy              =   -6056.54455307 Ry
     estimated scf accuracy    <       0.16353173 Ry

     total magnetization       =    61.32 Bohr mag/cell
     absolute magnetization    =    69.22 Bohr mag/cell

     iteration # 11     ecut=    50.00 Ry     beta= 0.70
     Davidson diagonalization with overlap
     ethr =  4.79E-05,  avg # of iterations =  1.5

     total cpu time spent up to now is      224.3 secs

     total energy              =   -6056.53969223 Ry
     estimated scf accuracy    <       0.10547912 Ry

     total magnetization       =    61.32 Bohr mag/cell
     absolute magnetization    =    69.12 Bohr mag/cell

     iteration # 12     ecut=    50.00 Ry     beta= 0.70
     Davidson diagonalization with overlap
     ethr =  3.15E-05,  avg # of iterations =  2.0

     negative rho (up, down):  1.608E-06 0.000E+00

     total cpu time spent up to now is      244.0 secs

     total energy              =   -6056.54119657 Ry
     estimated scf accuracy    <       0.09261156 Ry

     total magnetization       =    61.33 Bohr mag/cell
     absolute magnetization    =    69.00 Bohr mag/cell

     iteration # 13     ecut=    50.00 Ry     beta= 0.70
     Davidson diagonalization with overlap
     ethr =  2.76E-05,  avg # of iterations =  1.9

     total cpu time spent up to now is      257.6 secs

     total energy              =   -6056.53856708 Ry
     estimated scf accuracy    <       0.10280103 Ry

     total magnetization       =    61.32 Bohr mag/cell
     absolute magnetization    =    68.95 Bohr mag/cell

     iteration # 14     ecut=    50.00 Ry     beta= 0.70
     Davidson diagonalization with overlap
     c_bands:  2 eigenvalues not converged
     ethr =  2.76E-05,  avg # of iterations =  2.7

     negative rho (up, down):  3.409E-03 2.352E-03

     total cpu time spent up to now is      279.2 secs

     total energy              =   -6056.53153735 Ry
     estimated scf accuracy    <       0.06104564 Ry

     total magnetization       =    61.32 Bohr mag/cell
     absolute magnetization    =    68.96 Bohr mag/cell

     iteration # 15     ecut=    50.00 Ry     beta= 0.70
     Davidson diagonalization with overlap
     c_bands:  1 eigenvalues not converged
     ethr =  1.82E-05,  avg # of iterations =  3.7

     negative rho (up, down):  9.457E-03 8.013E-03

     total cpu time spent up to now is      299.0 secs

     total energy              =   -6056.53010122 Ry
     estimated scf accuracy    <       0.10062625 Ry

     total magnetization       =    61.32 Bohr mag/cell
     absolute magnetization    =    68.90 Bohr mag/cell

     iteration # 16     ecut=    50.00 Ry     beta= 0.70
     Davidson diagonalization with overlap
     ethr =  1.82E-05,  avg # of iterations =  1.5

     negative rho (up, down):  1.382E-02 1.223E-02

     total cpu time spent up to now is      315.6 secs

     total energy              =   -6056.53072846 Ry
     estimated scf accuracy    <       0.02549334 Ry

     total magnetization       =    61.32 Bohr mag/cell
     absolute magnetization    =    68.89 Bohr mag/cell

     iteration # 17     ecut=    50.00 Ry     beta= 0.70
     Davidson diagonalization with overlap
     c_bands:  2 eigenvalues not converged
     c_bands:  2 eigenvalues not converged
     c_bands:  3 eigenvalues not converged
     c_bands:  4 eigenvalues not converged
     c_bands:  1 eigenvalues not converged
     ethr =  7.61E-06,  avg # of iterations =  9.5

     negative rho (up, down):  1.277E-02 1.135E-02

     total cpu time spent up to now is      343.7 secs

     total energy              =   -6056.52891590 Ry
     estimated scf accuracy    <       0.04151215 Ry

     total magnetization       =    61.32 Bohr mag/cell
     absolute magnetization    =    68.89 Bohr mag/cell

     iteration # 18     ecut=    50.00 Ry     beta= 0.70
     Davidson diagonalization with overlap
     ethr =  7.61E-06,  avg # of iterations =  2.2

     negative rho (up, down):  1.673E-02 1.528E-02

     total cpu time spent up to now is      361.8 secs

     total energy              =   -6056.52814293 Ry
     estimated scf accuracy    <       0.01709751 Ry

     total magnetization       =    61.32 Bohr mag/cell
     absolute magnetization    =    68.89 Bohr mag/cell

     iteration # 19     ecut=    50.00 Ry     beta= 0.70
     Davidson diagonalization with overlap
     ethr =  5.10E-06,  avg # of iterations =  2.6

     negative rho (up, down):  2.632E-02 2.470E-02

     total cpu time spent up to now is      379.9 secs

     total energy              =   -6056.52660873 Ry
     estimated scf accuracy    <       0.01346362 Ry

     total magnetization       =    61.32 Bohr mag/cell
     absolute magnetization    =    68.88 Bohr mag/cell

     iteration # 20     ecut=    50.00 Ry     beta= 0.70
     Davidson diagonalization with overlap
     ethr =  4.02E-06,  avg # of iterations =  2.4

     negative rho (up, down):  2.274E-02 2.161E-02

     total cpu time spent up to now is      398.5 secs

     total energy              =   -6056.52558604 Ry
     estimated scf accuracy    <       0.01532605 Ry

     total magnetization       =    61.32 Bohr mag/cell
     absolute magnetization    =    68.87 Bohr mag/cell

     iteration # 21     ecut=    50.00 Ry     beta= 0.70
     Davidson diagonalization with overlap
     ethr =  4.02E-06,  avg # of iterations =  1.7

     negative rho (up, down):  2.583E-02 2.470E-02

     total cpu time spent up to now is      419.0 secs

     total energy              =   -6056.52561146 Ry
     estimated scf accuracy    <       0.01822845 Ry

     total magnetization       =    61.32 Bohr mag/cell
     absolute magnetization    =    68.87 Bohr mag/cell

     iteration # 22     ecut=    50.00 Ry     beta= 0.70
     Davidson diagonalization with overlap
     ethr =  4.02E-06,  avg # of iterations =  1.1

     negative rho (up, down):  2.164E-02 2.060E-02

     total cpu time spent up to now is      432.5 secs

     total energy              =   -6056.52570411 Ry
     estimated scf accuracy    <       0.00497908 Ry

     total magnetization       =    61.32 Bohr mag/cell
     absolute magnetization    =    68.87 Bohr mag/cell

     iteration # 23     ecut=    50.00 Ry     beta= 0.70
     Davidson diagonalization with overlap
     c_bands:  2 eigenvalues not converged
     ethr =  1.49E-06,  avg # of iterations =  3.8

     negative rho (up, down):  1.937E-02 1.845E-02

     total cpu time spent up to now is      452.3 secs

     total energy              =   -6056.52576660 Ry
     estimated scf accuracy    <       0.00288708 Ry

     total magnetization       =    61.32 Bohr mag/cell
     absolute magnetization    =    68.87 Bohr mag/cell

     iteration # 24     ecut=    50.00 Ry     beta= 0.70
     Davidson diagonalization with overlap
     ethr =  8.62E-07,  avg # of iterations =  1.9

     negative rho (up, down):  1.188E-02 1.118E-02

     total cpu time spent up to now is      466.6 secs

     total energy              =   -6056.52563807 Ry
     estimated scf accuracy    <       0.00144680 Ry

     total magnetization       =    61.32 Bohr mag/cell
     absolute magnetization    =    68.88 Bohr mag/cell

     iteration # 25     ecut=    50.00 Ry     beta= 0.70
     Davidson diagonalization with overlap
     ethr =  4.32E-07,  avg # of iterations =  3.8

     negative rho (up, down):  1.124E-02 1.055E-02

     total cpu time spent up to now is      489.7 secs

     total energy              =   -6056.52562324 Ry
     estimated scf accuracy    <       0.00403211 Ry

     total magnetization       =    61.32 Bohr mag/cell
     absolute magnetization    =    68.88 Bohr mag/cell

     iteration # 26     ecut=    50.00 Ry     beta= 0.70
     Davidson diagonalization with overlap
     ethr =  4.32E-07,  avg # of iterations =  1.4

     negative rho (up, down):  6.115E-03 5.395E-03

     total cpu time spent up to now is      506.9 secs

     total energy              =   -6056.52569808 Ry
     estimated scf accuracy    <       0.00032173 Ry

     total magnetization       =    61.32 Bohr mag/cell
     absolute magnetization    =    68.88 Bohr mag/cell

     iteration # 27     ecut=    50.00 Ry     beta= 0.70
     Davidson diagonalization with overlap
     ethr =  9.60E-08,  avg # of iterations =  4.7

     negative rho (up, down):  6.287E-03 5.515E-03

     total cpu time spent up to now is      527.3 secs

     total energy              =   -6056.52585518 Ry
     estimated scf accuracy    <       0.00056171 Ry

     total magnetization       =    61.32 Bohr mag/cell
     absolute magnetization    =    68.88 Bohr mag/cell

     iteration # 28     ecut=    50.00 Ry     beta= 0.70
     Davidson diagonalization with overlap
     ethr =  9.60E-08,  avg # of iterations =  1.8

     negative rho (up, down):  5.499E-03 4.663E-03

     total cpu time spent up to now is      545.9 secs

     total energy              =   -6056.52584873 Ry
     estimated scf accuracy    <       0.00032170 Ry

     total magnetization       =    61.32 Bohr mag/cell
     absolute magnetization    =    68.88 Bohr mag/cell

     iteration # 29     ecut=    50.00 Ry     beta= 0.70
     Davidson diagonalization with overlap
     ethr =  9.60E-08,  avg # of iterations =  1.2

     negative rho (up, down):  4.810E-03 3.919E-03

     total cpu time spent up to now is      562.2 secs

     total energy              =   -6056.52583524 Ry
     estimated scf accuracy    <       0.00018845 Ry

     total magnetization       =    61.32 Bohr mag/cell
     absolute magnetization    =    68.88 Bohr mag/cell

     iteration # 30     ecut=    50.00 Ry     beta= 0.70
     Davidson diagonalization with overlap
     ethr =  5.63E-08,  avg # of iterations =  1.4

     negative rho (up, down):  4.125E-03 3.114E-03

     total cpu time spent up to now is      579.7 secs

     total energy              =   -6056.52583268 Ry
     estimated scf accuracy    <       0.00009921 Ry

     total magnetization       =    61.32 Bohr mag/cell
     absolute magnetization    =    68.88 Bohr mag/cell

     iteration # 31     ecut=    50.00 Ry     beta= 0.70
     Davidson diagonalization with overlap
     ethr =  2.96E-08,  avg # of iterations =  2.5

     negative rho (up, down):  4.102E-03 3.091E-03

     total cpu time spent up to now is      601.5 secs

     total energy              =   -6056.52582996 Ry
     estimated scf accuracy    <       0.00009850 Ry

     total magnetization       =    61.32 Bohr mag/cell
     absolute magnetization    =    68.88 Bohr mag/cell

     iteration # 32     ecut=    50.00 Ry     beta= 0.70
     Davidson diagonalization with overlap
     ethr =  2.94E-08,  avg # of iterations =  1.8

     negative rho (up, down):  3.580E-03 2.535E-03

     total cpu time spent up to now is      616.3 secs

     total energy              =   -6056.52581123 Ry
     estimated scf accuracy    <       0.00020758 Ry

     total magnetization       =    61.32 Bohr mag/cell
     absolute magnetization    =    68.88 Bohr mag/cell

     iteration # 33     ecut=    50.00 Ry     beta= 0.70
     Davidson diagonalization with overlap
     ethr =  2.94E-08,  avg # of iterations =  1.3

     negative rho (up, down):  3.720E-03 2.793E-03

     total cpu time spent up to now is      636.0 secs

     total energy              =   -6056.52582873 Ry
     estimated scf accuracy    <       0.00008676 Ry

     total magnetization       =    61.32 Bohr mag/cell
     absolute magnetization    =    68.88 Bohr mag/cell

     iteration # 34     ecut=    50.00 Ry     beta= 0.70
     Davidson diagonalization with overlap
     ethr =  2.59E-08,  avg # of iterations =  2.5

     negative rho (up, down):  2.957E-03 1.815E-03

     total cpu time spent up to now is      650.6 secs

     total energy              =   -6056.52580502 Ry
     estimated scf accuracy    <       0.00011734 Ry

     total magnetization       =    61.32 Bohr mag/cell
     absolute magnetization    =    68.88 Bohr mag/cell

     iteration # 35     ecut=    50.00 Ry     beta= 0.70
     Davidson diagonalization with overlap
     ethr =  2.59E-08,  avg # of iterations =  1.3

     negative rho (up, down):  3.237E-03 2.246E-03

     total cpu time spent up to now is      670.7 secs

     total energy              =   -6056.52581642 Ry
     estimated scf accuracy    <       0.00007576 Ry

     total magnetization       =    61.32 Bohr mag/cell
     absolute magnetization    =    68.88 Bohr mag/cell

     iteration # 36     ecut=    50.00 Ry     beta= 0.70
     Davidson diagonalization with overlap
     ethr =  2.26E-08,  avg # of iterations =  1.3

     negative rho (up, down):  3.098E-03 2.160E-03

     total cpu time spent up to now is      687.8 secs

     total energy              =   -6056.52581622 Ry
     estimated scf accuracy    <       0.00007409 Ry

     total magnetization       =    61.32 Bohr mag/cell
     absolute magnetization    =    68.88 Bohr mag/cell

     iteration # 37     ecut=    50.00 Ry     beta= 0.70
     Davidson diagonalization with overlap
     ethr =  2.21E-08,  avg # of iterations =  1.2

     negative rho (up, down):  2.907E-03 1.828E-03

     total cpu time spent up to now is      704.6 secs

     total energy              =   -6056.52581179 Ry
     estimated scf accuracy    <       0.00001306 Ry

     total magnetization       =    61.32 Bohr mag/cell
     absolute magnetization    =    68.88 Bohr mag/cell

     iteration # 38     ecut=    50.00 Ry     beta= 0.70
     Davidson diagonalization with overlap
     ethr =  3.90E-09,  avg # of iterations =  4.0

     negative rho (up, down):  2.689E-03 1.617E-03

     total cpu time spent up to now is      725.5 secs

     total energy              =   -6056.52580992 Ry
     estimated scf accuracy    <       0.00004171 Ry

     total magnetization       =    61.32 Bohr mag/cell
     absolute magnetization    =    68.88 Bohr mag/cell

     iteration # 39     ecut=    50.00 Ry     beta= 0.70
     Davidson diagonalization with overlap
     ethr =  3.90E-09,  avg # of iterations =  2.0

     negative rho (up, down):  2.539E-03 1.463E-03

     total cpu time spent up to now is      746.7 secs

     total energy              =   -6056.52580971 Ry
     estimated scf accuracy    <       0.00000775 Ry

     total magnetization       =    61.32 Bohr mag/cell
     absolute magnetization    =    68.88 Bohr mag/cell

     iteration # 40     ecut=    50.00 Ry     beta= 0.70
     Davidson diagonalization with overlap
     ethr =  2.31E-09,  avg # of iterations =  2.6

     negative rho (up, down):  2.385E-03 1.267E-03

     total cpu time spent up to now is      765.0 secs

     total energy              =   -6056.52581047 Ry
     estimated scf accuracy    <       0.00002021 Ry

     total magnetization       =    61.32 Bohr mag/cell
     absolute magnetization    =    68.88 Bohr mag/cell

     iteration # 41     ecut=    50.00 Ry     beta= 0.70
     Davidson diagonalization with overlap
     ethr =  2.31E-09,  avg # of iterations =  1.5

     negative rho (up, down):  2.419E-03 1.296E-03

     total cpu time spent up to now is      783.2 secs

     total energy              =   -6056.52581069 Ry
     estimated scf accuracy    <       0.00000536 Ry

     total magnetization       =    61.32 Bohr mag/cell
     absolute magnetization    =    68.88 Bohr mag/cell

     iteration # 42     ecut=    50.00 Ry     beta= 0.70
     Davidson diagonalization with overlap
     ethr =  1.60E-09,  avg # of iterations =  1.7

     negative rho (up, down):  2.337E-03 1.213E-03

     total cpu time spent up to now is      800.6 secs

     total energy              =   -6056.52581031 Ry
     estimated scf accuracy    <       0.00001249 Ry

     total magnetization       =    61.32 Bohr mag/cell
     absolute magnetization    =    68.88 Bohr mag/cell

     iteration # 43     ecut=    50.00 Ry     beta= 0.70
     Davidson diagonalization with overlap
     ethr =  1.60E-09,  avg # of iterations =  1.1

     negative rho (up, down):  2.262E-03 1.139E-03

     total cpu time spent up to now is      817.9 secs

     total energy              =   -6056.52581045 Ry
     estimated scf accuracy    <       0.00000306 Ry

     total magnetization       =    61.32 Bohr mag/cell
     absolute magnetization    =    68.88 Bohr mag/cell

     iteration # 44     ecut=    50.00 Ry     beta= 0.70
     Davidson diagonalization with overlap
     ethr =  9.14E-10,  avg # of iterations =  2.0

     negative rho (up, down):  2.233E-03 1.114E-03

     total cpu time spent up to now is      834.4 secs

     total energy              =   -6056.52581055 Ry
     estimated scf accuracy    <       0.00000260 Ry

     total magnetization       =    61.32 Bohr mag/cell
     absolute magnetization    =    68.88 Bohr mag/cell

     iteration # 45     ecut=    50.00 Ry     beta= 0.70
     Davidson diagonalization with overlap
     ethr =  7.75E-10,  avg # of iterations =  1.5

     negative rho (up, down):  2.255E-03 1.137E-03

     total cpu time spent up to now is      851.1 secs

     total energy              =   -6056.52581079 Ry
     estimated scf accuracy    <       0.00000411 Ry

     total magnetization       =    61.32 Bohr mag/cell
     absolute magnetization    =    68.88 Bohr mag/cell

     iteration # 46     ecut=    50.00 Ry     beta= 0.70
     Davidson diagonalization with overlap
     ethr =  7.75E-10,  avg # of iterations =  1.1

     negative rho (up, down):  2.232E-03 1.116E-03

     total cpu time spent up to now is      871.0 secs

     total energy              =   -6056.52581091 Ry
     estimated scf accuracy    <       0.00000091 Ry

     total magnetization       =    61.32 Bohr mag/cell
     absolute magnetization    =    68.88 Bohr mag/cell

     iteration # 47     ecut=    50.00 Ry     beta= 0.70
     Davidson diagonalization with overlap
     ethr =  2.70E-10,  avg # of iterations =  3.7

     negative rho (up, down):  2.214E-03 1.101E-03

     total cpu time spent up to now is      887.1 secs

     total energy              =   -6056.52581101 Ry
     estimated scf accuracy    <       0.00000043 Ry

     total magnetization       =    61.32 Bohr mag/cell
     absolute magnetization    =    68.88 Bohr mag/cell

     iteration # 48     ecut=    50.00 Ry     beta= 0.70
     Davidson diagonalization with overlap
     c_bands:  2 eigenvalues not converged
     ethr =  1.27E-10,  avg # of iterations =  3.6

     negative rho (up, down):  2.202E-03 1.092E-03

     total cpu time spent up to now is      909.9 secs

     total energy              =   -6056.52581109 Ry
     estimated scf accuracy    <       0.00000022 Ry

     total magnetization       =    61.32 Bohr mag/cell
     absolute magnetization    =    68.88 Bohr mag/cell

     iteration # 49     ecut=    50.00 Ry     beta= 0.70
     Davidson diagonalization with overlap
     ethr =  6.55E-11,  avg # of iterations =  3.7

     negative rho (up, down):  2.193E-03 1.086E-03

     total cpu time spent up to now is      929.7 secs

     total energy              =   -6056.52581114 Ry
     estimated scf accuracy    <       0.00000008 Ry

     total magnetization       =    61.32 Bohr mag/cell
     absolute magnetization    =    68.88 Bohr mag/cell

     iteration # 50     ecut=    50.00 Ry     beta= 0.70
     Davidson diagonalization with overlap
     ethr =  2.28E-11,  avg # of iterations =  5.0

     negative rho (up, down):  2.205E-03 1.098E-03

     total cpu time spent up to now is      950.3 secs

     total energy              =   -6056.52581119 Ry
     estimated scf accuracy    <       0.00000005 Ry

     total magnetization       =    61.32 Bohr mag/cell
     absolute magnetization    =    68.88 Bohr mag/cell

     iteration # 51     ecut=    50.00 Ry     beta= 0.70
     Davidson diagonalization with overlap
     ethr =  1.50E-11,  avg # of iterations =  2.2

     negative rho (up, down):  2.211E-03 1.105E-03

     total cpu time spent up to now is      969.5 secs

     total energy              =   -6056.52581122 Ry
     estimated scf accuracy    <       0.00000002 Ry

     total magnetization       =    61.32 Bohr mag/cell
     absolute magnetization    =    68.88 Bohr mag/cell

     iteration # 52     ecut=    50.00 Ry     beta= 0.70
     Davidson diagonalization with overlap
     ethr =  7.41E-12,  avg # of iterations =  3.5

     negative rho (up, down):  2.210E-03 1.104E-03

     total cpu time spent up to now is      991.7 secs

     total energy              =   -6056.52581122 Ry
     estimated scf accuracy    <       0.00000002 Ry

     total magnetization       =    61.32 Bohr mag/cell
     absolute magnetization    =    68.88 Bohr mag/cell

     iteration # 53     ecut=    50.00 Ry     beta= 0.70
     Davidson diagonalization with overlap
     ethr =  4.63E-12,  avg # of iterations =  2.3

     negative rho (up, down):  2.219E-03 1.114E-03

     total cpu time spent up to now is     1006.6 secs

     total energy              =   -6056.52581125 Ry
     estimated scf accuracy    <       0.00000002 Ry

     total magnetization       =    61.32 Bohr mag/cell
     absolute magnetization    =    68.88 Bohr mag/cell

     iteration # 54     ecut=    50.00 Ry     beta= 0.70
     Davidson diagonalization with overlap
     ethr =  4.63E-12,  avg # of iterations =  2.5

     negative rho (up, down):  2.227E-03 1.122E-03

     Magnetic moment per site  (integrated on atomic sphere of radius R)
     atom   1 (R=0.102)  charge=  6.1920  magn=  1.7641
     atom   2 (R=0.102)  charge=  6.1919  magn=  1.7564
     atom   3 (R=0.102)  charge=  6.1924  magn=  1.7594
     atom   4 (R=0.102)  charge=  6.1919  magn=  1.7635
     atom   5 (R=0.102)  charge=  6.1924  magn=  1.7597
     atom   6 (R=0.102)  charge=  6.1917  magn=  1.7646
     atom   7 (R=0.102)  charge=  6.1927  magn=  1.7669
     atom   8 (R=0.102)  charge=  6.1919  magn=  1.7652
     atom   9 (R=0.102)  charge=  6.1919  magn=  1.7602
     atom  10 (R=0.102)  charge=  6.1969  magn=  1.6897
     atom  11 (R=0.102)  charge=  6.1975  magn=  1.7021
     atom  12 (R=0.102)  charge=  6.1970  magn=  1.6937
     atom  13 (R=0.102)  charge=  6.1976  magn=  1.7010
     atom  14 (R=0.102)  charge=  6.1982  magn=  1.6812
     atom  15 (R=0.102)  charge=  6.1981  magn=  1.6914
     atom  16 (R=0.102)  charge=  6.1972  magn=  1.6933
     atom  17 (R=0.102)  charge=  6.1980  magn=  1.6967
     atom  18 (R=0.102)  charge=  6.1979  magn=  1.6861
     atom  19 (R=0.102)  charge=  6.1960  magn=  1.6818
     atom  20 (R=0.102)  charge=  6.1928  magn=  1.7334
     atom  21 (R=0.102)  charge=  6.1989  magn=  1.6514
     atom  22 (R=0.102)  charge=  6.1975  magn=  1.6826
     atom  23 (R=0.102)  charge=  6.1989  magn=  1.6656
     atom  24 (R=0.102)  charge=  6.1962  magn=  1.7048
     atom  25 (R=0.102)  charge=  6.1972  magn=  1.6880
     atom  26 (R=0.102)  charge=  6.1960  magn=  1.6863
     atom  27 (R=0.102)  charge=  6.1980  magn=  1.6649
     atom  28 (R=0.102)  charge=  6.1984  magn=  1.7895
     atom  29 (R=0.102)  charge=  6.1997  magn=  1.7034
     atom  30 (R=0.102)  charge=  6.1914  magn=  1.7755
     atom  31 (R=0.102)  charge=  6.2053  magn=  1.6874
     atom  32 (R=0.102)  charge=  6.2199  magn=  1.0993
     atom  33 (R=0.102)  charge=  6.1904  magn=  1.7755
     atom  34 (R=0.102)  charge=  6.1933  magn=  1.7617
     atom  35 (R=0.102)  charge=  6.1923  magn=  1.7776
     atom  36 (R=0.102)  charge=  6.1898  magn=  1.7955
     atom  37 (R=0.061)  charge=  0.8324  magn= -0.0260
     atom  38 (R=0.071)  charge=  3.3242  magn=  0.0177
     atom  39 (R=0.061)  charge=  0.5059  magn= -0.0012

     total cpu time spent up to now is     1028.8 secs

     End of self-consistent calculation

 ------ SPIN UP ------------


          k = 0.0000 0.0000 0.0000 ( 51087 PWs)   bands (ev):

   -21.3637 -10.0828  -7.4695  -6.7775  -6.2096  -5.5987  -5.3778  -4.5605
    -4.5435  -4.5429  -4.5387  -4.5381  -4.5052  -4.4852  -4.1743  -4.0309
    -4.0109  -4.0101  -4.0022  -3.9618  -3.9507  -3.5203  -3.4983  -3.4974
    -3.4861  -3.4649  -3.4390  -3.3676  -3.3634  -3.3619  -3.3566  -3.3501
    -3.3171  -3.2889  -3.2866  -2.9849  -2.9790  -2.9711  -2.9698  -2.9495
    -2.9195  -2.9163  -2.9084  -2.9008  -2.8998  -2.8960  -2.8937  -2.7489
    -2.7416  -2.7183  -2.6930  -2.6795  -2.6693  -2.6630  -2.6535  -2.6381
    -2.6358  -2.6304  -2.6123  -2.5400  -2.5375  -2.5346  -2.5265  -2.5226
    -2.4532  -2.2262  -2.0329  -2.0063  -2.0047  -1.9930  -1.9900  -1.8889
    -1.8753  -1.8639  -1.8535  -1.8425  -1.8361  -1.8185  -1.8117  -1.8092
    -1.7779  -1.7658  -1.7562  -1.7275  -1.7144  -1.7104  -1.6944  -1.6862
    -1.6791  -1.6715  -1.6698  -1.6614  -1.6450  -1.6396  -1.6381  -1.6327
    -1.6289  -1.6266  -1.6230  -1.6206  -1.6164  -1.6142  -1.6105  -1.6090
    -1.5966  -1.5580  -1.5441  -1.5387  -1.5231  -1.4643  -1.4586  -1.4113
    -1.2643  -1.2105  -1.1789  -1.1724  -1.1693  -1.1683  -1.1451  -1.1261
    -1.1249  -1.1177  -1.0888  -1.0781  -1.0697  -0.9719  -0.9562  -0.9493
    -0.9242  -0.9006  -0.8310  -0.7786  -0.7597  -0.7541  -0.7416  -0.7151
    -0.6930  -0.6855  -0.6811  -0.6788  -0.6570  -0.6435  -0.5967  -0.5647
    -0.5031  -0.4435  -0.4307  -0.4296  -0.4135  -0.3861  -0.3712  -0.3677
    -0.3622  -0.3609  -0.3574  -0.3543  -0.3500  -0.3461  -0.3432  -0.3322
    -0.3213  -0.3190  -0.3041  -0.2999  -0.2890  -0.2865  -0.2832  -0.2685
    -0.2610  -0.2592  -0.2368  -0.2328  -0.2253  -0.2190  -0.2134  -0.2106
    -0.2087  -0.2050  -0.1629  -0.1536  -0.1364  -0.1324  -0.1285  -0.1218
    -0.1192  -0.1084  -0.0913  -0.0878  -0.0797  -0.0615  -0.0340  -0.0325
    -0.0301  -0.0251   0.0281   0.0318   0.0353   0.0452   0.0589   0.0913
     0.4974   0.9494

          k = 0.0000 0.2309 0.0000 ( 51134 PWs)   bands (ev):

   -21.3637 -10.0837  -7.3278  -6.7512  -6.1352  -5.5860  -5.3846  -5.2386
    -4.7909  -4.7698  -4.4178  -4.2883  -4.2043  -4.1981  -4.1373  -4.0819
    -4.0479  -4.0085  -3.9358  -3.8888  -3.8638  -3.6217  -3.5145  -3.4968
    -3.4321  -3.4067  -3.3757  -3.3683  -3.3651  -3.3590  -3.3408  -3.3240
    -3.2951  -3.2494  -3.2429  -3.2229  -3.2169  -3.0499  -2.9994  -2.9884
    -2.9445  -2.9376  -2.9326  -2.9232  -2.8631  -2.8118  -2.8040  -2.7770
    -2.7683  -2.7620  -2.7380  -2.7215  -2.6389  -2.6233  -2.6056  -2.5686
    -2.5627  -2.5382  -2.5242  -2.5148  -2.4862  -2.4740  -2.4569  -2.4411
    -2.3963  -2.2666  -2.1266  -2.1041  -2.0891  -2.0600  -2.0337  -1.9745
    -1.9650  -1.9547  -1.9440  -1.9327  -1.9229  -1.9077  -1.8846  -1.8486
    -1.8179  -1.8149  -1.7956  -1.7661  -1.7524  -1.7457  -1.7407  -1.7301
    -1.7198  -1.7134  -1.7080  -1.7056  -1.6966  -1.6769  -1.6446  -1.6333
    -1.6041  -1.5851  -1.5494  -1.5314  -1.5231  -1.5188  -1.5141  -1.5006
    -1.4887  -1.4819  -1.4690  -1.4657  -1.4630  -1.4431  -1.4291  -1.4122
    -1.3933  -1.3890  -1.3608  -1.3192  -1.2862  -1.2418  -1.2152  -1.1955
    -1.1835  -1.1779  -1.1628  -1.1573  -1.1463  -1.1218  -1.0423  -1.0063
    -0.9810  -0.9582  -0.9372  -0.9056  -0.8894  -0.8487  -0.8237  -0.7976
    -0.7915  -0.7365  -0.7122  -0.6979  -0.6653  -0.6589  -0.6386  -0.6272
    -0.6215  -0.5952  -0.5813  -0.5490  -0.5346  -0.5274  -0.5107  -0.5063
    -0.4649  -0.4466  -0.4291  -0.4265  -0.4063  -0.3907  -0.3643  -0.3610
    -0.3508  -0.3437  -0.3398  -0.3336  -0.3136  -0.3019  -0.2806  -0.2477
    -0.2424  -0.2265  -0.2132  -0.1871  -0.1782  -0.1541  -0.1327  -0.1125
    -0.1014  -0.0924  -0.0827  -0.0783  -0.0564  -0.0520  -0.0443  -0.0310
    -0.0095   0.0232   0.0380   0.0488   0.0678   0.0749   0.1092   0.1232
     0.1404   0.1750   0.4156   0.4222   0.5051   0.5886   0.6608   0.7041
     0.7470   0.8968

          k = 0.0000 0.4619 0.0000 ( 51204 PWs)   bands (ev):

   -21.3637 -10.0851  -6.9733  -6.6599  -6.1538  -5.9387  -5.4627  -5.2677
    -4.9332  -4.9016  -4.8003  -4.0975  -4.0459  -4.0353  -3.9954  -3.9568
    -3.8469  -3.8437  -3.8025  -3.7202  -3.7098  -3.6956  -3.6076  -3.5327
    -3.5231  -3.5205  -3.5135  -3.4639  -3.4360  -3.4084  -3.3971  -3.2496
    -3.2435  -3.2367  -3.2159  -3.2005  -3.1888  -3.1187  -3.0941  -3.0799
    -3.0688  -3.0605  -2.9594  -2.8759  -2.8679  -2.7877  -2.7651  -2.7367
    -2.7225  -2.6864  -2.6803  -2.6740  -2.6541  -2.6442  -2.5920  -2.5754
    -2.5516  -2.5245  -2.5120  -2.4248  -2.3745  -2.3641  -2.3375  -2.3043
    -2.2707  -2.2546  -2.2317  -2.2112  -2.1929  -2.1495  -2.0874  -2.0829
    -2.0798  -2.0740  -2.0624  -2.0507  -2.0397  -2.0220  -1.9911  -1.9673
    -1.9565  -1.9329  -1.9070  -1.8937  -1.8675  -1.8348  -1.7810  -1.7662
    -1.7617  -1.7389  -1.7294  -1.7105  -1.6820  -1.6600  -1.6491  -1.6372
    -1.6275  -1.6161  -1.5979  -1.5834  -1.5714  -1.5631  -1.5537  -1.5268
    -1.5168  -1.4907  -1.4579  -1.4534  -1.4051  -1.3698  -1.3603  -1.3454
    -1.3345  -1.3203  -1.2698  -1.2577  -1.2341  -1.2236  -1.2156  -1.2112
    -1.1972  -1.1915  -1.1867  -1.1804  -1.1641  -1.1613  -1.1412  -1.1321
    -1.1105  -1.0901  -1.0354  -1.0142  -0.9808  -0.9755  -0.9670  -0.9361
    -0.9086  -0.8782  -0.8572  -0.8417  -0.8233  -0.7931  -0.7697  -0.7291
    -0.6974  -0.6708  -0.6618  -0.6370  -0.6231  -0.6081  -0.5969  -0.5183
    -0.4907  -0.4570  -0.4408  -0.4338  -0.4252  -0.4188  -0.4078  -0.3997
    -0.3812  -0.3433  -0.2964  -0.2853  -0.2723  -0.2588  -0.2471  -0.2442
    -0.2311  -0.2228  -0.2117  -0.1987  -0.1781  -0.1501  -0.1014  -0.0786
    -0.0719  -0.0562  -0.0397  -0.0004   0.0282   0.0336   0.0520   0.0858
     0.1022   0.1399   0.1456   0.1652   0.1682   0.1743   0.1923   0.2045
     0.2723   0.2923   0.4028   0.9784   1.1745   1.3509   1.4100   1.4400
     1.6774   1.7856

          k = 0.2000-0.1155 0.0000 ( 51134 PWs)   bands (ev):

   -21.3637 -10.0829  -7.3285  -6.7509  -6.1415  -5.6060  -5.3880  -5.2023
    -4.7947  -4.7820  -4.4082  -4.2724  -4.2070  -4.1984  -4.1334  -4.0808
    -4.0655  -4.0099  -3.9265  -3.8961  -3.8661  -3.6185  -3.5185  -3.4941
    -3.4216  -3.4003  -3.3815  -3.3680  -3.3650  -3.3577  -3.3508  -3.3233
    -3.2944  -3.2526  -3.2418  -3.2247  -3.2166  -3.0263  -3.0010  -2.9934
    -2.9581  -2.9440  -2.9299  -2.9247  -2.8467  -2.8196  -2.8042  -2.7751
    -2.7636  -2.7602  -2.7483  -2.7218  -2.6359  -2.6254  -2.6028  -2.5734
    -2.5607  -2.5493  -2.5260  -2.5162  -2.4874  -2.4736  -2.4542  -2.4433
    -2.3879  -2.2784  -2.1236  -2.1046  -2.0856  -2.0571  -2.0300  -1.9716
    -1.9649  -1.9526  -1.9450  -1.9415  -1.9211  -1.9033  -1.8778  -1.8451
    -1.8250  -1.8165  -1.8018  -1.7650  -1.7593  -1.7504  -1.7430  -1.7304
    -1.7193  -1.7116  -1.7078  -1.7054  -1.6866  -1.6704  -1.6617  -1.6270
    -1.6090  -1.5841  -1.5495  -1.5333  -1.5195  -1.5164  -1.5106  -1.5043
    -1.4873  -1.4814  -1.4688  -1.4648  -1.4498  -1.4422  -1.4247  -1.4120
    -1.3957  -1.3885  -1.3490  -1.3109  -1.2975  -1.2528  -1.2244  -1.1968
    -1.1846  -1.1718  -1.1659  -1.1593  -1.1513  -1.1080  -1.0427  -1.0074
    -0.9907  -0.9719  -0.9349  -0.9058  -0.8916  -0.8423  -0.8251  -0.8104
    -0.7880  -0.7207  -0.7085  -0.6911  -0.6669  -0.6550  -0.6423  -0.6281
    -0.6201  -0.5948  -0.5914  -0.5482  -0.5327  -0.5249  -0.5123  -0.5069
    -0.4718  -0.4421  -0.4325  -0.4264  -0.4021  -0.3836  -0.3671  -0.3627
    -0.3508  -0.3430  -0.3366  -0.3323  -0.3115  -0.3019  -0.2881  -0.2534
    -0.2417  -0.2264  -0.2138  -0.1908  -0.1684  -0.1565  -0.1368  -0.1143
    -0.1060  -0.0928  -0.0814  -0.0774  -0.0561  -0.0492  -0.0456  -0.0178
    -0.0096   0.0251   0.0362   0.0481   0.0675   0.0749   0.1133   0.1252
     0.1333   0.1744   0.4076   0.4246   0.5261   0.5776   0.6598   0.7014
     0.7878   0.9042

          k = 0.2000 0.1155 0.0000 ( 51134 PWs)   bands (ev):

   -21.3637 -10.0841  -7.3266  -6.7513  -6.1307  -5.5729  -5.3846  -5.2676
    -4.7851  -4.7636  -4.4204  -4.3042  -4.2050  -4.1952  -4.1377  -4.0846
    -4.0277  -4.0109  -3.9440  -3.8794  -3.8638  -3.6247  -3.5078  -3.5013
    -3.4366  -3.4051  -3.3741  -3.3711  -3.3657  -3.3556  -3.3376  -3.3234
    -3.2875  -3.2516  -3.2462  -3.2196  -3.2162  -3.0415  -2.9940  -2.9891
    -2.9498  -2.9362  -2.9303  -2.9242  -2.8605  -2.8190  -2.8057  -2.7820
    -2.7677  -2.7622  -2.7440  -2.7264  -2.6409  -2.6267  -2.6043  -2.5712
    -2.5630  -2.5350  -2.5231  -2.5060  -2.4903  -2.4760  -2.4539  -2.4446
    -2.3994  -2.2615  -2.1203  -2.1048  -2.0823  -2.0640  -2.0420  -1.9669
    -1.9633  -1.9590  -1.9425  -1.9334  -1.9277  -1.9117  -1.8747  -1.8577
    -1.8352  -1.8143  -1.7879  -1.7742  -1.7547  -1.7502  -1.7441  -1.7283
    -1.7162  -1.7131  -1.7112  -1.7022  -1.6823  -1.6777  -1.6521  -1.6271
    -1.5980  -1.5783  -1.5620  -1.5374  -1.5206  -1.5132  -1.5076  -1.5007
    -1.4885  -1.4813  -1.4713  -1.4657  -1.4642  -1.4394  -1.4247  -1.4121
    -1.3982  -1.3914  -1.3782  -1.3284  -1.2970  -1.2311  -1.2019  -1.1926
    -1.1819  -1.1787  -1.1643  -1.1595  -1.1504  -1.1367  -1.0413  -1.0308
    -0.9749  -0.9612  -0.9092  -0.9031  -0.8773  -0.8631  -0.8250  -0.8107
    -0.7601  -0.7331  -0.7088  -0.6902  -0.6641  -0.6601  -0.6389  -0.6298
    -0.6159  -0.6020  -0.5780  -0.5345  -0.5269  -0.5161  -0.5044  -0.5004
    -0.4960  -0.4450  -0.4337  -0.4259  -0.4141  -0.3881  -0.3715  -0.3589
    -0.3535  -0.3462  -0.3364  -0.3303  -0.3072  -0.3048  -0.2744  -0.2609
    -0.2397  -0.2263  -0.2112  -0.1959  -0.1718  -0.1689  -0.1252  -0.1072
    -0.1021  -0.0936  -0.0879  -0.0783  -0.0547  -0.0504  -0.0386  -0.0227
    -0.0036   0.0326   0.0407   0.0468   0.0723   0.0747   0.1082   0.1182
     0.1580   0.1752   0.4146   0.4184   0.5008   0.5635   0.6517   0.6799
     0.7475   0.9399

          k = 0.2000 0.3464 0.0000 ( 51202 PWs)   bands (ev):

   -21.3637 -10.0856  -7.0687  -6.6988  -6.0241  -5.6589  -5.6257  -5.3802
    -5.3278  -4.5066  -4.4626  -4.2072  -4.1936  -4.1559  -3.9946  -3.9862
    -3.8970  -3.8910  -3.8743  -3.7558  -3.7329  -3.6265  -3.6059  -3.5416
    -3.5030  -3.4135  -3.4061  -3.3956  -3.3770  -3.3585  -3.3365  -3.3162
    -3.3066  -3.2820  -3.2649  -3.2327  -3.1969  -3.1518  -3.1469  -3.0627
    -3.0272  -2.9333  -2.9226  -2.9042  -2.8854  -2.8758  -2.7826  -2.7400
    -2.7304  -2.6965  -2.6923  -2.6767  -2.6435  -2.6213  -2.6144  -2.6033
    -2.5783  -2.4960  -2.4702  -2.4211  -2.4121  -2.3970  -2.3628  -2.3473
    -2.3320  -2.2499  -2.2203  -2.1495  -2.1353  -2.1125  -2.0956  -2.0615
    -2.0556  -2.0444  -2.0326  -2.0187  -2.0010  -1.9854  -1.9817  -1.9674
    -1.9554  -1.9141  -1.8803  -1.8654  -1.7919  -1.7850  -1.7680  -1.7510
    -1.7453  -1.7109  -1.6953  -1.6744  -1.6601  -1.6442  -1.6339  -1.6210
    -1.6168  -1.6062  -1.5960  -1.5884  -1.5789  -1.5699  -1.5482  -1.5285
    -1.5249  -1.5135  -1.4858  -1.4549  -1.4376  -1.4154  -1.4061  -1.3872
    -1.3787  -1.3624  -1.3488  -1.3139  -1.2928  -1.2789  -1.2644  -1.2270
    -1.2213  -1.2088  -1.2022  -1.1933  -1.1726  -1.1532  -1.1378  -1.1008
    -1.0741  -1.0466  -1.0264  -0.9938  -0.9584  -0.9136  -0.8968  -0.8469
    -0.7977  -0.7897  -0.7794  -0.7683  -0.7537  -0.7379  -0.7284  -0.7138
    -0.6909  -0.6800  -0.6497  -0.6333  -0.6126  -0.5970  -0.5848  -0.5678
    -0.5568  -0.5377  -0.5157  -0.4928  -0.4859  -0.4439  -0.3789  -0.3495
    -0.3246  -0.3126  -0.2923  -0.2818  -0.2668  -0.2495  -0.2435  -0.2309
    -0.2196  -0.2082  -0.1603  -0.1362  -0.1253  -0.1185  -0.0813  -0.0694
    -0.0552  -0.0498  -0.0375  -0.0295  -0.0181  -0.0088   0.0010   0.0185
     0.0269   0.0689   0.1083   0.1194   0.1296   0.1644   0.1693   0.1851
     0.4841   0.5132   0.5711   0.6352   0.8501   0.8812   1.1741   1.3777
     1.4096   1.6273

          k = 0.2000-0.5774 0.0000 ( 51262 PWs)   bands (ev):

   -21.3637 -10.0853  -6.8626  -6.3991  -6.3546  -5.9330  -5.7069  -5.4026
    -5.0844  -4.9322  -4.5220  -4.1901  -3.9566  -3.9059  -3.8203  -3.7814
    -3.7731  -3.7482  -3.7366  -3.7173  -3.6730  -3.6622  -3.6602  -3.6526
    -3.5777  -3.5446  -3.5146  -3.5081  -3.4834  -3.4740  -3.3757  -3.3456
    -3.3274  -3.3234  -3.2946  -3.2519  -3.1895  -3.1560  -3.0825  -3.0314
    -3.0265  -2.9724  -2.9461  -2.9294  -2.8997  -2.8225  -2.8130  -2.8028
    -2.7467  -2.7317  -2.6562  -2.6267  -2.6111  -2.5898  -2.5434  -2.5304
    -2.4788  -2.4501  -2.4420  -2.4312  -2.4266  -2.4072  -2.3787  -2.3044
    -2.2667  -2.2407  -2.2277  -2.2179  -2.2019  -2.1586  -2.1384  -2.0902
    -2.0817  -2.0519  -2.0473  -2.0349  -2.0189  -2.0007  -1.9734  -1.9695
    -1.9523  -1.9405  -1.9230  -1.9001  -1.8986  -1.8727  -1.8337  -1.8245
    -1.7900  -1.7651  -1.7460  -1.7193  -1.6964  -1.6751  -1.6584  -1.6423
    -1.6238  -1.6165  -1.6092  -1.5960  -1.5908  -1.5767  -1.5532  -1.5264
    -1.4972  -1.4722  -1.4567  -1.4502  -1.4438  -1.4302  -1.4251  -1.4146
    -1.4082  -1.3979  -1.3794  -1.3609  -1.3393  -1.3127  -1.2896  -1.2636
    -1.2393  -1.2077  -1.1763  -1.1639  -1.1375  -1.1309  -1.1171  -1.0849
    -1.0575  -1.0521  -1.0414  -1.0099  -0.9550  -0.9175  -0.9002  -0.8863
    -0.8760  -0.8603  -0.8525  -0.8254  -0.8067  -0.7941  -0.7661  -0.7409
    -0.7169  -0.6941  -0.6841  -0.6794  -0.6459  -0.6173  -0.6089  -0.5946
    -0.5761  -0.5572  -0.5432  -0.5329  -0.4990  -0.4668  -0.4486  -0.3608
    -0.3095  -0.2907  -0.2797  -0.2674  -0.2593  -0.2528  -0.2443  -0.2172
    -0.1958  -0.1913  -0.1769  -0.1657  -0.1292  -0.1196  -0.0572  -0.0485
    -0.0421  -0.0219  -0.0124   0.0023   0.0393   0.0467   0.0543   0.0600
     0.0785   0.1411   0.1476   0.1571   0.1692   0.1729   0.2021   0.2286
     0.3271   0.5414   0.6549   0.8893   1.3574   1.4677   1.5054   1.8280
     1.8943   2.0052

          k = 0.2000-0.3464 0.0000 ( 51202 PWs)   bands (ev):

   -21.3637 -10.0836  -7.0730  -6.7002  -6.0401  -5.6969  -5.6183  -5.3926
    -5.2588  -4.5314  -4.4279  -4.2098  -4.2053  -4.1478  -3.9919  -3.9873
    -3.8946  -3.8778  -3.8688  -3.7642  -3.7519  -3.6161  -3.6138  -3.5461
    -3.5023  -3.4191  -3.4041  -3.3861  -3.3745  -3.3499  -3.3403  -3.3288
    -3.3136  -3.2874  -3.2669  -3.2351  -3.2015  -3.1584  -3.1401  -3.0546
    -3.0227  -2.9392  -2.9296  -2.9026  -2.8897  -2.8565  -2.7722  -2.7388
    -2.7226  -2.7016  -2.6930  -2.6724  -2.6487  -2.6357  -2.6120  -2.5924
    -2.5871  -2.5198  -2.4679  -2.4169  -2.4103  -2.3857  -2.3679  -2.3426
    -2.3313  -2.2667  -2.2099  -2.1459  -2.1276  -2.1170  -2.0952  -2.0683
    -2.0584  -2.0378  -2.0299  -2.0176  -2.0108  -1.9902  -1.9771  -1.9708
    -1.9464  -1.9160  -1.8671  -1.8203  -1.7905  -1.7794  -1.7694  -1.7481
    -1.7365  -1.7172  -1.7002  -1.6823  -1.6611  -1.6518  -1.6343  -1.6239
    -1.6213  -1.6116  -1.6033  -1.5874  -1.5775  -1.5660  -1.5534  -1.5348
    -1.5238  -1.5099  -1.4887  -1.4541  -1.4359  -1.4157  -1.3943  -1.3842
    -1.3706  -1.3588  -1.3490  -1.3020  -1.2876  -1.2795  -1.2597  -1.2397
    -1.2216  -1.2132  -1.2031  -1.1895  -1.1695  -1.1597  -1.1400  -1.0963
    -1.0833  -1.0482  -1.0419  -1.0002  -0.9632  -0.9229  -0.8976  -0.8438
    -0.8042  -0.7854  -0.7791  -0.7658  -0.7565  -0.7424  -0.7336  -0.7151
    -0.6974  -0.6757  -0.6469  -0.6360  -0.6203  -0.5965  -0.5890  -0.5730
    -0.5611  -0.5390  -0.5058  -0.4926  -0.4868  -0.4493  -0.3898  -0.3352
    -0.3258  -0.3070  -0.2920  -0.2848  -0.2636  -0.2609  -0.2493  -0.2332
    -0.2179  -0.1958  -0.1502  -0.1415  -0.1314  -0.1279  -0.0846  -0.0616
    -0.0558  -0.0494  -0.0395  -0.0282  -0.0183  -0.0117  -0.0035   0.0110
     0.0347   0.0955   0.1111   0.1198   0.1273   0.1592   0.1759   0.2024
     0.4852   0.5137   0.5238   0.7436   0.7932   0.8763   1.1480   1.3832
     1.4075   1.6117

          k = 0.4000-0.2309 0.0000 ( 51204 PWs)   bands (ev):

   -21.3637 -10.0829  -6.9732  -6.6629  -6.1718  -5.9487  -5.4944  -5.2063
    -4.9309  -4.9219  -4.7747  -4.0876  -4.0655  -4.0392  -3.9946  -3.9490
    -3.8506  -3.8430  -3.7983  -3.7202  -3.7115  -3.6960  -3.5981  -3.5340
    -3.5243  -3.5201  -3.5153  -3.4596  -3.4225  -3.4039  -3.3967  -3.2721
    -3.2451  -3.2377  -3.2209  -3.2026  -3.1890  -3.1032  -3.0871  -3.0812
    -3.0671  -3.0607  -2.9465  -2.9004  -2.8592  -2.7894  -2.7611  -2.7423
    -2.7210  -2.6869  -2.6792  -2.6749  -2.6654  -2.6441  -2.5948  -2.5749
    -2.5450  -2.5318  -2.5041  -2.4271  -2.3742  -2.3694  -2.3280  -2.3019
    -2.2633  -2.2547  -2.2327  -2.2137  -2.2106  -2.1467  -2.1042  -2.0831
    -2.0794  -2.0772  -2.0724  -2.0513  -2.0391  -2.0220  -1.9840  -1.9653
    -1.9548  -1.9343  -1.9093  -1.8993  -1.8625  -1.8401  -1.7825  -1.7714
    -1.7601  -1.7343  -1.7263  -1.6999  -1.6835  -1.6563  -1.6461  -1.6377
    -1.6220  -1.6121  -1.5895  -1.5856  -1.5719  -1.5654  -1.5476  -1.5269
    -1.5170  -1.4928  -1.4783  -1.4557  -1.4003  -1.3742  -1.3511  -1.3444
    -1.3279  -1.3152  -1.2806  -1.2588  -1.2379  -1.2239  -1.2167  -1.2121
    -1.2018  -1.1958  -1.1833  -1.1756  -1.1653  -1.1524  -1.1402  -1.1312
    -1.1030  -1.0768  -1.0316  -1.0172  -0.9861  -0.9723  -0.9617  -0.9359
    -0.9066  -0.8825  -0.8600  -0.8456  -0.8249  -0.7975  -0.7737  -0.7316
    -0.7073  -0.6666  -0.6545  -0.6395  -0.6223  -0.6110  -0.5956  -0.5213
    -0.4890  -0.4627  -0.4446  -0.4288  -0.4258  -0.4185  -0.4103  -0.4068
    -0.3799  -0.3576  -0.2953  -0.2817  -0.2689  -0.2620  -0.2519  -0.2443
    -0.2324  -0.2216  -0.2147  -0.1949  -0.1720  -0.1425  -0.1022  -0.0776
    -0.0760  -0.0582  -0.0410   0.0054   0.0255   0.0439   0.0523   0.0989
     0.1074   0.1409   0.1452   0.1659   0.1689   0.1768   0.1997   0.2049
     0.2726   0.2956   0.4319   0.9311   1.2103   1.3712   1.4095   1.4435
     1.6620   1.7728

          k = 0.4000 0.0000 0.0000 ( 51202 PWs)   bands (ev):

   -21.3637 -10.0843  -7.0698  -6.7002  -6.0346  -5.6870  -5.6180  -5.3924
    -5.2852  -4.5231  -4.4374  -4.2087  -4.2018  -4.1510  -3.9927  -3.9850
    -3.8956  -3.8827  -3.8727  -3.7565  -3.7458  -3.6236  -3.6069  -3.5430
    -3.5040  -3.4181  -3.4054  -3.3847  -3.3760  -3.3579  -3.3348  -3.3204
    -3.3085  -3.2837  -3.2657  -3.2330  -3.1969  -3.1541  -3.1469  -3.0493
    -3.0202  -2.9374  -2.9304  -2.9050  -2.8774  -2.8687  -2.7797  -2.7479
    -2.7316  -2.6980  -2.6921  -2.6782  -2.6487  -2.6285  -2.6162  -2.6035
    -2.5770  -2.5181  -2.4732  -2.4153  -2.4059  -2.3973  -2.3632  -2.3478
    -2.3322  -2.2544  -2.2153  -2.1476  -2.1321  -2.1109  -2.0939  -2.0686
    -2.0571  -2.0379  -2.0312  -2.0180  -2.0043  -1.9881  -1.9787  -1.9651
    -1.9553  -1.9145  -1.8732  -1.8519  -1.7943  -1.7879  -1.7781  -1.7496
    -1.7402  -1.7075  -1.6970  -1.6772  -1.6679  -1.6396  -1.6351  -1.6224
    -1.6166  -1.6012  -1.6005  -1.5872  -1.5792  -1.5701  -1.5462  -1.5295
    -1.5230  -1.5061  -1.4839  -1.4520  -1.4357  -1.4122  -1.4032  -1.3876
    -1.3792  -1.3649  -1.3410  -1.3157  -1.2956  -1.2814  -1.2668  -1.2385
    -1.2212  -1.2138  -1.2039  -1.1973  -1.1763  -1.1516  -1.1371  -1.0993
    -1.0764  -1.0465  -1.0306  -1.0003  -0.9563  -0.9084  -0.8975  -0.8589
    -0.7980  -0.7861  -0.7804  -0.7648  -0.7554  -0.7366  -0.7231  -0.7070
    -0.6904  -0.6812  -0.6458  -0.6315  -0.6133  -0.5970  -0.5841  -0.5696
    -0.5558  -0.5341  -0.5107  -0.4959  -0.4891  -0.4566  -0.3893  -0.3434
    -0.3247  -0.3094  -0.2943  -0.2824  -0.2644  -0.2523  -0.2456  -0.2349
    -0.2248  -0.2075  -0.1575  -0.1340  -0.1258  -0.1182  -0.0820  -0.0648
    -0.0550  -0.0489  -0.0367  -0.0241  -0.0166  -0.0083  -0.0001   0.0184
     0.0289   0.0770   0.1078   0.1175   0.1378   0.1641   0.1701   0.1921
     0.4846   0.5145   0.5541   0.6957   0.8350   0.8696   1.1733   1.3714
     1.4185   1.5859

          k = 0.4000 0.2309 0.0000 ( 51204 PWs)   bands (ev):

   -21.3637 -10.0862  -6.9692  -6.6594  -6.1393  -5.9396  -5.4238  -5.3354
    -4.9327  -4.8876  -4.8235  -4.1030  -4.0312  -4.0209  -3.9985  -3.9646
    -3.8476  -3.8399  -3.7997  -3.7179  -3.7033  -3.6975  -3.6178  -3.5272
    -3.5254  -3.5164  -3.5137  -3.4600  -3.4466  -3.4073  -3.3973  -3.2442
    -3.2423  -3.2248  -3.2103  -3.1954  -3.1840  -3.1143  -3.0851  -3.0746
    -3.0673  -3.0634  -2.9554  -2.8871  -2.8653  -2.7958  -2.7745  -2.7427
    -2.7316  -2.6901  -2.6850  -2.6749  -2.6574  -2.6424  -2.5841  -2.5772
    -2.5567  -2.5310  -2.5143  -2.4219  -2.3758  -2.3565  -2.3524  -2.3038
    -2.2699  -2.2488  -2.2377  -2.2268  -2.1746  -2.1493  -2.1186  -2.0885
    -2.0848  -2.0740  -2.0603  -2.0565  -2.0349  -2.0184  -2.0006  -1.9611
    -1.9527  -1.9324  -1.9068  -1.8769  -1.8687  -1.8383  -1.7905  -1.7758
    -1.7642  -1.7447  -1.7286  -1.7179  -1.6769  -1.6546  -1.6439  -1.6369
    -1.6298  -1.6094  -1.5992  -1.5816  -1.5704  -1.5584  -1.5470  -1.5360
    -1.5134  -1.4956  -1.4527  -1.4480  -1.3808  -1.3748  -1.3543  -1.3436
    -1.3349  -1.3218  -1.2851  -1.2525  -1.2376  -1.2244  -1.2144  -1.2113
    -1.1999  -1.1944  -1.1848  -1.1826  -1.1751  -1.1623  -1.1389  -1.1320
    -1.1198  -1.0948  -1.0312  -1.0077  -0.9822  -0.9751  -0.9527  -0.9447
    -0.9214  -0.8646  -0.8507  -0.8291  -0.8158  -0.7820  -0.7733  -0.7295
    -0.7104  -0.6648  -0.6449  -0.6361  -0.6150  -0.6044  -0.5753  -0.5465
    -0.4832  -0.4595  -0.4349  -0.4314  -0.4272  -0.4191  -0.4065  -0.4034
    -0.3901  -0.3318  -0.3031  -0.2832  -0.2706  -0.2662  -0.2610  -0.2459
    -0.2365  -0.2072  -0.2027  -0.1912  -0.1802  -0.1720  -0.0948  -0.0821
    -0.0702  -0.0627  -0.0338  -0.0033   0.0253   0.0337   0.0593   0.0813
     0.1020   0.1419   0.1432   0.1662   0.1691   0.1744   0.1963   0.2236
     0.2715   0.2867   0.4180   0.9841   1.2204   1.3413   1.3925   1.4158
     1.6898   1.7672

          k = 0.4000-0.6928 0.0000 ( 51262 PWs)   bands (ev):

   -21.3637 -10.0860  -6.8604  -6.3956  -6.3459  -5.9512  -5.7005  -5.3621
    -5.1360  -4.9497  -4.4989  -4.1887  -3.9545  -3.9123  -3.8194  -3.7821
    -3.7729  -3.7480  -3.7355  -3.7207  -3.6731  -3.6635  -3.6597  -3.6473
    -3.5753  -3.5496  -3.5102  -3.5039  -3.4808  -3.4787  -3.3842  -3.3417
    -3.3234  -3.3204  -3.2871  -3.2531  -3.1767  -3.1542  -3.0810  -3.0297
    -3.0269  -2.9731  -2.9484  -2.9285  -2.8942  -2.8287  -2.8194  -2.8014
    -2.7514  -2.7435  -2.6519  -2.6291  -2.6094  -2.5879  -2.5395  -2.5342
    -2.4777  -2.4490  -2.4461  -2.4346  -2.4297  -2.4139  -2.3872  -2.3102
    -2.2572  -2.2376  -2.2279  -2.2199  -2.1917  -2.1567  -2.1483  -2.0955
    -2.0820  -2.0494  -2.0441  -2.0392  -2.0303  -1.9954  -1.9813  -1.9708
    -1.9537  -1.9464  -1.9337  -1.9043  -1.8969  -1.8701  -1.8341  -1.8208
    -1.8011  -1.7625  -1.7309  -1.7264  -1.7058  -1.6617  -1.6553  -1.6417
    -1.6242  -1.6194  -1.6120  -1.5979  -1.5868  -1.5624  -1.5456  -1.5225
    -1.4998  -1.4710  -1.4559  -1.4493  -1.4331  -1.4297  -1.4275  -1.4159
    -1.4023  -1.3916  -1.3760  -1.3619  -1.3443  -1.3092  -1.2876  -1.2782
    -1.2515  -1.2103  -1.1724  -1.1559  -1.1461  -1.1312  -1.1250  -1.0882
    -1.0605  -1.0485  -1.0361  -1.0143  -0.9372  -0.9193  -0.8995  -0.8927
    -0.8806  -0.8655  -0.8409  -0.8304  -0.8074  -0.7816  -0.7613  -0.7497
    -0.7205  -0.6972  -0.6810  -0.6702  -0.6457  -0.6143  -0.6022  -0.5789
    -0.5701  -0.5617  -0.5479  -0.5314  -0.4863  -0.4769  -0.4533  -0.3647
    -0.3000  -0.2979  -0.2806  -0.2740  -0.2620  -0.2561  -0.2368  -0.2254
    -0.2045  -0.1865  -0.1744  -0.1608  -0.1347  -0.1122  -0.0578  -0.0445
    -0.0322  -0.0218  -0.0171   0.0061   0.0383   0.0450   0.0552   0.0614
     0.0852   0.1159   0.1476   0.1522   0.1660   0.1816   0.1988   0.2241
     0.3382   0.5415   0.6692   0.9367   1.3140   1.4607   1.4967   1.8053
     1.9337   2.0019

          k = 0.4000-0.4619 0.0000 ( 51262 PWs)   bands (ev):

   -21.3637 -10.0840  -6.8606  -6.4077  -6.3642  -5.9272  -5.6975  -5.4542
    -5.0123  -4.9321  -4.5462  -4.1942  -3.9557  -3.8990  -3.8027  -3.7800
    -3.7728  -3.7486  -3.7408  -3.7144  -3.6792  -3.6622  -3.6607  -3.6557
    -3.5745  -3.5450  -3.5128  -3.5112  -3.4840  -3.4729  -3.3723  -3.3400
    -3.3305  -3.3223  -3.2993  -3.2536  -3.2082  -3.1555  -3.0478  -3.0318
    -3.0257  -2.9930  -2.9478  -2.9201  -2.9010  -2.8208  -2.8154  -2.8106
    -2.7423  -2.7326  -2.6591  -2.6295  -2.6138  -2.5905  -2.5466  -2.5278
    -2.4726  -2.4508  -2.4394  -2.4333  -2.4259  -2.4017  -2.3731  -2.3073
    -2.2728  -2.2384  -2.2277  -2.2155  -2.2124  -2.1588  -2.1401  -2.1002
    -2.0867  -2.0550  -2.0474  -2.0314  -2.0106  -2.0008  -1.9743  -1.9652
    -1.9526  -1.9437  -1.9325  -1.9043  -1.8983  -1.8797  -1.8340  -1.8177
    -1.7917  -1.7665  -1.7322  -1.7151  -1.6974  -1.6737  -1.6578  -1.6358
    -1.6290  -1.6170  -1.6075  -1.5964  -1.5850  -1.5723  -1.5537  -1.5361
    -1.4997  -1.4755  -1.4580  -1.4525  -1.4368  -1.4292  -1.4223  -1.4156
    -1.4080  -1.3936  -1.3810  -1.3626  -1.3332  -1.3155  -1.2862  -1.2708
    -1.2329  -1.2023  -1.1816  -1.1632  -1.1346  -1.1266  -1.1157  -1.0973
    -1.0589  -1.0490  -1.0369  -1.0105  -0.9548  -0.9176  -0.9051  -0.8834
    -0.8739  -0.8663  -0.8529  -0.8241  -0.8123  -0.7944  -0.7627  -0.7388
    -0.7195  -0.6959  -0.6805  -0.6728  -0.6517  -0.6223  -0.6006  -0.5953
    -0.5796  -0.5545  -0.5453  -0.5352  -0.4999  -0.4660  -0.4550  -0.3661
    -0.3096  -0.2901  -0.2811  -0.2706  -0.2612  -0.2553  -0.2450  -0.2138
    -0.2021  -0.1901  -0.1774  -0.1611  -0.1263  -0.1210  -0.0575  -0.0512
    -0.0317  -0.0251  -0.0147  -0.0019   0.0427   0.0465   0.0532   0.0642
     0.0771   0.1447   0.1522   0.1637   0.1724   0.1897   0.2031   0.2347
     0.3332   0.5433   0.6346   0.9052   1.3564   1.4641   1.5196   1.7635
     1.9517   1.9956

 ------ SPIN DOWN ----------


          k = 0.0000 0.0000 0.0000 ( 51087 PWs)   bands (ev):

   -21.3433 -10.1720  -7.5944  -6.7772  -6.2527  -5.5892  -5.3609  -4.3652
    -4.3460  -4.3424  -4.3406  -4.3366  -4.2995  -4.2021  -3.5032  -3.4707
    -3.4693  -3.4652  -3.4366  -3.4027  -3.3050  -2.5798  -2.5247  -2.5191
    -2.5122  -2.4830  -2.4338  -2.0854  -2.0567  -2.0525  -2.0505  -2.0451
    -2.0269  -1.8968  -1.8505  -1.7977  -1.7715  -1.7665  -1.7557  -1.7316
    -1.6625  -1.6606  -1.6213  -1.6124  -1.5630  -1.5309  -1.5059  -1.5020
    -1.4990  -1.4712  -1.3169  -1.2443  -1.2397  -1.2342  -1.2303  -1.2212
    -1.2205  -1.2043  -1.1917  -1.1662  -1.1589  -1.1455  -1.1411  -1.1279
    -1.0910  -1.0024  -0.6367  -0.5812  -0.5766  -0.5555  -0.5443  -0.4165
    -0.3569  -0.2592  -0.2455  -0.2400  -0.2291  -0.2240  -0.2219  -0.1802
    -0.1717  -0.1668  -0.1551  -0.1445  -0.1429  -0.1419  -0.0887  -0.0591
    -0.0479  -0.0372  -0.0314  -0.0212   0.0071   0.0133   0.0155   0.0223
     0.0231   0.0269   0.0485   0.0510   0.0514   0.0645   0.0993   0.1110
     0.1870   0.2082   0.2215   0.2594   0.2711   0.2762   0.2791   0.2822
     0.2866   0.2883   0.2891   0.3567   0.3578   0.3639   0.4053   0.4269
     0.4481   0.4634   0.4710   0.4986   0.5794   0.6689   0.6740   0.7197
     0.7546   0.7563   0.7664   0.7682   0.8095   0.9433   1.0690   1.0865
     1.1107   1.1145   1.2943   1.3076   1.3203   1.3255   1.3326   1.3354
     1.3572   1.4832   1.4903   1.4988   1.5029   1.5065   1.5286   1.5337
     1.5381   1.5641   1.5823   1.5922   1.6291   1.6342   1.6408   1.6510
     1.6537   1.6586   1.6600   1.6715   1.6987   1.7149   1.7436   1.7592
     1.7652   1.7680   1.7750   1.7804   1.7811   1.7865   1.7897   1.8254
     1.8429   1.8567   1.8607   1.8619   1.8749   1.8768   1.8808   1.9141
     1.9154   1.9237   1.9275   1.9332   1.9346   1.9447   1.9489   1.9543
     1.9597   2.0058   2.0083   2.0729   2.1547   2.1577   2.1649   2.1683
     2.1715   2.1764

          k = 0.0000 0.2309 0.0000 ( 51134 PWs)   bands (ev):

   -21.3433 -10.1729  -7.4486  -6.7486  -6.1735  -5.5984  -5.3746  -5.2517
    -4.7267  -4.7034  -4.2060  -4.0622  -3.7999  -3.7882  -3.7060  -3.6521
    -3.5023  -3.2448  -3.1397  -3.1001  -3.0206  -2.7544  -2.5555  -2.5068
    -2.4725  -2.4206  -2.3880  -2.1959  -2.1056  -2.0925  -2.0821  -2.0481
    -2.0393  -2.0098  -1.9943  -1.9612  -1.9498  -1.8670  -1.8105  -1.7621
    -1.7306  -1.7243  -1.6694  -1.5667  -1.5421  -1.5285  -1.4993  -1.4419
    -1.3875  -1.3756  -1.3277  -1.2858  -1.2780  -1.2527  -1.2337  -1.2306
    -1.2117  -1.1871  -1.1288  -1.1187  -1.0880  -1.0688  -1.0463  -1.0193
    -0.9781  -0.9001  -0.7143  -0.6214  -0.6079  -0.5839  -0.5674  -0.5195
    -0.4563  -0.4399  -0.3949  -0.3684  -0.2699  -0.2618  -0.2514  -0.2354
    -0.2252  -0.2100  -0.1944  -0.1779  -0.1683  -0.1498  -0.1232  -0.0675
    -0.0485  -0.0328  -0.0255  -0.0130   0.0104   0.0302   0.0371   0.0482
     0.0507   0.0591   0.0633   0.0711   0.0740   0.0812   0.1221   0.1340
     0.1503   0.1659   0.1729   0.1850   0.2060   0.2176   0.2386   0.2557
     0.2763   0.2945   0.3447   0.3686   0.3778   0.3971   0.4090   0.4247
     0.4642   0.5545   0.5959   0.6363   0.6434   0.6781   0.6956   0.7184
     0.7268   0.7429   0.7477   0.7533   0.7976   0.9859   1.0538   1.0775
     1.0830   1.0873   1.0991   1.1228   1.1432   1.1683   1.2437   1.2662
     1.2956   1.3182   1.3566   1.3676   1.3954   1.4139   1.4421   1.4722
     1.5028   1.5387   1.5435   1.5570   1.5693   1.5838   1.6057   1.6154
     1.6486   1.6811   1.6951   1.7157   1.7380   1.7454   1.7575   1.7990
     1.8059   1.8158   1.8226   1.8309   1.8446   1.8836   1.9047   1.9144
     1.9199   1.9382   1.9542   1.9663   1.9747   1.9847   2.0042   2.0124
     2.0251   2.0639   2.0676   2.0790   2.0881   2.0963   2.1109   2.1166
     2.1327   2.1562   2.1631   2.1728   2.2392   2.2604   2.2670   2.2923
     2.3461   2.3601

          k = 0.0000 0.4619 0.0000 ( 51204 PWs)   bands (ev):

   -21.3433 -10.1743  -7.0516  -6.6937  -6.2378  -5.9634  -5.4857  -5.2799
    -4.9456  -4.9045  -4.7850  -3.8653  -3.8206  -3.7175  -3.2404  -3.1797
    -3.1696  -3.0566  -2.9106  -2.8670  -2.7464  -2.7201  -2.5836  -2.5712
    -2.5310  -2.5001  -2.4579  -2.4192  -2.3511  -2.3259  -2.2984  -2.2550
    -2.2391  -2.0595  -2.0341  -1.9627  -1.9570  -1.8751  -1.8427  -1.8306
    -1.8193  -1.8095  -1.7155  -1.5636  -1.5156  -1.4940  -1.4756  -1.4332
    -1.3142  -1.3092  -1.2867  -1.2797  -1.2653  -1.2439  -1.2377  -1.2146
    -1.1853  -1.1192  -1.1135  -1.1067  -1.0822  -1.0439  -0.9382  -0.9121
    -0.8221  -0.7771  -0.7076  -0.6449  -0.6312  -0.5996  -0.5799  -0.5618
    -0.5505  -0.5283  -0.4898  -0.4639  -0.4451  -0.4040  -0.3711  -0.3642
    -0.3256  -0.3027  -0.2848  -0.2800  -0.2467  -0.2115  -0.1698  -0.1176
    -0.0982  -0.0853  -0.0434  -0.0225  -0.0086   0.0256   0.0411   0.0648
     0.0819   0.1012   0.1045   0.1215   0.1334   0.1390   0.1651   0.1834
     0.1924   0.2101   0.2252   0.2345   0.2419   0.2491   0.2596   0.2765
     0.2991   0.3142   0.3735   0.3922   0.4421   0.4491   0.4752   0.4984
     0.4993   0.5229   0.5317   0.5474   0.6042   0.6093   0.6187   0.6536
     0.6700   0.6808   0.7075   0.7216   0.7524   0.7648   0.8621   0.8948
     0.9325   0.9451   1.0347   1.0811   1.1336   1.1599   1.1733   1.1853
     1.2018   1.2098   1.2501   1.2799   1.2945   1.3665   1.4383   1.4602
     1.4748   1.4927   1.5251   1.5451   1.5841   1.5932   1.6187   1.6339
     1.6675   1.6770   1.7159   1.7419   1.7787   1.7893   1.8145   1.8305
     1.8369   1.8438   1.8506   1.8853   1.9064   1.9156   1.9252   1.9516
     1.9695   2.0043   2.0288   2.0588   2.0772   2.0991   2.1089   2.1152
     2.1180   2.1369   2.1562   2.1662   2.1780   2.1901   2.1949   2.1989
     2.2271   2.2459   2.3363   2.4060   2.4087   2.5405   2.6671   2.8338
     2.9346   2.9840

          k = 0.2000-0.1155 0.0000 ( 51134 PWs)   bands (ev):

   -21.3433 -10.1721  -7.4493  -6.7481  -6.1800  -5.6207  -5.3777  -5.2113
    -4.7327  -4.7159  -4.1871  -4.0489  -3.8014  -3.7889  -3.7248  -3.6622
    -3.4974  -3.2443  -3.1465  -3.1022  -3.0078  -2.7293  -2.5775  -2.5086
    -2.4584  -2.4361  -2.3887  -2.1769  -2.1105  -2.0907  -2.0804  -2.0625
    -2.0356  -2.0157  -1.9944  -1.9702  -1.9486  -1.8626  -1.8102  -1.7354
    -1.7269  -1.7186  -1.6783  -1.5822  -1.5395  -1.5273  -1.5005  -1.4312
    -1.3999  -1.3762  -1.3178  -1.3035  -1.2762  -1.2505  -1.2352  -1.2270
    -1.2077  -1.1998  -1.1383  -1.1182  -1.0871  -1.0662  -1.0512  -1.0124
    -0.9876  -0.8847  -0.7164  -0.6228  -0.6046  -0.5850  -0.5644  -0.5188
    -0.4621  -0.4373  -0.3962  -0.3712  -0.2801  -0.2615  -0.2535  -0.2347
    -0.2203  -0.2075  -0.1924  -0.1773  -0.1713  -0.1550  -0.1173  -0.0695
    -0.0439  -0.0334  -0.0225  -0.0165   0.0028   0.0283   0.0378   0.0463
     0.0571   0.0604   0.0653   0.0725   0.0740   0.0812   0.1206   0.1319
     0.1513   0.1645   0.1788   0.1843   0.2009   0.2275   0.2342   0.2508
     0.2784   0.2831   0.3425   0.3569   0.3805   0.3976   0.4127   0.4242
     0.4721   0.5665   0.6179   0.6379   0.6444   0.6651   0.6948   0.7189
     0.7309   0.7401   0.7460   0.7552   0.7892   0.9840   1.0557   1.0789
     1.0827   1.0899   1.1046   1.1207   1.1392   1.1727   1.2482   1.2678
     1.2962   1.3247   1.3605   1.3664   1.3953   1.4111   1.4407   1.4599
     1.5029   1.5421   1.5513   1.5616   1.5685   1.5852   1.6056   1.6160
     1.6356   1.6749   1.7044   1.7167   1.7401   1.7463   1.7584   1.7960
     1.8050   1.8174   1.8245   1.8274   1.8454   1.8818   1.9042   1.9120
     1.9185   1.9430   1.9506   1.9662   1.9751   1.9876   2.0043   2.0111
     2.0248   2.0661   2.0681   2.0797   2.0906   2.0970   2.1126   2.1250
     2.1430   2.1565   2.1637   2.1761   2.2333   2.2596   2.2658   2.3016
     2.3342   2.3619

          k = 0.2000 0.1155 0.0000 ( 51134 PWs)   bands (ev):

   -21.3433 -10.1733  -7.4475  -6.7486  -6.1685  -5.5826  -5.3735  -5.2879
    -4.7136  -4.6992  -4.2093  -4.0898  -3.7964  -3.7899  -3.6750  -3.6469
    -3.5090  -3.2441  -3.1266  -3.1028  -3.0332  -2.7640  -2.5393  -2.5089
    -2.4727  -2.4141  -2.3946  -2.1897  -2.0929  -2.0853  -2.0789  -2.0548
    -2.0421  -2.0146  -1.9945  -1.9662  -1.9548  -1.8751  -1.8075  -1.7717
    -1.7314  -1.7244  -1.6431  -1.6016  -1.5504  -1.5287  -1.4900  -1.4188
    -1.3948  -1.3732  -1.3239  -1.3088  -1.2709  -1.2532  -1.2362  -1.2287
    -1.2186  -1.1777  -1.1496  -1.1135  -1.0950  -1.0615  -1.0431  -1.0111
    -0.9770  -0.8851  -0.7214  -0.6213  -0.6088  -0.5854  -0.5659  -0.5213
    -0.4746  -0.4299  -0.3957  -0.3753  -0.2880  -0.2560  -0.2509  -0.2469
    -0.2088  -0.2004  -0.1954  -0.1809  -0.1741  -0.1469  -0.1329  -0.0656
    -0.0439  -0.0335  -0.0218  -0.0145  -0.0027   0.0364   0.0413   0.0486
     0.0526   0.0600   0.0656   0.0721   0.0731   0.0815   0.1234   0.1312
     0.1490   0.1628   0.1804   0.1823   0.1862   0.2311   0.2430   0.2556
     0.2792   0.2843   0.3397   0.3777   0.3904   0.3956   0.4090   0.4242
     0.4553   0.5609   0.5994   0.6365   0.6442   0.6908   0.7034   0.7215
     0.7303   0.7397   0.7479   0.7615   0.7866   0.9806   1.0560   1.0678
     1.0792   1.0944   1.1111   1.1261   1.1475   1.2078   1.2412   1.2640
     1.2832   1.3174   1.3598   1.3693   1.4014   1.4163   1.4260   1.4443
     1.5101   1.5294   1.5562   1.5687   1.5825   1.5948   1.6033   1.6232
     1.6366   1.6793   1.6955   1.7139   1.7264   1.7528   1.7580   1.7877
     1.8085   1.8144   1.8266   1.8308   1.8502   1.8814   1.9013   1.9102
     1.9158   1.9302   1.9526   1.9627   1.9796   1.9867   2.0020   2.0159
     2.0274   2.0636   2.0672   2.0732   2.0909   2.0948   2.1022   2.1242
     2.1321   2.1586   2.1618   2.1697   2.2454   2.2568   2.2647   2.2972
     2.3356   2.3797

          k = 0.2000 0.3464 0.0000 ( 51202 PWs)   bands (ev):

   -21.3433 -10.1748  -7.1699  -6.7089  -6.0399  -5.7297  -5.7051  -5.3988
    -5.3254  -4.4527  -4.3804  -3.9888  -3.9680  -3.8671  -3.1619  -3.1498
    -3.1409  -3.1267  -3.0336  -2.9377  -2.8695  -2.8461  -2.8109  -2.4788
    -2.4282  -2.3910  -2.3742  -2.3062  -2.2945  -2.2724  -2.2226  -2.1851
    -2.1732  -2.1669  -2.1388  -2.0329  -1.9734  -1.8787  -1.8032  -1.7979
    -1.7692  -1.7237  -1.6711  -1.6546  -1.5928  -1.4933  -1.4743  -1.4128
    -1.3467  -1.3143  -1.2743  -1.2700  -1.2661  -1.2437  -1.2236  -1.2101
    -1.1996  -1.1951  -1.1295  -1.0848  -1.0615  -0.9672  -0.9288  -0.8988
    -0.8314  -0.8014  -0.7385  -0.6747  -0.5948  -0.5746  -0.5537  -0.5204
    -0.5086  -0.4876  -0.4741  -0.4537  -0.4128  -0.3885  -0.3586  -0.3474
    -0.3400  -0.3160  -0.3056  -0.2823  -0.2296  -0.2060  -0.1338  -0.1255
    -0.1071  -0.0891  -0.0400  -0.0222  -0.0090   0.0027   0.0124   0.0250
     0.0360   0.0608   0.0726   0.0775   0.0939   0.1101   0.1373   0.1654
     0.1750   0.1821   0.1943   0.2062   0.2211   0.2258   0.2422   0.2527
     0.3245   0.3387   0.3500   0.3672   0.4227   0.4762   0.4956   0.5039
     0.5388   0.5569   0.5821   0.6142   0.6413   0.6583   0.6677   0.6763
     0.6828   0.7036   0.7330   0.7697   0.8254   0.8376   0.9502   0.9838
     1.0308   1.0851   1.0972   1.1179   1.1362   1.1544   1.1641   1.1809
     1.2029   1.2139   1.2250   1.2447   1.2752   1.3224   1.3793   1.3887
     1.4174   1.4438   1.4505   1.4813   1.5077   1.5440   1.5545   1.5775
     1.6196   1.6792   1.7603   1.7850   1.7923   1.8151   1.8300   1.8457
     1.8564   1.8652   1.8826   1.8946   1.9185   1.9402   1.9632   1.9705
     1.9909   2.0101   2.0247   2.0255   2.0458   2.0657   2.0689   2.0946
     2.1037   2.1117   2.1187   2.1458   2.1503   2.1782   2.2019   2.2193
     2.2428   2.2506   2.3514   2.3712   2.4569   2.5000   2.5363   2.6660
     2.7607   2.8368

          k = 0.2000-0.5774 0.0000 ( 51262 PWs)   bands (ev):

[...]
     atom    8 type  1   force =    -0.00038829   -0.00581137   -0.09890274
     atom    9 type  1   force =    -0.00022638    0.00370075   -0.10380406
     atom   10 type  1   force =     0.00069311    0.00053201   -0.01735421
     atom   11 type  1   force =     0.00044029    0.00107504   -0.00848354
     atom   12 type  1   force =     0.00029539    0.00219174   -0.01308934
     atom   13 type  1   force =     0.00045773    0.00000183   -0.00863216
     atom   14 type  1   force =     0.00013083    0.00021101   -0.01202963
     atom   15 type  1   force =    -0.00073526    0.00092497   -0.01013558
     atom   16 type  1   force =     0.00198458   -0.00102180   -0.01310179
     atom   17 type  1   force =    -0.00029938   -0.00169085   -0.00987642
     atom   18 type  1   force =    -0.00116676   -0.00133651   -0.01561734
     atom   19 type  1   force =    -0.00498178   -0.00022958    0.00712442
     atom   20 type  1   force =    -0.00454535   -0.00032373   -0.00172549
     atom   21 type  1   force =     0.00559142   -0.00647670    0.01148926
     atom   22 type  1   force =     0.00119894    0.00434986    0.00877702
     atom   23 type  1   force =    -0.00233441    0.00999944    0.01127569
     atom   24 type  1   force =     0.00102827    0.00127177    0.02003059
     atom   25 type  1   force =     0.00156188    0.00102150    0.01947815
     atom   26 type  1   force =    -0.00536412   -0.00566425    0.00671473
     atom   27 type  1   force =     0.00715550   -0.00247289    0.00373760
     atom   28 type  1   force =     0.05043381    0.02239543    0.15725324
     atom   29 type  1   force =    -0.01010086    0.07020881    0.13441261
     atom   30 type  1   force =    -0.01080125    0.00368070    0.11815763
     atom   31 type  1   force =     0.06162064   -0.07218879    0.19185576
     atom   32 type  1   force =    -0.01209727   -0.00509585   -0.00465636
     atom   33 type  1   force =     0.00251613    0.00069059    0.10819393
     atom   34 type  1   force =     0.00194559   -0.01439829    0.11791711
     atom   35 type  1   force =    -0.00057520    0.00437584    0.11383772
     atom   36 type  1   force =    -0.00367279   -0.00067776    0.10135833
     atom   37 type  2   force =    -0.42421537   -0.26775062    0.18022019
     atom   38 type  3   force =     1.55586793    1.44788605   -0.99633804
     atom   39 type  4   force =    -0.02482298   -0.03633598   -0.06417150
     The ionic contribution  to forces
     atom    1 type  1   force =    -0.00984134    0.00068934 -111.25827622
     atom    2 type  1   force =     0.00063883    0.00022578 -111.27678494
     atom    3 type  1   force =     0.00920252   -0.00042687 -111.25700533
     atom    4 type  1   force =    -0.00499624    0.00872799 -111.25679549
     atom    5 type  1   force =     0.00436174    0.00764860 -111.25806605
     atom    6 type  1   force =     0.00063453   -0.00010327 -111.24815493
     atom    7 type  1   force =    -0.00126481   -0.00012063 -111.24822014
     atom    8 type  1   force =    -0.00420873   -0.00833156 -111.25909103
     atom    9 type  1   force =     0.00547352   -0.00830940 -111.25655045
     atom   10 type  1   force =    -0.05590767   -0.02816247  -40.20818290
     atom   11 type  1   force =     0.00878986   -0.07406211  -40.30420906
     atom   12 type  1   force =     0.04712338   -0.03086903  -40.19098151
     atom   13 type  1   force =    -0.06357554    0.04307597  -40.30294789
     atom   14 type  1   force =     0.06499513    0.03373711  -40.30034939
     atom   15 type  1   force =    -0.00141602    0.01337063  -40.17513201
     atom   16 type  1   force =    -0.00674344    0.05796556  -40.19737637
     atom   17 type  1   force =     0.01388213   -0.01028657  -40.18213720
     atom   18 type  1   force =    -0.00714263   -0.00476896  -40.16885474
     atom   19 type  1   force =    -0.49043947    0.04055312   31.23518485
     atom   20 type  1   force =     0.03550619    0.01181352   30.20407275
     atom   21 type  1   force =     0.45494157   -0.02734652   31.29797090
     atom   22 type  1   force =    -0.24641205    0.42378714   31.31257463
     atom   23 type  1   force =     0.21664234    0.38752037   31.24134941
     atom   24 type  1   force =     0.03054283   -0.00468391   31.68024188
     atom   25 type  1   force =    -0.05847086   -0.00555997   31.67747210
     atom   26 type  1   force =    -0.21075072   -0.42355093   31.19070018
     atom   27 type  1   force =     0.26836443   -0.40280527   31.32395162
     atom   28 type  1   force =    -2.29235571   -1.15386480  103.39778527
     atom   29 type  1   force =     0.97737606   -4.86906528   98.72283180
     atom   30 type  1   force =     1.60321655   -1.04992022  104.07218989
     atom   31 type  1   force =    -4.03568285    2.96811212   99.28070217
     atom   32 type  1   force =     4.44627217    2.05374455   98.35898438
     atom   33 type  1   force =    -0.01957718    0.35855418  104.42341657
     atom   34 type  1   force =    -0.25902705    2.13063666  103.82512864
     atom   35 type  1   force =     0.39983299   -0.28899536  104.26266322
     atom   36 type  1   force =    -0.16416810   -0.13704488  104.55396264
     atom   37 type  2   force =     4.46821025    4.28850890   57.25688677
     atom   38 type  3   force =    -6.12148530   -5.65200535   88.72184913
     atom   39 type  4   force =     0.99745874    1.35161180   15.30919684
     The local contribution  to forces
     atom    1 type  1   force =     0.01402498   -0.00384213  111.36230265
     atom    2 type  1   force =    -0.00272572   -0.00226739  111.38177622
     atom    3 type  1   force =    -0.01131172    0.00311118  111.36487002
     atom    4 type  1   force =     0.00170966   -0.00615644  111.36385434
     atom    5 type  1   force =    -0.00301732   -0.01158181  111.36610538
     atom    6 type  1   force =     0.00108749    0.00082672  111.35396451
     atom    7 type  1   force =     0.00061331   -0.00021762  111.35530011
     atom    8 type  1   force =     0.00466868    0.01430272  111.36090062
     atom    9 type  1   force =    -0.00568789    0.00467084  111.36282347
     atom   10 type  1   force =     0.05576994    0.02827585   40.20319786
     atom   11 type  1   force =    -0.01022122    0.07206588   40.29283384
     atom   12 type  1   force =    -0.04641561    0.02837985   40.18383576
     atom   13 type  1   force =     0.06223936   -0.04378807   40.29124947
     atom   14 type  1   force =    -0.06410215   -0.03315009   40.29000047
     atom   15 type  1   force =     0.00234503   -0.01466794   40.16448441
     atom   16 type  1   force =     0.00461059   -0.05631081   40.18982527
     atom   17 type  1   force =    -0.01361439    0.01222032   40.17075051
     atom   18 type  1   force =     0.00916143    0.00651768   40.16260054
     atom   19 type  1   force =     0.49538178   -0.03910264  -31.21926152
     atom   20 type  1   force =    -0.02878419   -0.01072981  -30.18333367
     atom   21 type  1   force =    -0.46108949    0.03326491  -31.29147206
     atom   22 type  1   force =     0.24533034   -0.42803642  -31.30014006
     atom   23 type  1   force =    -0.21457459   -0.39693256  -31.23449273
     atom   24 type  1   force =    -0.03154620    0.00376144  -31.67693704
     atom   25 type  1   force =     0.05716919    0.00415954  -31.67110867
     atom   26 type  1   force =     0.21863824    0.42882134  -31.17397624
     atom   27 type  1   force =    -0.27574001    0.40603738  -31.30829130
     atom   28 type  1   force =     2.23033090    1.12507894 -103.56890577
     atom   29 type  1   force =    -0.96997546    4.77377319  -98.86353023
     atom   30 type  1   force =    -1.58496617    1.04439360 -104.19750899
     atom   31 type  1   force =     3.95796768   -2.88547058  -99.47391847
     atom   32 type  1   force =    -4.41482345   -2.04380762  -98.34841979
     atom   33 type  1   force =     0.01406737   -0.35684431 -104.54012024
     atom   34 type  1   force =     0.25681619   -2.10570943 -103.95020585
     atom   35 type  1   force =    -0.39755759    0.28207585 -104.38767969
     atom   36 type  1   force =     0.16569728    0.13686355 -104.66361158
     atom   37 type  2   force =    -4.04964008   -4.02247858  -57.43426200
     atom   38 type  3   force =     4.57962604    4.21491918  -87.73553005
     atom   39 type  4   force =    -0.97351438   -1.31157057  -15.24405098
     The core correction contribution to forces
     atom    1 type  1   force =     0.00035311   -0.00018352    0.01024903
     atom    2 type  1   force =    -0.00012100   -0.00004339    0.01001897
     atom    3 type  1   force =    -0.00023662    0.00009800    0.01051317
     atom    4 type  1   force =    -0.00020610   -0.00007600    0.01002889
     atom    5 type  1   force =     0.00005779   -0.00023967    0.01034862
     atom    6 type  1   force =     0.00000059   -0.00015446    0.01000418
     atom    7 type  1   force =    -0.00001267   -0.00004838    0.00978527
     atom    8 type  1   force =     0.00014555    0.00039781    0.01024086
     atom    9 type  1   force =    -0.00025469   -0.00000455    0.01009586
     atom   10 type  1   force =     0.00015723    0.00007396   -0.00198333
     atom   11 type  1   force =    -0.00036669    0.00003522   -0.00167984
     atom   12 type  1   force =     0.00010682   -0.00010813   -0.00182820
     atom   13 type  1   force =    -0.00010786   -0.00020189   -0.00171282
     atom   14 type  1   force =     0.00009114    0.00014643   -0.00176954
     atom   15 type  1   force =    -0.00013257    0.00007559   -0.00168578
     atom   16 type  1   force =    -0.00006280    0.00006669   -0.00182447
     atom   17 type  1   force =     0.00006812   -0.00011594   -0.00170212
     atom   18 type  1   force =    -0.00003675   -0.00002062   -0.00198359
     atom   19 type  1   force =    -0.00005228   -0.00027492    0.00147670
     atom   20 type  1   force =    -0.00044229   -0.00014432    0.00111112
     atom   21 type  1   force =     0.00123118   -0.00129619    0.00000013
     atom   22 type  1   force =    -0.00024865    0.00021810    0.00137069
     atom   23 type  1   force =    -0.00011044    0.00140781    0.00022227
     atom   24 type  1   force =     0.00007254    0.00012908    0.00188792
     atom   25 type  1   force =     0.00040332    0.00029479    0.00206746
     atom   26 type  1   force =    -0.00011236    0.00002189    0.00157032
     atom   27 type  1   force =     0.00041017   -0.00018991    0.00086887
     atom   28 type  1   force =     0.00219102    0.00181336   -0.00764367
     atom   29 type  1   force =    -0.00250235    0.01163979    0.00264170
     atom   30 type  1   force =    -0.00197618    0.00276583   -0.00861950
     atom   31 type  1   force =     0.01140374   -0.00649915    0.00145959
     atom   32 type  1   force =    -0.00710470   -0.00022832   -0.00525429
     atom   33 type  1   force =    -0.00167634   -0.00058018   -0.00941555
     atom   34 type  1   force =     0.00076369   -0.00538727   -0.00827533
     atom   35 type  1   force =    -0.00056594   -0.00129897   -0.00973480
     atom   36 type  1   force =     0.00023085   -0.00010685   -0.01083555
     atom   37 type  2   force =     0.00531716    0.00270785   -0.00233162
     atom   38 type  3   force =    -0.01303297   -0.01223221    0.00942828
     atom   39 type  4   force =     0.00000000    0.00000000    0.00000000
     The Hubbard contrib.    to forces
     atom    1 type  1   force =     0.00000000    0.00000000    0.00000000
     atom    2 type  1   force =     0.00000000    0.00000000    0.00000000
     atom    3 type  1   force =     0.00000000    0.00000000    0.00000000
     atom    4 type  1   force =     0.00000000    0.00000000    0.00000000
     atom    5 type  1   force =     0.00000000    0.00000000    0.00000000
     atom    6 type  1   force =     0.00000000    0.00000000    0.00000000
     atom    7 type  1   force =     0.00000000    0.00000000    0.00000000
     atom    8 type  1   force =     0.00000000    0.00000000    0.00000000
     atom    9 type  1   force =     0.00000000    0.00000000    0.00000000
     atom   10 type  1   force =     0.00000000    0.00000000    0.00000000
     atom   11 type  1   force =     0.00000000    0.00000000    0.00000000
     atom   12 type  1   force =     0.00000000    0.00000000    0.00000000
     atom   13 type  1   force =     0.00000000    0.00000000    0.00000000
     atom   14 type  1   force =     0.00000000    0.00000000    0.00000000
     atom   15 type  1   force =     0.00000000    0.00000000    0.00000000
     atom   16 type  1   force =     0.00000000    0.00000000    0.00000000
     atom   17 type  1   force =     0.00000000    0.00000000    0.00000000
     atom   18 type  1   force =     0.00000000    0.00000000    0.00000000
     atom   19 type  1   force =     0.00000000    0.00000000    0.00000000
     atom   20 type  1   force =     0.00000000    0.00000000    0.00000000
     atom   21 type  1   force =     0.00000000    0.00000000    0.00000000
     atom   22 type  1   force =     0.00000000    0.00000000    0.00000000
     atom   23 type  1   force =     0.00000000    0.00000000    0.00000000
     atom   24 type  1   force =     0.00000000    0.00000000    0.00000000
     atom   25 type  1   force =     0.00000000    0.00000000    0.00000000
     atom   26 type  1   force =     0.00000000    0.00000000    0.00000000
     atom   27 type  1   force =     0.00000000    0.00000000    0.00000000
     atom   28 type  1   force =     0.00000000    0.00000000    0.00000000
     atom   29 type  1   force =     0.00000000    0.00000000    0.00000000
     atom   30 type  1   force =     0.00000000    0.00000000    0.00000000
     atom   31 type  1   force =     0.00000000    0.00000000    0.00000000
     atom   32 type  1   force =     0.00000000    0.00000000    0.00000000
     atom   33 type  1   force =     0.00000000    0.00000000    0.00000000
     atom   34 type  1   force =     0.00000000    0.00000000    0.00000000
     atom   35 type  1   force =     0.00000000    0.00000000    0.00000000
     atom   36 type  1   force =     0.00000000    0.00000000    0.00000000
     atom   37 type  2   force =     0.00000000    0.00000000    0.00000000
     atom   38 type  3   force =     0.00000000    0.00000000    0.00000000
     atom   39 type  4   force =     0.00000000    0.00000000    0.00000000
     The SCF correction term to forces
     atom    1 type  1   force =     0.00000000    0.00000000   -0.00000000
     atom    2 type  1   force =     0.00000000    0.00000000   -0.00000000
     atom    3 type  1   force =    -0.00000000    0.00000000   -0.00000000
     atom    4 type  1   force =     0.00000000   -0.00000000   -0.00000000
     atom    5 type  1   force =    -0.00000000   -0.00000000   -0.00000000
     atom    6 type  1   force =    -0.00000000   -0.00000000   -0.00000000
     atom    7 type  1   force =     0.00000000   -0.00000000   -0.00000000
     atom    8 type  1   force =     0.00000000   -0.00000000   -0.00000000
     atom    9 type  1   force =    -0.00000000    0.00000000   -0.00000000
     atom   10 type  1   force =     0.00000000    0.00000000   -0.00000000
     atom   11 type  1   force =    -0.00000000    0.00000000   -0.00000000
     atom   12 type  1   force =    -0.00000000    0.00000000   -0.00000000
     atom   13 type  1   force =    -0.00000000   -0.00000000   -0.00000000
     atom   14 type  1   force =    -0.00000000    0.00000000   -0.00000000
     atom   15 type  1   force =     0.00000000    0.00000000   -0.00000000
     atom   16 type  1   force =     0.00000000   -0.00000000   -0.00000000
     atom   17 type  1   force =    -0.00000000    0.00000000   -0.00000000
     atom   18 type  1   force =    -0.00000000   -0.00000000   -0.00000000
     atom   19 type  1   force =     0.00000000   -0.00000000   -0.00000000
     atom   20 type  1   force =    -0.00000000   -0.00000000   -0.00000000
     atom   21 type  1   force =     0.00000000    0.00000000   -0.00000000
     atom   22 type  1   force =     0.00000000   -0.00000000   -0.00000000
     atom   23 type  1   force =     0.00000000    0.00000000   -0.00000000
     atom   24 type  1   force =    -0.00000000   -0.00000000   -0.00000000
     atom   25 type  1   force =     0.00000000    0.00000000   -0.00000000
     atom   26 type  1   force =     0.00000000    0.00000000   -0.00000000
     atom   27 type  1   force =    -0.00000000    0.00000000   -0.00000000
     atom   28 type  1   force =     0.00000000    0.00000000    0.00000000
     atom   29 type  1   force =     0.00000000    0.00000000    0.00000000
     atom   30 type  1   force =    -0.00000000    0.00000000    0.00000000
     atom   31 type  1   force =     0.00000000   -0.00000000    0.00000000
     atom   32 type  1   force =     0.00000000   -0.00000000    0.00000000
     atom   33 type  1   force =    -0.00000000    0.00000000    0.00000000
     atom   34 type  1   force =     0.00000000   -0.00000000    0.00000000
     atom   35 type  1   force =     0.00000000   -0.00000000    0.00000000
     atom   36 type  1   force =    -0.00000000    0.00000000    0.00000000
     atom   37 type  2   force =     0.00000817   -0.00000561    0.00000892
     atom   38 type  3   force =     0.00001222   -0.00000714    0.00001737
     atom   39 type  4   force =     0.00000125   -0.00000047    0.00000359

     Total force =     0.004497     Total SCF correction =     0.000026

     Writing all to output data dir ./pwscf.save/

     init_run     :     11.62s CPU     12.09s WALL (       1 calls)
     electrons    :   1004.28s CPU   1016.59s WALL (       1 calls)
     forces       :      3.39s CPU      3.47s WALL (       1 calls)

     Called by init_run:
     wfcinit      :      8.27s CPU      8.62s WALL (       1 calls)
     potinit      :      2.24s CPU      2.33s WALL (       1 calls)
     hinit0       :      0.85s CPU      0.86s WALL (       1 calls)

     Called by electrons:
     c_bands      :    847.58s CPU    857.65s WALL (      54 calls)
     sum_band     :     97.11s CPU     98.52s WALL (      54 calls)
     v_of_rho     :     11.85s CPU     12.02s WALL (      55 calls)
     newd         :      5.16s CPU      5.22s WALL (      55 calls)
     PAW_pot      :     13.92s CPU     14.05s WALL (      55 calls)
     mix_rho      :     29.76s CPU     30.11s WALL (      54 calls)
     vdW_kernel   :      1.12s CPU      1.12s WALL (       1 calls)

     Called by c_bands:
     init_us_2    :      9.79s CPU      9.95s WALL (    2860 calls)
     init_us_2:cp :      9.77s CPU      9.94s WALL (    2860 calls)
     cegterg      :    818.69s CPU    828.00s WALL (    1404 calls)

     Called by *egterg:
     cdiaghg      :    210.98s CPU    212.53s WALL (    4936 calls)
     h_psi        :    388.68s CPU    394.28s WALL (    4962 calls)
     s_psi        :     40.05s CPU     40.55s WALL (    4962 calls)
     g_psi        :      1.07s CPU      1.10s WALL (    3532 calls)

     Called by h_psi:
     h_psi:calbec :     66.08s CPU     66.98s WALL (    4962 calls)
     vloc_psi     :    278.73s CPU    282.88s WALL (    4962 calls)
     add_vuspsi   :     41.31s CPU     41.83s WALL (    4962 calls)

     General routines
     calbec       :     92.90s CPU     94.13s WALL (    6470 calls)
     fft          :     12.04s CPU     12.18s WALL (    4972 calls)
     ffts         :     15.22s CPU     15.41s WALL (   22283 calls)
     fftw         :    312.75s CPU    317.35s WALL ( 1452676 calls)
     interpolate  :      0.54s CPU      0.54s WALL (     110 calls)

     Parallel routines

     PWSCF        :  17m 6.54s CPU  17m28.10s WALL


   This run was terminated on:  21:10:42   7Dec2025            

=------------------------------------------------------------------------------=
   JOB DONE.
=------------------------------------------------------------------------------=
