
     Program PWSCF v.7.1 starts on  4Dec2025 at 19:45: 6 
        Git branch: heads/qe-7.1
        Last git commit: 48ba0178f8fede6d020eb786884699a9f063f55d-dirty
        Last git commit date: Fri Jan 27 14:22:33 2023 +0000
        Last git commit subject: Merge branch 'fix_hubbard' into 'develop'

     This program is part of the open-source Quantum ESPRESSO suite
     for quantum simulation of materials; please cite
         "P. Giannozzi et al., J. Phys.:Condens. Matter 21 395502 (2009);
         "P. Giannozzi et al., J. Phys.:Condens. Matter 29 465901 (2017);
         "P. Giannozzi et al., J. Chem. Phys. 152 154105 (2020);
          URL http://www.quantum-espresso.org", 
     in publications or presentations arising from this work. More details at
     http://www.quantum-espresso.org/quote

     Parallel version (MPI), running on    96 processors

     MPI processes distributed on     2 nodes
     38226 MiB available memory on the printing compute node when the environment starts

     Reading input from espresso.pwi
Warning: card &CELL ignored
Warning: card / ignored
Warning: card &FCP ignored
Warning: card / ignored
Warning: card &RISM ignored
Warning: card / ignored

     Current dimensions of program PWSCF are:
     Max number of different atomic species (ntypx) = 10
     Max number of k-points (npk) =  40000
     Max angular momentum in pseudopotentials (lmaxx) =  4
     file Co.pbe-n-kjpaw_psl.1.0.0.UPF: wavefunction(s)  4S 3D renormalized
     file C.pbe-n-kjpaw_psl.1.0.0.UPF: wavefunction(s)  2S 2P renormalized
     file O.pbe-nl-kjpaw_psl.1.0.0.UPF: wavefunction(s)  2S 2P renormalized
     file H.pbe-kjpaw_psl.1.0.0.UPF: wavefunction(s)  1S renormalized

     **************************************************************************
     Initializing libbeef V0.1.2 with the BEEF-vdW functional.
     Citation: Wellendorff et al., PRB 85, 235149 (2012).
     **************************************************************************


     IMPORTANT: XC functional enforced from input :
     Exchange-correlation= BEEF-VDW
                           (   1   4  43  14   2   0   0)
     Any further DFT definition will be discarded
     Please, verify this is what you really want


     R & G space division:  proc/nbgrp/npool/nimage =      96
     Subspace diagonalization in iterative solution of the eigenvalue problem:
     one sub-group per band group will be used
     custom distributed-memory algorithm (size of sub-group:  2*  2 procs)


     Parallelization info
     --------------------
     sticks:   dense  smooth     PW     G-vecs:    dense   smooth      PW
     Min          43      23      6                 7829     3049     440
     Max          44      24      7                 7845     3068     465
     Sum        4153    2221    613               752179   293251   42993

     Using Slab Decomposition



     bravais-lattice index     =            0
     lattice parameter (alat)  =      14.1729  a.u.
     unit-cell volume          =    8574.3059 (a.u.)^3
     number of atoms/cell      =           39
     number of atomic types    =            4
     number of electrons       =       335.00
     number of Kohn-Sham states=          202
     kinetic-energy cutoff     =      40.0000  Ry
     charge density cutoff     =     300.0000  Ry
     scf convergence threshold =      1.0E-06
     mixing beta               =       0.7000
     number of iterations used =            8  local-TF  mixing
     Exchange-correlation= BEEF-VDW
                           (   1   4  43  14   2   0   0)

     celldm(1)=  14.172946  celldm(2)=   0.000000  celldm(3)=   0.000000
     celldm(4)=   0.000000  celldm(5)=   0.000000  celldm(6)=   0.000000

     crystal axes: (cart. coord. in units of alat)
               a(1) = (   1.000000   0.000000   0.000000 )  
               a(2) = (   0.500000   0.866025   0.000000 )  
               a(3) = (   0.000000   0.000000   3.477667 )  

     reciprocal axes: (cart. coord. in units 2 pi/alat)
               b(1) = (  1.000000 -0.577350  0.000000 )  
               b(2) = (  0.000000  1.154701  0.000000 )  
               b(3) = (  0.000000  0.000000  0.287549 )  


     PseudoPot. # 1 for Co read from file:
     /users/kbadger1/espresso/pseudo/pslibrary.1.0.0/pbe/PSEUDOPOTENTIALS/Co.pbe-n-kjpaw_psl.1.0.0.UPF
     MD5 check sum: 88af6ec42553d4236c267fdfcb472151
     Pseudo is Projector augmented-wave + core cor, Zval =  9.0
     Generated using 'atomic' code by A. Dal Corso  v.7.0
     Shape of augmentation charge: PSQ
     Using radial grid of 1193 points,  6 beta functions with: 
                l(1) =   0
                l(2) =   0
                l(3) =   1
                l(4) =   1
                l(5) =   2
                l(6) =   2
     Q(r) pseudized with 0 coefficients 


     PseudoPot. # 2 for C  read from file:
     /users/kbadger1/espresso/pseudo/pslibrary.1.0.0/pbe/PSEUDOPOTENTIALS/C.pbe-n-kjpaw_psl.1.0.0.UPF
     MD5 check sum: 6408e75cdba28732cea38a4db8498ce4
     Pseudo is Projector augmented-wave + core cor, Zval =  4.0
     Generated using 'atomic' code by A. Dal Corso  v.7.0
     Shape of augmentation charge: PSQ
     Using radial grid of 1073 points,  4 beta functions with: 
                l(1) =   0
                l(2) =   0
                l(3) =   1
                l(4) =   1
     Q(r) pseudized with 0 coefficients 


     PseudoPot. # 3 for O  read from file:
     /users/kbadger1/espresso/pseudo/pslibrary.1.0.0/pbe/PSEUDOPOTENTIALS/O.pbe-nl-kjpaw_psl.1.0.0.UPF
     MD5 check sum: f0439fab3598ca4e468f064226030408
     Pseudo is Projector augmented-wave + core cor, Zval =  6.0
     Generated using 'atomic' code by A. Dal Corso  v.7.0
     Shape of augmentation charge: PSQ
     Using radial grid of 1095 points,  4 beta functions with: 
                l(1) =   0
                l(2) =   0
                l(3) =   1
                l(4) =   1
     Q(r) pseudized with 0 coefficients 


     PseudoPot. # 4 for H  read from file:
     /users/kbadger1/espresso/pseudo/pslibrary.1.0.0/pbe/PSEUDOPOTENTIALS/H.pbe-kjpaw_psl.1.0.0.UPF
     MD5 check sum: fe4c6fa958fa6d3815bf5d2419cbf1df
     Pseudo is Projector augmented-wave, Zval =  1.0
     Generated using 'atomic' code by A. Dal Corso  v.7.0
     Shape of augmentation charge: PSQ
     Using radial grid of  929 points,  2 beta functions with: 
                l(1) =   0
                l(2) =   0
     Q(r) pseudized with 0 coefficients 


     atomic species   valence    mass     pseudopotential
        Co             9.00    58.93319     Co( 1.00)
        C              4.00    12.00000     C ( 1.00)
        O              6.00    15.99491     O ( 1.00)
        H              1.00     1.00783     H ( 1.00)

     Starting magnetic structure 
     atomic species   magnetization
        Co           1.000
        C            1.000
        O            0.000
        H            0.000

     No symmetry found



   Cartesian axes

     site n.     atom                  positions (alat units)
         1           Co  tau(   1) = (   0.0000000   0.1924501   1.3333333  )
         2           Co  tau(   2) = (   0.3333333   0.1924501   1.3333333  )
         3           Co  tau(   3) = (   0.6666667   0.1924501   1.3333333  )
         4           Co  tau(   4) = (   0.1666667   0.4811252   1.3333333  )
         5           Co  tau(   5) = (   0.5000000   0.4811252   1.3333333  )
         6           Co  tau(   6) = (   0.8333333   0.4811252   1.3333333  )
         7           Co  tau(   7) = (   0.3333333   0.7698004   1.3333333  )
         8           Co  tau(   8) = (   0.6666667   0.7698004   1.3333333  )
         9           Co  tau(   9) = (   1.0000000   0.7698004   1.3333333  )
        10           Co  tau(  10) = (   0.0000000   0.0000000   1.6036667  )
        11           Co  tau(  11) = (   0.3333333   0.0000000   1.6036667  )
        12           Co  tau(  12) = (   0.6666667   0.0000000   1.6036667  )
        13           Co  tau(  13) = (   0.1666667   0.2886751   1.6036667  )
        14           Co  tau(  14) = (   0.5000000   0.2886751   1.6036667  )
        15           Co  tau(  15) = (   0.8333333   0.2886751   1.6036667  )
        16           Co  tau(  16) = (   0.3333333   0.5773503   1.6036667  )
        17           Co  tau(  17) = (   0.6666667   0.5773503   1.6036667  )
        18           Co  tau(  18) = (   1.0000000   0.5773503   1.6036667  )
        19           Co  tau(  19) = (   0.0000000   0.1924501   1.8740000  )
        20           Co  tau(  20) = (   0.3333333   0.1924501   1.8740000  )
        21           Co  tau(  21) = (   0.6666667   0.1924501   1.8740000  )
        22           Co  tau(  22) = (   0.1666667   0.4811252   1.8740000  )
        23           Co  tau(  23) = (   0.5000000   0.4811252   1.8740000  )
        24           Co  tau(  24) = (   0.8333333   0.4811252   1.8740000  )
        25           Co  tau(  25) = (   0.3333333   0.7698004   1.8740000  )
        26           Co  tau(  26) = (   0.6666667   0.7698004   1.8740000  )
        27           Co  tau(  27) = (   1.0000000   0.7698004   1.8740000  )
        28           Co  tau(  28) = (   0.0000000   0.0000000   2.1443333  )
        29           Co  tau(  29) = (   0.3333333   0.0000000   2.1443333  )
        30           Co  tau(  30) = (   0.6666667   0.0000000   2.1443333  )
        31           Co  tau(  31) = (   0.1666667   0.2886751   2.1443333  )
        32           Co  tau(  32) = (   0.5000000   0.2886751   2.1443333  )
        33           Co  tau(  33) = (   0.8333333   0.2886751   2.1443333  )
        34           Co  tau(  34) = (   0.3333333   0.5773503   2.1443333  )
        35           Co  tau(  35) = (   0.6666667   0.5773503   2.1443333  )
        36           Co  tau(  36) = (   1.0000000   0.5773503   2.1443333  )
        37           C   tau(  37) = (   0.4305759   0.2078380   2.3687526  )
        38           O   tau(  38) = (   0.3326315   0.0792317   2.4160274  )
        39           H   tau(  39) = (   0.4926012   0.2886807   2.4748137  )

     number of k points=    13  Marzari-Vanderbilt smearing, width (Ry)=  0.0010
                       cart. coord. in units 2pi/alat
        k(    1) = (   0.0000000   0.0000000   0.0000000), wk =   0.0400000
        k(    2) = (   0.0000000   0.2309401   0.0000000), wk =   0.0800000
        k(    3) = (   0.0000000   0.4618802   0.0000000), wk =   0.0800000
        k(    4) = (   0.2000000  -0.1154701   0.0000000), wk =   0.0800000
        k(    5) = (   0.2000000   0.1154701   0.0000000), wk =   0.0800000
        k(    6) = (   0.2000000   0.3464102   0.0000000), wk =   0.0800000
        k(    7) = (   0.2000000  -0.5773503   0.0000000), wk =   0.0800000
        k(    8) = (   0.2000000  -0.3464102   0.0000000), wk =   0.0800000
        k(    9) = (   0.4000000  -0.2309401   0.0000000), wk =   0.0800000
        k(   10) = (   0.4000000   0.0000000   0.0000000), wk =   0.0800000
        k(   11) = (   0.4000000   0.2309401   0.0000000), wk =   0.0800000
        k(   12) = (   0.4000000  -0.6928203   0.0000000), wk =   0.0800000
        k(   13) = (   0.4000000  -0.4618802   0.0000000), wk =   0.0800000

     Dense  grid:   752179 G-vectors     FFT dimensions: (  80,  80, 288)

     Smooth grid:   293251 G-vectors     FFT dimensions: (  60,  60, 200)

     Estimated max dynamical RAM per process >      84.82 MB

     Estimated total dynamical RAM >       7.95 GB
     Generating pointlists ...
     new r_m :   0.1025 (alat units)  1.4524 (a.u.) for type    1
     new r_m :   0.0607 (alat units)  0.8599 (a.u.) for type    2
     new r_m :   0.0695 (alat units)  0.9847 (a.u.) for type    3
     new r_m :   0.0607 (alat units)  0.8599 (a.u.) for type    4

     Initial potential from superposition of free atoms

     starting charge     334.9897, renormalised to     335.0000

     negative rho (up, down):  2.998E-03 4.702E-04


     %%%%%%%%%%%%%%%%%%%%%%%%%%%%%%%%%%%%%%%%%%%%%%%%%%%%%%%%%%%%%%%%%%%%%%%%
     %                                                                      %
     % You are using vdW-DF, which was implemented by the Thonhauser group. %
     % Please cite the following two papers that made this development      %
     % possible and the two reviews that describe the various versions:     %
     %                                                                      %
     %   T. Thonhauser et al., PRL 115, 136402 (2015).                      %
     %   T. Thonhauser et al., PRB 76, 125112 (2007).                       %
     %   K. Berland et al., Rep. Prog. Phys. 78, 066501 (2015).             %
     %   D.C. Langreth et al., J. Phys.: Condens. Matter 21, 084203 (2009). %
     %                                                                      %
     % If you are calculating stress with vdW-DF, please also cite:         %
     %                                                                      %
     %   R. Sabatini et al., J. Phys.: Condens. Matter 24, 424209 (2012).   %
     %   C.M. Frostenson et al., Electr. Struct. 4, 014001 (2022).          %
     %                                                                      %
     %%%%%%%%%%%%%%%%%%%%%%%%%%%%%%%%%%%%%%%%%%%%%%%%%%%%%%%%%%%%%%%%%%%%%%%%

     %%%%%%%%%%%%%%%%%%%%%%%%%%%%%%%%%%%%%%%%%%%%%%%%%%%%%%%%%%%%%%%%%%%%%%%%
     %                                                                      %
     %  vdW-DF NEWS:                                                        %
     %                                                                      %
     %  * vdW-DF3 is now available. DOI: 10.1021/acs.jctc.0c00471           %
     %    use with input_dft = 'vdW-DF3-opt1' or 'vdW-DF3-opt2'             %
     %                                                                      %
     %  * Unscreened and range-separated hybrid vdW-DF-cx functionals       %
     %    DOI: 10.1063/1.4986522 and 10.1088/1361-648X/ac2ad2               %
     %    use with input_dft = 'vdW-DF-cx0'    and 'vdW-DF-ahcx'            %
     %  * Unscreened and range-separated hybrid vdW-DF2-b86r functionals    %
     %    DOI: 10.1063/1.4986522 and DOI: 10.1103/PhysRevX.12.041003        %
     %    use with input_dft = 'vdW-DF2-br0' and 'vdW-DF2-ahbr'             %
     %                                                                      %
     %%%%%%%%%%%%%%%%%%%%%%%%%%%%%%%%%%%%%%%%%%%%%%%%%%%%%%%%%%%%%%%%%%%%%%%%


     Starting wfcs are  333 randomized atomic wfcs
     Checking if some PAW data can be deallocated... 

     total cpu time spent up to now is       13.0 secs

     per-process dynamical memory:   212.2 Mb

     Self-consistent Calculation

     iteration #  1     ecut=    40.00 Ry     beta= 0.70
     Davidson diagonalization with overlap
     ethr =  1.00E-02,  avg # of iterations =  2.0

     negative rho (up, down):  4.850E-05 9.745E-07

     total cpu time spent up to now is       27.7 secs

     total energy              =   -6052.95266546 Ry
     estimated scf accuracy    <      39.85678261 Ry

     total magnetization       =    69.00 Bohr mag/cell
     absolute magnetization    =    81.23 Bohr mag/cell

     iteration #  2     ecut=    40.00 Ry     beta= 0.70
     Davidson diagonalization with overlap
     ethr =  1.00E-02,  avg # of iterations =  1.0

     negative rho (up, down):  2.009E-05 5.567E-07

     total cpu time spent up to now is       41.0 secs

     total energy              =   -6052.34143400 Ry
     estimated scf accuracy    <      25.57733632 Ry

     total magnetization       =    68.84 Bohr mag/cell
     absolute magnetization    =    76.76 Bohr mag/cell

     iteration #  3     ecut=    40.00 Ry     beta= 0.70
     Davidson diagonalization with overlap
     ethr =  7.64E-03,  avg # of iterations =  1.0

     negative rho (up, down):  1.048E-06 1.730E-06

     total cpu time spent up to now is       53.3 secs

     total energy              =   -6055.03842634 Ry
     estimated scf accuracy    <      84.68648935 Ry

     total magnetization       =    66.10 Bohr mag/cell
     absolute magnetization    =    73.27 Bohr mag/cell

     iteration #  4     ecut=    40.00 Ry     beta= 0.70
     Davidson diagonalization with overlap
     ethr =  7.64E-03,  avg # of iterations =  1.0

     negative rho (up, down):  1.154E-06 6.269E-07

     total cpu time spent up to now is       66.9 secs

     total energy              =   -6056.24410059 Ry
     estimated scf accuracy    <       5.66573541 Ry

     total magnetization       =    60.70 Bohr mag/cell
     absolute magnetization    =    70.52 Bohr mag/cell

     iteration #  5     ecut=    40.00 Ry     beta= 0.70
     Davidson diagonalization with overlap
     ethr =  1.69E-03,  avg # of iterations =  1.3

     negative rho (up, down):  1.162E-06 5.757E-07

     total cpu time spent up to now is       79.6 secs

     total energy              =   -6056.26672172 Ry
     estimated scf accuracy    <       3.32553695 Ry

     total magnetization       =    60.42 Bohr mag/cell
     absolute magnetization    =    69.84 Bohr mag/cell

     iteration #  6     ecut=    40.00 Ry     beta= 0.70
     Davidson diagonalization with overlap
     ethr =  9.93E-04,  avg # of iterations =  1.4

     negative rho (up, down):  8.329E-07 4.538E-07

     total cpu time spent up to now is       93.1 secs

     total energy              =   -6056.37110597 Ry
     estimated scf accuracy    <       0.53575256 Ry

     total magnetization       =    60.45 Bohr mag/cell
     absolute magnetization    =    69.62 Bohr mag/cell

     iteration #  7     ecut=    40.00 Ry     beta= 0.70
     Davidson diagonalization with overlap
     ethr =  1.60E-04,  avg # of iterations =  6.0

     negative rho (up, down):  8.692E-07 5.211E-07

     total cpu time spent up to now is      110.7 secs

     total energy              =   -6056.40333931 Ry
     estimated scf accuracy    <       0.78162202 Ry

     total magnetization       =    60.63 Bohr mag/cell
     absolute magnetization    =    69.39 Bohr mag/cell

     iteration #  8     ecut=    40.00 Ry     beta= 0.70
     Davidson diagonalization with overlap
     ethr =  1.60E-04,  avg # of iterations =  2.2

     negative rho (up, down):  3.819E-07 2.099E-07

     total cpu time spent up to now is      124.7 secs

     total energy              =   -6056.41665867 Ry
     estimated scf accuracy    <       0.18136219 Ry

     total magnetization       =    60.77 Bohr mag/cell
     absolute magnetization    =    69.32 Bohr mag/cell

     iteration #  9     ecut=    40.00 Ry     beta= 0.70
     Davidson diagonalization with overlap
     c_bands:  3 eigenvalues not converged
     ethr =  5.41E-05,  avg # of iterations =  9.2

     negative rho (up, down):  2.720E-07 1.548E-07

     total cpu time spent up to now is      145.0 secs

     total energy              =   -6056.42429627 Ry
     estimated scf accuracy    <       0.15846296 Ry

     total magnetization       =    61.28 Bohr mag/cell
     absolute magnetization    =    69.42 Bohr mag/cell

     iteration # 10     ecut=    40.00 Ry     beta= 0.70
     Davidson diagonalization with overlap
     ethr =  4.73E-05,  avg # of iterations =  2.0

     negative rho (up, down):  2.470E-07 1.698E-07

     total cpu time spent up to now is      159.2 secs

     total energy              =   -6056.42542375 Ry
     estimated scf accuracy    <       0.18427702 Ry

     total magnetization       =    61.32 Bohr mag/cell
     absolute magnetization    =    69.28 Bohr mag/cell

     iteration # 11     ecut=    40.00 Ry     beta= 0.70
     Davidson diagonalization with overlap
     ethr =  4.73E-05,  avg # of iterations =  1.5

     negative rho (up, down):  6.014E-08 5.005E-08

     total cpu time spent up to now is      171.1 secs

     total energy              =   -6056.42442407 Ry
     estimated scf accuracy    <       0.10419014 Ry

     total magnetization       =    61.34 Bohr mag/cell
     absolute magnetization    =    69.17 Bohr mag/cell

     iteration # 12     ecut=    40.00 Ry     beta= 0.70
     Davidson diagonalization with overlap
     ethr =  3.11E-05,  avg # of iterations =  2.6

     negative rho (up, down):  3.152E-06 5.878E-08

     total cpu time spent up to now is      186.6 secs

     total energy              =   -6056.42665570 Ry
     estimated scf accuracy    <       0.08367374 Ry

     total magnetization       =    61.31 Bohr mag/cell
     absolute magnetization    =    68.99 Bohr mag/cell

     iteration # 13     ecut=    40.00 Ry     beta= 0.70
     Davidson diagonalization with overlap
     ethr =  2.50E-05,  avg # of iterations =  1.9

     negative rho (up, down):  3.846E-08 9.551E-10

     total cpu time spent up to now is      198.9 secs

     total energy              =   -6056.42513024 Ry
     estimated scf accuracy    <       0.09255469 Ry

     total magnetization       =    61.34 Bohr mag/cell
     absolute magnetization    =    68.95 Bohr mag/cell

     iteration # 14     ecut=    40.00 Ry     beta= 0.70
     Davidson diagonalization with overlap
     ethr =  2.50E-05,  avg # of iterations =  1.8

     negative rho (up, down):  6.306E-03 4.571E-03

     total cpu time spent up to now is      211.1 secs

     total energy              =   -6056.42003730 Ry
     estimated scf accuracy    <       0.06428505 Ry

     total magnetization       =    61.34 Bohr mag/cell
     absolute magnetization    =    68.97 Bohr mag/cell

     iteration # 15     ecut=    40.00 Ry     beta= 0.70
     Davidson diagonalization with overlap
     c_bands:  2 eigenvalues not converged
     ethr =  1.92E-05,  avg # of iterations =  4.0

     negative rho (up, down):  1.035E-02 8.368E-03

     total cpu time spent up to now is      226.9 secs

     total energy              =   -6056.41922308 Ry
     estimated scf accuracy    <       0.06179870 Ry

     total magnetization       =    61.33 Bohr mag/cell
     absolute magnetization    =    68.90 Bohr mag/cell

     iteration # 16     ecut=    40.00 Ry     beta= 0.70
     Davidson diagonalization with overlap
     ethr =  1.84E-05,  avg # of iterations =  1.5

     negative rho (up, down):  2.001E-02 1.799E-02

     total cpu time spent up to now is      239.6 secs

     total energy              =   -6056.41896021 Ry
     estimated scf accuracy    <       0.02684020 Ry

     total magnetization       =    61.33 Bohr mag/cell
     absolute magnetization    =    68.88 Bohr mag/cell

     iteration # 17     ecut=    40.00 Ry     beta= 0.70
     Davidson diagonalization with overlap
     c_bands:  1 eigenvalues not converged
     c_bands:  2 eigenvalues not converged
     c_bands:  2 eigenvalues not converged
     c_bands:  4 eigenvalues not converged
     ethr =  8.01E-06,  avg # of iterations =  7.5

     negative rho (up, down):  1.652E-02 1.488E-02

     total cpu time spent up to now is      258.7 secs

     total energy              =   -6056.41875492 Ry
     estimated scf accuracy    <       0.01666383 Ry

     total magnetization       =    61.33 Bohr mag/cell
     absolute magnetization    =    68.86 Bohr mag/cell

     iteration # 18     ecut=    40.00 Ry     beta= 0.70
     Davidson diagonalization with overlap
     c_bands:  3 eigenvalues not converged
     ethr =  4.97E-06,  avg # of iterations =  6.2

     negative rho (up, down):  1.051E-02 9.141E-03

     total cpu time spent up to now is      276.1 secs

     total energy              =   -6056.41902364 Ry
     estimated scf accuracy    <       0.01662681 Ry

     total magnetization       =    61.33 Bohr mag/cell
     absolute magnetization    =    68.85 Bohr mag/cell

     iteration # 19     ecut=    40.00 Ry     beta= 0.70
     Davidson diagonalization with overlap
     ethr =  4.96E-06,  avg # of iterations =  1.3

     negative rho (up, down):  1.053E-02 9.570E-03

     total cpu time spent up to now is      287.9 secs

     total energy              =   -6056.41781735 Ry
     estimated scf accuracy    <       0.00836636 Ry

     total magnetization       =    61.33 Bohr mag/cell
     absolute magnetization    =    68.85 Bohr mag/cell

     iteration # 20     ecut=    40.00 Ry     beta= 0.70
     Davidson diagonalization with overlap
     c_bands:  2 eigenvalues not converged
     ethr =  2.50E-06,  avg # of iterations =  4.2

     negative rho (up, down):  1.208E-02 1.130E-02

     total cpu time spent up to now is      304.5 secs

     total energy              =   -6056.41746045 Ry
     estimated scf accuracy    <       0.02020402 Ry

     total magnetization       =    61.34 Bohr mag/cell
     absolute magnetization    =    68.82 Bohr mag/cell

     iteration # 21     ecut=    40.00 Ry     beta= 0.70
     Davidson diagonalization with overlap
     ethr =  2.50E-06,  avg # of iterations =  2.2

     negative rho (up, down):  1.664E-02 1.573E-02

     total cpu time spent up to now is      317.2 secs

     total energy              =   -6056.41734426 Ry
     estimated scf accuracy    <       0.02345781 Ry

     total magnetization       =    61.33 Bohr mag/cell
     absolute magnetization    =    68.82 Bohr mag/cell

     iteration # 22     ecut=    40.00 Ry     beta= 0.70
     Davidson diagonalization with overlap
     ethr =  2.50E-06,  avg # of iterations =  1.1

     negative rho (up, down):  1.566E-02 1.489E-02

     total cpu time spent up to now is      328.6 secs

     total energy              =   -6056.41817228 Ry
     estimated scf accuracy    <       0.00522975 Ry

     total magnetization       =    61.33 Bohr mag/cell
     absolute magnetization    =    68.82 Bohr mag/cell

     iteration # 23     ecut=    40.00 Ry     beta= 0.70
     Davidson diagonalization with overlap
     ethr =  1.56E-06,  avg # of iterations =  1.5

     negative rho (up, down):  9.433E-03 8.725E-03

     total cpu time spent up to now is      342.1 secs

     total energy              =   -6056.41839743 Ry
     estimated scf accuracy    <       0.00115795 Ry

     total magnetization       =    61.33 Bohr mag/cell
     absolute magnetization    =    68.82 Bohr mag/cell

     iteration # 24     ecut=    40.00 Ry     beta= 0.70
     Davidson diagonalization with overlap
     ethr =  3.46E-07,  avg # of iterations =  5.0

     negative rho (up, down):  6.702E-03 5.939E-03

     total cpu time spent up to now is      358.3 secs

     total energy              =   -6056.41843058 Ry
     estimated scf accuracy    <       0.00284255 Ry

     total magnetization       =    61.33 Bohr mag/cell
     absolute magnetization    =    68.83 Bohr mag/cell

     iteration # 25     ecut=    40.00 Ry     beta= 0.70
     Davidson diagonalization with overlap
     ethr =  3.46E-07,  avg # of iterations =  1.6

     negative rho (up, down):  5.499E-03 4.737E-03

     total cpu time spent up to now is      371.9 secs

     total energy              =   -6056.41853766 Ry
     estimated scf accuracy    <       0.00076928 Ry

     total magnetization       =    61.33 Bohr mag/cell
     absolute magnetization    =    68.83 Bohr mag/cell

     iteration # 26     ecut=    40.00 Ry     beta= 0.70
     Davidson diagonalization with overlap
     ethr =  2.30E-07,  avg # of iterations =  2.2

     negative rho (up, down):  5.107E-03 4.316E-03

     total cpu time spent up to now is      384.4 secs

     total energy              =   -6056.41858343 Ry
     estimated scf accuracy    <       0.00116313 Ry

     total magnetization       =    61.33 Bohr mag/cell
     absolute magnetization    =    68.83 Bohr mag/cell

     iteration # 27     ecut=    40.00 Ry     beta= 0.70
     Davidson diagonalization with overlap
     ethr =  2.30E-07,  avg # of iterations =  1.1

     negative rho (up, down):  4.982E-03 4.145E-03

     total cpu time spent up to now is      397.4 secs

     total energy              =   -6056.41868229 Ry
     estimated scf accuracy    <       0.00027743 Ry

     total magnetization       =    61.33 Bohr mag/cell
     absolute magnetization    =    68.83 Bohr mag/cell

     iteration # 28     ecut=    40.00 Ry     beta= 0.70
     Davidson diagonalization with overlap
     ethr =  8.28E-08,  avg # of iterations =  2.8

     negative rho (up, down):  4.123E-03 3.255E-03

     total cpu time spent up to now is      410.6 secs

     total energy              =   -6056.41866148 Ry
     estimated scf accuracy    <       0.00014421 Ry

     total magnetization       =    61.33 Bohr mag/cell
     absolute magnetization    =    68.82 Bohr mag/cell

     iteration # 29     ecut=    40.00 Ry     beta= 0.70
     Davidson diagonalization with overlap
     ethr =  4.30E-08,  avg # of iterations =  3.7

     negative rho (up, down):  3.775E-03 2.858E-03

     total cpu time spent up to now is      427.1 secs

     total energy              =   -6056.41867319 Ry
     estimated scf accuracy    <       0.00012053 Ry

     total magnetization       =    61.33 Bohr mag/cell
     absolute magnetization    =    68.82 Bohr mag/cell

     iteration # 30     ecut=    40.00 Ry     beta= 0.70
     Davidson diagonalization with overlap
     ethr =  3.60E-08,  avg # of iterations =  1.7

     negative rho (up, down):  3.124E-03 2.034E-03

     total cpu time spent up to now is      439.3 secs

     total energy              =   -6056.41870107 Ry
     estimated scf accuracy    <       0.00007240 Ry

     total magnetization       =    61.33 Bohr mag/cell
     absolute magnetization    =    68.82 Bohr mag/cell

     iteration # 31     ecut=    40.00 Ry     beta= 0.70
     Davidson diagonalization with overlap
     ethr =  2.16E-08,  avg # of iterations =  2.4

     negative rho (up, down):  2.952E-03 1.853E-03

     total cpu time spent up to now is      453.6 secs

     total energy              =   -6056.41870116 Ry
     estimated scf accuracy    <       0.00007015 Ry

     total magnetization       =    61.33 Bohr mag/cell
     absolute magnetization    =    68.82 Bohr mag/cell

     iteration # 32     ecut=    40.00 Ry     beta= 0.70
     Davidson diagonalization with overlap
     ethr =  2.09E-08,  avg # of iterations =  1.6

     negative rho (up, down):  3.048E-03 1.970E-03

     total cpu time spent up to now is      465.8 secs

     total energy              =   -6056.41870440 Ry
     estimated scf accuracy    <       0.00004741 Ry

     total magnetization       =    61.33 Bohr mag/cell
     absolute magnetization    =    68.82 Bohr mag/cell

     iteration # 33     ecut=    40.00 Ry     beta= 0.70
     Davidson diagonalization with overlap
     ethr =  1.42E-08,  avg # of iterations =  2.1

     negative rho (up, down):  2.956E-03 1.856E-03

     total cpu time spent up to now is      479.2 secs

     total energy              =   -6056.41870512 Ry
     estimated scf accuracy    <       0.00001109 Ry

     total magnetization       =    61.33 Bohr mag/cell
     absolute magnetization    =    68.82 Bohr mag/cell

     iteration # 34     ecut=    40.00 Ry     beta= 0.70
     Davidson diagonalization with overlap
     ethr =  3.31E-09,  avg # of iterations =  6.9

     negative rho (up, down):  2.964E-03 1.882E-03

     total cpu time spent up to now is      497.6 secs

     total energy              =   -6056.41870640 Ry
     estimated scf accuracy    <       0.00001544 Ry

     total magnetization       =    61.33 Bohr mag/cell
     absolute magnetization    =    68.82 Bohr mag/cell

     iteration # 35     ecut=    40.00 Ry     beta= 0.70
     Davidson diagonalization with overlap
     ethr =  3.31E-09,  avg # of iterations =  1.7

     negative rho (up, down):  2.925E-03 1.853E-03

     total cpu time spent up to now is      509.7 secs

     total energy              =   -6056.41870702 Ry
     estimated scf accuracy    <       0.00000726 Ry

     total magnetization       =    61.33 Bohr mag/cell
     absolute magnetization    =    68.82 Bohr mag/cell

     iteration # 36     ecut=    40.00 Ry     beta= 0.70
     Davidson diagonalization with overlap
     ethr =  2.17E-09,  avg # of iterations =  1.9

     negative rho (up, down):  2.841E-03 1.791E-03

     total cpu time spent up to now is      523.8 secs

     total energy              =   -6056.41870748 Ry
     estimated scf accuracy    <       0.00000956 Ry

     total magnetization       =    61.33 Bohr mag/cell
     absolute magnetization    =    68.82 Bohr mag/cell

     iteration # 37     ecut=    40.00 Ry     beta= 0.70
     Davidson diagonalization with overlap
     ethr =  2.17E-09,  avg # of iterations =  1.9

     negative rho (up, down):  2.867E-03 1.799E-03

     total cpu time spent up to now is      536.3 secs

     total energy              =   -6056.41870720 Ry
     estimated scf accuracy    <       0.00000846 Ry

     total magnetization       =    61.33 Bohr mag/cell
     absolute magnetization    =    68.82 Bohr mag/cell

     iteration # 38     ecut=    40.00 Ry     beta= 0.70
     Davidson diagonalization with overlap
     ethr =  2.17E-09,  avg # of iterations =  1.1

     negative rho (up, down):  2.795E-03 1.731E-03

     total cpu time spent up to now is      550.0 secs

     total energy              =   -6056.41870721 Ry
     estimated scf accuracy    <       0.00000413 Ry

     total magnetization       =    61.33 Bohr mag/cell
     absolute magnetization    =    68.82 Bohr mag/cell

     iteration # 39     ecut=    40.00 Ry     beta= 0.70
     Davidson diagonalization with overlap
     ethr =  1.23E-09,  avg # of iterations =  1.7

     negative rho (up, down):  2.665E-03 1.604E-03

     total cpu time spent up to now is      562.3 secs

     total energy              =   -6056.41870640 Ry
     estimated scf accuracy    <       0.00000673 Ry

     total magnetization       =    61.33 Bohr mag/cell
     absolute magnetization    =    68.82 Bohr mag/cell

     iteration # 40     ecut=    40.00 Ry     beta= 0.70
     Davidson diagonalization with overlap
     ethr =  1.23E-09,  avg # of iterations =  2.0

     negative rho (up, down):  2.618E-03 1.548E-03

     total cpu time spent up to now is      576.4 secs

     total energy              =   -6056.41870631 Ry
     estimated scf accuracy    <       0.00000755 Ry

     total magnetization       =    61.33 Bohr mag/cell
     absolute magnetization    =    68.82 Bohr mag/cell

     iteration # 41     ecut=    40.00 Ry     beta= 0.70
     Davidson diagonalization with overlap
     ethr =  1.23E-09,  avg # of iterations =  1.1

     negative rho (up, down):  2.502E-03 1.439E-03

     total cpu time spent up to now is      587.9 secs

     total energy              =   -6056.41870547 Ry
     estimated scf accuracy    <       0.00000290 Ry

     total magnetization       =    61.33 Bohr mag/cell
     absolute magnetization    =    68.82 Bohr mag/cell

     iteration # 42     ecut=    40.00 Ry     beta= 0.70
     Davidson diagonalization with overlap
     ethr =  8.65E-10,  avg # of iterations =  2.3

     negative rho (up, down):  2.490E-03 1.418E-03

     total cpu time spent up to now is      603.0 secs

     total energy              =   -6056.41870570 Ry
     estimated scf accuracy    <       0.00000658 Ry

     total magnetization       =    61.33 Bohr mag/cell
     absolute magnetization    =    68.82 Bohr mag/cell

     iteration # 43     ecut=    40.00 Ry     beta= 0.70
     Davidson diagonalization with overlap
     ethr =  8.65E-10,  avg # of iterations =  1.1

     negative rho (up, down):  2.429E-03 1.349E-03

     total cpu time spent up to now is      614.6 secs

     total energy              =   -6056.41870592 Ry
     estimated scf accuracy    <       0.00000153 Ry

     total magnetization       =    61.33 Bohr mag/cell
     absolute magnetization    =    68.82 Bohr mag/cell

     iteration # 44     ecut=    40.00 Ry     beta= 0.70
     Davidson diagonalization with overlap
     ethr =  4.57E-10,  avg # of iterations =  1.5

     negative rho (up, down):  2.371E-03 1.280E-03

     total cpu time spent up to now is      626.4 secs

     total energy              =   -6056.41870613 Ry
     estimated scf accuracy    <       0.00000119 Ry

     total magnetization       =    61.33 Bohr mag/cell
     absolute magnetization    =    68.82 Bohr mag/cell

     iteration # 45     ecut=    40.00 Ry     beta= 0.70
     Davidson diagonalization with overlap
     ethr =  3.55E-10,  avg # of iterations =  2.0

     negative rho (up, down):  2.342E-03 1.244E-03

     total cpu time spent up to now is      640.2 secs

     total energy              =   -6056.41870634 Ry
     estimated scf accuracy    <       0.00000131 Ry

     total magnetization       =    61.33 Bohr mag/cell
     absolute magnetization    =    68.82 Bohr mag/cell

     iteration # 46     ecut=    40.00 Ry     beta= 0.70
     Davidson diagonalization with overlap
     ethr =  3.55E-10,  avg # of iterations =  1.5

     negative rho (up, down):  2.294E-03 1.186E-03

     total cpu time spent up to now is      652.2 secs

     total energy              =   -6056.41870641 Ry
     estimated scf accuracy    <       0.00000225 Ry

     total magnetization       =    61.33 Bohr mag/cell
     absolute magnetization    =    68.82 Bohr mag/cell

     iteration # 47     ecut=    40.00 Ry     beta= 0.70
     Davidson diagonalization with overlap
     ethr =  3.55E-10,  avg # of iterations =  1.9

     negative rho (up, down):  2.218E-03 1.117E-03

     Magnetic moment per site  (integrated on atomic sphere of radius R)
     atom   1 (R=0.102)  charge=  6.2198  magn=  1.7698
     atom   2 (R=0.102)  charge=  6.2195  magn=  1.7624
     atom   3 (R=0.102)  charge=  6.2195  magn=  1.7666
     atom   4 (R=0.102)  charge=  6.2198  magn=  1.7693
     atom   5 (R=0.102)  charge=  6.2200  magn=  1.7648
     atom   6 (R=0.102)  charge=  6.2194  magn=  1.7685
     atom   7 (R=0.102)  charge=  6.2202  magn=  1.7706
     atom   8 (R=0.102)  charge=  6.2195  magn=  1.7698
     atom   9 (R=0.102)  charge=  6.2194  magn=  1.7638
     atom  10 (R=0.102)  charge=  6.2255  magn=  1.6901
     atom  11 (R=0.102)  charge=  6.2259  magn=  1.7048
     atom  12 (R=0.102)  charge=  6.2255  magn=  1.6998
     atom  13 (R=0.102)  charge=  6.2260  magn=  1.7007
     atom  14 (R=0.102)  charge=  6.2263  magn=  1.6849
     atom  15 (R=0.102)  charge=  6.2260  magn=  1.6933
     atom  16 (R=0.102)  charge=  6.2258  magn=  1.6950
     atom  17 (R=0.102)  charge=  6.2263  magn=  1.7008
     atom  18 (R=0.102)  charge=  6.2263  magn=  1.6913
     atom  19 (R=0.102)  charge=  6.2256  magn=  1.6858
     atom  20 (R=0.102)  charge=  6.2217  magn=  1.7219
     atom  21 (R=0.102)  charge=  6.2268  magn=  1.6697
     atom  22 (R=0.102)  charge=  6.2260  magn=  1.7002
     atom  23 (R=0.102)  charge=  6.2279  magn=  1.6596
     atom  24 (R=0.102)  charge=  6.2250  magn=  1.7047
     atom  25 (R=0.102)  charge=  6.2255  magn=  1.6932
     atom  26 (R=0.102)  charge=  6.2245  magn=  1.6842
     atom  27 (R=0.102)  charge=  6.2257  magn=  1.6837
     atom  28 (R=0.102)  charge=  6.2230  magn=  1.7893
     atom  29 (R=0.102)  charge=  6.2259  magn=  1.6705
     atom  30 (R=0.102)  charge=  6.2232  magn=  1.7646
     atom  31 (R=0.102)  charge=  6.2281  magn=  1.7516
     atom  32 (R=0.102)  charge=  6.2493  magn=  1.1183
     atom  33 (R=0.102)  charge=  6.2192  magn=  1.7722
     atom  34 (R=0.102)  charge=  6.2200  magn=  1.7629
     atom  35 (R=0.102)  charge=  6.2210  magn=  1.7719
     atom  36 (R=0.102)  charge=  6.2197  magn=  1.7881
     atom  37 (R=0.061)  charge=  0.8418  magn= -0.0198
     atom  38 (R=0.069)  charge=  3.2071  magn= -0.0098
     atom  39 (R=0.061)  charge=  0.5058  magn= -0.0030

     total cpu time spent up to now is      666.4 secs

     End of self-consistent calculation

 ------ SPIN UP ------------


          k = 0.0000 0.0000 0.0000 ( 36693 PWs)   bands (ev):

   -21.3670  -9.9802  -7.4990  -6.6426  -6.1479  -5.5768  -5.0769  -4.6216
    -4.5915  -4.5888  -4.5867  -4.5850  -4.5709  -4.5312  -4.2287  -4.0606
    -4.0549  -4.0534  -4.0484  -4.0275  -3.9898  -3.5422  -3.5379  -3.5338
    -3.5274  -3.5133  -3.4855  -3.4045  -3.4006  -3.3929  -3.3906  -3.3883
    -3.3635  -3.3281  -3.3234  -3.0165  -3.0110  -3.0097  -3.0082  -2.9643
    -2.9497  -2.9451  -2.9438  -2.9378  -2.9355  -2.9337  -2.9257  -2.7846
    -2.7806  -2.7338  -2.7205  -2.7118  -2.7032  -2.6974  -2.6922  -2.6770
    -2.6742  -2.6686  -2.6608  -2.5758  -2.5733  -2.5700  -2.5616  -2.5491
    -2.5061  -2.1086  -2.0482  -2.0321  -2.0317  -2.0290  -2.0221  -1.9227
    -1.9023  -1.9011  -1.8815  -1.8703  -1.8537  -1.8494  -1.8453  -1.8350
    -1.8182  -1.7972  -1.7914  -1.7520  -1.7483  -1.7359  -1.7267  -1.7196
    -1.7180  -1.7074  -1.7038  -1.6912  -1.6789  -1.6759  -1.6709  -1.6662
    -1.6649  -1.6605  -1.6577  -1.6548  -1.6528  -1.6502  -1.6457  -1.6443
    -1.6394  -1.5922  -1.5809  -1.5695  -1.5611  -1.4929  -1.4881  -1.4311
    -1.2974  -1.2139  -1.2085  -1.2028  -1.2012  -1.1983  -1.1790  -1.1618
    -1.1601  -1.1529  -1.1253  -1.1128  -1.1096  -1.0456  -0.9946  -0.9823
    -0.9739  -0.9580  -0.8670  -0.8042  -0.7920  -0.7822  -0.7743  -0.7489
    -0.7377  -0.7173  -0.7121  -0.7102  -0.7076  -0.6873  -0.6255  -0.5910
    -0.5308  -0.4708  -0.4669  -0.4634  -0.4402  -0.4172  -0.4039  -0.4011
    -0.3961  -0.3937  -0.3908  -0.3833  -0.3803  -0.3770  -0.3759  -0.3674
    -0.3575  -0.3562  -0.3323  -0.3253  -0.3201  -0.3181  -0.3155  -0.3117
    -0.2922  -0.2916  -0.2710  -0.2666  -0.2639  -0.2520  -0.2437  -0.2399
    -0.2381  -0.2338  -0.2102  -0.1898  -0.1784  -0.1637  -0.1613  -0.1590
    -0.1545  -0.1493  -0.1411  -0.1290  -0.1229  -0.1141  -0.0702  -0.0698
    -0.0667  -0.0621  -0.0042   0.0005   0.0041   0.0079   0.0263   0.0556
     0.4012   0.9556

          k = 0.0000 0.2309 0.0000 ( 36641 PWs)   bands (ev):

   -21.3670  -9.9807  -7.3519  -6.6118  -6.0663  -5.5700  -5.3260  -5.0715
    -4.8370  -4.8217  -4.4759  -4.3465  -4.2481  -4.2433  -4.1795  -4.1319
    -4.0959  -4.0538  -3.9803  -3.9286  -3.9080  -3.6586  -3.5490  -3.5368
    -3.4624  -3.4421  -3.4174  -3.4077  -3.4056  -3.3990  -3.3823  -3.3634
    -3.3317  -3.2855  -3.2830  -3.2588  -3.2558  -3.0656  -3.0338  -3.0249
    -2.9787  -2.9748  -2.9665  -2.9562  -2.8917  -2.8494  -2.8373  -2.8109
    -2.8028  -2.7974  -2.7656  -2.7565  -2.6798  -2.6641  -2.6412  -2.6020
    -2.5940  -2.5676  -2.5595  -2.5427  -2.5251  -2.5109  -2.4928  -2.4862
    -2.4310  -2.1857  -2.1535  -2.1365  -2.1214  -2.0969  -2.0527  -2.0021
    -1.9983  -1.9886  -1.9824  -1.9638  -1.9546  -1.9298  -1.9071  -1.8738
    -1.8539  -1.8401  -1.8325  -1.7986  -1.7900  -1.7821  -1.7782  -1.7653
    -1.7542  -1.7476  -1.7431  -1.7398  -1.7363  -1.7017  -1.6698  -1.6474
    -1.6363  -1.6116  -1.5753  -1.5608  -1.5581  -1.5501  -1.5431  -1.5326
    -1.5236  -1.5136  -1.5030  -1.5016  -1.4880  -1.4748  -1.4590  -1.4462
    -1.4281  -1.4184  -1.3990  -1.3657  -1.3214  -1.2896  -1.2401  -1.2262
    -1.2221  -1.2147  -1.1994  -1.1945  -1.1850  -1.1710  -1.0747  -1.0357
    -1.0193  -1.0061  -0.9670  -0.9395  -0.9199  -0.8822  -0.8606  -0.8330
    -0.8054  -0.7712  -0.7447  -0.7296  -0.7067  -0.6918  -0.6659  -0.6553
    -0.6515  -0.6302  -0.6101  -0.5774  -0.5664  -0.5567  -0.5425  -0.5396
    -0.5192  -0.4817  -0.4641  -0.4629  -0.4449  -0.4232  -0.3993  -0.3909
    -0.3867  -0.3768  -0.3745  -0.3718  -0.3523  -0.3386  -0.3359  -0.3069
    -0.2694  -0.2545  -0.2508  -0.2210  -0.2092  -0.1879  -0.1685  -0.1460
    -0.1367  -0.1317  -0.1247  -0.1105  -0.1037  -0.0887  -0.0804  -0.0578
    -0.0408  -0.0046   0.0102   0.0151   0.0345   0.0393   0.0818   0.0892
     0.1067   0.1471   0.3798   0.3855   0.4529   0.5544   0.6356   0.6680
     0.6871   0.8328

          k = 0.0000 0.4619 0.0000 ( 36606 PWs)   bands (ev):

   -21.3670  -9.9815  -6.9412  -6.5699  -6.1705  -5.8614  -5.4177  -5.1066
    -4.9828  -4.9400  -4.8402  -4.1519  -4.0950  -4.0748  -4.0360  -4.0009
    -3.8868  -3.8847  -3.8469  -3.7543  -3.7482  -3.7417  -3.6627  -3.5689
    -3.5636  -3.5583  -3.5553  -3.5049  -3.4580  -3.4500  -3.4400  -3.2859
    -3.2823  -3.2744  -3.2535  -3.2371  -3.2311  -3.1328  -3.1290  -3.1156
    -3.1067  -3.0993  -2.9959  -2.9021  -2.8928  -2.8103  -2.7993  -2.7714
    -2.7574  -2.7245  -2.7189  -2.7127  -2.6914  -2.6819  -2.6232  -2.6137
    -2.5884  -2.5546  -2.5462  -2.4223  -2.4093  -2.3973  -2.3741  -2.3424
    -2.2945  -2.2854  -2.2687  -2.2495  -2.2015  -2.1590  -2.1229  -2.1183
    -2.1158  -2.1028  -2.0880  -2.0800  -2.0733  -2.0540  -2.0224  -2.0018
    -1.9848  -1.9591  -1.9434  -1.9143  -1.9033  -1.8753  -1.8123  -1.7971
    -1.7929  -1.7825  -1.7616  -1.7522  -1.7143  -1.6867  -1.6853  -1.6748
    -1.6632  -1.6410  -1.6377  -1.6098  -1.6054  -1.5940  -1.5850  -1.5610
    -1.5512  -1.5437  -1.4889  -1.4441  -1.4269  -1.4082  -1.3835  -1.3747
    -1.3566  -1.3443  -1.3052  -1.2791  -1.2637  -1.2533  -1.2487  -1.2435
    -1.2337  -1.2294  -1.2203  -1.2113  -1.2035  -1.1944  -1.1770  -1.1642
    -1.1483  -1.1192  -1.0777  -1.0440  -1.0059  -1.0029  -0.9829  -0.9696
    -0.9422  -0.9061  -0.8943  -0.8768  -0.8562  -0.8325  -0.8137  -0.7621
    -0.7356  -0.7074  -0.6873  -0.6726  -0.6561  -0.6376  -0.6257  -0.5800
    -0.5402  -0.4868  -0.4749  -0.4674  -0.4583  -0.4549  -0.4410  -0.4372
    -0.4219  -0.4130  -0.3362  -0.3237  -0.3085  -0.2870  -0.2857  -0.2741
    -0.2682  -0.2544  -0.2455  -0.2374  -0.2153  -0.1993  -0.1315  -0.1139
    -0.1067  -0.0936  -0.0728  -0.0588  -0.0151   0.0048   0.0212   0.0529
     0.0671   0.1094   0.1126   0.1304   0.1348   0.1401   0.1573   0.1745
     0.2382   0.2720   0.3466   0.9651   1.1375   1.3098   1.3728   1.3895
     1.6099   1.7683

          k = 0.2000-0.1155 0.0000 ( 36641 PWs)   bands (ev):

   -21.3670  -9.9799  -7.3531  -6.6122  -6.0724  -5.5867  -5.3016  -5.0687
    -4.8428  -4.8316  -4.4706  -4.3201  -4.2495  -4.2449  -4.1753  -4.1255
    -4.1042  -4.0749  -3.9682  -3.9327  -3.9141  -3.6571  -3.5503  -3.5354
    -3.4596  -3.4335  -3.4240  -3.4091  -3.4059  -3.3932  -3.3861  -3.3667
    -3.3315  -3.2867  -3.2832  -3.2615  -3.2559  -3.0603  -3.0308  -3.0261
    -2.9816  -2.9751  -2.9661  -2.9583  -2.8811  -2.8471  -2.8375  -2.8105
    -2.8013  -2.7980  -2.7734  -2.7536  -2.6768  -2.6656  -2.6367  -2.6057
    -2.5884  -2.5724  -2.5611  -2.5504  -2.5282  -2.5153  -2.4919  -2.4878
    -2.4228  -2.1859  -2.1529  -2.1382  -2.1190  -2.0954  -2.0517  -2.0011
    -1.9968  -1.9915  -1.9728  -1.9715  -1.9547  -1.9302  -1.8998  -1.8754
    -1.8576  -1.8471  -1.8350  -1.7992  -1.7879  -1.7834  -1.7806  -1.7669
    -1.7520  -1.7486  -1.7434  -1.7397  -1.7254  -1.6891  -1.6678  -1.6599
    -1.6409  -1.6045  -1.5754  -1.5657  -1.5536  -1.5468  -1.5399  -1.5338
    -1.5153  -1.5094  -1.5057  -1.4997  -1.4907  -1.4701  -1.4607  -1.4507
    -1.4307  -1.4221  -1.3880  -1.3443  -1.3308  -1.3089  -1.2503  -1.2287
    -1.2195  -1.2058  -1.2015  -1.1934  -1.1924  -1.1790  -1.0976  -1.0455
    -1.0341  -1.0123  -0.9612  -0.9401  -0.9234  -0.8700  -0.8570  -0.8392
    -0.8160  -0.7454  -0.7349  -0.7162  -0.6959  -0.6895  -0.6736  -0.6617
    -0.6541  -0.6340  -0.6235  -0.5762  -0.5644  -0.5574  -0.5431  -0.5356
    -0.5041  -0.4895  -0.4673  -0.4603  -0.4372  -0.4211  -0.4023  -0.3945
    -0.3875  -0.3786  -0.3717  -0.3663  -0.3524  -0.3361  -0.3331  -0.3198
    -0.2737  -0.2555  -0.2519  -0.2181  -0.2020  -0.1962  -0.1718  -0.1472
    -0.1415  -0.1288  -0.1225  -0.1116  -0.0988  -0.0893  -0.0819  -0.0512
    -0.0447  -0.0038   0.0055   0.0133   0.0348   0.0392   0.0779   0.0877
     0.0985   0.1441   0.3750   0.3857   0.4886   0.5868   0.6334   0.6555
     0.7403   0.8035

          k = 0.2000 0.1155 0.0000 ( 36641 PWs)   bands (ev):

   -21.3670  -9.9809  -7.3516  -6.6120  -6.0642  -5.5680  -5.3221  -5.0872
    -4.8298  -4.8188  -4.4784  -4.3546  -4.2488  -4.2420  -4.1795  -4.1321
    -4.0872  -4.0552  -3.9828  -3.9253  -3.9087  -3.6603  -3.5457  -3.5403
    -3.4613  -3.4454  -3.4145  -3.4109  -3.4041  -3.3977  -3.3805  -3.3626
    -3.3314  -3.2877  -3.2817  -3.2581  -3.2559  -3.0591  -3.0298  -3.0245
    -2.9773  -2.9725  -2.9657  -2.9628  -2.8825  -2.8505  -2.8391  -2.8161
    -2.8028  -2.7985  -2.7721  -2.7609  -2.6777  -2.6651  -2.6451  -2.6014
    -2.5964  -2.5661  -2.5600  -2.5360  -2.5277  -2.5118  -2.4952  -2.4876
    -2.4317  -2.1778  -2.1560  -2.1402  -2.1173  -2.0959  -2.0526  -2.0003
    -1.9941  -1.9895  -1.9780  -1.9671  -1.9593  -1.9361  -1.8906  -1.8729
    -1.8603  -1.8489  -1.8251  -1.7993  -1.7891  -1.7849  -1.7808  -1.7621
    -1.7528  -1.7507  -1.7438  -1.7383  -1.7302  -1.7050  -1.6714  -1.6511
    -1.6335  -1.6036  -1.5830  -1.5662  -1.5531  -1.5503  -1.5387  -1.5334
    -1.5195  -1.5150  -1.5072  -1.5023  -1.4926  -1.4694  -1.4512  -1.4441
    -1.4304  -1.4253  -1.4078  -1.3657  -1.3252  -1.2834  -1.2428  -1.2261
    -1.2154  -1.2112  -1.2048  -1.1940  -1.1915  -1.1803  -1.0843  -1.0490
    -1.0147  -0.9958  -0.9662  -0.9405  -0.9133  -0.8853  -0.8614  -0.8422
    -0.7912  -0.7636  -0.7435  -0.7190  -0.7048  -0.6938  -0.6741  -0.6616
    -0.6491  -0.6317  -0.6098  -0.5653  -0.5590  -0.5543  -0.5428  -0.5364
    -0.5228  -0.4894  -0.4668  -0.4600  -0.4417  -0.4187  -0.4041  -0.3932
    -0.3883  -0.3804  -0.3746  -0.3643  -0.3479  -0.3417  -0.3292  -0.3095
    -0.2739  -0.2560  -0.2489  -0.2272  -0.2015  -0.1955  -0.1655  -0.1463
    -0.1359  -0.1341  -0.1205  -0.1110  -0.0978  -0.0870  -0.0820  -0.0539
    -0.0390  -0.0018   0.0098   0.0127   0.0375   0.0394   0.0776   0.0840
     0.1119   0.1369   0.3698   0.3846   0.4675   0.5472   0.6356   0.6489
     0.6974   0.8454

          k = 0.2000 0.3464 0.0000 ( 36608 PWs)   bands (ev):

   -21.3670  -9.9818  -7.0685  -6.5766  -5.9309  -5.6846  -5.6775  -5.4032
    -5.0770  -4.5442  -4.5129  -4.2606  -4.2532  -4.2074  -4.0342  -4.0271
    -3.9362  -3.9315  -3.9255  -3.7993  -3.7782  -3.6586  -3.6480  -3.5819
    -3.5396  -3.4481  -3.4446  -3.4280  -3.4071  -3.3977  -3.3837  -3.3623
    -3.3452  -3.3210  -3.3109  -3.2739  -3.2361  -3.1900  -3.1841  -3.0684
    -3.0532  -2.9722  -2.9583  -2.9329  -2.9190  -2.9077  -2.8228  -2.7721
    -2.7667  -2.7324  -2.7283  -2.7141  -2.6738  -2.6600  -2.6523  -2.6396
    -2.6204  -2.5175  -2.5053  -2.4493  -2.4408  -2.4351  -2.3894  -2.3849
    -2.3729  -2.2649  -2.2054  -2.1812  -2.1647  -2.1384  -2.1145  -2.0996
    -2.0808  -2.0749  -2.0661  -2.0511  -2.0351  -2.0188  -2.0157  -1.9959
    -1.9742  -1.9474  -1.9023  -1.8807  -1.8251  -1.8133  -1.8013  -1.7835
    -1.7630  -1.7505  -1.7282  -1.7162  -1.6899  -1.6722  -1.6624  -1.6576
    -1.6492  -1.6437  -1.6306  -1.6140  -1.6081  -1.6027  -1.5828  -1.5643
    -1.5548  -1.5270  -1.5047  -1.4863  -1.4700  -1.4605  -1.4462  -1.4211
    -1.4092  -1.3888  -1.3787  -1.3548  -1.3440  -1.3103  -1.2977  -1.2609
    -1.2537  -1.2431  -1.2388  -1.2199  -1.2063  -1.1922  -1.1775  -1.1427
    -1.0951  -1.0783  -1.0644  -1.0242  -0.9867  -0.9524  -0.9327  -0.8846
    -0.8317  -0.8158  -0.8117  -0.7882  -0.7811  -0.7676  -0.7612  -0.7523
    -0.7245  -0.7141  -0.6812  -0.6628  -0.6550  -0.6351  -0.6164  -0.6101
    -0.5950  -0.5777  -0.5466  -0.5292  -0.5163  -0.5035  -0.4326  -0.3995
    -0.3627  -0.3407  -0.3291  -0.3174  -0.3115  -0.2851  -0.2785  -0.2707
    -0.2539  -0.2449  -0.1893  -0.1706  -0.1593  -0.1567  -0.1169  -0.1118
    -0.0879  -0.0838  -0.0790  -0.0695  -0.0500  -0.0439  -0.0372  -0.0184
    -0.0088   0.0475   0.0732   0.0851   0.0932   0.1328   0.1363   0.1609
     0.4643   0.4762   0.5376   0.5715   0.8094   0.8221   1.1348   1.3415
     1.3658   1.5746

          k = 0.2000-0.5774 0.0000 ( 36660 PWs)   bands (ev):

   -21.3670  -9.9814  -6.7242  -6.4473  -6.3502  -5.8735  -5.7024  -5.2643
    -5.0700  -4.9416  -4.5624  -4.2392  -3.9952  -3.9480  -3.8581  -3.8161
    -3.8124  -3.7963  -3.7846  -3.7664  -3.7128  -3.7038  -3.7023  -3.6947
    -3.6167  -3.5949  -3.5539  -3.5497  -3.5200  -3.5145  -3.4107  -3.3824
    -3.3667  -3.3648  -3.3358  -3.2946  -3.2110  -3.1951  -3.0946  -3.0703
    -3.0653  -2.9875  -2.9811  -2.9682  -2.9362  -2.8553  -2.8500  -2.8445
    -2.7825  -2.7719  -2.6941  -2.6642  -2.6388  -2.6248  -2.5763  -2.5685
    -2.4967  -2.4829  -2.4753  -2.4641  -2.4560  -2.4277  -2.4102  -2.3460
    -2.2875  -2.2661  -2.2589  -2.2494  -2.2132  -2.1935  -2.1514  -2.1297
    -2.1086  -2.0868  -2.0784  -2.0676  -2.0524  -2.0275  -2.0109  -1.9952
    -1.9859  -1.9736  -1.9553  -1.9370  -1.9338  -1.8904  -1.8654  -1.8493
    -1.8365  -1.7942  -1.7694  -1.7533  -1.7142  -1.6985  -1.6833  -1.6767
    -1.6573  -1.6491  -1.6403  -1.6321  -1.6195  -1.6056  -1.5812  -1.5639
    -1.5251  -1.5005  -1.4926  -1.4854  -1.4809  -1.4654  -1.4582  -1.4525
    -1.4431  -1.4348  -1.4152  -1.3908  -1.3792  -1.3432  -1.3304  -1.3105
    -1.2673  -1.2421  -1.2096  -1.1879  -1.1770  -1.1650  -1.1555  -1.1050
    -1.0854  -1.0734  -1.0670  -1.0176  -0.9988  -0.9487  -0.9264  -0.9182
    -0.9047  -0.8967  -0.8862  -0.8626  -0.8463  -0.8256  -0.7943  -0.7656
    -0.7574  -0.7296  -0.7224  -0.7118  -0.6823  -0.6618  -0.6433  -0.6229
    -0.6045  -0.5892  -0.5815  -0.5717  -0.5343  -0.5217  -0.4870  -0.4174
    -0.3576  -0.3205  -0.3119  -0.3017  -0.2997  -0.2890  -0.2784  -0.2700
    -0.2369  -0.2284  -0.2167  -0.2111  -0.1637  -0.1519  -0.0935  -0.0825
    -0.0759  -0.0554  -0.0427  -0.0343   0.0057   0.0151   0.0200   0.0269
     0.0419   0.0813   0.1120   0.1203   0.1332   0.1432   0.1671   0.2029
     0.2796   0.5129   0.6209   0.8574   1.3229   1.4204   1.4672   1.7939
     1.8965   1.9438

          k = 0.2000-0.3464 0.0000 ( 36608 PWs)   bands (ev):

   -21.3670  -9.9802  -7.0729  -6.5761  -5.9467  -5.7026  -5.6705  -5.3922
    -5.0575  -4.5816  -4.4732  -4.2571  -4.2524  -4.2062  -4.0312  -4.0275
    -3.9362  -3.9289  -3.9107  -3.8041  -3.7935  -3.6542  -3.6502  -3.5858
    -3.5411  -3.4563  -3.4445  -3.4214  -3.4078  -3.3930  -3.3873  -3.3610
    -3.3503  -3.3249  -3.3072  -3.2746  -3.2400  -3.1957  -3.1786  -3.0669
    -3.0579  -2.9697  -2.9626  -2.9349  -2.9226  -2.8961  -2.8109  -2.7725
    -2.7533  -2.7382  -2.7295  -2.7093  -2.6791  -2.6691  -2.6468  -2.6323
    -2.6240  -2.5132  -2.4991  -2.4510  -2.4428  -2.4199  -2.3972  -2.3817
    -2.3686  -2.2785  -2.2102  -2.1864  -2.1706  -2.1363  -2.1223  -2.1024
    -2.0921  -2.0711  -2.0546  -2.0440  -2.0317  -2.0242  -2.0111  -1.9971
    -1.9852  -1.9636  -1.8975  -1.8495  -1.8225  -1.8134  -1.7924  -1.7795
    -1.7673  -1.7409  -1.7393  -1.7091  -1.6932  -1.6753  -1.6666  -1.6586
    -1.6558  -1.6408  -1.6292  -1.6175  -1.6040  -1.5971  -1.5783  -1.5680
    -1.5463  -1.5412  -1.5222  -1.4921  -1.4740  -1.4576  -1.4266  -1.4217
    -1.4115  -1.3984  -1.3869  -1.3399  -1.3244  -1.3096  -1.2932  -1.2719
    -1.2566  -1.2475  -1.2377  -1.2230  -1.2108  -1.1998  -1.1750  -1.1382
    -1.1128  -1.0785  -1.0699  -1.0318  -0.9856  -0.9510  -0.9321  -0.8778
    -0.8330  -0.8177  -0.8105  -0.7960  -0.7876  -0.7768  -0.7549  -0.7418
    -0.7293  -0.7069  -0.6843  -0.6732  -0.6490  -0.6321  -0.6219  -0.6043
    -0.5989  -0.5780  -0.5396  -0.5280  -0.5204  -0.5002  -0.4385  -0.3779
    -0.3681  -0.3474  -0.3270  -0.3190  -0.3137  -0.2875  -0.2812  -0.2719
    -0.2546  -0.2421  -0.1830  -0.1752  -0.1667  -0.1567  -0.1194  -0.1086
    -0.0920  -0.0839  -0.0800  -0.0660  -0.0532  -0.0441  -0.0374  -0.0257
    -0.0064   0.0532   0.0775   0.0877   0.0937   0.1310   0.1395   0.1707
     0.4597   0.4749   0.4919   0.6704   0.7707   0.8268   1.1349   1.3458
     1.3664   1.5851

          k = 0.4000-0.2309 0.0000 ( 36606 PWs)   bands (ev):

   -21.3670  -9.9793  -6.9471  -6.5716  -6.1783  -5.8718  -5.4307  -5.0689
    -4.9813  -4.9725  -4.8015  -4.1321  -4.1062  -4.0766  -4.0597  -3.9891
    -3.8899  -3.8854  -3.8431  -3.7573  -3.7488  -3.7401  -3.6515  -3.5705
    -3.5637  -3.5609  -3.5557  -3.5029  -3.4556  -3.4432  -3.4391  -3.2958
    -3.2803  -3.2771  -3.2641  -3.2394  -3.2311  -3.1319  -3.1244  -3.1128
    -3.1057  -3.0995  -2.9820  -2.9078  -2.8906  -2.8111  -2.7950  -2.7739
    -2.7572  -2.7244  -2.7179  -2.7109  -2.6983  -2.6791  -2.6250  -2.6130
    -2.5816  -2.5578  -2.5432  -2.4186  -2.4077  -2.4010  -2.3713  -2.3412
    -2.2909  -2.2794  -2.2624  -2.2506  -2.2048  -2.1670  -2.1354  -2.1168
    -2.1150  -2.1047  -2.1022  -2.0838  -2.0749  -2.0529  -2.0156  -1.9976
    -1.9799  -1.9648  -1.9439  -1.9299  -1.9020  -1.8753  -1.8154  -1.8034
    -1.7947  -1.7676  -1.7552  -1.7415  -1.7041  -1.6875  -1.6824  -1.6737
    -1.6583  -1.6418  -1.6317  -1.6130  -1.5941  -1.5919  -1.5837  -1.5668
    -1.5542  -1.5305  -1.4992  -1.4840  -1.4222  -1.4048  -1.3926  -1.3733
    -1.3583  -1.3378  -1.3182  -1.2871  -1.2652  -1.2515  -1.2460  -1.2435
    -1.2368  -1.2331  -1.2167  -1.2097  -1.1990  -1.1967  -1.1833  -1.1732
    -1.1495  -1.1228  -1.0587  -1.0528  -1.0110  -1.0057  -0.9841  -0.9669
    -0.9352  -0.9273  -0.8851  -0.8777  -0.8613  -0.8214  -0.8019  -0.7605
    -0.7416  -0.7212  -0.6879  -0.6727  -0.6528  -0.6451  -0.6262  -0.5656
    -0.5191  -0.4937  -0.4797  -0.4637  -0.4617  -0.4543  -0.4458  -0.4355
    -0.4201  -0.4141  -0.3439  -0.3232  -0.3025  -0.2984  -0.2867  -0.2853
    -0.2723  -0.2553  -0.2430  -0.2265  -0.2124  -0.1954  -0.1372  -0.1137
    -0.1103  -0.0939  -0.0812  -0.0384  -0.0149   0.0098   0.0213   0.0573
     0.0665   0.1066   0.1118   0.1319   0.1336   0.1400   0.1603   0.1682
     0.2382   0.2701   0.3937   0.8976   1.1640   1.3508   1.3731   1.3989
     1.6501   1.7434

          k = 0.4000 0.0000 0.0000 ( 36608 PWs)   bands (ev):

   -21.3670  -9.9805  -7.0722  -6.5762  -5.9433  -5.7013  -5.6693  -5.3936
    -5.0653  -4.5764  -4.4784  -4.2554  -4.2524  -4.2089  -4.0318  -4.0268
    -3.9373  -3.9289  -3.9134  -3.8004  -3.7922  -3.6593  -3.6468  -3.5845
    -3.5413  -3.4535  -3.4456  -3.4235  -3.4055  -3.3961  -3.3845  -3.3614
    -3.3484  -3.3214  -3.3139  -3.2716  -3.2378  -3.1899  -3.1825  -3.0626
    -3.0538  -2.9702  -2.9602  -2.9374  -2.9071  -2.9052  -2.8162  -2.7681
    -2.7621  -2.7395  -2.7279  -2.7154  -2.6775  -2.6690  -2.6512  -2.6399
    -2.6201  -2.5178  -2.5044  -2.4489  -2.4453  -2.4267  -2.3904  -2.3845
    -2.3712  -2.2798  -2.1948  -2.1817  -2.1612  -2.1332  -2.1224  -2.0954
    -2.0907  -2.0729  -2.0625  -2.0466  -2.0354  -2.0204  -2.0081  -1.9953
    -1.9816  -1.9524  -1.9058  -1.8654  -1.8254  -1.8165  -1.7985  -1.7799
    -1.7723  -1.7525  -1.7165  -1.7122  -1.6922  -1.6712  -1.6675  -1.6578
    -1.6514  -1.6373  -1.6341  -1.6191  -1.6107  -1.6037  -1.5775  -1.5628
    -1.5544  -1.5411  -1.5084  -1.4873  -1.4725  -1.4480  -1.4358  -1.4197
    -1.4126  -1.4035  -1.3833  -1.3579  -1.3306  -1.3152  -1.2958  -1.2711
    -1.2525  -1.2480  -1.2386  -1.2203  -1.2096  -1.1914  -1.1834  -1.1411
    -1.0968  -1.0849  -1.0632  -1.0522  -0.9828  -0.9434  -0.9304  -0.8811
    -0.8257  -0.8174  -0.8107  -0.7957  -0.7872  -0.7698  -0.7610  -0.7295
    -0.7264  -0.7137  -0.6832  -0.6628  -0.6451  -0.6385  -0.6148  -0.6063
    -0.5865  -0.5675  -0.5464  -0.5317  -0.5217  -0.5068  -0.4549  -0.3829
    -0.3626  -0.3431  -0.3298  -0.3176  -0.3122  -0.2878  -0.2777  -0.2718
    -0.2630  -0.2414  -0.1884  -0.1698  -0.1599  -0.1547  -0.1231  -0.0993
    -0.0919  -0.0846  -0.0784  -0.0584  -0.0536  -0.0430  -0.0370  -0.0295
    -0.0076   0.0511   0.0739   0.0851   0.0995   0.1334   0.1409   0.1544
     0.4495   0.4774   0.5008   0.6589   0.7856   0.8288   1.1267   1.3419
     1.3781   1.5626

          k = 0.4000 0.2309 0.0000 ( 36606 PWs)   bands (ev):

   -21.3670  -9.9819  -6.9405  -6.5701  -6.1664  -5.8577  -5.4126  -5.1239
    -4.9820  -4.9280  -4.8578  -4.1542  -4.0838  -4.0733  -4.0370  -4.0039
    -3.8879  -3.8832  -3.8458  -3.7529  -3.7474  -3.7424  -3.6693  -3.5677
    -3.5646  -3.5565  -3.5553  -3.5055  -3.4632  -3.4482  -3.4385  -3.2841
    -3.2812  -3.2702  -3.2518  -3.2359  -3.2282  -3.1290  -3.1207  -3.1116
    -3.1057  -3.1018  -2.9856  -2.9030  -2.8970  -2.8184  -2.8016  -2.7778
    -2.7639  -2.7304  -2.7204  -2.7110  -2.6904  -2.6863  -2.6178  -2.6142
    -2.5897  -2.5584  -2.5488  -2.4269  -2.4067  -2.3954  -2.3838  -2.3433
    -2.2974  -2.2806  -2.2720  -2.2523  -2.1945  -2.1531  -2.1335  -2.1192
    -2.1177  -2.1053  -2.0897  -2.0813  -2.0701  -2.0514  -2.0446  -1.9973
    -1.9692  -1.9561  -1.9412  -1.9114  -1.8870  -1.8710  -1.8244  -1.7991
    -1.7897  -1.7813  -1.7583  -1.7489  -1.7059  -1.6858  -1.6773  -1.6697
    -1.6548  -1.6494  -1.6340  -1.6102  -1.6039  -1.5927  -1.5791  -1.5641
    -1.5509  -1.5347  -1.4937  -1.4760  -1.4246  -1.4056  -1.3847  -1.3749
    -1.3521  -1.3369  -1.3194  -1.2899  -1.2630  -1.2560  -1.2485  -1.2444
    -1.2371  -1.2336  -1.2205  -1.2126  -1.2071  -1.1949  -1.1741  -1.1658
    -1.1570  -1.1145  -1.0785  -1.0395  -1.0077  -1.0019  -0.9912  -0.9696
    -0.9505  -0.9060  -0.8859  -0.8787  -0.8589  -0.8176  -0.8023  -0.7668
    -0.7415  -0.6993  -0.6776  -0.6627  -0.6544  -0.6372  -0.6045  -0.5976
    -0.5434  -0.4855  -0.4776  -0.4650  -0.4592  -0.4533  -0.4429  -0.4385
    -0.4266  -0.4112  -0.3411  -0.3159  -0.3037  -0.2953  -0.2887  -0.2834
    -0.2672  -0.2463  -0.2398  -0.2300  -0.2155  -0.2056  -0.1303  -0.1148
    -0.1063  -0.1004  -0.0724  -0.0508  -0.0154   0.0044   0.0231   0.0538
     0.0671   0.1087   0.1111   0.1321   0.1348   0.1382   0.1532   0.1826
     0.2382   0.2640   0.3538   0.9496   1.1432   1.3063   1.3666   1.3852
     1.6742   1.7224

          k = 0.4000-0.6928 0.0000 ( 36660 PWs)   bands (ev):

   -21.3670  -9.9817  -6.7242  -6.4458  -6.3476  -5.8803  -5.6963  -5.2380
    -5.0976  -4.9575  -4.5488  -4.2386  -3.9951  -3.9502  -3.8597  -3.8196
    -3.8102  -3.7960  -3.7825  -3.7684  -3.7116  -3.7046  -3.7020  -3.6951
    -3.6157  -3.5984  -3.5524  -3.5483  -3.5183  -3.5161  -3.4070  -3.3845
    -3.3673  -3.3626  -3.3338  -3.2951  -3.2093  -3.1925  -3.0880  -3.0670
    -3.0651  -2.9902  -2.9834  -2.9606  -2.9325  -2.8685  -2.8554  -2.8382
    -2.7897  -2.7755  -2.6898  -2.6689  -2.6358  -2.6246  -2.5755  -2.5700
    -2.5002  -2.4828  -2.4723  -2.4675  -2.4554  -2.4358  -2.4149  -2.3461
    -2.2868  -2.2663  -2.2614  -2.2510  -2.2077  -2.1895  -2.1415  -2.1349
    -2.1072  -2.0849  -2.0783  -2.0643  -2.0614  -2.0363  -2.0114  -1.9899
    -1.9829  -1.9801  -1.9579  -1.9371  -1.9288  -1.8953  -1.8641  -1.8452
    -1.8287  -1.7939  -1.7629  -1.7521  -1.7278  -1.6942  -1.6832  -1.6744
    -1.6546  -1.6503  -1.6428  -1.6296  -1.6219  -1.5909  -1.5823  -1.5563
    -1.5264  -1.5016  -1.4887  -1.4858  -1.4725  -1.4643  -1.4612  -1.4508
    -1.4396  -1.4293  -1.4136  -1.3998  -1.3771  -1.3623  -1.3288  -1.3197
    -1.2804  -1.2442  -1.2059  -1.1861  -1.1795  -1.1732  -1.1598  -1.0981
    -1.0871  -1.0818  -1.0646  -1.0346  -0.9710  -0.9501  -0.9314  -0.9197
    -0.9095  -0.8982  -0.8773  -0.8696  -0.8373  -0.8161  -0.7887  -0.7785
    -0.7575  -0.7307  -0.7173  -0.7113  -0.6836  -0.6484  -0.6380  -0.6157
    -0.6024  -0.5935  -0.5766  -0.5699  -0.5315  -0.5194  -0.5019  -0.4270
    -0.3565  -0.3207  -0.3113  -0.3071  -0.2997  -0.2902  -0.2809  -0.2608
    -0.2431  -0.2303  -0.2167  -0.2061  -0.1650  -0.1490  -0.0932  -0.0818
    -0.0656  -0.0546  -0.0488  -0.0275   0.0007   0.0157   0.0230   0.0266
     0.0386   0.0793   0.1146   0.1164   0.1337   0.1460   0.1647   0.1967
     0.2873   0.5132   0.6143   0.8683   1.3007   1.4194   1.4725   1.8049
     1.8937   1.9418

          k = 0.4000-0.4619 0.0000 ( 36660 PWs)   bands (ev):

   -21.3670  -9.9801  -6.7301  -6.4536  -6.3485  -5.8534  -5.7237  -5.3232
    -4.9799  -4.9309  -4.5988  -4.2437  -3.9921  -3.9435  -3.8382  -3.8174
    -3.8151  -3.7877  -3.7815  -3.7671  -3.7249  -3.7048  -3.7031  -3.6968
    -3.6130  -3.5954  -3.5522  -3.5508  -3.5202  -3.5131  -3.4237  -3.3794
    -3.3670  -3.3593  -3.3406  -3.2952  -3.2190  -3.1957  -3.0818  -3.0685
    -3.0642  -2.9965  -2.9799  -2.9604  -2.9375  -2.8587  -2.8511  -2.8446
    -2.7817  -2.7714  -2.6953  -2.6636  -2.6336  -2.6266  -2.5758  -2.5682
    -2.4911  -2.4811  -2.4767  -2.4643  -2.4516  -2.4276  -2.4089  -2.3462
    -2.2808  -2.2719  -2.2552  -2.2483  -2.2033  -2.1936  -2.1642  -2.1312
    -2.1214  -2.0856  -2.0793  -2.0710  -2.0479  -2.0209  -2.0068  -1.9983
    -1.9910  -1.9816  -1.9542  -1.9378  -1.9345  -1.9077  -1.8645  -1.8467
    -1.8285  -1.7865  -1.7686  -1.7416  -1.7194  -1.6930  -1.6892  -1.6700
    -1.6574  -1.6509  -1.6400  -1.6335  -1.6187  -1.6144  -1.5885  -1.5797
    -1.5319  -1.5042  -1.4910  -1.4865  -1.4700  -1.4623  -1.4601  -1.4497
    -1.4443  -1.4316  -1.4146  -1.3883  -1.3711  -1.3452  -1.3277  -1.3089
    -1.2494  -1.2452  -1.2275  -1.1907  -1.1758  -1.1669  -1.1547  -1.1064
    -1.0837  -1.0716  -1.0568  -1.0395  -1.0008  -0.9460  -0.9406  -0.9175
    -0.9037  -0.8981  -0.8844  -0.8676  -0.8385  -0.8249  -0.7981  -0.7686
    -0.7594  -0.7322  -0.7109  -0.7046  -0.6962  -0.6609  -0.6290  -0.6235
    -0.6083  -0.5904  -0.5788  -0.5678  -0.5354  -0.5061  -0.4935  -0.4310
    -0.3531  -0.3225  -0.3153  -0.3043  -0.2984  -0.2918  -0.2843  -0.2677
    -0.2415  -0.2262  -0.2166  -0.2093  -0.1582  -0.1548  -0.0925  -0.0879
    -0.0680  -0.0560  -0.0504  -0.0353   0.0086   0.0145   0.0212   0.0297
     0.0401   0.1031   0.1141   0.1225   0.1348   0.1428   0.1668   0.2022
     0.3028   0.5105   0.5789   0.8596   1.3772   1.4139   1.5024   1.7080
     1.8931   1.9611

 ------ SPIN DOWN ----------


          k = 0.0000 0.0000 0.0000 ( 36693 PWs)   bands (ev):

   -21.3959 -10.0682  -7.6218  -6.6722  -6.2018  -5.5739  -5.0959  -4.4156
    -4.3882  -4.3852  -4.3824  -4.3799  -4.3630  -4.2592  -3.5224  -3.5102
    -3.5088  -3.5069  -3.4817  -3.4696  -3.3569  -2.5710  -2.5626  -2.5577
    -2.5538  -2.5332  -2.4839  -2.0994  -2.0912  -2.0882  -2.0869  -2.0803
    -2.0766  -1.9013  -1.8874  -1.8196  -1.8077  -1.8037  -1.7955  -1.7224
    -1.6985  -1.6749  -1.6496  -1.6283  -1.5749  -1.5489  -1.5423  -1.5384
    -1.5229  -1.4914  -1.3124  -1.2838  -1.2733  -1.2703  -1.2662  -1.2588
    -1.2586  -1.2481  -1.2359  -1.1982  -1.1949  -1.1819  -1.1783  -1.1670
    -1.1322  -0.9777  -0.6408  -0.6112  -0.5951  -0.5921  -0.5750  -0.4499
    -0.4000  -0.2983  -0.2763  -0.2736  -0.2635  -0.2613  -0.2558  -0.2183
    -0.2059  -0.1975  -0.1820  -0.1813  -0.1803  -0.1689  -0.1314  -0.0911
    -0.0846  -0.0715  -0.0694  -0.0601  -0.0414  -0.0194  -0.0166  -0.0118
    -0.0116  -0.0057   0.0132   0.0156   0.0231   0.0266   0.0748   0.1090
     0.1571   0.1758   0.2009   0.2304   0.2343   0.2450   0.2477   0.2501
     0.2511   0.2521   0.2537   0.2701   0.3214   0.3226   0.3683   0.4028
     0.4132   0.4277   0.4411   0.4567   0.5854   0.6331   0.6384   0.6900
     0.7189   0.7224   0.7290   0.7328   0.7466   0.8950   1.0356   1.0558
     1.0782   1.0823   1.2244   1.2574   1.2774   1.2918   1.2931   1.2980
     1.3005   1.4463   1.4550   1.4608   1.4666   1.4740   1.4915   1.4973
     1.5024   1.5262   1.5451   1.5540   1.5712   1.6018   1.6088   1.6145
     1.6210   1.6234   1.6246   1.6441   1.6758   1.6949   1.7026   1.7164
     1.7286   1.7411   1.7436   1.7450   1.7486   1.7543   1.7573   1.7950
     1.7993   1.8228   1.8267   1.8320   1.8416   1.8466   1.8474   1.8779
     1.8833   1.8869   1.8943   1.8961   1.8996   1.9055   1.9087   1.9147
     1.9178   1.9652   1.9731   1.9948   2.1221   2.1248   2.1289   2.1316
     2.1343   2.1360

          k = 0.0000 0.2309 0.0000 ( 36641 PWs)   bands (ev):

   -21.3959 -10.0687  -7.4730  -6.6360  -6.1202  -5.5830  -5.3388  -5.0920
    -4.7666  -4.7484  -4.2512  -4.1387  -3.8407  -3.8323  -3.7471  -3.6894
    -3.5453  -3.2973  -3.1691  -3.1402  -3.0634  -2.7957  -2.5766  -2.5448
    -2.5048  -2.4597  -2.4319  -2.2168  -2.1350  -2.1241  -2.1207  -2.0873
    -2.0774  -2.0439  -2.0323  -1.9996  -1.9896  -1.8674  -1.8466  -1.7777
    -1.7645  -1.7401  -1.6498  -1.5927  -1.5784  -1.5654  -1.5189  -1.4544
    -1.4194  -1.3999  -1.3486  -1.3215  -1.3152  -1.2911  -1.2708  -1.2643
    -1.2548  -1.2034  -1.1737  -1.1562  -1.1271  -1.0934  -1.0772  -1.0551
    -0.9953  -0.9158  -0.7157  -0.6573  -0.6459  -0.6198  -0.5936  -0.5547
    -0.4927  -0.4803  -0.4261  -0.4099  -0.3121  -0.2921  -0.2837  -0.2635
    -0.2575  -0.2394  -0.2309  -0.2097  -0.1994  -0.1867  -0.1496  -0.1037
    -0.0838  -0.0704  -0.0647  -0.0385  -0.0238  -0.0067  -0.0010   0.0180
     0.0198   0.0266   0.0335   0.0369   0.0402   0.0528   0.0770   0.0937
     0.1162   0.1316   0.1386   0.1473   0.1731   0.1937   0.2033   0.2180
     0.2502   0.2719   0.3140   0.3200   0.3389   0.3618   0.3646   0.3890
     0.4416   0.5274   0.5716   0.6010   0.6048   0.6448   0.6612   0.6846
     0.6865   0.7072   0.7101   0.7131   0.7885   0.9245   1.0151   1.0366
     1.0459   1.0608   1.0682   1.0836   1.0995   1.1435   1.1971   1.2339
     1.2460   1.2802   1.3233   1.3299   1.3542   1.3844   1.4044   1.4138
     1.4716   1.4933   1.5104   1.5272   1.5367   1.5493   1.5679   1.5769
     1.6068   1.6326   1.6580   1.6826   1.7031   1.7165   1.7244   1.7571
     1.7713   1.7833   1.7886   1.7978   1.8125   1.8382   1.8673   1.8761
     1.8825   1.8848   1.9198   1.9317   1.9410   1.9544   1.9657   1.9828
     1.9898   2.0266   2.0289   2.0339   2.0545   2.0592   2.0686   2.0862
     2.0945   2.1202   2.1268   2.1438   2.2113   2.2251   2.2354   2.2507
     2.3090   2.3211

          k = 0.0000 0.4619 0.0000 ( 36606 PWs)   bands (ev):

   -21.3959 -10.0695  -7.0478  -6.6044  -6.2573  -5.8952  -5.4549  -5.1323
    -4.9885  -4.9342  -4.8272  -3.9103  -3.8676  -3.7627  -3.2987  -3.2184
    -3.2098  -3.0947  -2.9583  -2.9036  -2.7752  -2.7598  -2.6156  -2.6110
    -2.5563  -2.5345  -2.4881  -2.4687  -2.3789  -2.3633  -2.3170  -2.2964
    -2.2819  -2.0847  -2.0738  -2.0005  -1.9908  -1.8883  -1.8737  -1.8674
    -1.8541  -1.8453  -1.6670  -1.5619  -1.5545  -1.5223  -1.5130  -1.4610
    -1.3513  -1.3384  -1.3197  -1.3077  -1.2922  -1.2808  -1.2700  -1.2567
    -1.2041  -1.1567  -1.1544  -1.1426  -1.1175  -1.0708  -0.9752  -0.9443
    -0.8288  -0.8004  -0.7319  -0.6857  -0.6650  -0.6336  -0.6123  -0.5944
    -0.5861  -0.5589  -0.5278  -0.4942  -0.4774  -0.4386  -0.4172  -0.3919
    -0.3684  -0.3329  -0.3185  -0.3086  -0.2989  -0.2362  -0.2005  -0.1621
    -0.1251  -0.1051  -0.0839  -0.0480  -0.0356  -0.0105   0.0097   0.0345
     0.0556   0.0720   0.0794   0.0898   0.0964   0.1101   0.1340   0.1476
     0.1571   0.1836   0.1927   0.1966   0.2069   0.2171   0.2281   0.2511
     0.2649   0.2796   0.3250   0.3680   0.4093   0.4142   0.4449   0.4625
     0.4645   0.4858   0.4949   0.5110   0.5697   0.5727   0.5772   0.6144
     0.6308   0.6485   0.6792   0.6817   0.7064   0.7181   0.8029   0.8657
     0.9028   0.9331   0.9961   1.0491   1.1029   1.1255   1.1404   1.1466
     1.1638   1.1770   1.2077   1.2416   1.2558   1.2962   1.3899   1.4280
     1.4380   1.4453   1.4974   1.5176   1.5437   1.5564   1.5786   1.5982
     1.6279   1.6417   1.6642   1.7156   1.7471   1.7660   1.7775   1.7992
     1.8030   1.8076   1.8245   1.8434   1.8711   1.8812   1.8907   1.9138
     1.9296   1.9700   2.0118   2.0233   2.0354   2.0632   2.0690   2.0798
     2.0880   2.0955   2.1232   2.1291   2.1386   2.1516   2.1591   2.1624
     2.1797   2.2085   2.3145   2.3718   2.3903   2.4769   2.5719   2.8221
     2.9054   2.9430

          k = 0.2000-0.1155 0.0000 ( 36641 PWs)   bands (ev):

   -21.3959 -10.0679  -7.4741  -6.6364  -6.1265  -5.6039  -5.3129  -5.0804
    -4.7749  -4.7619  -4.2449  -4.1007  -3.8405  -3.8337  -3.7578  -3.7197
    -3.5396  -3.2958  -3.1735  -3.1516  -3.0479  -2.7730  -2.5862  -2.5583
    -2.4920  -2.4650  -2.4380  -2.2143  -2.1327  -2.1304  -2.1175  -2.0839
    -2.0775  -2.0454  -2.0319  -1.9978  -1.9930  -1.8772  -1.8457  -1.7702
    -1.7638  -1.7232  -1.6392  -1.6027  -1.5746  -1.5652  -1.5087  -1.4467
    -1.4257  -1.3999  -1.3563  -1.3367  -1.3138  -1.2889  -1.2736  -1.2649
    -1.2523  -1.2183  -1.1728  -1.1545  -1.1261  -1.0924  -1.0799  -1.0555
    -0.9806  -0.9249  -0.7184  -0.6580  -0.6433  -0.6234  -0.5886  -0.5478
    -0.5004  -0.4770  -0.4338  -0.4160  -0.3164  -0.2935  -0.2823  -0.2665
    -0.2551  -0.2408  -0.2310  -0.2104  -0.2037  -0.1817  -0.1527  -0.1020
    -0.0745  -0.0712  -0.0579  -0.0384  -0.0340  -0.0127  -0.0008   0.0142
     0.0231   0.0286   0.0351   0.0379   0.0404   0.0446   0.0816   0.0927
     0.1185   0.1340   0.1431   0.1451   0.1774   0.1908   0.2058   0.2126
     0.2430   0.2608   0.2859   0.3148   0.3487   0.3589   0.3642   0.3887
     0.4602   0.5433   0.5912   0.6011   0.6124   0.6434   0.6605   0.6830
     0.6977   0.7080   0.7091   0.7130   0.7648   0.9181   1.0199   1.0412
     1.0481   1.0570   1.0728   1.0831   1.1065   1.1511   1.2024   1.2342
     1.2546   1.2706   1.3229   1.3318   1.3599   1.3831   1.4095   1.4299
     1.4695   1.4758   1.5129   1.5268   1.5369   1.5503   1.5696   1.5775
     1.6039   1.6220   1.6704   1.6783   1.7030   1.7137   1.7242   1.7319
     1.7789   1.7809   1.7902   1.7926   1.8134   1.8467   1.8683   1.8765
     1.8801   1.8872   1.9169   1.9310   1.9399   1.9522   1.9701   1.9793
     1.9911   2.0266   2.0301   2.0346   2.0555   2.0616   2.0669   2.0922
     2.1075   2.1182   2.1233   2.1459   2.1994   2.2260   2.2329   2.2660
     2.3009   2.3189

          k = 0.2000 0.1155 0.0000 ( 36641 PWs)   bands (ev):

   -21.3959 -10.0688  -7.4728  -6.6361  -6.1182  -5.5794  -5.3375  -5.1072
    -4.7559  -4.7482  -4.2542  -4.1493  -3.8389  -3.8334  -3.7350  -3.6881
    -3.5479  -3.2970  -3.1651  -3.1427  -3.0662  -2.7996  -2.5700  -2.5450
    -2.5038  -2.4587  -2.4351  -2.2173  -2.1322  -2.1221  -2.1181  -2.0827
    -2.0784  -2.0449  -2.0324  -1.9970  -1.9928  -1.8710  -1.8448  -1.7765
    -1.7637  -1.7287  -1.6760  -1.6061  -1.5848  -1.5658  -1.4828  -1.4476
    -1.4271  -1.4032  -1.3509  -1.3357  -1.3085  -1.2891  -1.2717  -1.2673
    -1.2552  -1.2024  -1.1827  -1.1574  -1.1288  -1.0899  -1.0782  -1.0548
    -0.9718  -0.9172  -0.7272  -0.6578  -0.6450  -0.6204  -0.5899  -0.5566
    -0.5041  -0.4792  -0.4239  -0.4073  -0.3213  -0.2885  -0.2801  -0.2758
    -0.2409  -0.2315  -0.2280  -0.2150  -0.2080  -0.1795  -0.1602  -0.1039
    -0.0834  -0.0710  -0.0602  -0.0471  -0.0387  -0.0016   0.0010   0.0121
     0.0232   0.0244   0.0334   0.0381   0.0429   0.0556   0.0824   0.0942
     0.1182   0.1320   0.1451   0.1467   0.1594   0.1949   0.2099   0.2188
     0.2496   0.2648   0.3109   0.3173   0.3474   0.3574   0.3632   0.3883
     0.4657   0.5374   0.5708   0.6012   0.6089   0.6532   0.6588   0.6855
     0.6979   0.7026   0.7093   0.7117   0.7593   0.9217   1.0197   1.0283
     1.0469   1.0671   1.0775   1.0836   1.1046   1.1630   1.2048   1.2295
     1.2455   1.2660   1.3253   1.3307   1.3565   1.3803   1.3947   1.4129
     1.4754   1.4891   1.5165   1.5306   1.5377   1.5503   1.5661   1.5787
     1.6011   1.6319   1.6654   1.6752   1.6950   1.7167   1.7269   1.7519
     1.7744   1.7843   1.7882   1.7976   1.8093   1.8432   1.8685   1.8764
     1.8811   1.8864   1.9147   1.9321   1.9421   1.9546   1.9653   1.9825
     1.9883   2.0267   2.0289   2.0365   2.0556   2.0594   2.0669   2.0881
     2.0956   2.1213   2.1245   2.1439   2.2100   2.2248   2.2364   2.2486
     2.3091   2.3234

          k = 0.2000 0.3464 0.0000 ( 36608 PWs)   bands (ev):

   -21.3959 -10.0698  -7.1828  -6.6001  -5.9672  -5.7555  -5.7492  -5.4201
    -5.0990  -4.4882  -4.4303  -4.0363  -4.0233  -3.9230  -3.1958  -3.1887
    -3.1810  -3.1736  -3.0728  -2.9778  -2.8944  -2.8863  -2.8737  -2.5145
    -2.4378  -2.4267  -2.4213  -2.3424  -2.3327  -2.3103  -2.2299  -2.2173
    -2.2120  -2.2048  -2.1936  -2.0690  -2.0096  -1.8569  -1.8341  -1.8270
    -1.7709  -1.7561  -1.7048  -1.6882  -1.6184  -1.5168  -1.4867  -1.4336
    -1.3701  -1.3503  -1.3111  -1.3065  -1.3047  -1.2817  -1.2587  -1.2451
    -1.2333  -1.1966  -1.1583  -1.1233  -1.0952  -0.9940  -0.9581  -0.9283
    -0.8618  -0.8312  -0.7246  -0.7137  -0.6343  -0.6090  -0.5801  -0.5553
    -0.5456  -0.5185  -0.5059  -0.5014  -0.4475  -0.4229  -0.3935  -0.3807
    -0.3670  -0.3528  -0.3347  -0.3222  -0.2799  -0.2175  -0.1717  -0.1625
    -0.1385  -0.1217  -0.0808  -0.0630  -0.0411  -0.0346  -0.0212  -0.0115
     0.0096   0.0270   0.0384   0.0527   0.0647   0.0738   0.1106   0.1244
     0.1373   0.1470   0.1664   0.1756   0.1899   0.1945   0.2163   0.2203
     0.2605   0.3013   0.3175   0.3396   0.3827   0.4505   0.4643   0.4719
     0.5019   0.5100   0.5454   0.5985   0.6172   0.6261   0.6320   0.6402
     0.6557   0.6670   0.6960   0.7292   0.7840   0.7980   0.9122   0.9489
     0.9896   1.0472   1.0575   1.0790   1.1077   1.1224   1.1359   1.1506
     1.1657   1.1818   1.1899   1.2077   1.2311   1.2688   1.3247   1.3620
     1.3874   1.4024   1.4238   1.4413   1.4672   1.4791   1.5199   1.5359
     1.5883   1.6375   1.7052   1.7527   1.7556   1.7728   1.7944   1.8136
     1.8248   1.8320   1.8502   1.8617   1.8699   1.9082   1.9283   1.9316
     1.9419   1.9811   1.9881   1.9943   2.0095   2.0316   2.0348   2.0629
     2.0693   2.0751   2.0812   2.1114   2.1139   2.1320   2.1532   2.1817
     2.2099   2.2146   2.3217   2.3390   2.4263   2.4582   2.4905   2.6637
     2.7103   2.8006

          k = 0.2000-0.5774 0.0000 ( 36660 PWs)   bands (ev):

   -21.3959 -10.0694  -6.7755  -6.5606  -6.4169  -5.9250  -5.7498  -5.3110
    -5.0945  -4.9543  -4.5203  -4.0830  -3.5632  -3.4474  -3.2220  -3.2170
    -3.1861  -2.9926  -2.9585  -2.8178  -2.7973  -2.7913  -2.6724  -2.6603
    -2.6546  -2.6386  -2.6200  -2.6000  -2.4085  -2.2860  -2.2535  -2.2433
    -2.2356  -2.2185  -2.1891  -2.1777  -2.0733  -2.0541  -1.8429  -1.7446
    -1.7210  -1.7139  -1.7049  -1.6390  -1.5985  -1.5041  -1.4712  -1.4474
    -1.4236  -1.4130  -1.3766  -1.2898  -1.2510  -1.2391  -1.2316  -1.2043
    -1.1775  -1.1144  -1.0852  -1.0561  -1.0250  -1.0051  -0.9748  -0.8879
    -0.8697  -0.7941  -0.7084  -0.6971  -0.6757  -0.6312  -0.6123  -0.6054
    -0.5647  -0.5340  -0.5098  -0.4869  -0.4645  -0.4349  -0.4033  -0.3933
    -0.3689  -0.3546  -0.3399  -0.3263  -0.3234  -0.3117  -0.2780  -0.2672
    -0.2528  -0.2375  -0.1966  -0.1685  -0.1445  -0.1000  -0.0694  -0.0471
    -0.0064   0.0285   0.0468   0.0698   0.0889   0.1026   0.1076   0.1318
     0.1526   0.1771   0.2102   0.2312   0.2429   0.2469   0.2883   0.3354
     0.3580   0.3765   0.3846   0.3923   0.4099   0.4543   0.4646   0.4961
     0.5086   0.5403   0.5638   0.5871   0.5985   0.6176   0.6342   0.6581
     0.6810   0.6852   0.6929   0.7142   0.7513   0.7613   0.7683   0.8036
     0.8308   0.9270   0.9708   1.0323   1.0545   1.0671   1.0867   1.1064
     1.1175   1.1293   1.1473   1.1775   1.2393   1.2954   1.3118   1.3289
     1.3414   1.3740   1.4121   1.4296   1.4543   1.4680   1.4977   1.5479
     1.5979   1.6518   1.7072   1.7182   1.7533   1.8198   1.8237   1.8386
     1.8549   1.8615   1.8775   1.8898   1.9089   1.9355   1.9395   1.9506
     1.9926   2.0050   2.0260   2.0331   2.0410   2.0444   2.0521   2.0580
     2.0762   2.0991   2.1141   2.1402   2.1467   2.1695   2.1728   2.2039
     2.2601   2.2800   2.3622   2.5134   2.6373   2.7843   2.9686   3.0367
     3.0639   3.0729

          k = 0.2000-0.3464 0.0000 ( 36608 PWs)   bands (ev):

   -21.3959 -10.0682  -7.1868  -6.5996  -5.9851  -5.7746  -5.7406  -5.4082
    -5.0757  -4.5248  -4.3884  -4.0298  -4.0275  -3.9190  -3.2065  -3.1920
    -3.1816  -3.1773  -3.0696  -2.9933  -2.9101  -2.8783  -2.8458  -2.5159
    -2.4409  -2.4257  -2.4176  -2.3555  -2.3348  -2.3167  -2.2328  -2.2168
    -2.2126  -2.2008  -2.1926  -2.0718  -2.0082  -1.8441  -1.8361  -1.8230
    -1.7645  -1.7454  -1.7015  -1.6896  -1.5852  -1.5259  -1.4848  -1.4432
    -1.3695  -1.3502  -1.3131  -1.3078  -1.2974  -1.2787  -1.2673  -1.2540
    -1.2370  -1.2042  -1.1429  -1.1230  -1.0715  -1.0423  -0.9639  -0.9400
    -0.8594  -0.8270  -0.7288  -0.7162  -0.6265  -0.6021  -0.5939  -0.5548
    -0.5426  -0.5258  -0.5105  -0.4791  -0.4432  -0.4144  -0.3987  -0.3841
    -0.3726  -0.3451  -0.3292  -0.3171  -0.2633  -0.2414  -0.1709  -0.1643
    -0.1464  -0.1342  -0.0839  -0.0619  -0.0412  -0.0326  -0.0211  -0.0112
     0.0044   0.0286   0.0422   0.0591   0.0628   0.0726   0.1049   0.1307
[...]
     atom    8 type  1   force =    -0.00065592   -0.00413050   -0.09822984
     atom    9 type  1   force =     0.00165635    0.00247205   -0.10129438
     atom   10 type  1   force =     0.00008467    0.00115546   -0.01707233
     atom   11 type  1   force =     0.00081372    0.00100728   -0.00851085
     atom   12 type  1   force =    -0.00001029    0.00122422   -0.01126155
     atom   13 type  1   force =    -0.00035571   -0.00026170   -0.01021955
     atom   14 type  1   force =     0.00051917    0.00087834   -0.01248456
     atom   15 type  1   force =    -0.00068645    0.00079233   -0.01006928
     atom   16 type  1   force =     0.00133840   -0.00117131   -0.01138889
     atom   17 type  1   force =    -0.00053311   -0.00268397   -0.00959637
     atom   18 type  1   force =    -0.00039469   -0.00074450   -0.01316406
     atom   19 type  1   force =    -0.00006476    0.00183938    0.01392552
     atom   20 type  1   force =    -0.00707852    0.00361264   -0.00029426
     atom   21 type  1   force =     0.00510565   -0.00682887    0.01171924
     atom   22 type  1   force =    -0.00005993   -0.00043835    0.01838937
     atom   23 type  1   force =    -0.00036345    0.00784882    0.01077514
     atom   24 type  1   force =     0.00032936    0.00172148    0.01804126
     atom   25 type  1   force =    -0.00045588    0.00049219    0.01894265
     atom   26 type  1   force =    -0.00735863   -0.00681224    0.00525235
     atom   27 type  1   force =     0.00919331   -0.00382505    0.00276098
     atom   28 type  1   force =     0.02062370    0.00205240    0.12793889
     atom   29 type  1   force =     0.02067190    0.05714965    0.11397589
     atom   30 type  1   force =    -0.02866605    0.00695841    0.13616904
     atom   31 type  1   force =     0.04104896   -0.04771434    0.17128984
     atom   32 type  1   force =    -0.00102561    0.00026932    0.02627734
     atom   33 type  1   force =     0.00010264    0.00088661    0.10511450
     atom   34 type  1   force =    -0.00115947   -0.00245547    0.10723420
     atom   35 type  1   force =     0.00106427    0.00460356    0.11732032
     atom   36 type  1   force =    -0.00421044    0.00430791    0.10732377
     atom   37 type  2   force =    -0.24551452   -0.30874203    0.20872101
     atom   38 type  3   force =     1.34379023    1.70135238   -1.18530550
     atom   39 type  4   force =    -0.03363290   -0.04353966   -0.05466496
     The ionic contribution  to forces
     atom    1 type  1   force =    -0.00625956    0.00134000 -111.17680453
     atom    2 type  1   force =    -0.00327037    0.00271777 -111.19590727
     atom    3 type  1   force =     0.00952986    0.00100431 -111.18330108
     atom    4 type  1   force =    -0.00357242    0.00480340 -111.17599589
     atom    5 type  1   force =     0.00167861    0.00745944 -111.17981211
     atom    6 type  1   force =     0.00189384   -0.00145097 -111.17270451
     atom    7 type  1   force =     0.00132128   -0.00122974 -111.17210371
     atom    8 type  1   force =    -0.00593108   -0.00583393 -111.18124944
     atom    9 type  1   force =     0.00460983   -0.00881028 -111.18391819
     atom   10 type  1   force =    -0.04135810   -0.01578778  -40.11702359
     atom   11 type  1   force =    -0.01638220   -0.05327379  -40.23332429
     atom   12 type  1   force =     0.05773236   -0.03275825  -40.14827592
     atom   13 type  1   force =    -0.06051721    0.03976083  -40.17765740
     atom   14 type  1   force =     0.03832848    0.04598652  -40.22401077
     atom   15 type  1   force =     0.02220157    0.01245610  -40.10340007
     atom   16 type  1   force =    -0.00641101    0.03854456  -40.10876944
     atom   17 type  1   force =     0.00203465   -0.00655219  -40.11617479
     atom   18 type  1   force =     0.00437443   -0.02837532  -40.10439256
     atom   19 type  1   force =    -0.30062760    0.06485592   31.50059369
     atom   20 type  1   force =    -0.18887063    0.15230196   30.48058612
     atom   21 type  1   force =     0.48669261    0.04454006   31.18253257
     atom   22 type  1   force =    -0.16942721    0.22810396   31.53908179
     atom   23 type  1   force =     0.08692029    0.37132376   31.35502241
     atom   24 type  1   force =     0.08320259   -0.06528165   31.67118948
     atom   25 type  1   force =     0.05571293   -0.05373363   31.69831081
     atom   26 type  1   force =    -0.29424215   -0.29585337   31.27940690
     atom   27 type  1   force =     0.23901482   -0.44570933   31.15563626
     atom   28 type  1   force =    -1.60029432   -0.52829785  103.82003641
     atom   29 type  1   force =    -0.94412872   -3.71371084   97.57135621
     atom   30 type  1   force =     2.42311735   -1.37739643  103.04896003
     atom   31 type  1   force =    -2.99766984    2.01224548  101.87020347
     atom   32 type  1   force =     2.72109866    3.24545294   98.00765408
     atom   33 type  1   force =     0.78541351    0.35150552  104.25146531
     atom   34 type  1   force =    -0.26889609    1.33075980  104.11755392
     atom   35 type  1   force =     0.02528255   -0.26422103  103.97580917
     atom   36 type  1   force =     0.23445745   -0.97330835  104.21062434
     atom   37 type  2   force =     3.63304381    4.84847239   55.93735370
     atom   38 type  3   force =    -5.20149606   -6.48920156   88.19341576
     atom   39 type  4   force =     1.19169310    1.55715157   15.08803312
     The local contribution  to forces
     atom    1 type  1   force =     0.00767126   -0.00412202  111.28247819
     atom    2 type  1   force =     0.00385792   -0.00391240  111.29875596
     atom    3 type  1   force =    -0.01141886    0.00098373  111.28899892
     atom    4 type  1   force =     0.00138613   -0.00308206  111.28157975
     atom    5 type  1   force =    -0.00159253   -0.01142647  111.28670853
     atom    6 type  1   force =    -0.00004240    0.00270359  111.27738233
     atom    7 type  1   force =    -0.00087512    0.00173850  111.27868379
     atom    8 type  1   force =     0.00698255    0.00988716  111.28207311
     atom    9 type  1   force =    -0.00664853    0.00656972  111.28692213
     atom   10 type  1   force =     0.04174003    0.01461114   40.11096072
     atom   11 type  1   force =     0.01491855    0.05155255   40.22036049
     atom   12 type  1   force =    -0.05709017    0.03157523   40.13881217
     atom   13 type  1   force =     0.06025793   -0.04051666   40.16651612
     atom   14 type  1   force =    -0.03846652   -0.04588967   40.21401368
     atom   15 type  1   force =    -0.02111539   -0.01392640   40.09240028
     atom   16 type  1   force =     0.00547374   -0.03705273   40.09815477
     atom   17 type  1   force =    -0.00139725    0.00945249   40.10422944
     atom   18 type  1   force =    -0.00359502    0.02953082   40.09529367
     atom   19 type  1   force =     0.30014034   -0.06620620  -31.49200268
     atom   20 type  1   force =     0.19729320   -0.15702906  -30.46006152
     atom   21 type  1   force =    -0.49136212   -0.03774567  -31.17611428
     atom   22 type  1   force =     0.16940006   -0.22664427  -31.53397989
     atom   23 type  1   force =    -0.08576176   -0.37786102  -31.35016812
     atom   24 type  1   force =    -0.08382786    0.06400752  -31.66688613
     atom   25 type  1   force =    -0.05576960    0.05333849  -31.69183615
     atom   26 type  1   force =     0.30503211    0.30330874  -31.26195673
     atom   27 type  1   force =    -0.24981374    0.45022060  -31.13790752
     atom   28 type  1   force =     1.57207867    0.52382915 -103.95796974
     atom   29 type  1   force =     0.91350179    3.63502360  -97.69213086
     atom   30 type  1   force =    -2.38428433    1.36779713 -103.19520542
     atom   31 type  1   force =     2.94694096   -1.95507000 -102.05299428
     atom   32 type  1   force =    -2.71762587   -3.24486134  -98.02299865
     atom   33 type  1   force =    -0.78223171   -0.35076828 -104.36424917
     atom   34 type  1   force =     0.26851553   -1.32213184 -104.23204627
     atom   35 type  1   force =    -0.02644251    0.25728360 -104.10463477
     atom   36 type  1   force =    -0.22955920    0.96462888 -104.32748598
     atom   37 type  2   force =    -3.38632511   -4.53897827  -56.13938261
     atom   38 type  3   force =     3.87207452    4.80348797  -87.02397710
     atom   39 type  4   force =    -1.15968235   -1.51299498  -15.02361862
     The core correction contribution to forces
     atom    1 type  1   force =     0.00020852   -0.00014538    0.01050603
     atom    2 type  1   force =     0.00000661   -0.00011744    0.01039486
     atom    3 type  1   force =    -0.00019406    0.00008264    0.01066170
     atom    4 type  1   force =    -0.00015724   -0.00002086    0.01028876
     atom    5 type  1   force =     0.00010546   -0.00022180    0.01061025
     atom    6 type  1   force =    -0.00001035   -0.00010134    0.01019258
     atom    7 type  1   force =    -0.00005269   -0.00006733    0.01018652
     atom    8 type  1   force =     0.00015720    0.00037463    0.01070853
     atom    9 type  1   force =    -0.00031834   -0.00002509    0.01038709
     atom   10 type  1   force =     0.00007988    0.00012267   -0.00188912
     atom   11 type  1   force =    -0.00017841    0.00004452   -0.00146998
     atom   12 type  1   force =     0.00017895    0.00005142   -0.00186291
     atom   13 type  1   force =     0.00004926   -0.00006395   -0.00175100
     atom   14 type  1   force =     0.00003742    0.00002930   -0.00186500
     atom   15 type  1   force =    -0.00007423   -0.00007002   -0.00161790
     atom   16 type  1   force =    -0.00004175   -0.00002971   -0.00175710
     atom   17 type  1   force =     0.00011051    0.00000828   -0.00161865
     atom   18 type  1   force =    -0.00004051   -0.00009677   -0.00190066
     atom   19 type  1   force =    -0.00019958   -0.00028756    0.00152019
     atom   20 type  1   force =    -0.00015853   -0.00020452    0.00108136
     atom   21 type  1   force =     0.00073827   -0.00091274    0.00039635
     atom   22 type  1   force =    -0.00029122   -0.00000844    0.00197639
     atom   23 type  1   force =    -0.00014177    0.00150503    0.00017500
     atom   24 type  1   force =     0.00002816    0.00017385    0.00171976
     atom   25 type  1   force =     0.00013159    0.00024780    0.00215481
     atom   26 type  1   force =    -0.00010765    0.00002246    0.00145091
     atom   27 type  1   force =     0.00018453   -0.00018119    0.00065108
     atom   28 type  1   force =     0.00055923    0.00027643   -0.00939853
     atom   29 type  1   force =     0.00293042    0.00996948    0.00426716
     atom   30 type  1   force =    -0.00259018    0.00385458   -0.00780759
     atom   31 type  1   force =     0.00633704   -0.00155441   -0.00550223
     atom   32 type  1   force =    -0.00274170   -0.00288402   -0.00516453
     atom   33 type  1   force =    -0.00260442   -0.00066648   -0.00978414
     atom   34 type  1   force =     0.00077415   -0.00319857   -0.00921422
     atom   35 type  1   force =    -0.00040357   -0.00080961   -0.00979030
     atom   36 type  1   force =    -0.00006290    0.00001572   -0.01070204
     atom   37 type  2   force =     0.00300638    0.00407197   -0.00268050
     atom   38 type  3   force =    -0.01094133   -0.01377400    0.01061474
     atom   39 type  4   force =     0.00000000    0.00000000    0.00000000
     The Hubbard contrib.    to forces
     atom    1 type  1   force =     0.00000000    0.00000000    0.00000000
     atom    2 type  1   force =     0.00000000    0.00000000    0.00000000
     atom    3 type  1   force =     0.00000000    0.00000000    0.00000000
     atom    4 type  1   force =     0.00000000    0.00000000    0.00000000
     atom    5 type  1   force =     0.00000000    0.00000000    0.00000000
     atom    6 type  1   force =     0.00000000    0.00000000    0.00000000
     atom    7 type  1   force =     0.00000000    0.00000000    0.00000000
     atom    8 type  1   force =     0.00000000    0.00000000    0.00000000
     atom    9 type  1   force =     0.00000000    0.00000000    0.00000000
     atom   10 type  1   force =     0.00000000    0.00000000    0.00000000
     atom   11 type  1   force =     0.00000000    0.00000000    0.00000000
     atom   12 type  1   force =     0.00000000    0.00000000    0.00000000
     atom   13 type  1   force =     0.00000000    0.00000000    0.00000000
     atom   14 type  1   force =     0.00000000    0.00000000    0.00000000
     atom   15 type  1   force =     0.00000000    0.00000000    0.00000000
     atom   16 type  1   force =     0.00000000    0.00000000    0.00000000
     atom   17 type  1   force =     0.00000000    0.00000000    0.00000000
     atom   18 type  1   force =     0.00000000    0.00000000    0.00000000
     atom   19 type  1   force =     0.00000000    0.00000000    0.00000000
     atom   20 type  1   force =     0.00000000    0.00000000    0.00000000
     atom   21 type  1   force =     0.00000000    0.00000000    0.00000000
     atom   22 type  1   force =     0.00000000    0.00000000    0.00000000
     atom   23 type  1   force =     0.00000000    0.00000000    0.00000000
     atom   24 type  1   force =     0.00000000    0.00000000    0.00000000
     atom   25 type  1   force =     0.00000000    0.00000000    0.00000000
     atom   26 type  1   force =     0.00000000    0.00000000    0.00000000
     atom   27 type  1   force =     0.00000000    0.00000000    0.00000000
     atom   28 type  1   force =     0.00000000    0.00000000    0.00000000
     atom   29 type  1   force =     0.00000000    0.00000000    0.00000000
     atom   30 type  1   force =     0.00000000    0.00000000    0.00000000
     atom   31 type  1   force =     0.00000000    0.00000000    0.00000000
     atom   32 type  1   force =     0.00000000    0.00000000    0.00000000
     atom   33 type  1   force =     0.00000000    0.00000000    0.00000000
     atom   34 type  1   force =     0.00000000    0.00000000    0.00000000
     atom   35 type  1   force =     0.00000000    0.00000000    0.00000000
     atom   36 type  1   force =     0.00000000    0.00000000    0.00000000
     atom   37 type  2   force =     0.00000000    0.00000000    0.00000000
     atom   38 type  3   force =     0.00000000    0.00000000    0.00000000
     atom   39 type  4   force =     0.00000000    0.00000000    0.00000000
     The SCF correction term to forces
     atom    1 type  1   force =    -0.00000000    0.00000000    0.00000000
     atom    2 type  1   force =     0.00000000   -0.00000000    0.00000000
     atom    3 type  1   force =     0.00000000    0.00000000    0.00000000
     atom    4 type  1   force =    -0.00000000    0.00000000    0.00000000
     atom    5 type  1   force =     0.00000000   -0.00000000    0.00000000
     atom    6 type  1   force =     0.00000000   -0.00000000    0.00000000
     atom    7 type  1   force =    -0.00000000    0.00000000    0.00000000
     atom    8 type  1   force =    -0.00000000   -0.00000000    0.00000000
     atom    9 type  1   force =     0.00000000   -0.00000000    0.00000000
     atom   10 type  1   force =     0.00000000   -0.00000000    0.00000000
     atom   11 type  1   force =    -0.00000000    0.00000000    0.00000000
     atom   12 type  1   force =     0.00000000   -0.00000000    0.00000000
     atom   13 type  1   force =     0.00000000    0.00000000    0.00000000
     atom   14 type  1   force =    -0.00000000    0.00000000    0.00000000
     atom   15 type  1   force =     0.00000000    0.00000000    0.00000000
     atom   16 type  1   force =    -0.00000000   -0.00000000    0.00000000
     atom   17 type  1   force =     0.00000000   -0.00000000    0.00000000
     atom   18 type  1   force =     0.00000000   -0.00000000    0.00000000
     atom   19 type  1   force =     0.00000000   -0.00000000    0.00000000
     atom   20 type  1   force =    -0.00000000    0.00000000    0.00000000
     atom   21 type  1   force =    -0.00000000    0.00000000    0.00000000
     atom   22 type  1   force =     0.00000000   -0.00000000    0.00000000
     atom   23 type  1   force =    -0.00000000    0.00000000    0.00000000
     atom   24 type  1   force =     0.00000000    0.00000000    0.00000000
     atom   25 type  1   force =     0.00000000   -0.00000000    0.00000000
     atom   26 type  1   force =    -0.00000000    0.00000000    0.00000000
     atom   27 type  1   force =    -0.00000000   -0.00000000    0.00000000
     atom   28 type  1   force =     0.00000000    0.00000000    0.00000000
     atom   29 type  1   force =    -0.00000000    0.00000000    0.00000000
     atom   30 type  1   force =     0.00000000   -0.00000000    0.00000000
     atom   31 type  1   force =     0.00000000    0.00000000    0.00000000
     atom   32 type  1   force =    -0.00000000    0.00000000    0.00000000
     atom   33 type  1   force =     0.00000000   -0.00000000    0.00000000
     atom   34 type  1   force =    -0.00000000   -0.00000000    0.00000000
     atom   35 type  1   force =    -0.00000000    0.00000000    0.00000000
     atom   36 type  1   force =     0.00000000   -0.00000000    0.00000000
     atom   37 type  2   force =    -0.00007082    0.00002015    0.00000376
     atom   38 type  3   force =    -0.00003018    0.00008872   -0.00006903
     atom   39 type  4   force =    -0.00001115   -0.00000285   -0.00002321

     Total force =     0.013945     Total SCF correction =     0.000140

     Writing all to output data dir ./pwscf.save/

     init_run     :     12.24s CPU     12.65s WALL (       1 calls)
     electrons    :    644.57s CPU    653.59s WALL (       1 calls)
     forces       :      2.92s CPU      3.02s WALL (       1 calls)

     Called by init_run:
     wfcinit      :      7.55s CPU      7.84s WALL (       1 calls)
     potinit      :      3.59s CPU      3.69s WALL (       1 calls)
     hinit0       :      0.84s CPU      0.86s WALL (       1 calls)

     Called by electrons:
     c_bands      :    541.70s CPU    548.68s WALL (      47 calls)
     sum_band     :     67.12s CPU     68.19s WALL (      47 calls)
     v_of_rho     :      8.13s CPU      8.59s WALL (      48 calls)
     newd         :      4.05s CPU      4.11s WALL (      48 calls)
     PAW_pot      :     13.38s CPU     13.55s WALL (      48 calls)
     mix_rho      :     11.51s CPU     11.71s WALL (      47 calls)
     vdW_kernel   :      1.08s CPU      1.09s WALL (       1 calls)

     Called by c_bands:
     init_us_2    :      6.13s CPU      6.31s WALL (    2496 calls)
     init_us_2:cp :      6.11s CPU      6.30s WALL (    2496 calls)
     cegterg      :    524.59s CPU    531.19s WALL (    1222 calls)

     Called by *egterg:
     cdiaghg      :    183.69s CPU    185.03s WALL (    4259 calls)
     h_psi        :    236.81s CPU    240.88s WALL (    4285 calls)
     s_psi        :     26.30s CPU     26.62s WALL (    4285 calls)
     g_psi        :      0.52s CPU      0.53s WALL (    3037 calls)

     Called by h_psi:
     h_psi:calbec :     36.42s CPU     37.06s WALL (    4285 calls)
     vloc_psi     :    171.53s CPU    174.60s WALL (    4285 calls)
     add_vuspsi   :     27.51s CPU     27.86s WALL (    4285 calls)

     General routines
     calbec       :     53.70s CPU     54.57s WALL (    5611 calls)
     fft          :      5.29s CPU      5.75s WALL (    4349 calls)
     ffts         :      6.81s CPU      6.94s WALL (   17510 calls)
     fftw         :    195.87s CPU    199.26s WALL ( 1267032 calls)
     interpolate  :      0.57s CPU      0.58s WALL (      96 calls)

     Parallel routines

     PWSCF        :  11m 4.38s CPU  11m18.36s WALL


   This run was terminated on:  19:56:24   4Dec2025            

=------------------------------------------------------------------------------=
   JOB DONE.
=------------------------------------------------------------------------------=
