
     Program PWSCF v.7.1 starts on  6Dec2025 at 15:53:46 
        Git branch: heads/qe-7.1
        Last git commit: 48ba0178f8fede6d020eb786884699a9f063f55d-dirty
        Last git commit date: Fri Jan 27 14:22:33 2023 +0000
        Last git commit subject: Merge branch 'fix_hubbard' into 'develop'

     This program is part of the open-source Quantum ESPRESSO suite
     for quantum simulation of materials; please cite
         "P. Giannozzi et al., J. Phys.:Condens. Matter 21 395502 (2009);
         "P. Giannozzi et al., J. Phys.:Condens. Matter 29 465901 (2017);
         "P. Giannozzi et al., J. Chem. Phys. 152 154105 (2020);
          URL http://www.quantum-espresso.org", 
     in publications or presentations arising from this work. More details at
     http://www.quantum-espresso.org/quote

     Parallel version (MPI), running on    48 processors

     MPI processes distributed on     1 nodes
     37569 MiB available memory on the printing compute node when the environment starts

     Reading input from espresso.pwi
Warning: card &CELL ignored
Warning: card / ignored
Warning: card &FCP ignored
Warning: card / ignored
Warning: card &RISM ignored
Warning: card / ignored

     Current dimensions of program PWSCF are:
     Max number of different atomic species (ntypx) = 10
     Max number of k-points (npk) =  40000
     Max angular momentum in pseudopotentials (lmaxx) =  4
     file Pt.pbe-n-kjpaw_psl.1.0.0.UPF: wavefunction(s)  6S 5D renormalized
     file C.pbe-n-kjpaw_psl.1.0.0.UPF: wavefunction(s)  2S 2P renormalized
     file H.pbe-kjpaw_psl.1.0.0.UPF: wavefunction(s)  1S renormalized

     **************************************************************************
     Initializing libbeef V0.1.2 with the BEEF-vdW functional.
     Citation: Wellendorff et al., PRB 85, 235149 (2012).
     **************************************************************************


     IMPORTANT: XC functional enforced from input :
     Exchange-correlation= BEEF-VDW
                           (   1   4  43  14   2   0   0)
     Any further DFT definition will be discarded
     Please, verify this is what you really want


     R & G space division:  proc/nbgrp/npool/nimage =      48
     Subspace diagonalization in iterative solution of the eigenvalue problem:
     one sub-group per band group will be used
     custom distributed-memory algorithm (size of sub-group:  2*  2 procs)


     Parallelization info
     --------------------
     sticks:   dense  smooth     PW     G-vecs:    dense   smooth      PW
     Min         151      59     16                29407     7165    1028
     Max         152      60     17                29420     7176    1042
     Sum        7267    2839    769              1411785   344073   49691

     Using Slab Decomposition



     bravais-lattice index     =            0
     lattice parameter (alat)  =      16.0349  a.u.
     unit-cell volume          =   10068.6169 (a.u.)^3
     number of atoms/cell      =           39
     number of atomic types    =            3
     number of electrons       =       369.00
     number of Kohn-Sham states=          222
     kinetic-energy cutoff     =      40.0000  Ry
     charge density cutoff     =     410.0000  Ry
     scf convergence threshold =      1.0E-06
     mixing beta               =       0.7000
     number of iterations used =            8  local-TF  mixing
     Exchange-correlation= BEEF-VDW
                           (   1   4  43  14   2   0   0)

     celldm(1)=  16.034858  celldm(2)=   0.000000  celldm(3)=   0.000000
     celldm(4)=   0.000000  celldm(5)=   0.000000  celldm(6)=   0.000000

     crystal axes: (cart. coord. in units of alat)
               a(1) = (   1.000000   0.000000   0.000000 )  
               a(2) = (   0.500000   0.866025   0.000000 )  
               a(3) = (   0.000000   0.000000   2.819966 )  

     reciprocal axes: (cart. coord. in units 2 pi/alat)
               b(1) = (  1.000000 -0.577350  0.000000 )  
               b(2) = (  0.000000  1.154701  0.000000 )  
               b(3) = (  0.000000  0.000000  0.354614 )  


     PseudoPot. # 1 for Pt read from file:
     /users/kbadger1/espresso/pseudo/pslibrary.1.0.0/pbe/PSEUDOPOTENTIALS/Pt.pbe-n-kjpaw_psl.1.0.0.UPF
     MD5 check sum: 2e24a0b5bf98a4ed1a57fa81bca8c143
     Pseudo is Projector augmented-wave + core cor, Zval = 10.0
     Generated using 'atomic' code by A. Dal Corso  v.7.0
     Shape of augmentation charge: PSQ
     Using radial grid of 1277 points,  6 beta functions with: 
                l(1) =   0
                l(2) =   0
                l(3) =   1
                l(4) =   1
                l(5) =   2
                l(6) =   2
     Q(r) pseudized with 0 coefficients 


     PseudoPot. # 2 for C  read from file:
     /users/kbadger1/espresso/pseudo/pslibrary.1.0.0/pbe/PSEUDOPOTENTIALS/C.pbe-n-kjpaw_psl.1.0.0.UPF
     MD5 check sum: 6408e75cdba28732cea38a4db8498ce4
     Pseudo is Projector augmented-wave + core cor, Zval =  4.0
     Generated using 'atomic' code by A. Dal Corso  v.7.0
     Shape of augmentation charge: PSQ
     Using radial grid of 1073 points,  4 beta functions with: 
                l(1) =   0
                l(2) =   0
                l(3) =   1
                l(4) =   1
     Q(r) pseudized with 0 coefficients 


     PseudoPot. # 3 for H  read from file:
     /users/kbadger1/espresso/pseudo/pslibrary.1.0.0/pbe/PSEUDOPOTENTIALS/H.pbe-kjpaw_psl.1.0.0.UPF
     MD5 check sum: fe4c6fa958fa6d3815bf5d2419cbf1df
     Pseudo is Projector augmented-wave, Zval =  1.0
     Generated using 'atomic' code by A. Dal Corso  v.7.0
     Shape of augmentation charge: PSQ
     Using radial grid of  929 points,  2 beta functions with: 
                l(1) =   0
                l(2) =   0
     Q(r) pseudized with 0 coefficients 


     atomic species   valence    mass     pseudopotential
        Pt            10.00   195.08400     Pt( 1.00)
        C              4.00    12.01100     C ( 1.00)
        H              1.00     1.00800     H ( 1.00)

     No symmetry found



   Cartesian axes

     site n.     atom                  positions (alat units)
         1           Pt  tau(   1) = (   0.0000000   0.0000000   1.0017346  )
         2           Pt  tau(   2) = (   0.3333333   0.0000000   1.0017346  )
         3           Pt  tau(   3) = (   0.6666667   0.0000000   1.0017346  )
         4           Pt  tau(   4) = (   0.1666667   0.2886751   1.0017346  )
         5           Pt  tau(   5) = (   0.5000000   0.2886751   1.0017346  )
         6           Pt  tau(   6) = (   0.8333333   0.2886751   1.0017346  )
         7           Pt  tau(   7) = (   0.3333333   0.5773503   1.0017346  )
         8           Pt  tau(   8) = (   0.6666667   0.5773503   1.0017346  )
         9           Pt  tau(   9) = (   1.0000000   0.5773503   1.0017346  )
        10           Pt  tau(  10) = (   0.1666667   0.0962250   1.2739001  )
        11           Pt  tau(  11) = (   0.5000000   0.0962250   1.2739001  )
        12           Pt  tau(  12) = (   0.8333333   0.0962250   1.2739001  )
        13           Pt  tau(  13) = (   0.3333333   0.3849002   1.2739001  )
        14           Pt  tau(  14) = (   0.6666667   0.3849002   1.2739001  )
        15           Pt  tau(  15) = (   1.0000000   0.3849002   1.2739001  )
        16           Pt  tau(  16) = (   0.5000000   0.6735753   1.2739001  )
        17           Pt  tau(  17) = (   0.8333333   0.6735753   1.2739001  )
        18           Pt  tau(  18) = (   1.1666667   0.6735753   1.2739001  )
        19           Pt  tau(  19) = (   0.0019146   0.1864411   1.5471024  )
        20           Pt  tau(  20) = (   0.3313122   0.1864366   1.5470879  )
        21           Pt  tau(  21) = (   0.6666204   0.1886209   1.5380234  )
        22           Pt  tau(  22) = (   0.1666094   0.4759964   1.5482757  )
        23           Pt  tau(  23) = (   0.4980313   0.4788706   1.5458134  )
        24           Pt  tau(  24) = (   0.8351935   0.4788688   1.5458211  )
        25           Pt  tau(  25) = (   0.3356988   0.7644934   1.5492121  )
        26           Pt  tau(  26) = (   0.6666109   0.7672251   1.5491692  )
        27           Pt  tau(  27) = (   0.9975265   0.7644910   1.5492013  )
        28           Pt  tau(  28) = (  -0.0150924  -0.0202221   1.8370135  )
        29           Pt  tau(  29) = (   0.3482139  -0.0202122   1.8369786  )
        30           Pt  tau(  30) = (   0.6665647  -0.0059210   1.8137316  )
        31           Pt  tau(  31) = (   0.1665639   0.2772674   1.8368250  )
        32           Pt  tau(  32) = (   0.5047671   0.2789722   1.8120583  )
        33           Pt  tau(  33) = (   0.8283699   0.2789704   1.8120745  )
        34           Pt  tau(  34) = (   0.3352824   0.5645595   1.8394161  )
        35           Pt  tau(  35) = (   0.6665645   0.5635227   1.8159793  )
        36           Pt  tau(  36) = (   0.9978277   0.5645750   1.8394099  )
        37           C   tau(  37) = (   0.1665674   0.0681274   1.9330950  )
        38           H   tau(  38) = (   0.1665326   0.4518939   2.0988848  )
        39           C   tau(  39) = (   0.1665402   0.4731540   1.9724700  )

     number of k points=    13  Marzari-Vanderbilt smearing, width (Ry)=  0.0010
                       cart. coord. in units 2pi/alat
        k(    1) = (   0.0000000   0.0000000   0.0000000), wk =   0.0800000
        k(    2) = (   0.0000000   0.2309401   0.0000000), wk =   0.1600000
        k(    3) = (   0.0000000   0.4618802   0.0000000), wk =   0.1600000
        k(    4) = (   0.2000000  -0.1154701   0.0000000), wk =   0.1600000
        k(    5) = (   0.2000000   0.1154701   0.0000000), wk =   0.1600000
        k(    6) = (   0.2000000   0.3464102   0.0000000), wk =   0.1600000
        k(    7) = (   0.2000000  -0.5773503   0.0000000), wk =   0.1600000
        k(    8) = (   0.2000000  -0.3464102   0.0000000), wk =   0.1600000
        k(    9) = (   0.4000000  -0.2309401   0.0000000), wk =   0.1600000
        k(   10) = (   0.4000000  -0.0000000   0.0000000), wk =   0.1600000
        k(   11) = (   0.4000000   0.2309401   0.0000000), wk =   0.1600000
        k(   12) = (   0.4000000  -0.6928203   0.0000000), wk =   0.1600000
        k(   13) = (   0.4000000  -0.4618802   0.0000000), wk =   0.1600000

     Dense  grid:  1411785 G-vectors     FFT dimensions: ( 108, 108, 300)

     Smooth grid:   344073 G-vectors     FFT dimensions: (  72,  72, 192)

     Estimated max dynamical RAM per process >     207.37 MB

     Estimated total dynamical RAM >       9.72 GB

     Initial potential from superposition of free atoms

     starting charge     368.9938, renormalised to     369.0000

     negative rho (up, down):  3.188E-03 0.000E+00


     %%%%%%%%%%%%%%%%%%%%%%%%%%%%%%%%%%%%%%%%%%%%%%%%%%%%%%%%%%%%%%%%%%%%%%%%
     %                                                                      %
     % You are using vdW-DF, which was implemented by the Thonhauser group. %
     % Please cite the following two papers that made this development      %
     % possible and the two reviews that describe the various versions:     %
     %                                                                      %
     %   T. Thonhauser et al., PRL 115, 136402 (2015).                      %
     %   T. Thonhauser et al., PRB 76, 125112 (2007).                       %
     %   K. Berland et al., Rep. Prog. Phys. 78, 066501 (2015).             %
     %   D.C. Langreth et al., J. Phys.: Condens. Matter 21, 084203 (2009). %
     %                                                                      %
     % If you are calculating stress with vdW-DF, please also cite:         %
     %                                                                      %
     %   R. Sabatini et al., J. Phys.: Condens. Matter 24, 424209 (2012).   %
     %                                                                      %
     %%%%%%%%%%%%%%%%%%%%%%%%%%%%%%%%%%%%%%%%%%%%%%%%%%%%%%%%%%%%%%%%%%%%%%%%

     %%%%%%%%%%%%%%%%%%%%%%%%%%%%%%%%%%%%%%%%%%%%%%%%%%%%%%%%%%%%%%%%%%%%%%%%
     %                                                                      %
     %  vdW-DF NEWS:                                                        %
     %                                                                      %
     %  * vdW-DF3 is now available. DOI: 10.1021/acs.jctc.0c00471           %
     %    use with input_dft = 'vdW-DF3-opt1' or 'vdW-DF3-opt2'             %
     %                                                                      %
     %  * Unscreened and range-separated hybrid vdW-DF-cx functionals       %
     %    DOI: 10.1063/1.4986522 and 10.1088/1361-648X/ac2ad2               %
     %    use with input_dft = 'vdW-DF-cx0'    and 'vdW-DF-ahcx'            %
     %  * Unscreened and range-separated hybrid vdW-DF2-b86r functionals    %
     %    DOI: 10.1063/1.4986522 and DOI: 10.1103/PhysRevX.12.041003        %
     %    use with input_dft = 'vdW-DF2-br0' and 'vdW-DF2-ahbr'             %
     %                                                                      %
     %%%%%%%%%%%%%%%%%%%%%%%%%%%%%%%%%%%%%%%%%%%%%%%%%%%%%%%%%%%%%%%%%%%%%%%%


     Starting wfcs are  333 randomized atomic wfcs
     Checking if some PAW data can be deallocated... 

     total cpu time spent up to now is       15.5 secs

     per-process dynamical memory:   212.7 Mb

     Self-consistent Calculation

     iteration #  1     ecut=    40.00 Ry     beta= 0.70
     Davidson diagonalization with overlap
     ethr =  1.00E-02,  avg # of iterations =  2.0

     Threshold (ethr) on eigenvalues was too large:
     Diagonalizing with lowered threshold

     Davidson diagonalization with overlap
     ethr =  6.58E-04,  avg # of iterations =  3.2

     negative rho (up, down):  1.052E-02 0.000E+00

     total cpu time spent up to now is       51.2 secs

     total energy              =  -27792.93894777 Ry
     estimated scf accuracy    <       2.71360387 Ry

     iteration #  2     ecut=    40.00 Ry     beta= 0.70
     Davidson diagonalization with overlap
     ethr =  7.35E-04,  avg # of iterations =  2.0

     negative rho (up, down):  7.709E-03 0.000E+00

     total cpu time spent up to now is       64.7 secs

     total energy              =  -27793.26518865 Ry
     estimated scf accuracy    <       0.78162045 Ry

     iteration #  3     ecut=    40.00 Ry     beta= 0.70
     Davidson diagonalization with overlap
     ethr =  2.12E-04,  avg # of iterations =  3.4

     negative rho (up, down):  4.929E-03 0.000E+00

     total cpu time spent up to now is       84.2 secs

     total energy              =  -27793.33636726 Ry
     estimated scf accuracy    <       0.33610571 Ry

     iteration #  4     ecut=    40.00 Ry     beta= 0.70
     Davidson diagonalization with overlap
     ethr =  9.11E-05,  avg # of iterations =  6.9

     negative rho (up, down):  1.705E-03 0.000E+00

     total cpu time spent up to now is      101.7 secs

     total energy              =  -27793.36674940 Ry
     estimated scf accuracy    <       0.05582348 Ry

     iteration #  5     ecut=    40.00 Ry     beta= 0.70
     Davidson diagonalization with overlap
     ethr =  1.51E-05,  avg # of iterations = 14.8

     negative rho (up, down):  8.710E-04 0.000E+00

     total cpu time spent up to now is      152.7 secs

     total energy              =  -27793.38924096 Ry
     estimated scf accuracy    <       0.05681345 Ry

     iteration #  6     ecut=    40.00 Ry     beta= 0.70
     Davidson diagonalization with overlap
     ethr =  1.51E-05,  avg # of iterations =  1.2

     negative rho (up, down):  2.439E-04 0.000E+00

     total cpu time spent up to now is      169.7 secs

     total energy              =  -27793.39041112 Ry
     estimated scf accuracy    <       0.00832518 Ry

     iteration #  7     ecut=    40.00 Ry     beta= 0.70
     Davidson diagonalization with overlap
     c_bands:  1 eigenvalues not converged
     c_bands:  2 eigenvalues not converged
     c_bands:  2 eigenvalues not converged
     ethr =  2.26E-06,  avg # of iterations = 11.1

     negative rho (up, down):  1.017E-04 0.000E+00

     total cpu time spent up to now is      202.1 secs

     total energy              =  -27793.39150555 Ry
     estimated scf accuracy    <       0.00457464 Ry

     iteration #  8     ecut=    40.00 Ry     beta= 0.70
     Davidson diagonalization with overlap
     c_bands:  1 eigenvalues not converged
     ethr =  1.24E-06,  avg # of iterations =  5.2

     negative rho (up, down):  6.860E-05 0.000E+00

     total cpu time spent up to now is      217.6 secs

     total energy              =  -27793.39177745 Ry
     estimated scf accuracy    <       0.00114127 Ry

     iteration #  9     ecut=    40.00 Ry     beta= 0.70
     Davidson diagonalization with overlap
     ethr =  3.09E-07,  avg # of iterations =  4.5

     negative rho (up, down):  6.627E-05 0.000E+00

     total cpu time spent up to now is      242.5 secs

     total energy              =  -27793.39196656 Ry
     estimated scf accuracy    <       0.00070641 Ry

     iteration # 10     ecut=    40.00 Ry     beta= 0.70
     Davidson diagonalization with overlap
     ethr =  1.91E-07,  avg # of iterations =  2.0

     negative rho (up, down):  8.816E-05 0.000E+00

     total cpu time spent up to now is      260.3 secs

     total energy              =  -27793.39202239 Ry
     estimated scf accuracy    <       0.00059600 Ry

     iteration # 11     ecut=    40.00 Ry     beta= 0.70
     Davidson diagonalization with overlap
     ethr =  1.62E-07,  avg # of iterations =  3.5

     negative rho (up, down):  1.700E-04 0.000E+00

     total cpu time spent up to now is      274.4 secs

     total energy              =  -27793.39210438 Ry
     estimated scf accuracy    <       0.00034115 Ry

     iteration # 12     ecut=    40.00 Ry     beta= 0.70
     Davidson diagonalization with overlap
     ethr =  9.25E-08,  avg # of iterations =  4.4

     negative rho (up, down):  2.270E-04 0.000E+00

     total cpu time spent up to now is      293.7 secs

     total energy              =  -27793.39213955 Ry
     estimated scf accuracy    <       0.00019574 Ry

     iteration # 13     ecut=    40.00 Ry     beta= 0.70
     Davidson diagonalization with overlap
     ethr =  5.30E-08,  avg # of iterations =  1.5

     negative rho (up, down):  7.593E-04 0.000E+00

     total cpu time spent up to now is      308.4 secs

     total energy              =  -27793.39223281 Ry
     estimated scf accuracy    <       0.00007830 Ry

     iteration # 14     ecut=    40.00 Ry     beta= 0.70
     Davidson diagonalization with overlap
     ethr =  2.12E-08,  avg # of iterations =  7.5

     negative rho (up, down):  9.457E-04 0.000E+00

     total cpu time spent up to now is      330.6 secs

     total energy              =  -27793.39226402 Ry
     estimated scf accuracy    <       0.00005476 Ry

     iteration # 15     ecut=    40.00 Ry     beta= 0.70
     Davidson diagonalization with overlap
     ethr =  1.48E-08,  avg # of iterations =  1.8

     negative rho (up, down):  2.122E-03 0.000E+00

     total cpu time spent up to now is      348.1 secs

     total energy              =  -27793.39228179 Ry
     estimated scf accuracy    <       0.00004024 Ry

     iteration # 16     ecut=    40.00 Ry     beta= 0.70
     Davidson diagonalization with overlap
     ethr =  1.09E-08,  avg # of iterations =  2.7

     negative rho (up, down):  2.739E-03 0.000E+00

     total cpu time spent up to now is      361.7 secs

     total energy              =  -27793.39228368 Ry
     estimated scf accuracy    <       0.00000673 Ry

     iteration # 17     ecut=    40.00 Ry     beta= 0.70
     Davidson diagonalization with overlap
     ethr =  1.82E-09,  avg # of iterations =  4.0

     negative rho (up, down):  3.119E-03 0.000E+00

     total cpu time spent up to now is      391.3 secs

     total energy              =  -27793.39228505 Ry
     estimated scf accuracy    <       0.00000527 Ry

     iteration # 18     ecut=    40.00 Ry     beta= 0.70
     Davidson diagonalization with overlap
     ethr =  1.43E-09,  avg # of iterations =  1.2

     negative rho (up, down):  3.101E-03 0.000E+00

     total cpu time spent up to now is      408.0 secs

     End of self-consistent calculation

          k = 0.0000 0.0000 0.0000 ( 42913 PWs)   bands (ev):

   -10.0779  -9.3391  -5.8981  -4.8875  -4.5487  -4.1702  -3.8241  -3.6213
    -3.5725  -3.5556  -3.5106  -3.4980  -3.4068  -3.3883  -3.2809  -3.2371
    -3.0195  -2.9960  -2.9431  -2.9311  -2.8608  -2.8248  -2.7097  -2.5914
    -2.5864  -2.4504  -2.3651  -2.3650  -2.3566  -2.3423  -2.3256  -2.2424
    -2.2259  -2.2134  -2.1842  -2.1732  -2.1654  -2.1368  -2.0495  -2.0228
    -1.9878  -1.9646  -1.9522  -1.9184  -1.7291  -1.7011  -1.6448  -1.5727
    -1.5390  -1.5152  -1.4912  -1.4633  -1.4446  -1.4388  -1.3671  -1.2833
    -1.2158  -1.2037  -1.1690  -1.1190  -1.0735  -0.9711  -0.8796  -0.8232
    -0.7719  -0.7692  -0.6985  -0.6629  -0.6359  -0.5760  -0.5622  -0.5153
    -0.4989  -0.4661  -0.4542  -0.4440  -0.4345  -0.4035  -0.3856  -0.3850
    -0.3777  -0.3522  -0.3365  -0.3229  -0.3090  -0.3047  -0.2988  -0.2743
    -0.2389  -0.2168  -0.1814  -0.0596  -0.0520  -0.0193  -0.0073   0.0428
     0.0458   0.0490   0.0914   0.1086   0.1110   0.1582   0.1672   0.1849
     0.2119   0.2125   0.2479   0.2690   0.3242   0.3368   0.3745   0.4188
     0.4253   0.5495   0.6317   0.6966   0.6969   0.7121   0.7941   0.8134
     0.8690   0.9726   0.9864   1.0123   1.0201   1.0481   1.0601   1.0680
     1.0689   1.1027   1.1301   1.1367   1.2478   1.3010   1.3355   1.3529
     1.3606   1.3958   1.4679   1.4831   1.5573   1.5600   1.5693   1.5743
     1.6193   1.6214   1.6337   1.6909   1.7530   1.7678   1.8282   1.8789
     1.9191   1.9252   1.9386   1.9514   1.9852   2.0055   2.0069   2.0228
     2.0539   2.0578   2.0693   2.0839   2.1003   2.1030   2.1143   2.1294
     2.1377   2.1411   2.1707   2.2229   2.2430   2.2460   2.2764   2.3075
     2.3189   2.3627   2.3845   2.4007   2.4055   2.4143   2.4346   2.4674
     2.4721   2.5070   2.5265   2.5703   2.5811   2.6897   2.7127   2.7451
     2.7915   2.8070   2.8255   2.8592   2.8660   2.9228   3.1207   3.2511
     3.3604   3.4899   3.6552   3.7238   4.4774   4.6200   4.6717   4.9770
     5.3829   5.7044   5.9736   6.0602   6.2356   6.2687   6.7144   7.1221
     7.6521   7.6607   7.7093   7.7427   7.8747   7.8849

          k = 0.0000 0.2309 0.0000 ( 42996 PWs)   bands (ev):

   -10.0601  -9.3546  -5.7584  -4.8857  -4.4219  -4.1039  -4.0504  -3.7746
    -3.5557  -3.5455  -3.4461  -3.4158  -3.2933  -3.2553  -3.2235  -3.1980
    -3.0019  -2.9621  -2.9258  -2.9204  -2.8536  -2.7753  -2.7396  -2.5713
    -2.5015  -2.4916  -2.4307  -2.3993  -2.3941  -2.3319  -2.2897  -2.2539
    -2.2521  -2.2306  -2.1826  -2.1675  -2.1575  -2.1078  -2.0813  -1.9831
    -1.9686  -1.9310  -1.8514  -1.8342  -1.7646  -1.7052  -1.6673  -1.6200
    -1.5926  -1.5517  -1.5483  -1.5422  -1.4382  -1.4016  -1.3562  -1.3252
    -1.2492  -1.2035  -1.1698  -1.1583  -1.0606  -1.0180  -0.9054  -0.8865
    -0.8429  -0.8324  -0.7973  -0.7971  -0.7499  -0.7116  -0.6857  -0.6234
    -0.5956  -0.5755  -0.5173  -0.5024  -0.4991  -0.4720  -0.4484  -0.4389
    -0.3688  -0.3493  -0.3024  -0.2949  -0.2776  -0.2701  -0.2449  -0.2371
    -0.2274  -0.1690  -0.0917  -0.0834  -0.0671  -0.0519  -0.0434  -0.0173
    -0.0127   0.0190   0.0360   0.0381   0.0912   0.1145   0.1333   0.1376
     0.1558   0.1926   0.2404   0.2539   0.3242   0.3269   0.3951   0.4288
     0.4384   0.4552   0.4701   0.4909   0.4955   0.6472   0.6526   0.7009
     0.7281   0.7927   0.8115   0.8632   0.8958   0.9639   0.9922   1.0593
     1.1131   1.1267   1.1570   1.1889   1.2006   1.2108   1.2288   1.2561
     1.3096   1.3444   1.3866   1.3926   1.4656   1.4669   1.5148   1.5194
     1.5769   1.5836   1.6061   1.6297   1.6620   1.7032   1.7375   1.7663
     1.8196   1.8378   1.8534   1.9428   1.9647   1.9904   2.0084   2.0103
     2.0434   2.0766   2.0785   2.1206   2.1437   2.1768   2.2292   2.2503
     2.2964   2.3612   2.3631   2.3850   2.3882   2.4153   2.4478   2.4657
     2.4858   2.5080   2.5517   2.5606   2.5974   2.6197   2.6676   2.6789
     2.7138   2.7406   2.7505   2.7769   2.8198   2.8420   2.8597   2.8821
     2.9108   2.9653   2.9770   3.0600   3.0984   3.1585   3.3053   3.4216
     3.5754   3.7828   3.8807   4.2460   4.4254   4.6572   4.7887   5.1518
     5.1726   5.6109   5.9661   6.2520   6.3125   6.4795   6.6460   6.8322
     6.8960   7.2228   7.5151   7.6760   7.7891   7.9056

          k = 0.0000 0.4619 0.0000 ( 43046 PWs)   bands (ev):

   -10.0293  -9.3815  -5.3659  -4.9231  -4.6394  -4.0640  -3.9775  -3.7938
    -3.6380  -3.5056  -3.4859  -3.3092  -3.1505  -3.1338  -3.0682  -3.0362
    -2.9345  -2.8957  -2.8738  -2.7793  -2.7539  -2.7042  -2.6371  -2.6321
    -2.5578  -2.5479  -2.5383  -2.4872  -2.4643  -2.4119  -2.4111  -2.3263
    -2.3183  -2.1766  -2.1765  -2.0946  -2.0802  -2.0164  -2.0038  -1.9753
    -1.9128  -1.8897  -1.8629  -1.8498  -1.7700  -1.7334  -1.7107  -1.6396
    -1.5981  -1.5787  -1.5418  -1.4808  -1.4641  -1.4118  -1.3925  -1.3664
    -1.3343  -1.3245  -1.2309  -1.2278  -1.1428  -1.1028  -1.0769  -1.0128
    -0.9955  -0.9299  -0.8902  -0.8564  -0.8548  -0.8046  -0.7638  -0.7328
    -0.7086  -0.6847  -0.6514  -0.6438  -0.5995  -0.5606  -0.5222  -0.4786
    -0.4585  -0.4080  -0.3535  -0.3357  -0.3277  -0.3157  -0.2925  -0.2634
    -0.2392  -0.2227  -0.1937  -0.1710  -0.1328  -0.1193  -0.0897  -0.0873
    -0.0231  -0.0201   0.0053   0.0216   0.0668   0.0815   0.0959   0.1076
     0.1578   0.1739   0.2356   0.2532   0.2566   0.3170   0.3352   0.3834
     0.4130   0.4508   0.4570   0.4854   0.5294   0.6285   0.6411   0.6808
     0.7099   0.7346   0.7722   0.8156   0.8404   0.8491   0.8593   0.9134
     0.9281   0.9336   0.9999   1.0515   1.0739   1.0922   1.1219   1.1613
     1.1893   1.2580   1.2735   1.3237   1.3851   1.4440   1.4486   1.4911
     1.5628   1.5752   1.6034   1.6064   1.6581   1.6916   1.7007   1.7492
     1.7537   1.8204   1.8340   1.8888   1.9133   1.9134   1.9550   2.0349
     2.0350   2.0598   2.1301   2.1366   2.2172   2.2316   2.3057   2.3148
     2.3859   2.4015   2.4124   2.4452   2.4695   2.4948   2.5428   2.5475
     2.5969   2.6134   2.6677   2.6984   2.7257   2.7359   2.7653   2.8223
     2.8719   2.9341   2.9903   2.9946   3.0144   3.0603   3.0635   3.1267
     3.2401   3.3082   3.5057   3.6230   3.9179   3.9270   4.1395   4.2065
     4.2568   4.4998   4.5001   4.6751   4.8818   4.9124   5.1502   5.2761
     5.3617   5.4672   5.5939   5.6210   6.0154   6.0404   6.3336   6.4675
     6.5140   6.8293   7.0492   7.2642   7.4377   7.7373

          k = 0.2000-0.1155 0.0000 ( 42996 PWs)   bands (ev):

   -10.0667  -9.3436  -5.7586  -4.8629  -4.4459  -4.2129  -3.9299  -3.7335
    -3.6373  -3.5197  -3.4380  -3.3971  -3.3119  -3.2428  -3.2194  -3.1551
    -3.0988  -2.9949  -2.9381  -2.9165  -2.8313  -2.7632  -2.6823  -2.5979
    -2.5437  -2.4938  -2.4153  -2.4089  -2.3879  -2.2994  -2.2728  -2.2635
    -2.2460  -2.2263  -2.2050  -2.1896  -2.1450  -2.1183  -2.0717  -2.0266
    -1.9750  -1.9008  -1.8656  -1.8334  -1.7993  -1.7168  -1.6401  -1.6086
    -1.5739  -1.5608  -1.5468  -1.4986  -1.4650  -1.4027  -1.3354  -1.2999
    -1.2879  -1.2107  -1.1882  -1.1350  -1.0806  -1.0244  -0.9277  -0.8946
    -0.8588  -0.8346  -0.8088  -0.7830  -0.7546  -0.7138  -0.6896  -0.6235
    -0.6137  -0.5749  -0.5326  -0.5089  -0.4987  -0.4850  -0.4487  -0.3804
    -0.3643  -0.3420  -0.3310  -0.3077  -0.2903  -0.2599  -0.2436  -0.2256
    -0.2000  -0.1578  -0.1257  -0.0925  -0.0734  -0.0561  -0.0339  -0.0151
     0.0025   0.0250   0.0452   0.0662   0.0959   0.1108   0.1233   0.1450
     0.1736   0.1894   0.2249   0.2800   0.3337   0.3680   0.3838   0.4057
     0.4377   0.4523   0.4728   0.5170   0.5439   0.5952   0.6465   0.7075
     0.7465   0.8014   0.8218   0.8689   0.8914   0.9802   0.9968   1.0439
     1.0857   1.1140   1.1418   1.1737   1.2005   1.2299   1.2503   1.2801
     1.3117   1.3194   1.3985   1.4298   1.4578   1.4803   1.5071   1.5307
     1.5896   1.5966   1.6119   1.6750   1.6963   1.7308   1.7469   1.7844
     1.8185   1.8415   1.8594   1.9277   1.9647   1.9882   2.0055   2.0291
     2.0546   2.0725   2.1040   2.1340   2.1742   2.1931   2.2095   2.2599
     2.2888   2.3313   2.3507   2.3710   2.3958   2.4070   2.4299   2.4506
     2.4797   2.5177   2.5460   2.5653   2.6108   2.6231   2.6637   2.6932
     2.7108   2.7320   2.7553   2.7667   2.8062   2.8099   2.8252   2.8502
     2.8956   2.9703   2.9767   3.0569   3.0920   3.1334   3.2315   3.3517
     3.6316   3.7859   3.9573   4.1703   4.4177   4.6594   4.7432   5.0852
     5.3400   5.6227   5.9454   6.0634   6.3399   6.4775   6.6507   6.7116
     6.8833   7.3184   7.5054   7.7722   7.8654   7.9059

          k = 0.2000 0.1155 0.0000 ( 42996 PWs)   bands (ev):

   -10.0667  -9.3436  -5.7586  -4.8629  -4.4458  -4.2129  -3.9299  -3.7335
    -3.6374  -3.5198  -3.4380  -3.3971  -3.3116  -3.2430  -3.2194  -3.1551
    -3.0989  -2.9949  -2.9379  -2.9164  -2.8313  -2.7633  -2.6823  -2.5980
    -2.5436  -2.4939  -2.4154  -2.4090  -2.3879  -2.2993  -2.2728  -2.2635
    -2.2459  -2.2263  -2.2050  -2.1897  -2.1450  -2.1183  -2.0717  -2.0266
    -1.9750  -1.9009  -1.8655  -1.8334  -1.7993  -1.7170  -1.6401  -1.6087
    -1.5740  -1.5608  -1.5468  -1.4986  -1.4649  -1.4028  -1.3354  -1.2998
    -1.2879  -1.2107  -1.1883  -1.1349  -1.0807  -1.0245  -0.9277  -0.8947
    -0.8589  -0.8347  -0.8088  -0.7830  -0.7547  -0.7140  -0.6895  -0.6235
    -0.6137  -0.5748  -0.5327  -0.5089  -0.4987  -0.4849  -0.4487  -0.3801
    -0.3641  -0.3418  -0.3311  -0.3077  -0.2902  -0.2600  -0.2437  -0.2257
    -0.1999  -0.1578  -0.1257  -0.0925  -0.0734  -0.0562  -0.0338  -0.0151
     0.0025   0.0248   0.0451   0.0662   0.0959   0.1108   0.1233   0.1450
     0.1736   0.1895   0.2250   0.2801   0.3338   0.3681   0.3838   0.4057
     0.4377   0.4523   0.4727   0.5170   0.5439   0.5952   0.6464   0.7075
     0.7464   0.8013   0.8219   0.8689   0.8916   0.9801   0.9969   1.0439
     1.0858   1.1140   1.1419   1.1737   1.2005   1.2298   1.2504   1.2803
     1.3116   1.3194   1.3985   1.4298   1.4578   1.4802   1.5070   1.5307
     1.5896   1.5966   1.6119   1.6750   1.6963   1.7307   1.7469   1.7844
     1.8185   1.8414   1.8594   1.9276   1.9646   1.9882   2.0055   2.0291
     2.0547   2.0724   2.1040   2.1340   2.1742   2.1931   2.2095   2.2600
     2.2889   2.3313   2.3507   2.3710   2.3958   2.4070   2.4299   2.4506
     2.4797   2.5177   2.5461   2.5653   2.6109   2.6231   2.6639   2.6930
     2.7110   2.7320   2.7552   2.7666   2.8060   2.8097   2.8251   2.8501
     2.8955   2.9702   2.9768   3.0569   3.0920   3.1332   3.2313   3.3514
     3.6317   3.7859   3.9573   4.1704   4.4178   4.6594   4.7431   5.0853
     5.3400   5.6227   5.9454   6.0633   6.3399   6.4775   6.6507   6.7116
     6.8834   7.3184   7.5056   7.7722   7.8655   7.9060

          k = 0.2000 0.3464 0.0000 ( 43046 PWs)   bands (ev):

   -10.0426  -9.3646  -5.4905  -4.8656  -4.3738  -4.2601  -4.1583  -3.8678
    -3.6348  -3.3720  -3.3032  -3.2304  -3.1680  -3.1559  -3.1227  -3.0805
    -3.0599  -2.9936  -2.9501  -2.9059  -2.7551  -2.6640  -2.6249  -2.5978
    -2.5682  -2.5229  -2.5004  -2.4533  -2.3635  -2.3567  -2.3262  -2.3047
    -2.2874  -2.2569  -2.2007  -2.1819  -2.1369  -2.1168  -2.0921  -2.0139
    -1.9683  -1.9104  -1.8668  -1.7644  -1.7286  -1.7246  -1.6635  -1.6272
    -1.5956  -1.5697  -1.5145  -1.4836  -1.4562  -1.4092  -1.3579  -1.3374
    -1.3070  -1.2303  -1.1909  -1.1798  -1.1292  -1.1028  -1.0626  -1.0218
    -0.9682  -0.9417  -0.8851  -0.8549  -0.8171  -0.7759  -0.7615  -0.7246
    -0.7182  -0.6484  -0.6251  -0.6006  -0.5682  -0.5588  -0.5154  -0.4562
    -0.4315  -0.4027  -0.3720  -0.3593  -0.3318  -0.2952  -0.2824  -0.2580
    -0.2321  -0.1926  -0.1734  -0.1382  -0.1150  -0.0989  -0.0857  -0.0499
    -0.0345  -0.0094   0.0164   0.0466   0.0610   0.0920   0.1108   0.1434
     0.1728   0.1807   0.2037   0.2314   0.2446   0.2787   0.3093   0.3417
     0.3733   0.3879   0.4501   0.4891   0.5372   0.5891   0.6263   0.6675
     0.7277   0.7722   0.7949   0.8285   0.8555   0.8791   0.9149   0.9216
     0.9872   1.0010   1.0295   1.0616   1.0890   1.1497   1.1933   1.2221
     1.2454   1.2712   1.3218   1.3500   1.4090   1.4282   1.4478   1.4701
     1.5013   1.5547   1.5828   1.5982   1.6440   1.6888   1.7308   1.7492
     1.7930   1.7985   1.8205   1.8590   1.8936   1.9039   1.9592   2.0023
     2.0752   2.1218   2.1342   2.2018   2.2403   2.2787   2.3191   2.3412
     2.4114   2.4420   2.4843   2.5069   2.5217   2.5281   2.5611   2.5896
     2.6191   2.6280   2.6381   2.6741   2.7105   2.7305   2.7500   2.7828
     2.8058   2.8390   2.8703   2.9492   2.9863   3.0344   3.0513   3.0908
     3.1498   3.2090   3.2618   3.3288   3.7429   3.8055   3.9148   3.9545
     4.0793   4.2008   4.3269   4.5578   4.6873   4.8190   5.0968   5.2157
     5.3725   5.4336   5.5811   6.0587   6.2134   6.3206   6.5254   6.6399
     6.8291   6.9389   7.1803   7.2127   7.4734   7.5306

          k = 0.2000-0.5774 0.0000 ( 43014 PWs)   bands (ev):

   -10.0269  -9.3783  -5.0804  -4.9663  -4.7186  -4.3984  -3.8434  -3.7789
    -3.6915  -3.5691  -3.2948  -3.2223  -3.1239  -3.0601  -2.9905  -2.9664
    -2.8891  -2.8549  -2.8161  -2.7809  -2.7193  -2.7067  -2.6722  -2.6605
    -2.6162  -2.5803  -2.5096  -2.4860  -2.4562  -2.4464  -2.3747  -2.3621
    -2.3435  -2.2576  -2.2302  -2.2023  -2.1123  -2.0768  -2.0496  -2.0466
    -1.9451  -1.8922  -1.8569  -1.7697  -1.7398  -1.7044  -1.6848  -1.6492
    -1.6107  -1.5888  -1.5190  -1.4496  -1.4154  -1.3459  -1.3244  -1.3012
    -1.2841  -1.2375  -1.2076  -1.1636  -1.1461  -1.1027  -1.0892  -1.0625
    -0.9969  -0.9653  -0.9376  -0.8972  -0.8938  -0.8671  -0.8387  -0.8091
    -0.7782  -0.7496  -0.7407  -0.6813  -0.6502  -0.6154  -0.5814  -0.5484
    -0.5007  -0.4814  -0.4763  -0.4325  -0.3974  -0.3683  -0.3343  -0.3127
    -0.2761  -0.2279  -0.2214  -0.1773  -0.1342  -0.0894  -0.0754  -0.0631
    -0.0079   0.0012   0.0240   0.0760   0.0897   0.1074   0.1162   0.1316
     0.1733   0.1919   0.2231   0.2542   0.2587   0.2672   0.2914   0.3064
     0.3460   0.3953   0.4223   0.4922   0.5189   0.5907   0.5955   0.6758
     0.6986   0.7163   0.7412   0.7634   0.7862   0.8444   0.8620   0.8934
     0.9272   0.9573   0.9865   1.0470   1.0670   1.0854   1.1047   1.1693
     1.2143   1.2544   1.3341   1.3582   1.3973   1.4182   1.4490   1.4886
     1.4907   1.5194   1.5384   1.5880   1.6230   1.6441   1.6568   1.7041
     1.7053   1.7458   1.7983   1.8118   1.8975   1.9658   2.0368   2.0446
     2.0841   2.1512   2.1849   2.2034   2.2422   2.2843   2.2979   2.3796
     2.4294   2.4469   2.4810   2.5328   2.5443   2.5626   2.5929   2.6255
     2.6415   2.6987   2.7110   2.7194   2.7613   2.7646   2.8031   2.8628
     2.8981   2.9428   2.9995   3.0119   3.0349   3.0580   3.0797   3.2260
     3.2905   3.5964   3.7204   3.8427   4.0201   4.0911   4.2196   4.2895
     4.4119   4.6542   4.7442   4.8142   4.9491   5.1221   5.2086   5.3573
     5.4343   5.7347   5.8008   5.8749   5.9906   6.0744   6.1078   6.2756
     6.3681   6.3960   6.8339   7.1261   7.2156   7.3683

          k = 0.2000-0.3464 0.0000 ( 43046 PWs)   bands (ev):

   -10.0426  -9.3646  -5.4905  -4.8656  -4.3738  -4.2602  -4.1583  -3.8679
    -3.6348  -3.3720  -3.3033  -3.2306  -3.1680  -3.1558  -3.1227  -3.0803
    -3.0599  -2.9936  -2.9501  -2.9058  -2.7552  -2.6642  -2.6248  -2.5978
    -2.5682  -2.5230  -2.5004  -2.4534  -2.3635  -2.3566  -2.3261  -2.3047
    -2.2873  -2.2569  -2.2009  -2.1818  -2.1368  -2.1168  -2.0921  -2.0141
    -1.9684  -1.9105  -1.8667  -1.7643  -1.7286  -1.7245  -1.6634  -1.6271
    -1.5955  -1.5697  -1.5144  -1.4835  -1.4562  -1.4092  -1.3579  -1.3373
    -1.3069  -1.2302  -1.1909  -1.1798  -1.1291  -1.1028  -1.0626  -1.0218
    -0.9681  -0.9416  -0.8849  -0.8548  -0.8170  -0.7758  -0.7614  -0.7245
    -0.7181  -0.6483  -0.6252  -0.6007  -0.5683  -0.5589  -0.5157  -0.4564
    -0.4314  -0.4027  -0.3720  -0.3595  -0.3320  -0.2952  -0.2824  -0.2580
    -0.2321  -0.1928  -0.1735  -0.1383  -0.1148  -0.0991  -0.0856  -0.0501
    -0.0347  -0.0095   0.0164   0.0467   0.0610   0.0919   0.1107   0.1437
     0.1727   0.1807   0.2038   0.2314   0.2447   0.2788   0.3092   0.3417
     0.3733   0.3879   0.4500   0.4890   0.5372   0.5890   0.6263   0.6674
     0.7277   0.7722   0.7950   0.8284   0.8555   0.8790   0.9148   0.9217
     0.9871   1.0009   1.0294   1.0615   1.0890   1.1498   1.1933   1.2220
     1.2455   1.2711   1.3217   1.3501   1.4090   1.4282   1.4478   1.4701
     1.5013   1.5547   1.5828   1.5981   1.6440   1.6888   1.7309   1.7492
     1.7931   1.7985   1.8205   1.8591   1.8937   1.9040   1.9593   2.0023
     2.0751   2.1217   2.1342   2.2018   2.2404   2.2787   2.3190   2.3412
     2.4115   2.4419   2.4843   2.5069   2.5217   2.5281   2.5611   2.5896
     2.6192   2.6279   2.6380   2.6741   2.7105   2.7304   2.7500   2.7827
     2.8058   2.8389   2.8702   2.9493   2.9865   3.0345   3.0515   3.0910
     3.1499   3.2089   3.2618   3.3287   3.7428   3.8056   3.9148   3.9546
     4.0794   4.2008   4.3269   4.5579   4.6873   4.8190   5.0968   5.2158
     5.3725   5.4335   5.5811   6.0588   6.2135   6.3207   6.5255   6.6400
     6.8289   6.9390   7.1802   7.2127   7.4734   7.5307

          k = 0.4000-0.2309 0.0000 ( 43046 PWs)   bands (ev):

   -10.0480  -9.3513  -5.3639  -4.8727  -4.6867  -4.1459  -3.9874  -3.7043
    -3.6602  -3.4939  -3.4100  -3.2823  -3.1992  -3.1795  -3.0896  -3.0345
    -2.9498  -2.9231  -2.8483  -2.7863  -2.7203  -2.6943  -2.6508  -2.6416
    -2.5635  -2.5258  -2.5227  -2.4944  -2.4815  -2.4319  -2.3876  -2.3466
    -2.3360  -2.2288  -2.1708  -2.1199  -2.0989  -2.0667  -2.0209  -1.9897
    -1.9199  -1.8852  -1.8679  -1.8325  -1.8052  -1.7564  -1.6695  -1.6519
    -1.6007  -1.5347  -1.5095  -1.4740  -1.4567  -1.4222  -1.3859  -1.3698
    -1.3496  -1.2888  -1.2592  -1.2096  -1.1626  -1.1158  -1.0724  -1.0460
    -1.0131  -0.9855  -0.9208  -0.8961  -0.8600  -0.7924  -0.7585  -0.7239
    -0.6956  -0.6666  -0.6312  -0.5685  -0.5598  -0.5213  -0.4853  -0.4671
    -0.4645  -0.4194  -0.3842  -0.3599  -0.3371  -0.3067  -0.2915  -0.2618
    -0.2321  -0.2167  -0.1956  -0.1856  -0.1359  -0.1199  -0.0894  -0.0648
    -0.0497  -0.0281  -0.0079   0.0100   0.0685   0.1057   0.1282   0.1421
     0.1592   0.1966   0.2333   0.2807   0.2998   0.3159   0.3365   0.3852
     0.4181   0.4298   0.4674   0.4957   0.5479   0.6138   0.6341   0.6716
     0.7077   0.7376   0.7651   0.7965   0.8305   0.8518   0.8709   0.9022
     0.9230   0.9411   1.0032   1.0622   1.0874   1.1010   1.1455   1.1697
     1.2080   1.2639   1.3164   1.3639   1.3927   1.4318   1.4837   1.5023
     1.5360   1.5947   1.6243   1.6661   1.6829   1.7005   1.7180   1.7498
     1.7774   1.8190   1.8436   1.8786   1.9331   1.9494   1.9862   2.0266
     2.0420   2.0723   2.1515   2.1754   2.2067   2.2534   2.2752   2.3551
     2.3830   2.4079   2.4149   2.4389   2.4645   2.5147   2.5339   2.5528
     2.5918   2.6317   2.6575   2.6795   2.7015   2.7218   2.7498   2.8157
     2.8621   2.9135   2.9661   2.9822   3.0038   3.0392   3.0644   3.2223
     3.2433   3.2901   3.3892   3.5701   3.7477   3.9273   4.1230   4.1806
     4.2570   4.4122   4.5261   4.6792   4.8361   4.9100   5.1083   5.2124
     5.3791   5.4309   5.5300   5.6780   5.9612   6.1160   6.3105   6.3854
     6.4611   6.8195   6.9498   7.2332   7.5453   7.7153

          k = 0.4000-0.0000 0.0000 ( 43046 PWs)   bands (ev):

   -10.0537  -9.3463  -5.4896  -4.8395  -4.3811  -4.3226  -4.1593  -3.8648
    -3.5442  -3.3409  -3.3181  -3.2253  -3.2080  -3.1689  -3.1445  -3.0961
    -3.0675  -3.0023  -2.9517  -2.9097  -2.8164  -2.6253  -2.6122  -2.5842
    -2.5192  -2.4979  -2.4700  -2.4539  -2.4217  -2.3706  -2.3604  -2.3288
    -2.3033  -2.2332  -2.1957  -2.1644  -2.1410  -2.1200  -2.0808  -2.0567
    -1.9803  -1.9678  -1.8390  -1.8002  -1.7280  -1.7207  -1.6913  -1.6162
    -1.5525  -1.5295  -1.5061  -1.4875  -1.4488  -1.4118  -1.3850  -1.3397
    -1.2827  -1.2427  -1.2195  -1.1745  -1.1501  -1.1005  -1.0557  -1.0186
    -0.9677  -0.9529  -0.9171  -0.8869  -0.8392  -0.7818  -0.7631  -0.7443
    -0.7069  -0.6502  -0.6093  -0.5988  -0.5459  -0.5396  -0.4781  -0.4625
    -0.4404  -0.3887  -0.3589  -0.3384  -0.3346  -0.2995  -0.2759  -0.2627
    -0.2177  -0.1735  -0.1668  -0.1486  -0.1274  -0.1079  -0.0891  -0.0311
    -0.0202   0.0143   0.0261   0.0464   0.0604   0.1077   0.1258   0.1523
     0.1658   0.1707   0.1910   0.2367   0.2513   0.2724   0.2852   0.3488
     0.3850   0.4078   0.4750   0.4983   0.5176   0.5995   0.6611   0.6824
     0.6979   0.7618   0.7815   0.8286   0.8465   0.8852   0.8969   0.9555
     0.9769   1.0119   1.0235   1.0489   1.1004   1.1378   1.1592   1.2181
     1.2602   1.2941   1.3645   1.3785   1.4258   1.4447   1.4529   1.4671
     1.5051   1.5186   1.5666   1.6116   1.6975   1.7081   1.7338   1.7512
     1.8002   1.8185   1.8416   1.8733   1.8866   1.9149   1.9462   2.0128
     2.0633   2.0990   2.1535   2.1876   2.2613   2.3078   2.3717   2.3891
     2.4174   2.4429   2.4549   2.5090   2.5180   2.5396   2.5699   2.5761
     2.6085   2.6348   2.6480   2.6610   2.6856   2.7381   2.7414   2.7829
     2.8245   2.8702   2.9147   2.9270   2.9813   2.9936   3.0174   3.0596
     3.1115   3.1987   3.2263   3.3851   3.5959   3.7464   3.8421   4.0049
     4.1111   4.2321   4.3088   4.5263   4.8167   4.8948   4.9625   5.1271
     5.2377   5.4373   5.5337   5.9061   6.2463   6.3568   6.5227   6.7134
     6.7693   6.8705   7.0939   7.3230   7.5352   7.5737

          k = 0.4000 0.2309 0.0000 ( 43046 PWs)   bands (ev):

   -10.0480  -9.3513  -5.3639  -4.8727  -4.6867  -4.1459  -3.9874  -3.7043
    -3.6603  -3.4938  -3.4100  -3.2822  -3.1993  -3.1795  -3.0896  -3.0344
    -2.9498  -2.9232  -2.8483  -2.7861  -2.7203  -2.6942  -2.6507  -2.6415
    -2.5635  -2.5257  -2.5227  -2.4944  -2.4814  -2.4319  -2.3876  -2.3467
    -2.3360  -2.2288  -2.1709  -2.1198  -2.0990  -2.0667  -2.0210  -1.9897
    -1.9201  -1.8851  -1.8680  -1.8325  -1.8054  -1.7566  -1.6695  -1.6520
    -1.6007  -1.5347  -1.5095  -1.4739  -1.4566  -1.4221  -1.3860  -1.3698
    -1.3496  -1.2889  -1.2593  -1.2098  -1.1627  -1.1161  -1.0726  -1.0460
    -1.0134  -0.9855  -0.9210  -0.8961  -0.8601  -0.7923  -0.7585  -0.7238
    -0.6955  -0.6666  -0.6311  -0.5683  -0.5597  -0.5212  -0.4851  -0.4667
    -0.4644  -0.4193  -0.3841  -0.3601  -0.3370  -0.3069  -0.2917  -0.2617
    -0.2321  -0.2166  -0.1956  -0.1855  -0.1358  -0.1199  -0.0896  -0.0649
    -0.0497  -0.0282  -0.0080   0.0098   0.0685   0.1058   0.1283   0.1420
     0.1594   0.1969   0.2334   0.2806   0.2999   0.3159   0.3365   0.3853
     0.4182   0.4298   0.4674   0.4958   0.5479   0.6138   0.6340   0.6717
     0.7077   0.7375   0.7649   0.7965   0.8306   0.8518   0.8709   0.9024
     0.9232   0.9412   1.0032   1.0622   1.0875   1.1009   1.1456   1.1697
     1.2082   1.2640   1.3165   1.3639   1.3928   1.4318   1.4838   1.5022
     1.5359   1.5946   1.6243   1.6661   1.6829   1.7004   1.7179   1.7496
     1.7772   1.8189   1.8435   1.8785   1.9331   1.9494   1.9863   2.0266
     2.0420   2.0723   2.1515   2.1753   2.2067   2.2534   2.2752   2.3552
     2.3831   2.4079   2.4149   2.4390   2.4646   2.5148   2.5340   2.5529
     2.5919   2.6318   2.6576   2.6795   2.7014   2.7218   2.7496   2.8154
     2.8620   2.9135   2.9660   2.9821   3.0036   3.0392   3.0643   3.2225
     3.2433   3.2900   3.3890   3.5703   3.7478   3.9274   4.1230   4.1805
     4.2570   4.4119   4.5259   4.6791   4.8362   4.9097   5.1083   5.2124
     5.3791   5.4309   5.5300   5.6781   5.9611   6.1160   6.3105   6.3853
     6.4609   6.8196   6.9500   7.2331   7.5453   7.7153

          k = 0.4000-0.6928 0.0000 ( 43014 PWs)   bands (ev):

   -10.0386  -9.3594  -5.0608  -4.9611  -4.7563  -4.3582  -3.9776  -3.8048
    -3.5858  -3.4724  -3.3055  -3.2532  -3.1326  -3.0770  -3.0147  -2.9738
    -2.8745  -2.8545  -2.8031  -2.7527  -2.7113  -2.7065  -2.6715  -2.6485
    -2.6196  -2.5999  -2.5633  -2.4817  -2.4721  -2.4448  -2.4105  -2.3773
    -2.3194  -2.2861  -2.2283  -2.1908  -2.1306  -2.0878  -2.0517  -2.0397
    -1.9371  -1.8934  -1.8461  -1.8079  -1.7733  -1.7194  -1.6552  -1.6458
    -1.6169  -1.5770  -1.5067  -1.4396  -1.3916  -1.3698  -1.3241  -1.2960
    -1.2593  -1.2214  -1.2053  -1.1983  -1.1679  -1.1170  -1.0900  -1.0439
    -1.0302  -0.9966  -0.9794  -0.9277  -0.9048  -0.8896  -0.8233  -0.7889
    -0.7744  -0.7465  -0.6795  -0.6328  -0.6114  -0.6002  -0.5676  -0.5468
    -0.5318  -0.4774  -0.4600  -0.4270  -0.4016  -0.3660  -0.3403  -0.3260
    -0.2519  -0.2307  -0.1899  -0.1835  -0.1431  -0.1033  -0.0832  -0.0559
    -0.0164   0.0209   0.0438   0.0767   0.0934   0.1072   0.1327   0.1528
     0.1707   0.2137   0.2260   0.2478   0.2726   0.2840   0.2925   0.3172
     0.3285   0.3730   0.4237   0.4685   0.4927   0.5705   0.6012   0.6792
     0.6887   0.7120   0.7466   0.7837   0.8012   0.8326   0.8804   0.9048
     0.9264   0.9530   0.9723   1.0411   1.0804   1.1076   1.1460   1.1828
     1.2382   1.2586   1.3059   1.3284   1.3907   1.4339   1.4440   1.4793
     1.5026   1.5106   1.5561   1.5958   1.6177   1.6300   1.6632   1.7077
     1.7439   1.7840   1.8028   1.8415   1.9161   1.9746   1.9953   2.0358
     2.1259   2.1781   2.1969   2.2132   2.2618   2.2895   2.3329   2.3792
     2.4256   2.4717   2.4952   2.5175   2.5585   2.5788   2.5826   2.6111
     2.6285   2.6719   2.6986   2.7234   2.7476   2.7776   2.7991   2.8841
     2.9056   2.9288   2.9820   2.9913   3.0375   3.0694   3.0809   3.2423
     3.3161   3.4866   3.5987   3.8277   3.9798   4.1636   4.2409   4.3019
     4.4594   4.5111   4.7072   4.8404   4.9777   5.0806   5.2321   5.3126
     5.3949   5.4988   5.7495   5.8742   5.9745   6.0769   6.1011   6.2566
     6.4679   6.5703   6.8417   6.9989   7.1625   7.2617

          k = 0.4000-0.4619 0.0000 ( 43014 PWs)   bands (ev):

   -10.0386  -9.3594  -5.0609  -4.9611  -4.7562  -4.3582  -3.9777  -3.8048
    -3.5859  -3.4724  -3.3055  -3.2533  -3.1327  -3.0770  -3.0147  -2.9738
    -2.8745  -2.8545  -2.8032  -2.7527  -2.7114  -2.7065  -2.6715  -2.6485
    -2.6197  -2.5998  -2.5633  -2.4817  -2.4722  -2.4449  -2.4105  -2.3773
    -2.3194  -2.2860  -2.2282  -2.1909  -2.1305  -2.0877  -2.0517  -2.0396
    -1.9371  -1.8933  -1.8460  -1.8078  -1.7732  -1.7194  -1.6553  -1.6459
    -1.6169  -1.5770  -1.5067  -1.4396  -1.3916  -1.3698  -1.3241  -1.2960
    -1.2595  -1.2212  -1.2050  -1.1981  -1.1678  -1.1169  -1.0898  -1.0438
    -1.0302  -0.9966  -0.9793  -0.9276  -0.9047  -0.8897  -0.8233  -0.7890
    -0.7744  -0.7463  -0.6796  -0.6328  -0.6114  -0.6005  -0.5678  -0.5469
    -0.5319  -0.4775  -0.4602  -0.4272  -0.4016  -0.3660  -0.3403  -0.3259
    -0.2518  -0.2308  -0.1899  -0.1836  -0.1431  -0.1034  -0.0831  -0.0559
    -0.0165   0.0210   0.0438   0.0766   0.0933   0.1072   0.1324   0.1530
     0.1709   0.2135   0.2263   0.2479   0.2725   0.2839   0.2926   0.3172
     0.3285   0.3730   0.4237   0.4685   0.4926   0.5705   0.6011   0.6792
     0.6888   0.7121   0.7466   0.7837   0.8012   0.8325   0.8803   0.9047
     0.9264   0.9530   0.9722   1.0411   1.0804   1.1075   1.1459   1.1828
     1.2382   1.2587   1.3059   1.3283   1.3908   1.4338   1.4440   1.4793
     1.5027   1.5106   1.5561   1.5958   1.6177   1.6300   1.6633   1.7078
     1.7439   1.7840   1.8028   1.8415   1.9161   1.9747   1.9953   2.0357
     2.1260   2.1781   2.1969   2.2132   2.2619   2.2895   2.3328   2.3792
     2.4256   2.4717   2.4951   2.5175   2.5584   2.5787   2.5826   2.6111
     2.6286   2.6719   2.6987   2.7235   2.7475   2.7774   2.7990   2.8841
     2.9055   2.9289   2.9821   2.9914   3.0377   3.0695   3.0810   3.2423
     3.3161   3.4865   3.5984   3.8277   3.9800   4.1636   4.2409   4.3019
     4.4594   4.5111   4.7073   4.8404   4.9778   5.0806   5.2321   5.3126
     5.3949   5.4988   5.7502   5.8742   5.9746   6.0769   6.1009   6.2564
     6.4679   6.5703   6.8417   6.9988   7.1623   7.2614

     the Fermi energy is     2.7870 ev

!    total energy              =  -27793.39228528 Ry
     total all-electron energy =  -1326795.685896 Ry
     estimated scf accuracy    <       0.00000050 Ry
     smearing contrib. (-TS)   =       0.00004893 Ry
     internal energy E=F+TS    =  -27793.39233421 Ry

     The total energy is F=E-TS. E is the sum of the following terms:
     one-electron contribution =  -20765.55050318 Ry
     hartree contribution      =   10696.11306200 Ry
     xc contribution           =    -900.39915310 Ry
     ewald contribution        =    8663.63760753 Ry
     one-center paw contrib.   =  -25487.19334746 Ry

     convergence has been achieved in  18 iterations

     negative rho (up, down):  3.101E-03 0.000E+00

     Forces acting on atoms (cartesian axes, Ry/au):

     atom    1 type  1   force =     0.00011140    0.00045443   -0.00445348
     atom    2 type  1   force =    -0.00009327    0.00044799   -0.00445736
     atom    3 type  1   force =     0.00000698   -0.00404355   -0.00736463
     atom    4 type  1   force =     0.00000457    0.00123254   -0.00693670
     atom    5 type  1   force =    -0.00218736    0.00112529   -0.00728691
     atom    6 type  1   force =     0.00220907    0.00113731   -0.00728210
     atom    7 type  1   force =    -0.00187143    0.00028505   -0.00809943
     atom    8 type  1   force =     0.00001908    0.00143204   -0.00534052
     atom    9 type  1   force =     0.00187717    0.00028391   -0.00810530
     atom   10 type  1   force =    -0.00003170   -0.00164186    0.01655350
     atom   11 type  1   force =    -0.00004967   -0.00253624   -0.00107518
     atom   12 type  1   force =     0.00002263   -0.00254773   -0.00105750
     atom   13 type  1   force =    -0.00006647   -0.00016456    0.00767618
     atom   14 type  1   force =    -0.00001108    0.00049532   -0.00422264
     atom   15 type  1   force =     0.00003209   -0.00016221    0.00768259
     atom   16 type  1   force =    -0.00294783   -0.00168232    0.01220221
     atom   17 type  1   force =     0.00290868   -0.00169274    0.01218939
     atom   18 type  1   force =    -0.00000608    0.00148778    0.00498747
     atom   19 type  1   force =     0.00012628   -0.00010353   -0.00027225
     atom   20 type  1   force =    -0.00012518   -0.00010438   -0.00027253
     atom   21 type  1   force =    -0.00000125   -0.00026130    0.00006376
     atom   22 type  1   force =     0.00000690    0.00005291   -0.00002826
     atom   23 type  1   force =     0.00014763   -0.00040170   -0.00011304
     atom   24 type  1   force =    -0.00015055   -0.00039661   -0.00011457
     atom   25 type  1   force =     0.00014076   -0.00013272    0.00007964
     atom   26 type  1   force =     0.00000176   -0.00029733    0.00017284
     atom   27 type  1   force =    -0.00013078   -0.00013520    0.00007136
     atom   28 type  1   force =     0.00033642   -0.00058394    0.00068321
     atom   29 type  1   force =    -0.00032906   -0.00056815    0.00068080
     atom   30 type  1   force =     0.00000842   -0.00075784   -0.00001680
     atom   31 type  1   force =     0.00000702    0.00053862   -0.00114071
     atom   32 type  1   force =    -0.00016305   -0.00090855    0.00011283
     atom   33 type  1   force =     0.00017680   -0.00090473    0.00010404
     atom   34 type  1   force =    -0.00054637   -0.00068616    0.00016305
     atom   35 type  1   force =     0.00000437   -0.00053673    0.00021418
     atom   36 type  1   force =     0.00055930   -0.00069012    0.00016812
     atom   37 type  2   force =     0.00001127    0.00096400    0.00003439
     atom   38 type  3   force =     0.00000322    0.01281058    0.00675540
     atom   39 type  2   force =    -0.00001071   -0.00080755   -0.00295505
     The non-local contrib.  to forces
     atom    1 type  1   force =    -0.00047926   -0.00015395   -0.01997595
     atom    2 type  1   force =     0.00047576   -0.00015715   -0.01997392
     atom    3 type  1   force =     0.00000154   -0.00036264   -0.02070559
     atom    4 type  1   force =    -0.00000514    0.00072060   -0.01905765
     atom    5 type  1   force =     0.00110095   -0.00112813   -0.02562681
     atom    6 type  1   force =    -0.00110398   -0.00111960   -0.02562964
     atom    7 type  1   force =    -0.00208787   -0.00015559   -0.01946363
     atom    8 type  1   force =     0.00000927   -0.00030279   -0.02147769
     atom    9 type  1   force =     0.00207944   -0.00015684   -0.01946315
     atom   10 type  1   force =    -0.00002461   -0.00222435    0.00179097
     atom   11 type  1   force =    -0.00348016   -0.00212429    0.00017707
     atom   12 type  1   force =     0.00344644   -0.00213293    0.00019613
     atom   13 type  1   force =    -0.00192131   -0.00428513    0.00159042
     atom   14 type  1   force =    -0.00001635    0.00191296   -0.00147844
     atom   15 type  1   force =     0.00187780   -0.00428262    0.00159403
     atom   16 type  1   force =     0.00287449    0.00016238    0.00130774
     atom   17 type  1   force =    -0.00292066    0.00015890    0.00129605
     atom   18 type  1   force =    -0.00001065   -0.00028773    0.00342192
     atom   19 type  1   force =    -0.00900882    0.00005538    0.00913116
     atom   20 type  1   force =     0.00902215    0.00004000    0.00911905
     atom   21 type  1   force =    -0.00001189    0.00229655    0.01438505
     atom   22 type  1   force =     0.00000735    0.00497848    0.02728778
     atom   23 type  1   force =     0.00822567   -0.00762142    0.00474026
     atom   24 type  1   force =    -0.00821014   -0.00760858    0.00475214
     atom   25 type  1   force =    -0.00414947    0.00423645   -0.00019230
     atom   26 type  1   force =     0.00001221   -0.00240421    0.01733050
     atom   27 type  1   force =     0.00416326    0.00423773   -0.00019922
     atom   28 type  1   force =     0.07984729    0.04837528   -0.01206376
     atom   29 type  1   force =    -0.07980571    0.04836218   -0.01206392
     atom   30 type  1   force =     0.00001453   -0.01935580    0.01816288
     atom   31 type  1   force =     0.00001700   -0.02666901   -0.03798468
     atom   32 type  1   force =    -0.02576750   -0.00364990    0.02209672
     atom   33 type  1   force =     0.02581435   -0.00363784    0.02210770
     atom   34 type  1   force =    -0.04298047   -0.01975514   -0.04464931
     atom   35 type  1   force =     0.00002665    0.02834533    0.02511771
     atom   36 type  1   force =     0.04302589   -0.01976166   -0.04466699
     atom   37 type  2   force =     0.00006934    0.05317708   -0.27399063
     atom   38 type  3   force =     0.00000529    0.01450356   -0.08046245
     atom   39 type  2   force =     0.00008443   -0.06898910   -0.14174694
     The ionic contribution  to forces
     atom    1 type  1   force =     0.00521358   -0.01281755  -94.39878502
     atom    2 type  1   force =    -0.00526722   -0.01283636  -94.39889111
     atom    3 type  1   force =     0.00005213   -0.03660728  -94.41130562
     atom    4 type  1   force =    -0.00004187    0.00898197  -94.39923830
     atom    5 type  1   force =    -0.02245723    0.00703339  -94.43825575
     atom    6 type  1   force =     0.02249750    0.00699827  -94.43817782
     atom    7 type  1   force =    -0.01373299    0.00859764  -94.38526778
     atom    8 type  1   force =    -0.00000921    0.02164494  -94.40742528
     atom    9 type  1   force =     0.01374016    0.00854272  -94.38529169
     atom   10 type  1   force =    -0.00072905   -0.06919556  -33.46510368
     atom   11 type  1   force =    -0.18613182   -0.23207542  -33.52777018
     atom   12 type  1   force =     0.18611006   -0.23214121  -33.52717106
     atom   13 type  1   force =    -0.11194831    0.02632420  -33.38157054
     atom   14 type  1   force =    -0.00006436    0.22891204  -33.58986434
     atom   15 type  1   force =     0.11123695    0.02598215  -33.38135681
     atom   16 type  1   force =    -0.00628815    0.06025836  -33.38815236
     atom   17 type  1   force =     0.00553532    0.05983297  -33.38845168
     atom   18 type  1   force =     0.00007213   -0.02455303  -33.16644103
     atom   19 type  1   force =     0.07233901   -0.03657763   28.11444526
     atom   20 type  1   force =    -0.07236054   -0.03536229   28.11157454
     atom   21 type  1   force =    -0.00007294   -0.13441668   25.98138836
     atom   22 type  1   force =     0.00074497    0.23463261   28.20487416
     atom   23 type  1   force =    -0.18628761    0.08381694   27.57858886
     atom   24 type  1   force =     0.18582584    0.08356005   27.57969591
     atom   25 type  1   force =    -0.17731591   -0.20486100   28.19494749
     atom   26 type  1   force =    -0.00079080    0.11590357   28.62724588
     atom   27 type  1   force =     0.17834257   -0.20470634   28.19224410
     atom   28 type  1   force =    -2.40550624   -0.99251781   89.73084162
     atom   29 type  1   force =     2.40571208   -0.99153142   89.72546363
     atom   30 type  1   force =     0.00008199    0.66488554   88.25871673
     atom   31 type  1   force =     0.00091946   -0.82876500   86.39881144
     atom   32 type  1   force =     0.69400376   -0.22882147   88.18442013
     atom   33 type  1   force =    -0.69461439   -0.22923061   88.18686118
     atom   34 type  1   force =     3.35950917    1.69428750   89.00766677
     atom   35 type  1   force =    -0.00081657   -0.31838517   88.80042395
     atom   36 type  1   force =    -3.35790674    1.69454541   89.00683660
     atom   37 type  2   force =     0.00050257   -0.49488441   45.07611891
     atom   38 type  3   force =    -0.00013334   -0.23435090   12.44487726
     atom   39 type  2   force =     0.00003602    0.51989684   45.07247727
     The local contribution  to forces
     atom    1 type  1   force =    -0.00460669    0.01354263   94.39785893
     atom    2 type  1   force =     0.00467816    0.01356991   94.39796642
     atom    3 type  1   force =    -0.00004478    0.03309604   94.40787933
     atom    4 type  1   force =     0.00006130   -0.00850097   94.39481327
     atom    5 type  1   force =     0.01919506   -0.00474078   94.44010753
     atom    6 type  1   force =    -0.01921788   -0.00472272   94.44003332
     atom    7 type  1   force =     0.01410476   -0.00816828   94.37984299
     atom    8 type  1   force =    -0.00000132   -0.01994966   94.40738361
     atom    9 type  1   force =    -0.01407797   -0.00810489   94.37986976
     atom   10 type  1   force =     0.00072421    0.06954453   33.48032806
     atom   11 type  1   force =     0.18895414    0.23108499   33.52663137
     atom   12 type  1   force =    -0.18893373    0.23115535   33.52602735
     atom   13 type  1   force =     0.11393862   -0.02236413   33.38836258
     atom   14 type  1   force =     0.00005925   -0.22988012   33.58725183
     atom   15 type  1   force =    -0.11321285   -0.02202421   33.38816494
     atom   16 type  1   force =     0.00048351   -0.06189319   33.39990950
     atom   17 type  1   force =     0.00027892   -0.06146184   33.40021880
     atom   18 type  1   force =    -0.00007536    0.02636101   33.16976515
     atom   19 type  1   force =    -0.06327966    0.03655872  -28.12087728
     atom   20 type  1   force =     0.06330229    0.03536010  -28.11798617
     atom   21 type  1   force =     0.00006958    0.13151596  -25.99421588
     atom   22 type  1   force =    -0.00074226   -0.23920531  -28.22844654
     atom   23 type  1   force =     0.17759562   -0.07693515  -27.58214396
     atom   24 type  1   force =    -0.17715453   -0.07667791  -27.58327112
     atom   25 type  1   force =     0.18059380    0.19996773  -28.19342124
     atom   26 type  1   force =     0.00078223   -0.11337420  -28.64187994
     atom   27 type  1   force =    -0.18162733    0.19982194  -28.19072149
     atom   28 type  1   force =     2.30688842    0.93477924  -89.71606219
     atom   29 type  1   force =    -2.30712066    0.93383731  -89.71069546
     atom   30 type  1   force =    -0.00009501   -0.64758305  -88.26149317
     atom   31 type  1   force =    -0.00091659    0.85930384  -86.37268661
     atom   32 type  1   force =    -0.67081457    0.23092672  -88.19050460
     atom   33 type  1   force =     0.67137734    0.23132884  -88.19295838
     atom   34 type  1   force =    -3.30026121   -1.66644282  -88.96119879
     atom   35 type  1   force =     0.00078410    0.29126889  -88.80922793
     atom   36 type  1   force =     3.29863248   -1.66668914  -88.96034877
     atom   37 type  2   force =    -0.00056807    0.44364827  -44.80721489
     atom   38 type  3   force =     0.00013120    0.23266487  -12.35769572
     atom   39 type  2   force =    -0.00008853   -0.45302050  -44.93636206
     The core correction contribution to forces
     atom    1 type  1   force =     0.00004283   -0.00010417    0.01685841
     atom    2 type  1   force =    -0.00004277   -0.00010437    0.01685911
     atom    3 type  1   force =    -0.00000078   -0.00014769    0.01716682
     atom    4 type  1   force =    -0.00000019    0.00001140    0.01693328
     atom    5 type  1   force =    -0.00005684    0.00000182    0.01689460
     atom    6 type  1   force =     0.00005557    0.00000166    0.01689317
     atom    7 type  1   force =    -0.00011592   -0.00003069    0.01715211
     atom    8 type  1   force =    -0.00000018    0.00005592    0.01659517
     atom    9 type  1   force =     0.00011596   -0.00003042    0.01715253
     atom   10 type  1   force =     0.00000216    0.00023167    0.00003228
     atom   11 type  1   force =     0.00058801    0.00062094    0.00043346
     atom   12 type  1   force =    -0.00058516    0.00062064    0.00043189
     atom   13 type  1   force =    -0.00009367    0.00013070   -0.00020516
     atom   14 type  1   force =     0.00000125   -0.00043749    0.00041048
     atom   15 type  1   force =     0.00009708    0.00013192   -0.00020614
     atom   16 type  1   force =     0.00003618   -0.00021958   -0.00034982
     atom   17 type  1   force =    -0.00003346   -0.00021820   -0.00035053
     atom   18 type  1   force =     0.00000054   -0.00002037   -0.00121341
     atom   19 type  1   force =     0.00008614   -0.00012100   -0.00297650
     atom   20 type  1   force =    -0.00008636   -0.00012573   -0.00297662
     atom   21 type  1   force =     0.00000177    0.00036028   -0.00150567
     atom   22 type  1   force =    -0.00000267   -0.00039244   -0.00370484
     atom   23 type  1   force =     0.00063235    0.00034992   -0.00129569
     atom   24 type  1   force =    -0.00063144    0.00034904   -0.00129613
     atom   25 type  1   force =     0.00104234    0.00053298   -0.00118720
     atom   26 type  1   force =     0.00000137   -0.00045142   -0.00257998
     atom   27 type  1   force =    -0.00104465    0.00053221   -0.00118701
     atom   28 type  1   force =     0.01879338    0.00865428   -0.00232985
     atom   29 type  1   force =    -0.01879519    0.00865283   -0.00232618
     atom   30 type  1   force =    -0.00000041    0.00137980   -0.01552195
     atom   31 type  1   force =    -0.00000222   -0.00324197    0.01027113
     atom   32 type  1   force =     0.00249732    0.00062628   -0.01600161
     atom   33 type  1   force =    -0.00249647    0.00062646   -0.01600107
     atom   34 type  1   force =    -0.01661267   -0.00868675   -0.00197131
     atom   35 type  1   force =     0.00000263   -0.00185617   -0.01624216
     atom   36 type  1   force =     0.01660997   -0.00868770   -0.00196845
     atom   37 type  2   force =     0.00001063   -0.00096182    0.00516371
     atom   38 type  3   force =     0.00000000    0.00000000    0.00000000
     atom   39 type  2   force =    -0.00004168    0.00132149    0.00264371
     The Hubbard contrib.    to forces
     atom    1 type  1   force =     0.00000000    0.00000000    0.00000000
     atom    2 type  1   force =     0.00000000    0.00000000    0.00000000
     atom    3 type  1   force =     0.00000000    0.00000000    0.00000000
     atom    4 type  1   force =     0.00000000    0.00000000    0.00000000
     atom    5 type  1   force =     0.00000000    0.00000000    0.00000000
     atom    6 type  1   force =     0.00000000    0.00000000    0.00000000
     atom    7 type  1   force =     0.00000000    0.00000000    0.00000000
     atom    8 type  1   force =     0.00000000    0.00000000    0.00000000
     atom    9 type  1   force =     0.00000000    0.00000000    0.00000000
     atom   10 type  1   force =     0.00000000    0.00000000    0.00000000
     atom   11 type  1   force =     0.00000000    0.00000000    0.00000000
     atom   12 type  1   force =     0.00000000    0.00000000    0.00000000
     atom   13 type  1   force =     0.00000000    0.00000000    0.00000000
     atom   14 type  1   force =     0.00000000    0.00000000    0.00000000
     atom   15 type  1   force =     0.00000000    0.00000000    0.00000000
     atom   16 type  1   force =     0.00000000    0.00000000    0.00000000
     atom   17 type  1   force =     0.00000000    0.00000000    0.00000000
     atom   18 type  1   force =     0.00000000    0.00000000    0.00000000
     atom   19 type  1   force =     0.00000000    0.00000000    0.00000000
     atom   20 type  1   force =     0.00000000    0.00000000    0.00000000
     atom   21 type  1   force =     0.00000000    0.00000000    0.00000000
     atom   22 type  1   force =     0.00000000    0.00000000    0.00000000
     atom   23 type  1   force =     0.00000000    0.00000000    0.00000000
     atom   24 type  1   force =     0.00000000    0.00000000    0.00000000
     atom   25 type  1   force =     0.00000000    0.00000000    0.00000000
     atom   26 type  1   force =     0.00000000    0.00000000    0.00000000
     atom   27 type  1   force =     0.00000000    0.00000000    0.00000000
     atom   28 type  1   force =     0.00000000    0.00000000    0.00000000
     atom   29 type  1   force =     0.00000000    0.00000000    0.00000000
     atom   30 type  1   force =     0.00000000    0.00000000    0.00000000
     atom   31 type  1   force =     0.00000000    0.00000000    0.00000000
     atom   32 type  1   force =     0.00000000    0.00000000    0.00000000
     atom   33 type  1   force =     0.00000000    0.00000000    0.00000000
     atom   34 type  1   force =     0.00000000    0.00000000    0.00000000
     atom   35 type  1   force =     0.00000000    0.00000000    0.00000000
     atom   36 type  1   force =     0.00000000    0.00000000    0.00000000
     atom   37 type  2   force =     0.00000000    0.00000000    0.00000000
     atom   38 type  3   force =     0.00000000    0.00000000    0.00000000
     atom   39 type  2   force =     0.00000000    0.00000000    0.00000000
     The SCF correction term to forces
     atom    1 type  1   force =    -0.00000000   -0.00000000   -0.00000000
     atom    2 type  1   force =     0.00000000   -0.00000000   -0.00000000
     atom    3 type  1   force =    -0.00000000   -0.00000000   -0.00000000
     atom    4 type  1   force =    -0.00000000    0.00000000   -0.00000000
     atom    5 type  1   force =     0.00000000   -0.00000000   -0.00000000
     atom    6 type  1   force =    -0.00000000   -0.00000000   -0.00000000
     atom    7 type  1   force =    -0.00000000    0.00000000   -0.00000000
     atom    8 type  1   force =     0.00000000   -0.00000000   -0.00000000
     atom    9 type  1   force =     0.00000000    0.00000000   -0.00000000
     atom   10 type  1   force =    -0.00000000    0.00000000   -0.00000000
     atom   11 type  1   force =     0.00000000   -0.00000000   -0.00000000
     atom   12 type  1   force =    -0.00000000   -0.00000000   -0.00000000
     atom   13 type  1   force =    -0.00000000    0.00000000   -0.00000000
     atom   14 type  1   force =     0.00000000   -0.00000000   -0.00000000
     atom   15 type  1   force =     0.00000000    0.00000000   -0.00000000
     atom   16 type  1   force =    -0.00000000    0.00000000   -0.00000000
     atom   17 type  1   force =     0.00000000    0.00000000   -0.00000000
     atom   18 type  1   force =     0.00000000   -0.00000000   -0.00000000
     atom   19 type  1   force =    -0.00001076   -0.00001401   -0.00006537
     atom   20 type  1   force =    -0.00000310   -0.00001148   -0.00007381
     atom   21 type  1   force =     0.00001187   -0.00001242   -0.00005859
     atom   22 type  1   force =    -0.00000087    0.00004455   -0.00010931
     atom   23 type  1   force =    -0.00001878   -0.00000702   -0.00007300
     atom   24 type  1   force =     0.00001935   -0.00001424   -0.00006586
     atom   25 type  1   force =    -0.00003038   -0.00000391   -0.00013761
     atom   26 type  1   force =    -0.00000364    0.00003390   -0.00001411
     atom   27 type  1   force =     0.00003498   -0.00001576   -0.00013551
     atom   28 type  1   force =     0.00031319    0.00013005    0.00022690
     atom   29 type  1   force =    -0.00031996    0.00011593    0.00023224
     atom   30 type  1   force =     0.00000695   -0.00007935    0.00004822
     atom   31 type  1   force =    -0.00001100   -0.00008426    0.00037751
     atom   32 type  1   force =    -0.00008244    0.00001481    0.00003171
     atom   33 type  1   force =     0.00009560    0.00001340    0.00002412
     atom   34 type  1   force =    -0.00020156   -0.00008398    0.00024521
     atom   35 type  1   force =     0.00000719    0.00009538    0.00007212
     atom   36 type  1   force =     0.00019733   -0.00009205    0.00024524
     atom   37 type  2   force =    -0.00000357   -0.00001014   -0.00011320
     atom   38 type  3   force =    -0.00000030   -0.00000197   -0.00003417
     atom   39 type  2   force =    -0.00000133   -0.00001130   -0.00003752

     Total force =     0.015119     Total SCF correction =     0.000915

     Writing all to output data dir ./pwscf.save/

     init_run     :     14.67s CPU     15.22s WALL (       1 calls)
     electrons    :    380.66s CPU    392.83s WALL (       1 calls)
     forces       :      3.91s CPU      4.55s WALL (       1 calls)

     Called by init_run:
     wfcinit      :      9.40s CPU      9.72s WALL (       1 calls)
     potinit      :      3.23s CPU      3.36s WALL (       1 calls)
     hinit0       :      1.25s CPU      1.28s WALL (       1 calls)

     Called by electrons:
     c_bands      :    323.23s CPU    330.84s WALL (      19 calls)
     sum_band     :     39.57s CPU     40.95s WALL (      19 calls)
     v_of_rho     :      8.81s CPU     10.74s WALL (      19 calls)
     newd         :      2.66s CPU      3.51s WALL (      19 calls)
     PAW_pot      :      4.30s CPU      4.43s WALL (      19 calls)
     mix_rho      :      4.19s CPU      4.32s WALL (      19 calls)
     vdW_kernel   :      1.73s CPU      1.77s WALL (       1 calls)

     Called by c_bands:
     init_us_2    :      2.81s CPU      2.90s WALL (     520 calls)
     init_us_2:cp :      2.81s CPU      2.89s WALL (     520 calls)
     cegterg      :    315.05s CPU    322.33s WALL (     247 calls)

     Called by *egterg:
     cdiaghg      :     82.85s CPU     84.38s WALL (    1311 calls)
     h_psi        :    156.45s CPU    160.18s WALL (    1337 calls)
     s_psi        :     15.28s CPU     15.62s WALL (    1337 calls)
     g_psi        :      0.44s CPU      0.46s WALL (    1077 calls)

     Called by h_psi:
     h_psi:calbec :     20.33s CPU     21.21s WALL (    1337 calls)
     vloc_psi     :    119.59s CPU    121.85s WALL (    1337 calls)
     add_vuspsi   :     15.42s CPU     15.97s WALL (    1337 calls)

     General routines
     calbec       :     29.46s CPU     30.66s WALL (    1636 calls)
     fft          :      5.12s CPU      7.12s WALL (    1257 calls)
     ffts         :      2.32s CPU      2.37s WALL (    4351 calls)
     fftw         :    123.16s CPU    125.41s WALL (  317202 calls)
     interpolate  :      0.60s CPU      0.66s WALL (      19 calls)

     Parallel routines

     PWSCF        :   6m41.27s CPU   6m57.58s WALL


   This run was terminated on:  16: 0:44   6Dec2025            

=------------------------------------------------------------------------------=
   JOB DONE.
=------------------------------------------------------------------------------=
