
     Program PWSCF v.7.1 starts on  7Dec2025 at 20: 7:43 
        Git branch: heads/qe-7.1
        Last git commit: 48ba0178f8fede6d020eb786884699a9f063f55d-dirty
        Last git commit date: Fri Jan 27 14:22:33 2023 +0000
        Last git commit subject: Merge branch 'fix_hubbard' into 'develop'

     This program is part of the open-source Quantum ESPRESSO suite
     for quantum simulation of materials; please cite
         "P. Giannozzi et al., J. Phys.:Condens. Matter 21 395502 (2009);
         "P. Giannozzi et al., J. Phys.:Condens. Matter 29 465901 (2017);
         "P. Giannozzi et al., J. Chem. Phys. 152 154105 (2020);
          URL http://www.quantum-espresso.org", 
     in publications or presentations arising from this work. More details at
     http://www.quantum-espresso.org/quote

     Parallel version (MPI), running on    96 processors

     MPI processes distributed on     2 nodes
     11288 MiB available memory on the printing compute node when the environment starts

     Reading input from espresso.pwi
Warning: card &CELL ignored
Warning: card / ignored
Warning: card &FCP ignored
Warning: card / ignored
Warning: card &RISM ignored
Warning: card / ignored

     Current dimensions of program PWSCF are:
     Max number of different atomic species (ntypx) = 10
     Max number of k-points (npk) =  40000
     Max angular momentum in pseudopotentials (lmaxx) =  4
     file Co.pbe-n-kjpaw_psl.1.0.0.UPF: wavefunction(s)  4S 3D renormalized
     file C.pbe-n-kjpaw_psl.1.0.0.UPF: wavefunction(s)  2S 2P renormalized
     file O.pbe-nl-kjpaw_psl.1.0.0.UPF: wavefunction(s)  2S 2P renormalized
     file H.pbe-kjpaw_psl.1.0.0.UPF: wavefunction(s)  1S renormalized

     **************************************************************************
     Initializing libbeef V0.1.2 with the BEEF-vdW functional.
     Citation: Wellendorff et al., PRB 85, 235149 (2012).
     **************************************************************************


     IMPORTANT: XC functional enforced from input :
     Exchange-correlation= BEEF-VDW
                           (   1   4  43  14   2   0   0)
     Any further DFT definition will be discarded
     Please, verify this is what you really want


     R & G space division:  proc/nbgrp/npool/nimage =      96
     Subspace diagonalization in iterative solution of the eigenvalue problem:
     one sub-group per band group will be used
     custom distributed-memory algorithm (size of sub-group:  2*  2 procs)


     Parallelization info
     --------------------
     sticks:   dense  smooth     PW     G-vecs:    dense   smooth      PW
     Min          43      28      7                 7829     4248     595
     Max          44      29      8                 7845     4281     630
     Sum        4153    2773    757               752179   409445   59217

     Using Slab Decomposition



     bravais-lattice index     =            0
     lattice parameter (alat)  =      14.1729  a.u.
     unit-cell volume          =    8574.3059 (a.u.)^3
     number of atoms/cell      =           39
     number of atomic types    =            4
     number of electrons       =       335.00
     number of Kohn-Sham states=          202
     kinetic-energy cutoff     =      50.0000  Ry
     charge density cutoff     =     300.0000  Ry
     scf convergence threshold =      1.0E-08
     mixing beta               =       0.7000
     number of iterations used =            8  local-TF  mixing
     Exchange-correlation= BEEF-VDW
                           (   1   4  43  14   2   0   0)

     celldm(1)=  14.172946  celldm(2)=   0.000000  celldm(3)=   0.000000
     celldm(4)=   0.000000  celldm(5)=   0.000000  celldm(6)=   0.000000

     crystal axes: (cart. coord. in units of alat)
               a(1) = (   1.000000   0.000000   0.000000 )  
               a(2) = (   0.500000   0.866025   0.000000 )  
               a(3) = (   0.000000   0.000000   3.477667 )  

     reciprocal axes: (cart. coord. in units 2 pi/alat)
               b(1) = (  1.000000 -0.577350  0.000000 )  
               b(2) = (  0.000000  1.154701  0.000000 )  
               b(3) = (  0.000000  0.000000  0.287549 )  


     PseudoPot. # 1 for Co read from file:
     /users/kbadger1/espresso/pseudo/pslibrary.1.0.0/pbe/PSEUDOPOTENTIALS/Co.pbe-n-kjpaw_psl.1.0.0.UPF
     MD5 check sum: 88af6ec42553d4236c267fdfcb472151
     Pseudo is Projector augmented-wave + core cor, Zval =  9.0
     Generated using 'atomic' code by A. Dal Corso  v.7.0
     Shape of augmentation charge: PSQ
     Using radial grid of 1193 points,  6 beta functions with: 
                l(1) =   0
                l(2) =   0
                l(3) =   1
                l(4) =   1
                l(5) =   2
                l(6) =   2
     Q(r) pseudized with 0 coefficients 


     PseudoPot. # 2 for C  read from file:
     /users/kbadger1/espresso/pseudo/pslibrary.1.0.0/pbe/PSEUDOPOTENTIALS/C.pbe-n-kjpaw_psl.1.0.0.UPF
     MD5 check sum: 6408e75cdba28732cea38a4db8498ce4
     Pseudo is Projector augmented-wave + core cor, Zval =  4.0
     Generated using 'atomic' code by A. Dal Corso  v.7.0
     Shape of augmentation charge: PSQ
     Using radial grid of 1073 points,  4 beta functions with: 
                l(1) =   0
                l(2) =   0
                l(3) =   1
                l(4) =   1
     Q(r) pseudized with 0 coefficients 


     PseudoPot. # 3 for O  read from file:
     /users/kbadger1/espresso/pseudo/pslibrary.1.0.0/pbe/PSEUDOPOTENTIALS/O.pbe-nl-kjpaw_psl.1.0.0.UPF
     MD5 check sum: f0439fab3598ca4e468f064226030408
     Pseudo is Projector augmented-wave + core cor, Zval =  6.0
     Generated using 'atomic' code by A. Dal Corso  v.7.0
     Shape of augmentation charge: PSQ
     Using radial grid of 1095 points,  4 beta functions with: 
                l(1) =   0
                l(2) =   0
                l(3) =   1
                l(4) =   1
     Q(r) pseudized with 0 coefficients 


     PseudoPot. # 4 for H  read from file:
     /users/kbadger1/espresso/pseudo/pslibrary.1.0.0/pbe/PSEUDOPOTENTIALS/H.pbe-kjpaw_psl.1.0.0.UPF
     MD5 check sum: fe4c6fa958fa6d3815bf5d2419cbf1df
     Pseudo is Projector augmented-wave, Zval =  1.0
     Generated using 'atomic' code by A. Dal Corso  v.7.0
     Shape of augmentation charge: PSQ
     Using radial grid of  929 points,  2 beta functions with: 
                l(1) =   0
                l(2) =   0
     Q(r) pseudized with 0 coefficients 


     atomic species   valence    mass     pseudopotential
        Co             9.00    58.93319     Co( 1.00)
        C              4.00    12.00000     C ( 1.00)
        O              6.00    15.99491     O ( 1.00)
        H              1.00     1.00783     H ( 1.00)

     Starting magnetic structure 
     atomic species   magnetization
        Co           1.000
        C            1.000
        O            0.000
        H            0.000

     No symmetry found



   Cartesian axes

     site n.     atom                  positions (alat units)
         1           Co  tau(   1) = (   0.0000000   0.1924501   1.3333333  )
         2           Co  tau(   2) = (   0.3333333   0.1924501   1.3333333  )
         3           Co  tau(   3) = (   0.6666667   0.1924501   1.3333333  )
         4           Co  tau(   4) = (   0.1666667   0.4811252   1.3333333  )
         5           Co  tau(   5) = (   0.5000000   0.4811252   1.3333333  )
         6           Co  tau(   6) = (   0.8333333   0.4811252   1.3333333  )
         7           Co  tau(   7) = (   0.3333333   0.7698004   1.3333333  )
         8           Co  tau(   8) = (   0.6666667   0.7698004   1.3333333  )
         9           Co  tau(   9) = (   1.0000000   0.7698004   1.3333333  )
        10           Co  tau(  10) = (   0.0000000   0.0000000   1.6036667  )
        11           Co  tau(  11) = (   0.3333333   0.0000000   1.6036667  )
        12           Co  tau(  12) = (   0.6666667   0.0000000   1.6036667  )
        13           Co  tau(  13) = (   0.1666667   0.2886751   1.6036667  )
        14           Co  tau(  14) = (   0.5000000   0.2886751   1.6036667  )
        15           Co  tau(  15) = (   0.8333333   0.2886751   1.6036667  )
        16           Co  tau(  16) = (   0.3333333   0.5773503   1.6036667  )
        17           Co  tau(  17) = (   0.6666667   0.5773503   1.6036667  )
        18           Co  tau(  18) = (   1.0000000   0.5773503   1.6036667  )
        19           Co  tau(  19) = (   0.0000000   0.1924501   1.8740000  )
        20           Co  tau(  20) = (   0.3333333   0.1924501   1.8740000  )
        21           Co  tau(  21) = (   0.6666667   0.1924501   1.8740000  )
        22           Co  tau(  22) = (   0.1666667   0.4811252   1.8740000  )
        23           Co  tau(  23) = (   0.5000000   0.4811252   1.8740000  )
        24           Co  tau(  24) = (   0.8333333   0.4811252   1.8740000  )
        25           Co  tau(  25) = (   0.3333333   0.7698004   1.8740000  )
        26           Co  tau(  26) = (   0.6666667   0.7698004   1.8740000  )
        27           Co  tau(  27) = (   1.0000000   0.7698004   1.8740000  )
        28           Co  tau(  28) = (   0.0000000   0.0000000   2.1443333  )
        29           Co  tau(  29) = (   0.3333333   0.0000000   2.1443333  )
        30           Co  tau(  30) = (   0.6666667   0.0000000   2.1443333  )
        31           Co  tau(  31) = (   0.1666667   0.2886751   2.1443333  )
        32           Co  tau(  32) = (   0.5000000   0.2886751   2.1443333  )
        33           Co  tau(  33) = (   0.8333333   0.2886751   2.1443333  )
        34           Co  tau(  34) = (   0.3333333   0.5773503   2.1443333  )
        35           Co  tau(  35) = (   0.6666667   0.5773503   2.1443333  )
        36           Co  tau(  36) = (   1.0000000   0.5773503   2.1443333  )
        37           C   tau(  37) = (   0.3984269   0.1756597   2.3436384  )
        38           O   tau(  38) = (   0.3285052   0.0919522   2.4650375  )
        39           H   tau(  39) = (   0.5025290   0.2910486   2.3836070  )

     number of k points=    13  Marzari-Vanderbilt smearing, width (Ry)=  0.0010
                       cart. coord. in units 2pi/alat
        k(    1) = (   0.0000000   0.0000000   0.0000000), wk =   0.0400000
        k(    2) = (   0.0000000   0.2309401   0.0000000), wk =   0.0800000
        k(    3) = (   0.0000000   0.4618802   0.0000000), wk =   0.0800000
        k(    4) = (   0.2000000  -0.1154701   0.0000000), wk =   0.0800000
        k(    5) = (   0.2000000   0.1154701   0.0000000), wk =   0.0800000
        k(    6) = (   0.2000000   0.3464102   0.0000000), wk =   0.0800000
        k(    7) = (   0.2000000  -0.5773503   0.0000000), wk =   0.0800000
        k(    8) = (   0.2000000  -0.3464102   0.0000000), wk =   0.0800000
        k(    9) = (   0.4000000  -0.2309401   0.0000000), wk =   0.0800000
        k(   10) = (   0.4000000   0.0000000   0.0000000), wk =   0.0800000
        k(   11) = (   0.4000000   0.2309401   0.0000000), wk =   0.0800000
        k(   12) = (   0.4000000  -0.6928203   0.0000000), wk =   0.0800000
        k(   13) = (   0.4000000  -0.4618802   0.0000000), wk =   0.0800000

     Dense  grid:   752179 G-vectors     FFT dimensions: (  80,  80, 288)

     Smooth grid:   409445 G-vectors     FFT dimensions: (  64,  64, 225)

     Estimated max dynamical RAM per process >      99.02 MB

     Estimated total dynamical RAM >       9.28 GB
     Generating pointlists ...
     new r_m :   0.0987 (alat units)  1.3990 (a.u.) for type    1
     new r_m :   0.0662 (alat units)  0.9381 (a.u.) for type    2
     new r_m :   0.0673 (alat units)  0.9541 (a.u.) for type    3
     new r_m :   0.0662 (alat units)  0.9381 (a.u.) for type    4

     Initial potential from superposition of free atoms

     starting charge     334.9897, renormalised to     335.0000

     negative rho (up, down):  3.044E-03 4.688E-04


     %%%%%%%%%%%%%%%%%%%%%%%%%%%%%%%%%%%%%%%%%%%%%%%%%%%%%%%%%%%%%%%%%%%%%%%%
     %                                                                      %
     % You are using vdW-DF, which was implemented by the Thonhauser group. %
     % Please cite the following two papers that made this development      %
     % possible and the two reviews that describe the various versions:     %
     %                                                                      %
     %   T. Thonhauser et al., PRL 115, 136402 (2015).                      %
     %   T. Thonhauser et al., PRB 76, 125112 (2007).                       %
     %   K. Berland et al., Rep. Prog. Phys. 78, 066501 (2015).             %
     %   D.C. Langreth et al., J. Phys.: Condens. Matter 21, 084203 (2009). %
     %                                                                      %
     % If you are calculating stress with vdW-DF, please also cite:         %
     %                                                                      %
     %   R. Sabatini et al., J. Phys.: Condens. Matter 24, 424209 (2012).   %
     %   C.M. Frostenson et al., Electr. Struct. 4, 014001 (2022).          %
     %                                                                      %
     %%%%%%%%%%%%%%%%%%%%%%%%%%%%%%%%%%%%%%%%%%%%%%%%%%%%%%%%%%%%%%%%%%%%%%%%

     %%%%%%%%%%%%%%%%%%%%%%%%%%%%%%%%%%%%%%%%%%%%%%%%%%%%%%%%%%%%%%%%%%%%%%%%
     %                                                                      %
     %  vdW-DF NEWS:                                                        %
     %                                                                      %
     %  * vdW-DF3 is now available. DOI: 10.1021/acs.jctc.0c00471           %
     %    use with input_dft = 'vdW-DF3-opt1' or 'vdW-DF3-opt2'             %
     %                                                                      %
     %  * Unscreened and range-separated hybrid vdW-DF-cx functionals       %
     %    DOI: 10.1063/1.4986522 and 10.1088/1361-648X/ac2ad2               %
     %    use with input_dft = 'vdW-DF-cx0'    and 'vdW-DF-ahcx'            %
     %  * Unscreened and range-separated hybrid vdW-DF2-b86r functionals    %
     %    DOI: 10.1063/1.4986522 and DOI: 10.1103/PhysRevX.12.041003        %
     %    use with input_dft = 'vdW-DF2-br0' and 'vdW-DF2-ahbr'             %
     %                                                                      %
     %%%%%%%%%%%%%%%%%%%%%%%%%%%%%%%%%%%%%%%%%%%%%%%%%%%%%%%%%%%%%%%%%%%%%%%%


     Starting wfcs are  333 randomized atomic wfcs
     Checking if some PAW data can be deallocated... 

     total cpu time spent up to now is       17.1 secs

     per-process dynamical memory:   233.7 Mb

     Self-consistent Calculation

     iteration #  1     ecut=    50.00 Ry     beta= 0.70
     Davidson diagonalization with overlap
     ethr =  1.00E-02,  avg # of iterations =  2.0

     negative rho (up, down):  2.706E-05 5.557E-08

     total cpu time spent up to now is       34.5 secs

     total energy              =   -6053.07195351 Ry
     estimated scf accuracy    <      39.63044054 Ry

     total magnetization       =    69.00 Bohr mag/cell
     absolute magnetization    =    81.32 Bohr mag/cell

     iteration #  2     ecut=    50.00 Ry     beta= 0.70
     Davidson diagonalization with overlap
     ethr =  1.00E-02,  avg # of iterations =  1.0

     negative rho (up, down):  3.364E-06 1.684E-08

     total cpu time spent up to now is       52.9 secs

     total energy              =   -6052.55157706 Ry
     estimated scf accuracy    <      24.44309273 Ry

     total magnetization       =    68.52 Bohr mag/cell
     absolute magnetization    =    76.70 Bohr mag/cell

     iteration #  3     ecut=    50.00 Ry     beta= 0.70
     Davidson diagonalization with overlap
     ethr =  7.30E-03,  avg # of iterations =  1.0

     negative rho (up, down):  1.978E-08 0.000E+00

     total cpu time spent up to now is       70.5 secs

     total energy              =   -6055.10867774 Ry
     estimated scf accuracy    <      87.14601494 Ry

     total magnetization       =    65.69 Bohr mag/cell
     absolute magnetization    =    73.07 Bohr mag/cell

     iteration #  4     ecut=    50.00 Ry     beta= 0.70
     Davidson diagonalization with overlap
     ethr =  7.30E-03,  avg # of iterations =  1.0

     total cpu time spent up to now is       84.4 secs

     total energy              =   -6056.33860993 Ry
     estimated scf accuracy    <       5.66530670 Ry

     total magnetization       =    60.39 Bohr mag/cell
     absolute magnetization    =    70.41 Bohr mag/cell

     iteration #  5     ecut=    50.00 Ry     beta= 0.70
     Davidson diagonalization with overlap
     ethr =  1.69E-03,  avg # of iterations =  1.4

     total cpu time spent up to now is      102.6 secs

     total energy              =   -6056.34564001 Ry
     estimated scf accuracy    <       2.54730032 Ry

     total magnetization       =    60.23 Bohr mag/cell
     absolute magnetization    =    69.72 Bohr mag/cell

     iteration #  6     ecut=    50.00 Ry     beta= 0.70
     Davidson diagonalization with overlap
     ethr =  7.60E-04,  avg # of iterations =  1.6

     total cpu time spent up to now is      117.4 secs

     total energy              =   -6056.46941474 Ry
     estimated scf accuracy    <       0.61281562 Ry

     total magnetization       =    60.20 Bohr mag/cell
     absolute magnetization    =    69.51 Bohr mag/cell

     iteration #  7     ecut=    50.00 Ry     beta= 0.70
     Davidson diagonalization with overlap
     ethr =  1.83E-04,  avg # of iterations =  5.6

     total cpu time spent up to now is      140.9 secs

     total energy              =   -6056.50595855 Ry
     estimated scf accuracy    <       0.88831628 Ry

     total magnetization       =    60.20 Bohr mag/cell
     absolute magnetization    =    69.13 Bohr mag/cell

     iteration #  8     ecut=    50.00 Ry     beta= 0.70
     Davidson diagonalization with overlap
     ethr =  1.83E-04,  avg # of iterations =  1.7

     total cpu time spent up to now is      154.6 secs

     total energy              =   -6056.52068200 Ry
     estimated scf accuracy    <       0.13793954 Ry

     total magnetization       =    60.43 Bohr mag/cell
     absolute magnetization    =    69.12 Bohr mag/cell

     iteration #  9     ecut=    50.00 Ry     beta= 0.70
     Davidson diagonalization with overlap
     c_bands:  3 eigenvalues not converged
     c_bands:  1 eigenvalues not converged
     c_bands:  4 eigenvalues not converged
     c_bands:  2 eigenvalues not converged
     ethr =  4.12E-05,  avg # of iterations = 13.2

     total cpu time spent up to now is      193.5 secs

     total energy              =   -6056.53775321 Ry
     estimated scf accuracy    <       0.21695241 Ry

     total magnetization       =    61.11 Bohr mag/cell
     absolute magnetization    =    69.10 Bohr mag/cell

     iteration # 10     ecut=    50.00 Ry     beta= 0.70
     Davidson diagonalization with overlap
     ethr =  4.12E-05,  avg # of iterations =  1.7

     total cpu time spent up to now is      207.5 secs

     total energy              =   -6056.54434108 Ry
     estimated scf accuracy    <       0.20255788 Ry

     total magnetization       =    61.20 Bohr mag/cell
     absolute magnetization    =    69.02 Bohr mag/cell

     iteration # 11     ecut=    50.00 Ry     beta= 0.70
     Davidson diagonalization with overlap
     ethr =  4.12E-05,  avg # of iterations =  1.0

     total cpu time spent up to now is      224.9 secs

     total energy              =   -6056.53180934 Ry
     estimated scf accuracy    <       0.11884402 Ry

     total magnetization       =    61.12 Bohr mag/cell
     absolute magnetization    =    68.88 Bohr mag/cell

     iteration # 12     ecut=    50.00 Ry     beta= 0.70
     Davidson diagonalization with overlap
     ethr =  3.55E-05,  avg # of iterations =  1.9

     total cpu time spent up to now is      240.5 secs

     total energy              =   -6056.53567829 Ry
     estimated scf accuracy    <       0.08508936 Ry

     total magnetization       =    61.09 Bohr mag/cell
     absolute magnetization    =    68.64 Bohr mag/cell

     iteration # 13     ecut=    50.00 Ry     beta= 0.70
     Davidson diagonalization with overlap
     ethr =  2.54E-05,  avg # of iterations =  1.2

     total cpu time spent up to now is      258.3 secs

     total energy              =   -6056.53439732 Ry
     estimated scf accuracy    <       0.08842246 Ry

     total magnetization       =    61.10 Bohr mag/cell
     absolute magnetization    =    68.58 Bohr mag/cell

     iteration # 14     ecut=    50.00 Ry     beta= 0.70
     Davidson diagonalization with overlap
     ethr =  2.54E-05,  avg # of iterations =  1.3

     total cpu time spent up to now is      271.5 secs

     total energy              =   -6056.53169077 Ry
     estimated scf accuracy    <       0.07936200 Ry

     total magnetization       =    61.11 Bohr mag/cell
     absolute magnetization    =    68.61 Bohr mag/cell

     iteration # 15     ecut=    50.00 Ry     beta= 0.70
     Davidson diagonalization with overlap
     ethr =  2.37E-05,  avg # of iterations =  1.2

     negative rho (up, down):  2.877E-04 1.140E-04

     total cpu time spent up to now is      289.6 secs

     total energy              =   -6056.52753292 Ry
     estimated scf accuracy    <       0.13073074 Ry

     total magnetization       =    61.10 Bohr mag/cell
     absolute magnetization    =    68.61 Bohr mag/cell

     iteration # 16     ecut=    50.00 Ry     beta= 0.70
     Davidson diagonalization with overlap
     ethr =  2.37E-05,  avg # of iterations =  1.4

     negative rho (up, down):  1.046E-02 9.358E-03

     total cpu time spent up to now is      304.4 secs

     total energy              =   -6056.52416985 Ry
     estimated scf accuracy    <       0.09819103 Ry

     total magnetization       =    61.10 Bohr mag/cell
     absolute magnetization    =    68.55 Bohr mag/cell

     iteration # 17     ecut=    50.00 Ry     beta= 0.70
     Davidson diagonalization with overlap
     ethr =  2.37E-05,  avg # of iterations =  1.3

     negative rho (up, down):  2.277E-02 2.124E-02

     total cpu time spent up to now is      322.4 secs

     total energy              =   -6056.52416053 Ry
     estimated scf accuracy    <       0.03371003 Ry

     total magnetization       =    61.15 Bohr mag/cell
     absolute magnetization    =    68.57 Bohr mag/cell

     iteration # 18     ecut=    50.00 Ry     beta= 0.70
     Davidson diagonalization with overlap
     c_bands:  2 eigenvalues not converged
     ethr =  1.01E-05,  avg # of iterations =  4.2

     negative rho (up, down):  1.106E-02 9.861E-03

     total cpu time spent up to now is      343.3 secs

     total energy              =   -6056.52329850 Ry
     estimated scf accuracy    <       0.04967759 Ry

     total magnetization       =    61.16 Bohr mag/cell
     absolute magnetization    =    68.53 Bohr mag/cell

     iteration # 19     ecut=    50.00 Ry     beta= 0.70
     Davidson diagonalization with overlap
     ethr =  1.01E-05,  avg # of iterations =  1.2

     negative rho (up, down):  1.442E-02 1.314E-02

     total cpu time spent up to now is      357.4 secs

     total energy              =   -6056.52334709 Ry
     estimated scf accuracy    <       0.03001860 Ry

     total magnetization       =    61.14 Bohr mag/cell
     absolute magnetization    =    68.55 Bohr mag/cell

     iteration # 20     ecut=    50.00 Ry     beta= 0.70
     Davidson diagonalization with overlap
     ethr =  8.96E-06,  avg # of iterations =  1.0

     negative rho (up, down):  1.617E-02 1.498E-02

     total cpu time spent up to now is      375.2 secs

     total energy              =   -6056.52208371 Ry
     estimated scf accuracy    <       0.01273289 Ry

     total magnetization       =    61.16 Bohr mag/cell
     absolute magnetization    =    68.56 Bohr mag/cell

     iteration # 21     ecut=    50.00 Ry     beta= 0.70
     Davidson diagonalization with overlap
     c_bands:  1 eigenvalues not converged
     ethr =  3.80E-06,  avg # of iterations =  2.6

     negative rho (up, down):  1.184E-02 1.077E-02

     total cpu time spent up to now is      389.9 secs

     total energy              =   -6056.52154918 Ry
     estimated scf accuracy    <       0.01684312 Ry

     total magnetization       =    61.13 Bohr mag/cell
     absolute magnetization    =    68.56 Bohr mag/cell

     iteration # 22     ecut=    50.00 Ry     beta= 0.70
     Davidson diagonalization with overlap
     ethr =  3.80E-06,  avg # of iterations =  1.2

     negative rho (up, down):  1.319E-02 1.236E-02

     total cpu time spent up to now is      407.9 secs

     total energy              =   -6056.52084789 Ry
     estimated scf accuracy    <       0.00970572 Ry

     total magnetization       =    61.17 Bohr mag/cell
     absolute magnetization    =    68.59 Bohr mag/cell

     iteration # 23     ecut=    50.00 Ry     beta= 0.70
     Davidson diagonalization with overlap
     c_bands:  1 eigenvalues not converged
     ethr =  2.90E-06,  avg # of iterations =  2.2

     negative rho (up, down):  1.745E-02 1.671E-02

     total cpu time spent up to now is      423.4 secs

     total energy              =   -6056.52091870 Ry
     estimated scf accuracy    <       0.00865141 Ry

     total magnetization       =    61.18 Bohr mag/cell
     absolute magnetization    =    68.61 Bohr mag/cell

     iteration # 24     ecut=    50.00 Ry     beta= 0.70
     Davidson diagonalization with overlap
     ethr =  2.58E-06,  avg # of iterations =  1.4

     negative rho (up, down):  1.150E-02 1.081E-02

     total cpu time spent up to now is      441.5 secs

     total energy              =   -6056.52095901 Ry
     estimated scf accuracy    <       0.00201104 Ry

     total magnetization       =    61.17 Bohr mag/cell
     absolute magnetization    =    68.61 Bohr mag/cell

     iteration # 25     ecut=    50.00 Ry     beta= 0.70
     Davidson diagonalization with overlap
     ethr =  6.00E-07,  avg # of iterations =  3.1

     negative rho (up, down):  7.450E-03 6.794E-03

     total cpu time spent up to now is      461.3 secs

     total energy              =   -6056.52070390 Ry
     estimated scf accuracy    <       0.00299977 Ry

     total magnetization       =    61.17 Bohr mag/cell
     absolute magnetization    =    68.61 Bohr mag/cell

     iteration # 26     ecut=    50.00 Ry     beta= 0.70
     Davidson diagonalization with overlap
     ethr =  6.00E-07,  avg # of iterations =  1.6

     negative rho (up, down):  7.661E-03 7.053E-03

     total cpu time spent up to now is      475.1 secs

     total energy              =   -6056.52119109 Ry
     estimated scf accuracy    <       0.00209170 Ry

     total magnetization       =    61.18 Bohr mag/cell
     absolute magnetization    =    68.62 Bohr mag/cell

     iteration # 27     ecut=    50.00 Ry     beta= 0.70
     Davidson diagonalization with overlap
     ethr =  6.00E-07,  avg # of iterations =  1.4

     negative rho (up, down):  5.354E-03 4.648E-03

     total cpu time spent up to now is      494.7 secs

     total energy              =   -6056.52120577 Ry
     estimated scf accuracy    <       0.00030729 Ry

     total magnetization       =    61.18 Bohr mag/cell
     absolute magnetization    =    68.63 Bohr mag/cell

     iteration # 28     ecut=    50.00 Ry     beta= 0.70
     Davidson diagonalization with overlap
     ethr =  9.17E-08,  avg # of iterations =  3.5

     negative rho (up, down):  4.345E-03 3.518E-03

     total cpu time spent up to now is      510.5 secs

     total energy              =   -6056.52123033 Ry
     estimated scf accuracy    <       0.00043987 Ry

     total magnetization       =    61.18 Bohr mag/cell
     absolute magnetization    =    68.62 Bohr mag/cell

     iteration # 29     ecut=    50.00 Ry     beta= 0.70
     Davidson diagonalization with overlap
     ethr =  9.17E-08,  avg # of iterations =  1.6

     negative rho (up, down):  3.807E-03 2.825E-03

     total cpu time spent up to now is      529.1 secs

     total energy              =   -6056.52126249 Ry
     estimated scf accuracy    <       0.00015093 Ry

     total magnetization       =    61.18 Bohr mag/cell
     absolute magnetization    =    68.63 Bohr mag/cell

     iteration # 30     ecut=    50.00 Ry     beta= 0.70
     Davidson diagonalization with overlap
     ethr =  4.51E-08,  avg # of iterations =  2.9

     negative rho (up, down):  3.331E-03 2.309E-03

     total cpu time spent up to now is      546.3 secs

     total energy              =   -6056.52125080 Ry
     estimated scf accuracy    <       0.00055799 Ry

     total magnetization       =    61.18 Bohr mag/cell
     absolute magnetization    =    68.63 Bohr mag/cell

     iteration # 31     ecut=    50.00 Ry     beta= 0.70
     Davidson diagonalization with overlap
     ethr =  4.51E-08,  avg # of iterations =  1.2

     negative rho (up, down):  3.469E-03 2.500E-03

     total cpu time spent up to now is      563.9 secs

     total energy              =   -6056.52125788 Ry
     estimated scf accuracy    <       0.00006373 Ry

     total magnetization       =    61.18 Bohr mag/cell
     absolute magnetization    =    68.63 Bohr mag/cell

     iteration # 32     ecut=    50.00 Ry     beta= 0.70
     Davidson diagonalization with overlap
     ethr =  1.90E-08,  avg # of iterations =  2.1

     negative rho (up, down):  2.886E-03 1.783E-03

     total cpu time spent up to now is      582.9 secs

     total energy              =   -6056.52126968 Ry
     estimated scf accuracy    <       0.00005583 Ry

     total magnetization       =    61.18 Bohr mag/cell
     absolute magnetization    =    68.63 Bohr mag/cell

     iteration # 33     ecut=    50.00 Ry     beta= 0.70
     Davidson diagonalization with overlap
     ethr =  1.67E-08,  avg # of iterations =  1.8

     negative rho (up, down):  3.014E-03 1.924E-03

     total cpu time spent up to now is      597.7 secs

     total energy              =   -6056.52127796 Ry
     estimated scf accuracy    <       0.00008077 Ry

     total magnetization       =    61.18 Bohr mag/cell
     absolute magnetization    =    68.63 Bohr mag/cell

     iteration # 34     ecut=    50.00 Ry     beta= 0.70
     Davidson diagonalization with overlap
     ethr =  1.67E-08,  avg # of iterations =  1.8

     negative rho (up, down):  2.711E-03 1.644E-03

     total cpu time spent up to now is      617.8 secs

     total energy              =   -6056.52127968 Ry
     estimated scf accuracy    <       0.00003642 Ry

     total magnetization       =    61.18 Bohr mag/cell
     absolute magnetization    =    68.62 Bohr mag/cell

     iteration # 35     ecut=    50.00 Ry     beta= 0.70
     Davidson diagonalization with overlap
     ethr =  1.09E-08,  avg # of iterations =  2.9

     negative rho (up, down):  2.819E-03 1.762E-03

     total cpu time spent up to now is      633.1 secs

     total energy              =   -6056.52128079 Ry
     estimated scf accuracy    <       0.00002803 Ry

     total magnetization       =    61.17 Bohr mag/cell
     absolute magnetization    =    68.62 Bohr mag/cell

     iteration # 36     ecut=    50.00 Ry     beta= 0.70
     Davidson diagonalization with overlap
     ethr =  8.37E-09,  avg # of iterations =  1.4

     negative rho (up, down):  2.779E-03 1.816E-03

     total cpu time spent up to now is      651.3 secs

     total energy              =   -6056.52128192 Ry
     estimated scf accuracy    <       0.00001881 Ry

     total magnetization       =    61.17 Bohr mag/cell
     absolute magnetization    =    68.62 Bohr mag/cell

     iteration # 37     ecut=    50.00 Ry     beta= 0.70
     Davidson diagonalization with overlap
     ethr =  5.62E-09,  avg # of iterations =  2.9

     negative rho (up, down):  2.662E-03 1.587E-03

     total cpu time spent up to now is      672.3 secs

     total energy              =   -6056.52128113 Ry
     estimated scf accuracy    <       0.00001586 Ry

     total magnetization       =    61.17 Bohr mag/cell
     absolute magnetization    =    68.62 Bohr mag/cell

     iteration # 38     ecut=    50.00 Ry     beta= 0.70
     Davidson diagonalization with overlap
     ethr =  4.73E-09,  avg # of iterations =  1.7

     negative rho (up, down):  2.588E-03 1.531E-03

     total cpu time spent up to now is      686.5 secs

     total energy              =   -6056.52128122 Ry
     estimated scf accuracy    <       0.00000576 Ry

     total magnetization       =    61.17 Bohr mag/cell
     absolute magnetization    =    68.62 Bohr mag/cell

     iteration # 39     ecut=    50.00 Ry     beta= 0.70
     Davidson diagonalization with overlap
     ethr =  1.72E-09,  avg # of iterations =  3.8

     negative rho (up, down):  2.535E-03 1.459E-03

     total cpu time spent up to now is      707.0 secs

     total energy              =   -6056.52128138 Ry
     estimated scf accuracy    <       0.00000220 Ry

     total magnetization       =    61.17 Bohr mag/cell
     absolute magnetization    =    68.62 Bohr mag/cell

     iteration # 40     ecut=    50.00 Ry     beta= 0.70
     Davidson diagonalization with overlap
     ethr =  6.56E-10,  avg # of iterations =  6.2

     negative rho (up, down):  2.404E-03 1.321E-03

     total cpu time spent up to now is      731.8 secs

     total energy              =   -6056.52128120 Ry
     estimated scf accuracy    <       0.00000709 Ry

     total magnetization       =    61.17 Bohr mag/cell
     absolute magnetization    =    68.62 Bohr mag/cell

     iteration # 41     ecut=    50.00 Ry     beta= 0.70
     Davidson diagonalization with overlap
     ethr =  6.56E-10,  avg # of iterations =  2.0

     negative rho (up, down):  2.349E-03 1.260E-03

     total cpu time spent up to now is      746.5 secs

     total energy              =   -6056.52128154 Ry
     estimated scf accuracy    <       0.00000174 Ry

     total magnetization       =    61.17 Bohr mag/cell
     absolute magnetization    =    68.62 Bohr mag/cell

     iteration # 42     ecut=    50.00 Ry     beta= 0.70
     Davidson diagonalization with overlap
     ethr =  5.21E-10,  avg # of iterations =  1.5

     negative rho (up, down):  2.316E-03 1.225E-03

     total cpu time spent up to now is      765.4 secs

     total energy              =   -6056.52128157 Ry
     estimated scf accuracy    <       0.00000112 Ry

     total magnetization       =    61.17 Bohr mag/cell
     absolute magnetization    =    68.62 Bohr mag/cell

     iteration # 43     ecut=    50.00 Ry     beta= 0.70
     Davidson diagonalization with overlap
     ethr =  3.36E-10,  avg # of iterations =  1.8

     negative rho (up, down):  2.258E-03 1.160E-03

     total cpu time spent up to now is      779.6 secs

     total energy              =   -6056.52128155 Ry
     estimated scf accuracy    <       0.00000073 Ry

     total magnetization       =    61.17 Bohr mag/cell
     absolute magnetization    =    68.62 Bohr mag/cell

     iteration # 44     ecut=    50.00 Ry     beta= 0.70
     Davidson diagonalization with overlap
     ethr =  2.18E-10,  avg # of iterations =  2.8

     negative rho (up, down):  2.257E-03 1.160E-03

     total cpu time spent up to now is      800.9 secs

     total energy              =   -6056.52128158 Ry
     estimated scf accuracy    <       0.00000042 Ry

     total magnetization       =    61.17 Bohr mag/cell
     absolute magnetization    =    68.62 Bohr mag/cell

     iteration # 45     ecut=    50.00 Ry     beta= 0.70
     Davidson diagonalization with overlap
     ethr =  1.25E-10,  avg # of iterations =  3.4

     negative rho (up, down):  2.266E-03 1.170E-03

     total cpu time spent up to now is      821.2 secs

     total energy              =   -6056.52128164 Ry
     estimated scf accuracy    <       0.00000011 Ry

     total magnetization       =    61.17 Bohr mag/cell
     absolute magnetization    =    68.62 Bohr mag/cell

     iteration # 46     ecut=    50.00 Ry     beta= 0.70
     Davidson diagonalization with overlap
     ethr =  3.22E-11,  avg # of iterations =  7.0

     negative rho (up, down):  2.241E-03 1.144E-03

     total cpu time spent up to now is      842.2 secs

     total energy              =   -6056.52128161 Ry
     estimated scf accuracy    <       0.00000030 Ry

     total magnetization       =    61.17 Bohr mag/cell
     absolute magnetization    =    68.62 Bohr mag/cell

     iteration # 47     ecut=    50.00 Ry     beta= 0.70
     Davidson diagonalization with overlap
     ethr =  3.22E-11,  avg # of iterations =  1.3

     negative rho (up, down):  2.233E-03 1.137E-03

     total cpu time spent up to now is      861.0 secs

     total energy              =   -6056.52128159 Ry
     estimated scf accuracy    <       0.00000011 Ry

     total magnetization       =    61.17 Bohr mag/cell
     absolute magnetization    =    68.62 Bohr mag/cell

     iteration # 48     ecut=    50.00 Ry     beta= 0.70
     Davidson diagonalization with overlap
     ethr =  3.22E-11,  avg # of iterations =  1.1

     negative rho (up, down):  2.220E-03 1.123E-03

     total cpu time spent up to now is      874.1 secs

     total energy              =   -6056.52128156 Ry
     estimated scf accuracy    <       0.00000005 Ry

     total magnetization       =    61.17 Bohr mag/cell
     absolute magnetization    =    68.62 Bohr mag/cell

     iteration # 49     ecut=    50.00 Ry     beta= 0.70
     Davidson diagonalization with overlap
     ethr =  1.42E-11,  avg # of iterations =  1.6

     negative rho (up, down):  2.220E-03 1.124E-03

     total cpu time spent up to now is      892.8 secs

     total energy              =   -6056.52128158 Ry
     estimated scf accuracy    <       0.00000002 Ry

     total magnetization       =    61.17 Bohr mag/cell
     absolute magnetization    =    68.62 Bohr mag/cell

     iteration # 50     ecut=    50.00 Ry     beta= 0.70
     Davidson diagonalization with overlap
     ethr =  5.41E-12,  avg # of iterations =  3.2

     negative rho (up, down):  2.219E-03 1.123E-03

     total cpu time spent up to now is      913.4 secs

     total energy              =   -6056.52128158 Ry
     estimated scf accuracy    <       0.00000002 Ry

     total magnetization       =    61.17 Bohr mag/cell
     absolute magnetization    =    68.62 Bohr mag/cell

     iteration # 51     ecut=    50.00 Ry     beta= 0.70
     Davidson diagonalization with overlap
     ethr =  5.41E-12,  avg # of iterations =  1.4

     negative rho (up, down):  2.232E-03 1.137E-03

     Magnetic moment per site  (integrated on atomic sphere of radius R)
     atom   1 (R=0.099)  charge=  6.0587  magn=  1.7385
     atom   2 (R=0.099)  charge=  6.0599  magn=  1.7300
     atom   3 (R=0.099)  charge=  6.0592  magn=  1.7325
     atom   4 (R=0.099)  charge=  6.0592  magn=  1.7360
     atom   5 (R=0.099)  charge=  6.0592  magn=  1.7334
     atom   6 (R=0.099)  charge=  6.0589  magn=  1.7403
     atom   7 (R=0.099)  charge=  6.0589  magn=  1.7418
     atom   8 (R=0.099)  charge=  6.0590  magn=  1.7358
     atom   9 (R=0.099)  charge=  6.0592  magn=  1.7350
     atom  10 (R=0.099)  charge=  6.0635  magn=  1.6613
     atom  11 (R=0.099)  charge=  6.0623  magn=  1.6624
     atom  12 (R=0.099)  charge=  6.0618  magn=  1.6671
     atom  13 (R=0.099)  charge=  6.0619  magn=  1.6641
     atom  14 (R=0.099)  charge=  6.0616  magn=  1.6660
     atom  15 (R=0.099)  charge=  6.0619  magn=  1.6685
     atom  16 (R=0.099)  charge=  6.0621  magn=  1.6626
     atom  17 (R=0.099)  charge=  6.0622  magn=  1.6690
     atom  18 (R=0.099)  charge=  6.0608  magn=  1.6678
     atom  19 (R=0.099)  charge=  6.0613  magn=  1.6769
     atom  20 (R=0.099)  charge=  6.0579  magn=  1.6835
     atom  21 (R=0.099)  charge=  6.0598  magn=  1.6655
     atom  22 (R=0.099)  charge=  6.0602  magn=  1.6803
     atom  23 (R=0.099)  charge=  6.0594  magn=  1.6614
     atom  24 (R=0.099)  charge=  6.0600  magn=  1.6733
     atom  25 (R=0.099)  charge=  6.0617  magn=  1.6777
     atom  26 (R=0.099)  charge=  6.0601  magn=  1.6747
     atom  27 (R=0.099)  charge=  6.0602  magn=  1.6774
     atom  28 (R=0.099)  charge=  6.0603  magn=  1.7420
     atom  29 (R=0.099)  charge=  6.0773  magn=  1.4776
     atom  30 (R=0.099)  charge=  6.0633  magn=  1.7369
     atom  31 (R=0.099)  charge=  6.0677  magn=  1.6742
     atom  32 (R=0.099)  charge=  6.0873  magn=  1.1567
     atom  33 (R=0.099)  charge=  6.0600  magn=  1.7375
     atom  34 (R=0.099)  charge=  6.0607  magn=  1.7466
     atom  35 (R=0.099)  charge=  6.0609  magn=  1.7227
     atom  36 (R=0.099)  charge=  6.0585  magn=  1.7447
     atom  37 (R=0.066)  charge=  1.0734  magn= -0.0163
     atom  38 (R=0.067)  charge=  3.0509  magn= -0.0014
     atom  39 (R=0.066)  charge=  0.5307  magn=  0.0064

     total cpu time spent up to now is      926.9 secs

     End of self-consistent calculation

 ------ SPIN UP ------------


          k = 0.0000 0.0000 0.0000 ( 51087 PWs)   bands (ev):

   -21.8241 -10.7530  -7.5610  -6.9535  -6.3237  -5.7850  -5.3954  -4.7101
    -4.6783  -4.6771  -4.6753  -4.6636  -4.6579  -4.6240  -4.3200  -4.1469
    -4.1447  -4.1426  -4.1227  -4.1168  -4.0822  -3.6300  -3.6271  -3.6246
    -3.6179  -3.6099  -3.5762  -3.5067  -3.4963  -3.4948  -3.4914  -3.4892
    -3.4605  -3.4258  -3.4238  -3.1159  -3.1107  -3.1059  -3.1054  -3.0931
    -3.0491  -3.0433  -3.0377  -3.0356  -3.0328  -3.0303  -3.0253  -2.8778
    -2.8772  -2.8526  -2.8186  -2.8075  -2.8018  -2.7994  -2.7927  -2.7778
    -2.7701  -2.7663  -2.7643  -2.6787  -2.6702  -2.6649  -2.6596  -2.6547
    -2.6204  -2.4142  -2.1379  -2.1345  -2.1281  -2.1197  -2.1144  -2.0237
    -2.0081  -1.9937  -1.9785  -1.9686  -1.9625  -1.9546  -1.9531  -1.9478
    -1.9278  -1.8946  -1.8918  -1.8472  -1.8400  -1.8368  -1.8220  -1.8134
    -1.8113  -1.8043  -1.7996  -1.7987  -1.7910  -1.7721  -1.7690  -1.7658
    -1.7605  -1.7588  -1.7582  -1.7571  -1.7536  -1.7505  -1.7470  -1.7465
    -1.7420  -1.7149  -1.6965  -1.6723  -1.6661  -1.5950  -1.5915  -1.5386
    -1.3801  -1.3087  -1.2983  -1.2969  -1.2959  -1.2938  -1.2895  -1.2721
    -1.2638  -1.2618  -1.2298  -1.2213  -1.2069  -1.1938  -1.0901  -1.0868
    -1.0556  -1.0522  -0.9551  -0.9037  -0.8887  -0.8810  -0.8757  -0.8630
    -0.8157  -0.8079  -0.8026  -0.7997  -0.7960  -0.7789  -0.6900  -0.6852
    -0.5860  -0.5603  -0.5583  -0.5575  -0.5389  -0.5250  -0.4998  -0.4970
    -0.4930  -0.4918  -0.4861  -0.4804  -0.4758  -0.4746  -0.4736  -0.4692
    -0.4651  -0.4613  -0.4449  -0.4343  -0.4233  -0.4121  -0.4109  -0.4055
    -0.3982  -0.3871  -0.3704  -0.3686  -0.3623  -0.3521  -0.3382  -0.3353
    -0.3327  -0.3220  -0.3193  -0.3040  -0.2870  -0.2676  -0.2620  -0.2575
    -0.2529  -0.2509  -0.2465  -0.2401  -0.2324  -0.2271  -0.1810  -0.1789
    -0.1651  -0.1639  -0.1019  -0.0992  -0.0960  -0.0874  -0.0849  -0.0697
     0.3451   1.0896

          k = 0.0000 0.2309 0.0000 ( 51134 PWs)   bands (ev):

   -21.8241 -10.7518  -7.4181  -6.9436  -6.2385  -5.7550  -5.4590  -5.3382
    -4.9218  -4.9149  -4.5620  -4.4287  -4.3377  -4.3332  -4.2700  -4.2259
    -4.1765  -4.1424  -4.0737  -4.0177  -4.0022  -3.7520  -3.6388  -3.6288
    -3.5533  -3.5324  -3.5103  -3.5081  -3.5043  -3.4970  -3.4783  -3.4584
    -3.4345  -3.3908  -3.3811  -3.3522  -3.3505  -3.1648  -3.1294  -3.1233
    -3.0949  -3.0675  -3.0645  -3.0571  -2.9882  -2.9734  -2.9364  -2.9112
    -2.8997  -2.8932  -2.8748  -2.8610  -2.7771  -2.7619  -2.7401  -2.7084
    -2.6958  -2.6731  -2.6584  -2.6398  -2.6328  -2.6113  -2.5902  -2.5886
    -2.5315  -2.4180  -2.2544  -2.2409  -2.2154  -2.2023  -2.1629  -2.1034
    -2.0946  -2.0868  -2.0782  -2.0671  -2.0597  -2.0380  -2.0138  -1.9821
    -1.9553  -1.9523  -1.9339  -1.8922  -1.8880  -1.8861  -1.8798  -1.8576
    -1.8542  -1.8465  -1.8437  -1.8382  -1.8352  -1.8133  -1.7633  -1.7515
    -1.7405  -1.7149  -1.6840  -1.6633  -1.6558  -1.6520  -1.6378  -1.6321
    -1.6243  -1.6095  -1.6024  -1.5980  -1.5895  -1.5767  -1.5511  -1.5465
    -1.5376  -1.5247  -1.5068  -1.4665  -1.4361  -1.4013  -1.3261  -1.3232
    -1.3147  -1.3095  -1.2971  -1.2948  -1.2923  -1.2848  -1.1839  -1.1560
    -1.1319  -1.1111  -1.0383  -1.0343  -1.0124  -0.9716  -0.9442  -0.9355
    -0.8736  -0.8674  -0.8407  -0.8204  -0.8039  -0.7927  -0.7569  -0.7517
    -0.7356  -0.7161  -0.7035  -0.6667  -0.6644  -0.6496  -0.6443  -0.6345
    -0.6081  -0.5665  -0.5592  -0.5576  -0.5327  -0.5148  -0.4972  -0.4940
    -0.4874  -0.4804  -0.4753  -0.4644  -0.4453  -0.4348  -0.4279  -0.4100
    -0.3666  -0.3576  -0.3348  -0.3279  -0.3028  -0.2998  -0.2661  -0.2467
    -0.2407  -0.2337  -0.2289  -0.2162  -0.1993  -0.1942  -0.1826  -0.1553
    -0.1427  -0.1003  -0.0951  -0.0901  -0.0667  -0.0648  -0.0216  -0.0183
    -0.0046   0.0369   0.2497   0.2807   0.3544   0.4537   0.5274   0.5774
     0.6056   0.7741

          k = 0.0000 0.4619 0.0000 ( 51204 PWs)   bands (ev):

   -21.8241 -10.7498  -7.0691  -6.8599  -6.2869  -6.0489  -5.5650  -5.3590
    -5.0635  -5.0457  -4.9493  -4.2374  -4.1752  -4.1673  -4.1282  -4.0991
    -3.9796  -3.9762  -3.9406  -3.8488  -3.8455  -3.8391  -3.7479  -3.6695
    -3.6622  -3.6503  -3.6477  -3.6030  -3.5503  -3.5411  -3.5333  -3.3819
    -3.3776  -3.3654  -3.3521  -3.3317  -3.3264  -3.2305  -3.2192  -3.2124
    -3.2107  -3.2024  -3.0905  -3.0305  -2.9897  -2.9281  -2.8958  -2.8800
    -2.8599  -2.8394  -2.8149  -2.8124  -2.8053  -2.7798  -2.7260  -2.7170
    -2.6947  -2.6552  -2.6495  -2.5476  -2.5054  -2.5001  -2.4894  -2.4467
    -2.3982  -2.3807  -2.3706  -2.3554  -2.3164  -2.2629  -2.2260  -2.2207
    -2.2138  -2.2098  -2.1825  -2.1815  -2.1694  -2.1637  -2.1380  -2.1004
    -2.0816  -2.0630  -2.0481  -2.0204  -2.0016  -1.9857  -1.9440  -1.9028
    -1.8895  -1.8823  -1.8606  -1.8467  -1.8087  -1.7858  -1.7805  -1.7749
    -1.7591  -1.7422  -1.7354  -1.7140  -1.7111  -1.6924  -1.6730  -1.6662
    -1.6496  -1.6356  -1.5905  -1.5525  -1.5279  -1.5112  -1.4834  -1.4727
    -1.4598  -1.4430  -1.4202  -1.3738  -1.3634  -1.3532  -1.3418  -1.3371
    -1.3285  -1.3241  -1.3186  -1.3130  -1.3042  -1.3000  -1.2876  -1.2705
    -1.2532  -1.2386  -1.1814  -1.1375  -1.1136  -1.1008  -1.0891  -1.0603
    -1.0481  -1.0051  -0.9845  -0.9607  -0.9540  -0.9084  -0.8882  -0.8412
    -0.8320  -0.8022  -0.7802  -0.7688  -0.7466  -0.7328  -0.7000  -0.6703
    -0.6327  -0.5831  -0.5759  -0.5585  -0.5542  -0.5495  -0.5440  -0.5370
    -0.5254  -0.5075  -0.4422  -0.4092  -0.4019  -0.3949  -0.3823  -0.3777
    -0.3683  -0.3424  -0.3415  -0.3323  -0.3173  -0.2999  -0.2311  -0.2140
    -0.2065  -0.2002  -0.1755  -0.1403  -0.1094  -0.0981  -0.0725  -0.0409
    -0.0337   0.0059   0.0101   0.0302   0.0328   0.0363   0.0524   0.0715
     0.1440   0.1606   0.2725   0.8682   1.0416   1.1631   1.2678   1.3234
     1.4657   1.6368

          k = 0.2000-0.1155 0.0000 ( 51134 PWs)   bands (ev):

   -21.8241 -10.7517  -7.4174  -6.9428  -6.2431  -5.7691  -5.4431  -5.3365
    -4.9227  -4.9189  -4.5624  -4.4124  -4.3369  -4.3354  -4.2683  -4.2187
    -4.1747  -4.1627  -4.0641  -4.0168  -4.0120  -3.7491  -3.6376  -3.6307
    -3.5564  -3.5274  -3.5116  -3.5081  -3.5053  -3.4883  -3.4781  -3.4646
    -3.4322  -3.3885  -3.3840  -3.3521  -3.3505  -3.1759  -3.1265  -3.1232
    -3.0711  -3.0705  -3.0640  -3.0602  -3.0020  -2.9511  -2.9385  -2.9177
    -2.9002  -2.8963  -2.8704  -2.8596  -2.7677  -2.7626  -2.7368  -2.7058
    -2.6950  -2.6726  -2.6633  -2.6486  -2.6420  -2.6171  -2.5904  -2.5880
    -2.5281  -2.4151  -2.2512  -2.2376  -2.2266  -2.2106  -2.1651  -2.1027
    -2.0921  -2.0881  -2.0751  -2.0657  -2.0579  -2.0443  -2.0293  -1.9788
    -1.9575  -1.9507  -1.9323  -1.8953  -1.8899  -1.8863  -1.8761  -1.8615
    -1.8512  -1.8460  -1.8421  -1.8388  -1.8324  -1.8067  -1.7752  -1.7548
    -1.7404  -1.7200  -1.6743  -1.6648  -1.6552  -1.6472  -1.6402  -1.6335
    -1.6198  -1.6088  -1.6030  -1.6007  -1.5942  -1.5754  -1.5571  -1.5527
    -1.5329  -1.5285  -1.5135  -1.4483  -1.4302  -1.3971  -1.3275  -1.3242
    -1.3159  -1.3098  -1.2993  -1.2932  -1.2894  -1.2821  -1.2109  -1.1507
    -1.1341  -1.1119  -1.0372  -1.0344  -1.0124  -0.9669  -0.9435  -0.9373
    -0.9002  -0.8484  -0.8321  -0.8131  -0.8033  -0.7899  -0.7553  -0.7514
    -0.7334  -0.7203  -0.7050  -0.6656  -0.6647  -0.6510  -0.6417  -0.6293
    -0.6049  -0.5673  -0.5626  -0.5523  -0.5481  -0.5256  -0.4981  -0.4965
    -0.4881  -0.4791  -0.4742  -0.4646  -0.4466  -0.4374  -0.4228  -0.3988
    -0.3705  -0.3621  -0.3471  -0.3247  -0.3029  -0.2978  -0.2669  -0.2433
    -0.2387  -0.2346  -0.2286  -0.2167  -0.2049  -0.1946  -0.1819  -0.1598
    -0.1423  -0.1005  -0.0930  -0.0896  -0.0668  -0.0652  -0.0308  -0.0182
     0.0065   0.0370   0.2666   0.2811   0.3766   0.4763   0.5301   0.5579
     0.5871   0.8202

          k = 0.2000 0.1155 0.0000 ( 51134 PWs)   bands (ev):

   -21.8241 -10.7518  -7.4190  -6.9445  -6.2360  -5.7491  -5.4340  -5.3742
    -4.9183  -4.9116  -4.5640  -4.4354  -4.3377  -4.3324  -4.2709  -4.2264
    -4.1723  -4.1396  -4.0769  -4.0152  -4.0024  -3.7526  -3.6368  -3.6314
    -3.5522  -3.5349  -3.5097  -3.5076  -3.5039  -3.4942  -3.4789  -3.4594
    -3.4327  -3.3891  -3.3831  -3.3524  -3.3485  -3.1629  -3.1282  -3.1243
    -3.0944  -3.0677  -3.0646  -3.0637  -2.9913  -2.9650  -2.9409  -2.9128
    -2.8973  -2.8928  -2.8730  -2.8633  -2.7800  -2.7652  -2.7505  -2.7084
    -2.6954  -2.6708  -2.6604  -2.6392  -2.6245  -2.6094  -2.5916  -2.5857
    -2.5385  -2.4138  -2.2574  -2.2458  -2.2209  -2.1975  -2.1610  -2.0990
    -2.0935  -2.0869  -2.0792  -2.0712  -2.0606  -2.0356  -2.0099  -1.9776
    -1.9650  -1.9487  -1.9278  -1.8961  -1.8881  -1.8844  -1.8790  -1.8579
    -1.8541  -1.8485  -1.8437  -1.8405  -1.8291  -1.8023  -1.7679  -1.7620
    -1.7404  -1.7109  -1.6733  -1.6612  -1.6533  -1.6508  -1.6334  -1.6308
    -1.6253  -1.6135  -1.6072  -1.5972  -1.5909  -1.5785  -1.5521  -1.5470
    -1.5341  -1.5288  -1.5014  -1.4724  -1.4326  -1.4099  -1.3256  -1.3216
    -1.3177  -1.3108  -1.2979  -1.2953  -1.2914  -1.2840  -1.1704  -1.1436
    -1.1395  -1.1091  -1.0403  -1.0346  -1.0093  -0.9736  -0.9460  -0.9386
    -0.8770  -0.8568  -0.8426  -0.8172  -0.8088  -0.7946  -0.7567  -0.7548
    -0.7319  -0.7186  -0.7030  -0.6643  -0.6591  -0.6573  -0.6478  -0.6333
    -0.6087  -0.5686  -0.5597  -0.5543  -0.5340  -0.5077  -0.4982  -0.4930
    -0.4863  -0.4800  -0.4677  -0.4660  -0.4486  -0.4362  -0.4291  -0.4160
    -0.3672  -0.3532  -0.3349  -0.3277  -0.3055  -0.3019  -0.2637  -0.2431
    -0.2392  -0.2349  -0.2308  -0.2171  -0.1997  -0.1949  -0.1831  -0.1584
    -0.1414  -0.1032  -0.0973  -0.0915  -0.0666  -0.0650  -0.0209  -0.0190
     0.0064   0.0327   0.2466   0.2808   0.3335   0.4526   0.5240   0.5651
     0.6232   0.7585

          k = 0.2000 0.3464 0.0000 ( 51202 PWs)   bands (ev):

   -21.8241 -10.7502  -7.1644  -6.9047  -6.1319  -5.7790  -5.7487  -5.5532
    -5.3759  -4.6364  -4.5944  -4.3498  -4.3405  -4.2939  -4.1256  -4.1204
    -4.0303  -4.0281  -4.0211  -3.8913  -3.8650  -3.7523  -3.7441  -3.6820
    -3.6334  -3.5471  -3.5391  -3.5137  -3.4933  -3.4875  -3.4826  -3.4579
    -3.4382  -3.4235  -3.4075  -3.3741  -3.3266  -3.3004  -3.2865  -3.1660
    -3.1566  -3.0687  -3.0585  -3.0308  -3.0148  -3.0119  -2.9341  -2.9091
    -2.8630  -2.8346  -2.8300  -2.8250  -2.7761  -2.7654  -2.7478  -2.7382
    -2.7234  -2.6334  -2.6065  -2.5493  -2.5396  -2.5228  -2.5160  -2.4831
    -2.4803  -2.3662  -2.3483  -2.2814  -2.2723  -2.2383  -2.2219  -2.2015
    -2.1856  -2.1723  -2.1666  -2.1468  -2.1381  -2.1216  -2.1141  -2.0984
    -2.0757  -2.0705  -2.0081  -1.9782  -1.9260  -1.9216  -1.9019  -1.8837
    -1.8675  -1.8530  -1.8361  -1.8090  -1.8026  -1.7717  -1.7618  -1.7576
    -1.7475  -1.7429  -1.7273  -1.7150  -1.7079  -1.6944  -1.6827  -1.6634
    -1.6520  -1.6249  -1.6079  -1.5855  -1.5710  -1.5643  -1.5302  -1.5245
    -1.5024  -1.4931  -1.4856  -1.4541  -1.4234  -1.4163  -1.3923  -1.3550
    -1.3523  -1.3467  -1.3399  -1.3177  -1.3063  -1.3029  -1.2824  -1.2499
    -1.1960  -1.1803  -1.1765  -1.1329  -1.0509  -1.0489  -1.0337  -0.9503
    -0.9220  -0.9086  -0.9024  -0.8931  -0.8829  -0.8758  -0.8588  -0.8534
    -0.8240  -0.8112  -0.7884  -0.7517  -0.7382  -0.7340  -0.7096  -0.7025
    -0.6810  -0.6670  -0.6351  -0.6276  -0.6209  -0.6079  -0.5310  -0.4612
    -0.4586  -0.4349  -0.4214  -0.4175  -0.3968  -0.3854  -0.3782  -0.3720
    -0.3633  -0.3345  -0.2952  -0.2768  -0.2653  -0.2559  -0.2162  -0.2108
    -0.1908  -0.1886  -0.1799  -0.1610  -0.1503  -0.1456  -0.1426  -0.1182
    -0.1130  -0.0470  -0.0250  -0.0167  -0.0132   0.0315   0.0353   0.0524
     0.3699   0.3728   0.4356   0.5443   0.6759   0.7117   0.9974   1.2003
     1.2746   1.4141

          k = 0.2000-0.5774 0.0000 ( 51262 PWs)   bands (ev):

   -21.8241 -10.7491  -7.0026  -6.5434  -6.5049  -6.0537  -5.8253  -5.4640
    -5.2023  -5.0971  -4.6599  -4.3265  -4.0881  -4.0475  -3.9466  -3.9124
    -3.9047  -3.8911  -3.8839  -3.8550  -3.8049  -3.7965  -3.7934  -3.7871
    -3.7133  -3.6918  -3.6459  -3.6398  -3.6164  -3.6117  -3.4950  -3.4758
    -3.4595  -3.4525  -3.4332  -3.3962  -3.2983  -3.2941  -3.1918  -3.1717
    -3.1646  -3.1003  -3.0786  -3.0651  -3.0365  -2.9704  -2.9516  -2.9456
    -2.8807  -2.8754  -2.8210  -2.7678  -2.7439  -2.7263  -2.6921  -2.6703
    -2.6180  -2.5871  -2.5758  -2.5643  -2.5594  -2.5212  -2.5185  -2.4520
    -2.3985  -2.3737  -2.3614  -2.3502  -2.3286  -2.2874  -2.2610  -2.2312
    -2.2061  -2.1812  -2.1760  -2.1719  -2.1610  -2.1420  -2.1092  -2.0961
    -2.0894  -2.0742  -2.0653  -2.0403  -2.0342  -2.0080  -1.9657  -1.9499
    -1.9345  -1.9238  -1.8759  -1.8547  -1.8154  -1.8016  -1.7892  -1.7668
    -1.7602  -1.7434  -1.7389  -1.7330  -1.7289  -1.7029  -1.6817  -1.6743
    -1.6125  -1.5999  -1.5909  -1.5868  -1.5727  -1.5648  -1.5615  -1.5502
    -1.5379  -1.5335  -1.5178  -1.4889  -1.4735  -1.4370  -1.4312  -1.4062
    -1.3506  -1.3377  -1.3049  -1.2874  -1.2842  -1.2727  -1.2583  -1.2122
    -1.1872  -1.1797  -1.1671  -1.1119  -1.0722  -1.0479  -1.0344  -1.0131
    -1.0062  -0.9891  -0.9729  -0.9600  -0.9311  -0.9178  -0.8897  -0.8724
    -0.8375  -0.8295  -0.8170  -0.7993  -0.7835  -0.7616  -0.7213  -0.7171
    -0.7009  -0.6923  -0.6788  -0.6600  -0.6471  -0.6180  -0.5898  -0.5135
    -0.4242  -0.4168  -0.4100  -0.4048  -0.3945  -0.3910  -0.3825  -0.3620
    -0.3332  -0.3281  -0.3177  -0.3057  -0.2608  -0.2553  -0.1888  -0.1877
    -0.1742  -0.1610  -0.1428  -0.1329  -0.0975  -0.0837  -0.0776  -0.0679
    -0.0646   0.0112   0.0140   0.0240   0.0356   0.0399   0.0661   0.0952
     0.2012   0.4085   0.5126   0.7362   1.1726   1.3144   1.4433   1.6523
     1.7931   1.8428

          k = 0.2000-0.3464 0.0000 ( 51202 PWs)   bands (ev):

   -21.8241 -10.7500  -7.1539  -6.9133  -6.1405  -5.8061  -5.7488  -5.5513
    -5.3434  -4.6574  -4.5731  -4.3441  -4.3352  -4.2964  -4.1237  -4.1210
    -4.0357  -4.0253  -4.0047  -3.8906  -3.8803  -3.7507  -3.7429  -3.6866
    -3.6349  -3.5485  -3.5442  -3.5153  -3.4914  -3.4858  -3.4839  -3.4521
    -3.4393  -3.4222  -3.4164  -3.3692  -3.3280  -3.2905  -3.2815  -3.1735
    -3.1594  -3.0671  -3.0570  -3.0358  -3.0213  -3.0051  -2.9163  -2.8684
    -2.8564  -2.8493  -2.8295  -2.8215  -2.7772  -2.7673  -2.7465  -2.7392
    -2.7217  -2.6185  -2.6037  -2.5713  -2.5473  -2.5278  -2.5024  -2.4882
    -2.4745  -2.4009  -2.3559  -2.2880  -2.2718  -2.2311  -2.2169  -2.1966
    -2.1875  -2.1783  -2.1688  -2.1430  -2.1328  -2.1237  -2.1141  -2.0978
    -2.0897  -2.0770  -2.0046  -1.9866  -1.9254  -1.9212  -1.8954  -1.8847
    -1.8728  -1.8575  -1.8378  -1.8058  -1.8024  -1.7753  -1.7653  -1.7597
    -1.7505  -1.7396  -1.7275  -1.7173  -1.7061  -1.7016  -1.6791  -1.6652
    -1.6533  -1.6403  -1.6202  -1.5955  -1.5752  -1.5630  -1.5282  -1.5245
    -1.5126  -1.4930  -1.4887  -1.4447  -1.4239  -1.4130  -1.3957  -1.3686
    -1.3478  -1.3439  -1.3412  -1.3197  -1.3118  -1.2981  -1.2806  -1.2382
    -1.2037  -1.1758  -1.1708  -1.1322  -1.0592  -1.0438  -1.0353  -0.9347
    -0.9191  -0.9098  -0.9016  -0.8905  -0.8815  -0.8755  -0.8594  -0.8349
    -0.8224  -0.8134  -0.7869  -0.7583  -0.7440  -0.7335  -0.7174  -0.6993
    -0.6827  -0.6562  -0.6408  -0.6240  -0.6168  -0.6063  -0.5203  -0.4709
    -0.4571  -0.4345  -0.4262  -0.4172  -0.3991  -0.3868  -0.3798  -0.3725
    -0.3619  -0.3415  -0.2833  -0.2790  -0.2611  -0.2587  -0.2199  -0.2064
    -0.1894  -0.1881  -0.1835  -0.1602  -0.1492  -0.1473  -0.1399  -0.1238
    -0.1128  -0.0498  -0.0257  -0.0147  -0.0106   0.0342   0.0387   0.0574
     0.3398   0.3752   0.4557   0.5419   0.6276   0.7291   1.1213   1.2319
     1.2609   1.4598

          k = 0.4000-0.2309 0.0000 ( 51204 PWs)   bands (ev):

   -21.8241 -10.7495  -7.0581  -6.8675  -6.3024  -6.0501  -5.5945  -5.3184
    -5.0654  -5.0543  -4.9300  -4.2236  -4.1720  -4.1665  -4.1529  -4.0917
    -3.9795  -3.9781  -3.9375  -3.8512  -3.8449  -3.8389  -3.7388  -3.6697
    -3.6659  -3.6496  -3.6488  -3.6007  -3.5420  -3.5385  -3.5305  -3.3810
    -3.3773  -3.3661  -3.3618  -3.3301  -3.3276  -3.2388  -3.2177  -3.2138
    -3.2058  -3.2018  -3.0945  -3.0032  -2.9913  -2.9100  -2.8946  -2.8729
    -2.8597  -2.8318  -2.8159  -2.8138  -2.8035  -2.7813  -2.7356  -2.7195
    -2.6957  -2.6545  -2.6464  -2.5648  -2.5063  -2.4979  -2.4861  -2.4571
    -2.4094  -2.3888  -2.3650  -2.3548  -2.3295  -2.2611  -2.2352  -2.2192
    -2.2150  -2.2104  -2.1992  -2.1809  -2.1713  -2.1675  -2.1283  -2.1163
    -2.0810  -2.0670  -2.0481  -2.0252  -1.9920  -1.9875  -1.9341  -1.9042
    -1.8911  -1.8866  -1.8569  -1.8426  -1.8154  -1.7863  -1.7794  -1.7718
    -1.7642  -1.7435  -1.7376  -1.7139  -1.7020  -1.6920  -1.6838  -1.6690
    -1.6479  -1.6359  -1.5909  -1.5769  -1.5264  -1.5101  -1.4925  -1.4839
    -1.4562  -1.4374  -1.4164  -1.3753  -1.3676  -1.3469  -1.3406  -1.3369
    -1.3338  -1.3263  -1.3147  -1.3103  -1.3033  -1.2966  -1.2860  -1.2717
    -1.2658  -1.2385  -1.1690  -1.1376  -1.1112  -1.1034  -1.0818  -1.0724
    -1.0390  -1.0061  -0.9794  -0.9615  -0.9539  -0.9079  -0.8843  -0.8375
    -0.8306  -0.8001  -0.7881  -0.7555  -0.7472  -0.7311  -0.7001  -0.6641
    -0.6147  -0.5803  -0.5783  -0.5699  -0.5588  -0.5553  -0.5434  -0.5367
    -0.5297  -0.5085  -0.4425  -0.4112  -0.3964  -0.3907  -0.3844  -0.3805
    -0.3714  -0.3566  -0.3343  -0.3301  -0.3203  -0.3076  -0.2302  -0.2137
    -0.2085  -0.1980  -0.1771  -0.1400  -0.1101  -0.0960  -0.0719  -0.0445
    -0.0407   0.0042   0.0085   0.0255   0.0300   0.0364   0.0439   0.0809
     0.1449   0.1609   0.3008   0.8657   1.1037   1.2138   1.2695   1.3356
     1.4866   1.6260

          k = 0.4000 0.0000 0.0000 ( 51202 PWs)   bands (ev):

   -21.8241 -10.7500  -7.1595  -6.9091  -6.1383  -5.7962  -5.7474  -5.5493
    -5.3582  -4.6535  -4.5784  -4.3428  -4.3355  -4.2978  -4.1246  -4.1207
    -4.0358  -4.0270  -4.0076  -3.8898  -3.8763  -3.7514  -3.7431  -3.6844
    -3.6337  -3.5478  -3.5457  -3.5158  -3.4929  -3.4853  -3.4797  -3.4499
    -3.4404  -3.4231  -3.4091  -3.3702  -3.3285  -3.2904  -3.2863  -3.1748
    -3.1563  -3.0685  -3.0581  -3.0317  -3.0212  -3.0067  -2.9135  -2.8800
    -2.8624  -2.8458  -2.8295  -2.8263  -2.7798  -2.7672  -2.7515  -2.7389
    -2.7222  -2.6243  -2.6034  -2.5588  -2.5484  -2.5269  -2.5092  -2.4869
    -2.4789  -2.3891  -2.3568  -2.2857  -2.2750  -2.2340  -2.2144  -2.1961
    -2.1910  -2.1776  -2.1684  -2.1479  -2.1364  -2.1161  -2.1120  -2.0976
    -2.0926  -2.0702  -2.0096  -1.9779  -1.9264  -1.9212  -1.8983  -1.8868
    -1.8730  -1.8524  -1.8376  -1.8071  -1.7966  -1.7743  -1.7639  -1.7617
    -1.7466  -1.7399  -1.7250  -1.7187  -1.7081  -1.7016  -1.6820  -1.6636
    -1.6546  -1.6420  -1.6118  -1.5926  -1.5713  -1.5590  -1.5278  -1.5206
    -1.5094  -1.4953  -1.4882  -1.4458  -1.4240  -1.4178  -1.3944  -1.3613
    -1.3493  -1.3441  -1.3395  -1.3224  -1.3065  -1.3006  -1.2807  -1.2448
    -1.1995  -1.1785  -1.1686  -1.1279  -1.0570  -1.0441  -1.0311  -0.9493
    -0.9141  -0.9111  -0.9033  -0.8960  -0.8831  -0.8717  -0.8550  -0.8465
    -0.8259  -0.8104  -0.7865  -0.7519  -0.7443  -0.7353  -0.7138  -0.7018
    -0.6808  -0.6644  -0.6338  -0.6277  -0.6183  -0.6055  -0.5247  -0.4679
    -0.4602  -0.4297  -0.4228  -0.4155  -0.4055  -0.3859  -0.3749  -0.3709
    -0.3663  -0.3391  -0.2840  -0.2815  -0.2636  -0.2579  -0.2184  -0.2080
    -0.1901  -0.1858  -0.1825  -0.1611  -0.1530  -0.1455  -0.1414  -0.1181
    -0.1157  -0.0531  -0.0267  -0.0160  -0.0106   0.0335   0.0382   0.0525
     0.3491   0.3753   0.4552   0.5350   0.6447   0.7288   1.0737   1.2096
     1.2785   1.4450

          k = 0.4000 0.2309 0.0000 ( 51204 PWs)   bands (ev):

   -21.8241 -10.7497  -7.0805  -6.8529  -6.2762  -6.0474  -5.5347  -5.3983
    -5.0638  -5.0360  -4.9627  -4.2405  -4.1710  -4.1674  -4.1233  -4.1026
    -3.9800  -3.9752  -3.9410  -3.8476  -3.8441  -3.8407  -3.7510  -3.6677
    -3.6627  -3.6505  -3.6469  -3.6032  -3.5492  -3.5415  -3.5315  -3.3813
    -3.3781  -3.3643  -3.3482  -3.3309  -3.3250  -3.2319  -3.2170  -3.2117
    -3.2101  -3.2033  -3.0934  -3.0291  -2.9973  -2.9259  -2.9001  -2.8761
    -2.8619  -2.8387  -2.8171  -2.8124  -2.8089  -2.7899  -2.7211  -2.7161
    -2.6975  -2.6614  -2.6486  -2.5424  -2.5019  -2.4983  -2.4946  -2.4456
    -2.4035  -2.3768  -2.3711  -2.3582  -2.3180  -2.2656  -2.2338  -2.2219
    -2.2143  -2.2119  -2.1893  -2.1770  -2.1682  -2.1648  -2.1429  -2.0965
    -2.0770  -2.0624  -2.0442  -2.0094  -1.9983  -1.9884  -1.9397  -1.9029
    -1.8927  -1.8880  -1.8598  -1.8435  -1.8043  -1.7831  -1.7766  -1.7750
    -1.7592  -1.7431  -1.7323  -1.7116  -1.7048  -1.6934  -1.6731  -1.6621
    -1.6511  -1.6362  -1.5900  -1.5450  -1.5243  -1.5112  -1.4886  -1.4788
    -1.4519  -1.4437  -1.4143  -1.3727  -1.3594  -1.3560  -1.3424  -1.3383
    -1.3325  -1.3240  -1.3156  -1.3114  -1.3070  -1.3005  -1.2850  -1.2678
    -1.2495  -1.2257  -1.1896  -1.1366  -1.1131  -1.1001  -1.0919  -1.0513
    -1.0363  -1.0111  -0.9849  -0.9665  -0.9555  -0.9041  -0.8967  -0.8519
    -0.8331  -0.8005  -0.7856  -0.7697  -0.7474  -0.7272  -0.7000  -0.6692
    -0.6397  -0.5896  -0.5772  -0.5591  -0.5554  -0.5455  -0.5397  -0.5347
    -0.5262  -0.5083  -0.4403  -0.4102  -0.4040  -0.3933  -0.3816  -0.3782
    -0.3649  -0.3420  -0.3369  -0.3299  -0.3208  -0.3010  -0.2287  -0.2110
    -0.2068  -0.2033  -0.1741  -0.1435  -0.1113  -0.0961  -0.0742  -0.0428
    -0.0392   0.0067   0.0082   0.0301   0.0313   0.0358   0.0555   0.0815
     0.1428   0.1569   0.2525   0.9063   0.9962   1.1346   1.2644   1.2957
     1.4837   1.6398

          k = 0.4000-0.6928 0.0000 ( 51262 PWs)   bands (ev):

   -21.8241 -10.7491  -7.0107  -6.5391  -6.4937  -6.0607  -5.8283  -5.4225
    -5.2458  -5.1027  -4.6496  -4.3254  -4.0893  -4.0498  -3.9511  -3.9112
    -3.9050  -3.8919  -3.8813  -3.8574  -3.8027  -3.7956  -3.7946  -3.7856
    -3.7132  -3.6926  -3.6464  -3.6388  -3.6160  -3.6129  -3.4929  -3.4718
    -3.4600  -3.4530  -3.4290  -3.3943  -3.3032  -3.2899  -3.1962  -3.1680
    -3.1656  -3.1023  -3.0803  -3.0665  -3.0370  -2.9670  -2.9539  -2.9448
    -2.8801  -2.8732  -2.8300  -2.7735  -2.7463  -2.7305  -2.6879  -2.6681
    -2.6116  -2.5886  -2.5747  -2.5661  -2.5622  -2.5250  -2.5154  -2.4472
    -2.4029  -2.3724  -2.3644  -2.3519  -2.3212  -2.2915  -2.2694  -2.2301
    -2.2127  -2.1839  -2.1775  -2.1697  -2.1565  -2.1428  -2.1065  -2.0964
    -2.0844  -2.0789  -2.0680  -2.0412  -2.0346  -1.9998  -1.9646  -1.9475
    -1.9370  -1.9297  -1.8632  -1.8589  -1.8189  -1.7963  -1.7828  -1.7733
    -1.7537  -1.7464  -1.7352  -1.7277  -1.7215  -1.6960  -1.6842  -1.6703
    -1.6063  -1.6003  -1.5923  -1.5851  -1.5695  -1.5634  -1.5628  -1.5492
    -1.5445  -1.5346  -1.5161  -1.4968  -1.4739  -1.4374  -1.4287  -1.4096
    -1.3491  -1.3382  -1.3069  -1.2896  -1.2784  -1.2711  -1.2569  -1.2127
    -1.1934  -1.1804  -1.1705  -1.1098  -1.0712  -1.0472  -1.0314  -1.0166
    -1.0015  -0.9782  -0.9754  -0.9639  -0.9315  -0.9201  -0.8824  -0.8736
    -0.8383  -0.8298  -0.8150  -0.7992  -0.7791  -0.7666  -0.7205  -0.7194
    -0.7078  -0.6928  -0.6793  -0.6644  -0.6450  -0.6182  -0.5951  -0.5137
    -0.4240  -0.4164  -0.4131  -0.4006  -0.3967  -0.3894  -0.3773  -0.3646
    -0.3351  -0.3244  -0.3185  -0.3071  -0.2574  -0.2546  -0.1901  -0.1856
    -0.1826  -0.1581  -0.1402  -0.1314  -0.0968  -0.0817  -0.0784  -0.0685
    -0.0650   0.0100   0.0120   0.0249   0.0346   0.0410   0.0634   0.0927
     0.1815   0.4115   0.5300   0.7483   1.1372   1.3147   1.4188   1.6990
     1.7639   1.8269

          k = 0.4000-0.4619 0.0000 ( 51262 PWs)   bands (ev):

   -21.8241 -10.7489  -6.9949  -6.5415  -6.5257  -6.0413  -5.8256  -5.5118
    -5.1418  -5.0933  -4.6791  -4.3276  -4.0861  -4.0468  -3.9344  -3.9133
    -3.9070  -3.8866  -3.8810  -3.8554  -3.8075  -3.7963  -3.7939  -3.7862
    -3.7096  -3.6906  -3.6467  -3.6429  -3.6162  -3.6102  -3.5118  -3.4675
    -3.4577  -3.4451  -3.4364  -3.3976  -3.3051  -3.2943  -3.1933  -3.1675
    -3.1621  -3.0925  -3.0833  -3.0649  -3.0361  -2.9551  -2.9527  -2.9466
    -2.8809  -2.8775  -2.8105  -2.7677  -2.7325  -2.7263  -2.6910  -2.6688
    -2.6294  -2.5873  -2.5756  -2.5625  -2.5582  -2.5322  -2.5204  -2.4535
    -2.4120  -2.3749  -2.3553  -2.3493  -2.3252  -2.2928  -2.2789  -2.2289
    -2.2142  -2.1873  -2.1797  -2.1693  -2.1652  -2.1279  -2.1113  -2.1001
    -2.0878  -2.0804  -2.0585  -2.0432  -2.0347  -2.0253  -1.9639  -1.9477
    -1.9318  -1.9068  -1.8763  -1.8570  -1.8143  -1.8077  -1.7994  -1.7743
    -1.7543  -1.7432  -1.7408  -1.7352  -1.7233  -1.7092  -1.6852  -1.6806
    -1.6194  -1.5977  -1.5887  -1.5865  -1.5715  -1.5664  -1.5600  -1.5480
    -1.5421  -1.5345  -1.5179  -1.4839  -1.4772  -1.4363  -1.4312  -1.4007
    -1.3463  -1.3397  -1.3031  -1.2923  -1.2805  -1.2738  -1.2559  -1.1992
    -1.1855  -1.1798  -1.1713  -1.1084  -1.0909  -1.0458  -1.0304  -1.0161
    -0.9970  -0.9831  -0.9763  -0.9611  -0.9283  -0.9196  -0.8913  -0.8766
    -0.8454  -0.8279  -0.8171  -0.8017  -0.7850  -0.7514  -0.7249  -0.7071
    -0.6978  -0.6900  -0.6833  -0.6583  -0.6407  -0.6222  -0.5960  -0.5065
    -0.4287  -0.4169  -0.4118  -0.4038  -0.3973  -0.3906  -0.3785  -0.3659
    -0.3320  -0.3261  -0.3129  -0.3083  -0.2651  -0.2546  -0.1915  -0.1868
    -0.1726  -0.1614  -0.1423  -0.1338  -0.0972  -0.0833  -0.0781  -0.0681
    -0.0544   0.0015   0.0108   0.0158   0.0342   0.0403   0.0646   0.0950
     0.2394   0.3895   0.4990   0.7269   1.2581   1.3083   1.4800   1.6057
     1.7966   1.8760

 ------ SPIN DOWN ----------


          k = 0.0000 0.0000 0.0000 ( 51087 PWs)   bands (ev):

   -21.8272 -10.7749  -7.6896  -6.8965  -6.3835  -5.7700  -5.4216  -4.5103
    -4.4829  -4.4797  -4.4791  -4.4627  -4.4577  -4.3594  -3.6120  -3.6057
    -3.6045  -3.5834  -3.5706  -3.5660  -3.4430  -2.6674  -2.6630  -2.6555
    -2.6444  -2.6361  -2.5821  -2.2916  -2.2053  -2.1961  -2.1916  -2.1862
    -2.1811  -2.0256  -1.9926  -1.9685  -1.9188  -1.9107  -1.8961  -1.8937
    -1.8114  -1.8066  -1.7577  -1.7526  -1.7166  -1.6656  -1.6595  -1.6437
    -1.6283  -1.5507  -1.4464  -1.3988  -1.3882  -1.3772  -1.3616  -1.3550
    -1.3540  -1.3520  -1.3338  -1.3118  -1.2963  -1.2767  -1.2743  -1.2727
    -1.2493  -1.1565  -0.8233  -0.7204  -0.7084  -0.6976  -0.6966  -0.5390
    -0.4993  -0.4343  -0.3882  -0.3823  -0.3730  -0.3693  -0.3666  -0.3531
    -0.3216  -0.3025  -0.2845  -0.2758  -0.2751  -0.2645  -0.2571  -0.2168
    -0.1987  -0.1818  -0.1745  -0.1723  -0.1416  -0.1265  -0.1194  -0.1184
    -0.1132  -0.1073  -0.0887  -0.0867  -0.0856  -0.0850  -0.0148   0.0104
     0.0485   0.0640   0.0666   0.0806   0.1240   0.1318   0.1394   0.1414
     0.1431   0.1466   0.1484   0.1512   0.2210   0.2222   0.2804   0.3000
     0.3136   0.3222   0.3295   0.3364   0.4952   0.5303   0.5481   0.5804
     0.6044   0.6180   0.6288   0.6310   0.6841   0.8948   0.9191   0.9640
     0.9671   1.0796   1.1232   1.1456   1.1639   1.1851   1.1945   1.1986
     1.3316   1.3503   1.3540   1.3598   1.3620   1.3711   1.3776   1.3967
     1.4210   1.4399   1.4528   1.4643   1.4764   1.4835   1.4955   1.5095
     1.5171   1.5188   1.5224   1.5500   1.5691   1.5853   1.5965   1.6142
     1.6186   1.6311   1.6385   1.6424   1.6469   1.6495   1.6561   1.6892
     1.6934   1.7159   1.7192   1.7270   1.7358   1.7435   1.7454   1.7637
     1.7809   1.7824   1.7877   1.7935   1.7955   1.7968   1.8051   1.8081
     1.8230   1.8368   1.8691   1.8711   2.0168   2.0223   2.0250   2.0256
     2.0278   2.0296

          k = 0.0000 0.2309 0.0000 ( 51134 PWs)   bands (ev):

   -21.8272 -10.7735  -7.5431  -6.8884  -6.2868  -5.7634  -5.4810  -5.3649
    -4.8591  -4.8489  -4.3416  -4.2304  -3.9345  -3.9276  -3.8330  -3.7859
    -3.6417  -3.3888  -3.2575  -3.2352  -3.1538  -2.8869  -2.6714  -2.6435
    -2.6046  -2.5611  -2.5343  -2.3328  -2.2751  -2.2292  -2.2258  -2.2163
    -2.1859  -2.1409  -2.1357  -2.1237  -2.0980  -2.0090  -1.9546  -1.9346
    -1.8691  -1.8610  -1.8304  -1.7110  -1.6830  -1.6682  -1.6317  -1.5771
    -1.5289  -1.4936  -1.4583  -1.4391  -1.4080  -1.3895  -1.3682  -1.3635
    -1.3593  -1.3303  -1.2904  -1.2422  -1.2252  -1.2194  -1.1955  -1.1719
    -1.1057  -1.0368  -0.8743  -0.7677  -0.7552  -0.7447  -0.7105  -0.6371
    -0.6188  -0.5877  -0.5351  -0.5142  -0.4337  -0.4064  -0.3930  -0.3818
    -0.3467  -0.3441  -0.3344  -0.3232  -0.3051  -0.2931  -0.2632  -0.2473
    -0.2021  -0.1760  -0.1650  -0.1597  -0.1455  -0.1201  -0.1037  -0.0905
    -0.0836  -0.0747  -0.0677  -0.0632  -0.0610  -0.0562  -0.0453  -0.0157
     0.0186   0.0263   0.0392   0.0420   0.0633   0.0817   0.0894   0.1102
     0.1480   0.1603   0.1785   0.2070   0.2357   0.2520   0.2579   0.2886
     0.4133   0.4210   0.4779   0.4901   0.5197   0.5385   0.5543   0.5589
     0.5815   0.5924   0.6073   0.6108   0.7608   0.8882   0.9130   0.9295
     0.9369   0.9542   0.9724   0.9813   1.0257   1.0399   1.1130   1.1262
     1.1423   1.2021   1.2114   1.2486   1.2589   1.2809   1.3037   1.3244
     1.3588   1.3959   1.4147   1.4258   1.4279   1.4529   1.4750   1.4939
     1.5107   1.5406   1.5586   1.5767   1.5987   1.6083   1.6171   1.6577
     1.6702   1.6783   1.6829   1.6924   1.6956   1.7100   1.7605   1.7689
     1.7738   1.7805   1.8199   1.8308   1.8360   1.8517   1.8645   1.8754
     1.8846   1.9231   1.9262   1.9394   1.9560   1.9610   1.9696   1.9857
     1.9898   2.0141   2.0172   2.0305   2.1103   2.1235   2.1287   2.1516
     2.1967   2.2235

          k = 0.0000 0.4619 0.0000 ( 51204 PWs)   bands (ev):

   -21.8272 -10.7714  -7.1326  -6.8634  -6.3806  -6.0660  -5.6086  -5.3914
    -5.0774  -5.0510  -4.9413  -4.0020  -3.9557  -3.8579  -3.3871  -3.3129
    -3.3067  -3.1984  -3.0496  -2.9948  -2.8655  -2.8563  -2.7140  -2.7109
    -2.6504  -2.6312  -2.5936  -2.5748  -2.4702  -2.4622  -2.4246  -2.4023
    -2.3850  -2.2284  -2.1768  -2.1506  -2.0974  -2.0508  -1.9832  -1.9694
    -1.9661  -1.9583  -1.8640  -1.6839  -1.6680  -1.6463  -1.6213  -1.5642
    -1.4487  -1.4385  -1.4305  -1.4127  -1.3987  -1.3883  -1.3743  -1.3694
    -1.3103  -1.2760  -1.2537  -1.2474  -1.2211  -1.1876  -1.0916  -1.0383
    -0.9443  -0.8967  -0.8899  -0.8038  -0.7784  -0.7452  -0.7170  -0.7052
    -0.6851  -0.6734  -0.6455  -0.6045  -0.5951  -0.5443  -0.5287  -0.5010
    -0.4689  -0.4402  -0.4187  -0.4126  -0.3992  -0.3624  -0.3172  -0.2686
    -0.2292  -0.2221  -0.1899  -0.1653  -0.1401  -0.1168  -0.1069  -0.0780
    -0.0543  -0.0425  -0.0349  -0.0168  -0.0099  -0.0013   0.0085   0.0292
     0.0510   0.0786   0.0868   0.0944   0.1011   0.1058   0.1250   0.1422
     0.1552   0.1766   0.1954   0.2886   0.3049   0.3069   0.3392   0.3545
     0.3601   0.3780   0.3860   0.4454   0.4592   0.4683   0.4903   0.5092
     0.5307   0.5624   0.5719   0.5792   0.6120   0.6556   0.7544   0.7827
     0.7978   0.8276   0.8793   0.9747   0.9912   1.0146   1.0326   1.0511
     1.0565   1.1035   1.1189   1.1402   1.1464   1.2195   1.2620   1.3165
     1.3384   1.3806   1.4017   1.4315   1.4396   1.4655   1.4711   1.5052
     1.5187   1.5363   1.5572   1.6226   1.6411   1.6572   1.6655   1.6835
     1.6956   1.7001   1.7363   1.7497   1.7606   1.7788   1.7863   1.8224
     1.8283   1.8511   1.9017   1.9178   1.9307   1.9549   1.9670   1.9738
     1.9809   1.9925   2.0178   2.0227   2.0256   2.0507   2.0535   2.0566
     2.0650   2.1063   2.1962   2.2732   2.3090   2.3784   2.4939   2.7237
     2.7890   2.8244

          k = 0.2000-0.1155 0.0000 ( 51134 PWs)   bands (ev):

   -21.8272 -10.7734  -7.5426  -6.8864  -6.2919  -5.7808  -5.4672  -5.3540
    -4.8609  -4.8564  -4.3464  -4.2010  -3.9323  -3.9305  -3.8283  -3.8141
    -3.6378  -3.3869  -3.2561  -3.2486  -3.1451  -2.8714  -2.6672  -2.6648
    -2.5988  -2.5552  -2.5435  -2.3539  -2.2519  -2.2301  -2.2234  -2.2017
    -2.1824  -2.1499  -2.1340  -2.1226  -2.0988  -2.0132  -1.9560  -1.9290
    -1.8689  -1.8651  -1.7905  -1.7374  -1.6931  -1.6694  -1.6584  -1.5624
    -1.5281  -1.4991  -1.4643  -1.4389  -1.4089  -1.3912  -1.3718  -1.3637
    -1.3599  -1.3500  -1.2791  -1.2413  -1.2254  -1.2197  -1.1869  -1.1725
    -1.1099  -1.0386  -0.8701  -0.7699  -0.7545  -0.7451  -0.7004  -0.6354
    -0.6179  -0.5850  -0.5353  -0.5150  -0.4257  -0.4116  -0.3997  -0.3858
    -0.3463  -0.3414  -0.3324  -0.3234  -0.3141  -0.3041  -0.2613  -0.2386
    -0.1931  -0.1821  -0.1648  -0.1627  -0.1441  -0.1172  -0.1056  -0.0874
    -0.0856  -0.0780  -0.0680  -0.0629  -0.0603  -0.0563  -0.0406  -0.0164
     0.0204   0.0258   0.0348   0.0386   0.0698   0.0857   0.1016   0.1068
     0.1434   0.1630   0.1729   0.2026   0.2411   0.2498   0.2560   0.2878
     0.4114   0.4357   0.4741   0.4962   0.5169   0.5263   0.5606   0.5686
     0.5861   0.5911   0.6009   0.6110   0.7696   0.8699   0.9283   0.9343
     0.9374   0.9558   0.9733   0.9840   1.0303   1.0504   1.1190   1.1275
     1.1386   1.1866   1.2106   1.2455   1.2547   1.2878   1.3018   1.3157
     1.3591   1.3967   1.4078   1.4284   1.4341   1.4498   1.4741   1.4855
     1.5145   1.5427   1.5614   1.5759   1.5834   1.6046   1.6166   1.6438
     1.6736   1.6769   1.6832   1.6925   1.7043   1.7143   1.7639   1.7703
     1.7759   1.7805   1.8212   1.8277   1.8368   1.8551   1.8644   1.8719
     1.8887   1.9209   1.9276   1.9352   1.9571   1.9614   1.9660   1.9900
     1.9922   2.0132   2.0167   2.0326   2.1111   2.1225   2.1319   2.1664
     2.1973   2.2176

          k = 0.2000 0.1155 0.0000 ( 51134 PWs)   bands (ev):

   -21.8272 -10.7735  -7.5436  -6.8901  -6.2839  -5.7557  -5.4580  -5.4012
    -4.8519  -4.8489  -4.3430  -4.2385  -3.9335  -3.9287  -3.8291  -3.7813
    -3.6421  -3.3884  -3.2569  -3.2343  -3.1558  -2.8912  -2.6732  -2.6350
    -2.6098  -2.5596  -2.5340  -2.3268  -2.2848  -2.2300  -2.2251  -2.2133
    -2.1891  -2.1380  -2.1339  -2.1205  -2.0996  -2.0067  -1.9546  -1.9447
    -1.8679  -1.8606  -1.8055  -1.7368  -1.6732  -1.6709  -1.6378  -1.5526
    -1.5430  -1.5011  -1.4643  -1.4401  -1.4124  -1.3800  -1.3745  -1.3625
    -1.3594  -1.3155  -1.2915  -1.2500  -1.2295  -1.2225  -1.1915  -1.1684
    -1.1171  -1.0216  -0.8838  -0.7637  -0.7526  -0.7317  -0.7045  -0.6444
    -0.6294  -0.5901  -0.5288  -0.5141  -0.4315  -0.4022  -0.3990  -0.3770
    -0.3485  -0.3398  -0.3333  -0.3253  -0.3036  -0.2949  -0.2743  -0.2510
    -0.1943  -0.1756  -0.1652  -0.1627  -0.1461  -0.1171  -0.1030  -0.0880
    -0.0837  -0.0750  -0.0728  -0.0639  -0.0620  -0.0541  -0.0393  -0.0158
     0.0211   0.0284   0.0394   0.0404   0.0657   0.0867   0.0935   0.1018
     0.1488   0.1560   0.1868   0.2066   0.2353   0.2475   0.2585   0.2890
     0.4198   0.4266   0.4586   0.4905   0.5072   0.5413   0.5542   0.5646
     0.5756   0.5927   0.6065   0.6116   0.7673   0.8999   0.9116   0.9299
     0.9334   0.9488   0.9729   0.9826   1.0172   1.0487   1.0977   1.1212
     1.1288   1.2061   1.2132   1.2460   1.2641   1.2814   1.3019   1.3286
     1.3590   1.3996   1.4183   1.4245   1.4288   1.4510   1.4783   1.4869
     1.5164   1.5372   1.5574   1.5849   1.5920   1.6122   1.6216   1.6560
     1.6664   1.6765   1.6825   1.6929   1.6961   1.7070   1.7609   1.7641
     1.7745   1.7800   1.8217   1.8316   1.8367   1.8550   1.8614   1.8749
     1.8848   1.9250   1.9266   1.9362   1.9550   1.9615   1.9658   1.9862
     1.9905   2.0171   2.0200   2.0301   2.1102   2.1197   2.1304   2.1524
     2.2006   2.2214

          k = 0.2000 0.3464 0.0000 ( 51202 PWs)   bands (ev):

   -21.8272 -10.7719  -7.2637  -6.8730  -6.1511  -5.8578  -5.8283  -5.5724
    -5.4060  -4.5909  -4.5134  -4.1322  -4.1186  -4.0126  -3.2927  -3.2859
    -3.2788  -3.2697  -3.1664  -3.0807  -2.9849  -2.9745  -2.9524  -2.6130
    -2.5548  -2.5315  -2.5247  -2.4438  -2.4261  -2.4074  -2.3458  -2.3261
    -2.3173  -2.3082  -2.3021  -2.1763  -2.1565  -2.0766  -1.9325  -1.9261
    -1.9000  -1.8750  -1.8068  -1.7981  -1.7393  -1.6439  -1.5953  -1.5769
    -1.4835  -1.4501  -1.4137  -1.4107  -1.4030  -1.3865  -1.3631  -1.3481
    -1.3338  -1.2999  -1.2645  -1.2337  -1.1809  -1.1514  -1.0884  -1.0327
    -0.9663  -0.9332  -0.8926  -0.8186  -0.7408  -0.7186  -0.7081  -0.6740
    -0.6514  -0.6435  -0.6188  -0.5943  -0.5444  -0.5266  -0.5157  -0.4934
    -0.4740  -0.4480  -0.4403  -0.4320  -0.3868  -0.3084  -0.2710  -0.2624
    -0.2474  -0.2333  -0.1974  -0.1766  -0.1592  -0.1517  -0.1273  -0.1194
    -0.0970  -0.0807  -0.0656  -0.0522  -0.0425  -0.0166   0.0011   0.0175
     0.0286   0.0363   0.0536   0.0705   0.0809   0.0888   0.1060   0.1116
     0.1271   0.1874   0.2068   0.2268   0.3318   0.3412   0.3596   0.3708
     0.3991   0.4118   0.4501   0.4630   0.5095   0.5264   0.5344   0.5378
     0.5518   0.5625   0.6069   0.6367   0.6816   0.7279   0.8280   0.8541
     0.9151   0.9448   0.9631   0.9909   1.0040   1.0097   1.0163   1.0425
     1.0590   1.0697   1.0843   1.1028   1.1367   1.1768   1.2465   1.2574
     1.2808   1.2894   1.3292   1.3496   1.3532   1.3754   1.4139   1.4381
     1.5016   1.5619   1.6152   1.6457   1.6655   1.6815   1.6917   1.7051
     1.7149   1.7291   1.7329   1.7494   1.7614   1.8197   1.8263   1.8373
     1.8415   1.8709   1.8872   1.8919   1.9055   1.9301   1.9427   1.9591
     1.9657   1.9774   1.9787   1.9973   2.0074   2.0232   2.0535   2.0875
     2.0992   2.1134   2.2032   2.2349   2.2909   2.3440   2.3803   2.5021
     2.6605   2.6980

          k = 0.2000-0.5774 0.0000 ( 51262 PWs)   bands (ev):

   -21.8272 -10.7707  -6.9593  -6.6585  -6.6020  -6.0773  -5.8884  -5.5059
    -5.2468  -5.1162  -4.6244  -4.1773  -3.6578  -3.5321  -3.3168  -3.3126
    -3.2755  -3.0891  -3.0601  -2.9070  -2.8992  -2.8938  -2.7687  -2.7566
    -2.7494  -2.7276  -2.7139  -2.6908  -2.5253  -2.3941  -2.3722  -2.3606
    -2.3372  -2.3311  -2.2828  -2.2729  -2.2012  -2.1584  -2.0412  -1.9174
    -1.8305  -1.8189  -1.8129  -1.7474  -1.7108  -1.6520  -1.5781  -1.5668
    -1.5234  -1.5186  -1.5025  -1.4139  -1.3683  -1.3486  -1.3342  -1.3101
    -1.2756  -1.2236  -1.1918  -1.1686  -1.1182  -1.0904  -1.0855  -1.0251
    -0.9880  -0.9380  -0.8442  -0.8007  -0.7920  -0.7450  -0.7235  -0.7130
    -0.6634  -0.6475  -0.6304  -0.5960  -0.5624  -0.5405  -0.5107  -0.4947
    -0.4858  -0.4579  -0.4495  -0.4350  -0.4285  -0.4168  -0.3880  -0.3629
    -0.3575  -0.3268  -0.3073  -0.2781  -0.2295  -0.2024  -0.1755  -0.1570
    -0.1046  -0.0876  -0.0709  -0.0411  -0.0279  -0.0017   0.0016   0.0222
     0.0433   0.0875   0.1023   0.1100   0.1242   0.1353   0.2036   0.2354
     0.2531   0.2760   0.2804   0.2954   0.3132   0.3395   0.3686   0.3846
     0.3974   0.4034   0.4523   0.4889   0.5031   0.5191   0.5286   0.5684
     0.5762   0.5823   0.5926   0.6342   0.6455   0.6540   0.6637   0.6889
     0.7589   0.8265   0.9087   0.9286   0.9471   0.9567   0.9877   1.0042
     1.0114   1.0363   1.0524   1.0920   1.1531   1.1907   1.2018   1.2076
     1.2625   1.2680   1.2890   1.3249   1.3416   1.3635   1.4237   1.4411
     1.4610   1.5832   1.6079   1.6343   1.6861   1.7013   1.7305   1.7439
     1.7521   1.7651   1.7741   1.7939   1.8203   1.8346   1.8405   1.8483
[...]
     atom    8 type  1   force =    -0.00167619   -0.00164747   -0.10521664
     atom    9 type  1   force =     0.00059270    0.00085832   -0.10521753
     atom   10 type  1   force =     0.00200302    0.00083319   -0.01065035
     atom   11 type  1   force =    -0.00032440   -0.00193752   -0.01035185
     atom   12 type  1   force =    -0.00115800    0.00008504   -0.01039501
     atom   13 type  1   force =    -0.00156442    0.00112868   -0.01048762
     atom   14 type  1   force =     0.00040281    0.00045153   -0.00787771
     atom   15 type  1   force =     0.00052149    0.00008757   -0.01110615
     atom   16 type  1   force =    -0.00068009   -0.00138161   -0.01081058
     atom   17 type  1   force =     0.00080782    0.00073988   -0.00980757
     atom   18 type  1   force =     0.00029433    0.00013981   -0.01077943
     atom   19 type  1   force =    -0.00108208   -0.00128414    0.01434667
     atom   20 type  1   force =    -0.01039837   -0.00042347   -0.00195177
     atom   21 type  1   force =     0.00992575   -0.00749827    0.00090792
     atom   22 type  1   force =     0.00170265   -0.00011259    0.01563370
     atom   23 type  1   force =     0.00049445    0.01181542    0.00061796
     atom   24 type  1   force =    -0.00235013   -0.00081682    0.01839330
     atom   25 type  1   force =     0.00034433    0.00053575    0.02008103
     atom   26 type  1   force =    -0.00497156   -0.00284295    0.00823365
     atom   27 type  1   force =     0.00555600    0.00022956    0.00943833
     atom   28 type  1   force =     0.01014418    0.00164963    0.11911049
     atom   29 type  1   force =    -0.00535967    0.03006627    0.16433423
     atom   30 type  1   force =    -0.02114418    0.01276445    0.13326040
     atom   31 type  1   force =     0.02990347   -0.02603166    0.14290795
     atom   32 type  1   force =    -0.02887781   -0.02767876    0.20900747
     atom   33 type  1   force =    -0.00358169   -0.00045322    0.11830232
     atom   34 type  1   force =     0.00124855   -0.00706586    0.11959801
     atom   35 type  1   force =    -0.00031348    0.00119821    0.12679344
     atom   36 type  1   force =    -0.00078407    0.00197729    0.10619250
     atom   37 type  2   force =    -0.04976949   -0.04931667    0.26997222
     atom   38 type  3   force =     1.13125439    1.32271384   -2.05143765
     atom   39 type  4   force =    -0.03272439   -0.03638196   -0.02303807
     The ionic contribution  to forces
     atom    1 type  1   force =    -0.00650515    0.00110343 -111.13880183
     atom    2 type  1   force =    -0.00316846    0.00225824 -111.15820133
     atom    3 type  1   force =     0.00967350    0.00086615 -111.14508645
     atom    4 type  1   force =    -0.00383100    0.00524394 -111.13814597
     atom    5 type  1   force =     0.00207430    0.00785516 -111.14169232
     atom    6 type  1   force =     0.00175674   -0.00106652 -111.13407525
     atom    7 type  1   force =     0.00135013   -0.00115928 -111.13361481
     atom    8 type  1   force =    -0.00580519   -0.00613008 -111.14243892
     atom    9 type  1   force =     0.00445511   -0.00897103 -111.14517216
     atom   10 type  1   force =    -0.04108041   -0.01791368  -40.07749914
     atom   11 type  1   force =    -0.01635082   -0.05757995  -40.19304359
     atom   12 type  1   force =     0.05741677   -0.03392115  -40.10841492
     atom   13 type  1   force =    -0.06210806    0.03910369  -40.14458228
     atom   14 type  1   force =     0.04093432    0.04581161  -40.18911425
     atom   15 type  1   force =     0.02119218    0.01311926  -40.06540290
     atom   16 type  1   force =    -0.00565193    0.04164730  -40.07178285
     atom   17 type  1   force =     0.00369547   -0.00455348  -40.07441001
     atom   18 type  1   force =     0.00195507   -0.02571304  -40.06420596
     atom   19 type  1   force =    -0.31200669    0.05320439   31.52614092
     atom   20 type  1   force =    -0.18752039    0.12789123   30.47405786
     atom   21 type  1   force =     0.49508812    0.03900198   31.22339306
     atom   22 type  1   force =    -0.17962158    0.24942804   31.55972729
     atom   23 type  1   force =     0.10442143    0.38856279   31.38986141
     atom   24 type  1   force =     0.07591142   -0.04769534   31.72022621
     atom   25 type  1   force =     0.05554486   -0.05082355   31.74137138
     atom   26 type  1   force =    -0.28303217   -0.30600627   31.34921545
     atom   27 type  1   force =     0.22850428   -0.45253442   31.22075125
     atom   28 type  1   force =    -1.51923584   -0.58261565  103.83706446
     atom   29 type  1   force =    -1.10086518   -4.11911473   98.29078388
     atom   30 type  1   force =     2.34945413   -1.36150588  103.17744134
     atom   31 type  1   force =    -3.15213934    2.04947738  101.70646833
     atom   32 type  1   force =     3.02888661    3.39621731   98.11710048
     atom   33 type  1   force =     0.70207350    0.35066143  104.27904051
     atom   34 type  1   force =    -0.23659171    1.36706590  104.14952298
     atom   35 type  1   force =     0.07441668   -0.18709089  104.05566503
     atom   36 type  1   force =     0.15757323   -0.84459551  104.24996597
     atom   37 type  2   force =     2.47374547    3.21999289   53.18160752
     atom   38 type  3   force =    -4.19272914   -4.87407713   88.96483298
     atom   39 type  4   force =     1.41811973    1.58455547   15.05144663
     The local contribution  to forces
     atom    1 type  1   force =     0.00759013    0.00064944  111.24752160
     atom    2 type  1   force =     0.00418760   -0.00201421  111.26085366
     atom    3 type  1   force =    -0.01143652    0.00151332  111.24943124
     atom    4 type  1   force =     0.00325612   -0.00550221  111.24663142
     atom    5 type  1   force =    -0.00264090   -0.01128876  111.24689414
     atom    6 type  1   force =    -0.00054591    0.00050872  111.23857130
     atom    7 type  1   force =    -0.00300541    0.00007435  111.24131442
     atom    8 type  1   force =     0.00876873    0.00768079  111.25095203
     atom    9 type  1   force =    -0.00596552    0.00838620  111.25193853
     atom   10 type  1   force =     0.03973467    0.01655124   40.06681109
     atom   11 type  1   force =     0.01592099    0.05991842   40.18242680
     atom   12 type  1   force =    -0.05569568    0.03443207   40.10167301
     atom   13 type  1   force =     0.06415624   -0.04133480   40.13747223
     atom   14 type  1   force =    -0.04175747   -0.04607172   40.17448312
     atom   15 type  1   force =    -0.02219285   -0.01345283   40.05684432
     atom   16 type  1   force =     0.00783653   -0.03985355   40.06336703
     atom   17 type  1   force =    -0.00495310    0.00377269   40.06592791
     atom   18 type  1   force =    -0.00254450    0.02562085   40.05428320
     atom   19 type  1   force =     0.31207256   -0.05081856  -31.51756018
     atom   20 type  1   force =     0.19664791   -0.12670660  -30.45636121
     atom   21 type  1   force =    -0.50246363   -0.03194343  -31.20512553
     atom   22 type  1   force =     0.17674543   -0.24872645  -31.55291843
     atom   23 type  1   force =    -0.10408116   -0.39889904  -31.37083878
     atom   24 type  1   force =    -0.07270386    0.04828289  -31.71567198
     atom   25 type  1   force =    -0.05667157    0.05037799  -31.73567325
     atom   26 type  1   force =     0.28733477    0.30724829  -31.33558631
     atom   27 type  1   force =    -0.23340867    0.45120072  -31.20939766
     atom   28 type  1   force =     1.50289923    0.57946169 -103.96561359
     atom   29 type  1   force =     1.10100637    4.06855794  -98.46551556
     atom   30 type  1   force =    -2.31572475    1.33655124 -103.32238118
     atom   31 type  1   force =     3.10585110   -2.01646813 -101.85785518
     atom   32 type  1   force =    -2.98621035   -3.35066255  -98.31638436
     atom   33 type  1   force =    -0.68915930   -0.34868572 -104.40955826
     atom   34 type  1   force =     0.23004252   -1.34898990 -104.27917256
     atom   35 type  1   force =    -0.07113555    0.18861876 -104.19613622
     atom   36 type  1   force =    -0.15604018    0.83856614 -104.36617867
     atom   37 type  2   force =    -2.42648414   -3.17298333  -53.45435812
     atom   38 type  3   force =     3.07259056    3.56671963  -86.92210464
     atom   39 type  4   force =    -1.38362377   -1.54632169  -15.04271579
     The core correction contribution to forces
     atom    1 type  1   force =     0.00011032    0.00017329    0.01001321
     atom    2 type  1   force =     0.00028612    0.00007244    0.01017914
     atom    3 type  1   force =    -0.00004047    0.00014893    0.01015171
     atom    4 type  1   force =    -0.00012596   -0.00007253    0.00997150
     atom    5 type  1   force =    -0.00009637   -0.00025433    0.01020974
     atom    6 type  1   force =     0.00005925   -0.00005298    0.00957153
     atom    7 type  1   force =    -0.00006106   -0.00003819    0.01042396
     atom    8 type  1   force =     0.00008914    0.00012784    0.01014166
     atom    9 type  1   force =    -0.00009519   -0.00002175    0.00995859
     atom   10 type  1   force =    -0.00023155   -0.00019576   -0.00191440
     atom   11 type  1   force =    -0.00005288   -0.00019540   -0.00179215
     atom   12 type  1   force =     0.00037518   -0.00024646   -0.00194683
     atom   13 type  1   force =    -0.00012081   -0.00011334   -0.00167853
     atom   14 type  1   force =     0.00003766    0.00002328   -0.00176245
     atom   15 type  1   force =     0.00021119    0.00003813   -0.00183329
     atom   16 type  1   force =     0.00003171    0.00046902   -0.00198601
     atom   17 type  1   force =     0.00003628    0.00008275   -0.00176940
     atom   18 type  1   force =    -0.00011150   -0.00008860   -0.00160653
     atom   19 type  1   force =    -0.00019173   -0.00011545    0.00168441
     atom   20 type  1   force =     0.00079689   -0.00009654    0.00200991
     atom   21 type  1   force =    -0.00007102    0.00023042    0.00055525
     atom   22 type  1   force =    -0.00019711    0.00014531    0.00161622
     atom   23 type  1   force =     0.00014350    0.00007037    0.00075435
     atom   24 type  1   force =     0.00011077    0.00004656    0.00186571
     atom   25 type  1   force =     0.00044008    0.00018866    0.00226578
     atom   26 type  1   force =    -0.00002551    0.00020862    0.00144961
     atom   27 type  1   force =    -0.00018097   -0.00007887    0.00122790
     atom   28 type  1   force =     0.00087158   -0.00008310   -0.00908285
     atom   29 type  1   force =     0.00354096    0.01192632    0.00224859
     atom   30 type  1   force =    -0.00412519    0.00412332   -0.00804173
     atom   31 type  1   force =     0.00683674   -0.00273180   -0.00635764
     atom   32 type  1   force =    -0.01341134   -0.01512904    0.02082123
     atom   33 type  1   force =    -0.00256577    0.00005710   -0.00867200
     atom   34 type  1   force =     0.00191532   -0.00288406   -0.00875992
     atom   35 type  1   force =    -0.00128894   -0.00169254   -0.00803089
     atom   36 type  1   force =    -0.00041626    0.00025537   -0.01036102
     atom   37 type  2   force =    -0.00116678   -0.00048202   -0.00152692
     atom   38 type  3   force =    -0.00898863   -0.01039070    0.01644054
     atom   39 type  4   force =     0.00000000    0.00000000    0.00000000
     The Hubbard contrib.    to forces
     atom    1 type  1   force =     0.00000000    0.00000000    0.00000000
     atom    2 type  1   force =     0.00000000    0.00000000    0.00000000
     atom    3 type  1   force =     0.00000000    0.00000000    0.00000000
     atom    4 type  1   force =     0.00000000    0.00000000    0.00000000
     atom    5 type  1   force =     0.00000000    0.00000000    0.00000000
     atom    6 type  1   force =     0.00000000    0.00000000    0.00000000
     atom    7 type  1   force =     0.00000000    0.00000000    0.00000000
     atom    8 type  1   force =     0.00000000    0.00000000    0.00000000
     atom    9 type  1   force =     0.00000000    0.00000000    0.00000000
     atom   10 type  1   force =     0.00000000    0.00000000    0.00000000
     atom   11 type  1   force =     0.00000000    0.00000000    0.00000000
     atom   12 type  1   force =     0.00000000    0.00000000    0.00000000
     atom   13 type  1   force =     0.00000000    0.00000000    0.00000000
     atom   14 type  1   force =     0.00000000    0.00000000    0.00000000
     atom   15 type  1   force =     0.00000000    0.00000000    0.00000000
     atom   16 type  1   force =     0.00000000    0.00000000    0.00000000
     atom   17 type  1   force =     0.00000000    0.00000000    0.00000000
     atom   18 type  1   force =     0.00000000    0.00000000    0.00000000
     atom   19 type  1   force =     0.00000000    0.00000000    0.00000000
     atom   20 type  1   force =     0.00000000    0.00000000    0.00000000
     atom   21 type  1   force =     0.00000000    0.00000000    0.00000000
     atom   22 type  1   force =     0.00000000    0.00000000    0.00000000
     atom   23 type  1   force =     0.00000000    0.00000000    0.00000000
     atom   24 type  1   force =     0.00000000    0.00000000    0.00000000
     atom   25 type  1   force =     0.00000000    0.00000000    0.00000000
     atom   26 type  1   force =     0.00000000    0.00000000    0.00000000
     atom   27 type  1   force =     0.00000000    0.00000000    0.00000000
     atom   28 type  1   force =     0.00000000    0.00000000    0.00000000
     atom   29 type  1   force =     0.00000000    0.00000000    0.00000000
     atom   30 type  1   force =     0.00000000    0.00000000    0.00000000
     atom   31 type  1   force =     0.00000000    0.00000000    0.00000000
     atom   32 type  1   force =     0.00000000    0.00000000    0.00000000
     atom   33 type  1   force =     0.00000000    0.00000000    0.00000000
     atom   34 type  1   force =     0.00000000    0.00000000    0.00000000
     atom   35 type  1   force =     0.00000000    0.00000000    0.00000000
     atom   36 type  1   force =     0.00000000    0.00000000    0.00000000
     atom   37 type  2   force =     0.00000000    0.00000000    0.00000000
     atom   38 type  3   force =     0.00000000    0.00000000    0.00000000
     atom   39 type  4   force =     0.00000000    0.00000000    0.00000000
     The SCF correction term to forces
     atom    1 type  1   force =     0.00000000   -0.00000000   -0.00000000
     atom    2 type  1   force =    -0.00000000    0.00000000   -0.00000000
     atom    3 type  1   force =    -0.00000000   -0.00000000   -0.00000000
     atom    4 type  1   force =     0.00000000   -0.00000000   -0.00000000
     atom    5 type  1   force =    -0.00000000    0.00000000   -0.00000000
     atom    6 type  1   force =     0.00000000    0.00000000   -0.00000000
     atom    7 type  1   force =     0.00000000   -0.00000000   -0.00000000
     atom    8 type  1   force =    -0.00000000    0.00000000   -0.00000000
     atom    9 type  1   force =    -0.00000000    0.00000000   -0.00000000
     atom   10 type  1   force =     0.00000000    0.00000000   -0.00000000
     atom   11 type  1   force =     0.00000000   -0.00000000   -0.00000000
     atom   12 type  1   force =    -0.00000000   -0.00000000   -0.00000000
     atom   13 type  1   force =    -0.00000000    0.00000000   -0.00000000
     atom   14 type  1   force =    -0.00000000   -0.00000000   -0.00000000
     atom   15 type  1   force =     0.00000000    0.00000000   -0.00000000
     atom   16 type  1   force =    -0.00000000   -0.00000000   -0.00000000
     atom   17 type  1   force =     0.00000000    0.00000000   -0.00000000
     atom   18 type  1   force =    -0.00000000   -0.00000000   -0.00000000
     atom   19 type  1   force =     0.00000000    0.00000000    0.00000000
     atom   20 type  1   force =    -0.00000000    0.00000000    0.00000000
     atom   21 type  1   force =    -0.00000000   -0.00000000    0.00000000
     atom   22 type  1   force =    -0.00000000   -0.00000000    0.00000000
     atom   23 type  1   force =    -0.00000000    0.00000000    0.00000000
     atom   24 type  1   force =     0.00000000    0.00000000    0.00000000
     atom   25 type  1   force =    -0.00000000   -0.00000000    0.00000000
     atom   26 type  1   force =     0.00000000   -0.00000000    0.00000000
     atom   27 type  1   force =    -0.00000000   -0.00000000   -0.00000000
     atom   28 type  1   force =     0.00000000   -0.00000000   -0.00000000
     atom   29 type  1   force =    -0.00000000    0.00000000   -0.00000000
     atom   30 type  1   force =     0.00000000   -0.00000000   -0.00000000
     atom   31 type  1   force =     0.00000000    0.00000000   -0.00000000
     atom   32 type  1   force =    -0.00000000    0.00000000    0.00000000
     atom   33 type  1   force =     0.00000000    0.00000000    0.00000000
     atom   34 type  1   force =    -0.00000000   -0.00000000   -0.00000000
     atom   35 type  1   force =    -0.00000000   -0.00000000   -0.00000000
     atom   36 type  1   force =     0.00000000   -0.00000000   -0.00000000
     atom   37 type  2   force =     0.00000012    0.00001147    0.00001176
     atom   38 type  3   force =     0.00000051    0.00000684    0.00001170
     atom   39 type  4   force =    -0.00000004    0.00000148    0.00000218

     Total force =     0.018432     Total SCF correction =     0.000021

     Writing all to output data dir ./pwscf.save/

     init_run     :     16.29s CPU     16.74s WALL (       1 calls)
     electrons    :    897.74s CPU    910.02s WALL (       1 calls)
     forces       :      3.45s CPU      3.53s WALL (       1 calls)

     Called by init_run:
     wfcinit      :     13.17s CPU     13.50s WALL (       1 calls)
     potinit      :      2.04s CPU      2.12s WALL (       1 calls)
     hinit0       :      0.83s CPU      0.85s WALL (       1 calls)

     Called by electrons:
     c_bands      :    752.47s CPU    762.01s WALL (      51 calls)
     sum_band     :     97.75s CPU     99.28s WALL (      51 calls)
     v_of_rho     :     12.01s CPU     12.50s WALL (      52 calls)
     newd         :      3.30s CPU      3.36s WALL (      52 calls)
     PAW_pot      :     14.41s CPU     14.59s WALL (      52 calls)
     mix_rho      :     19.02s CPU     19.32s WALL (      51 calls)
     vdW_kernel   :      1.10s CPU      1.11s WALL (       1 calls)

     Called by c_bands:
     init_us_2    :      8.75s CPU      8.96s WALL (    2704 calls)
     init_us_2:cp :      8.74s CPU      8.95s WALL (    2704 calls)
     cegterg      :    727.06s CPU    735.84s WALL (    1326 calls)

     Called by *egterg:
     cdiaghg      :    199.29s CPU    200.83s WALL (    4458 calls)
     h_psi        :    353.21s CPU    358.50s WALL (    4484 calls)
     s_psi        :     37.59s CPU     38.11s WALL (    4484 calls)
     g_psi        :      0.94s CPU      0.97s WALL (    3132 calls)

     Called by h_psi:
     h_psi:calbec :     56.60s CPU     57.57s WALL (    4484 calls)
     vloc_psi     :    256.51s CPU    260.31s WALL (    4484 calls)
     add_vuspsi   :     37.79s CPU     38.27s WALL (    4484 calls)

     General routines
     calbec       :     83.14s CPU     84.42s WALL (    5914 calls)
     fft          :      8.85s CPU      9.34s WALL (    4705 calls)
     ffts         :     10.93s CPU     11.11s WALL (   20424 calls)
     fftw         :    296.87s CPU    301.32s WALL ( 1376066 calls)
     interpolate  :      0.38s CPU      0.39s WALL (     104 calls)

     Parallel routines

     PWSCF        :  15m26.71s CPU  15m46.52s WALL


   This run was terminated on:  20:23:29   7Dec2025            

=------------------------------------------------------------------------------=
   JOB DONE.
=------------------------------------------------------------------------------=
