
     Program PWSCF v.7.1 starts on 11Dec2025 at  6: 4:14 
        Git branch: heads/qe-7.1
        Last git commit: 48ba0178f8fede6d020eb786884699a9f063f55d-dirty
        Last git commit date: Fri Jan 27 14:22:33 2023 +0000
        Last git commit subject: Merge branch 'fix_hubbard' into 'develop'

     This program is part of the open-source Quantum ESPRESSO suite
     for quantum simulation of materials; please cite
         "P. Giannozzi et al., J. Phys.:Condens. Matter 21 395502 (2009);
         "P. Giannozzi et al., J. Phys.:Condens. Matter 29 465901 (2017);
         "P. Giannozzi et al., J. Chem. Phys. 152 154105 (2020);
          URL http://www.quantum-espresso.org", 
     in publications or presentations arising from this work. More details at
     http://www.quantum-espresso.org/quote

     Parallel version (MPI), running on    96 processors

     MPI processes distributed on     2 nodes
     114078 MiB available memory on the printing compute node when the environment starts

     Reading input from espresso.pwi
Warning: card &CELL ignored
Warning: card / ignored
Warning: card &FCP ignored
Warning: card / ignored
Warning: card &RISM ignored
Warning: card / ignored

     Current dimensions of program PWSCF are:
     Max number of different atomic species (ntypx) = 10
     Max number of k-points (npk) =  40000
     Max angular momentum in pseudopotentials (lmaxx) =  4
     file Co.pbe-n-kjpaw_psl.1.0.0.UPF: wavefunction(s)  4S 3D renormalized
     file C.pbe-n-kjpaw_psl.1.0.0.UPF: wavefunction(s)  2S 2P renormalized
     file O.pbe-nl-kjpaw_psl.1.0.0.UPF: wavefunction(s)  2S 2P renormalized
     file H.pbe-kjpaw_psl.1.0.0.UPF: wavefunction(s)  1S renormalized

     **************************************************************************
     Initializing libbeef V0.1.2 with the BEEF-vdW functional.
     Citation: Wellendorff et al., PRB 85, 235149 (2012).
     **************************************************************************


     IMPORTANT: XC functional enforced from input :
     Exchange-correlation= BEEF-VDW
                           (   1   4  43  14   2   0   0)
     Any further DFT definition will be discarded
     Please, verify this is what you really want


     R & G space division:  proc/nbgrp/npool/nimage =      96
     Subspace diagonalization in iterative solution of the eigenvalue problem:
     one sub-group per band group will be used
     custom distributed-memory algorithm (size of sub-group:  2*  2 procs)


     Parallelization info
     --------------------
     sticks:   dense  smooth     PW     G-vecs:    dense   smooth      PW
     Min          43      28      7                 7829     4248     595
     Max          44      29      8                 7845     4281     630
     Sum        4153    2773    757               752179   409445   59217

     Using Slab Decomposition



     bravais-lattice index     =            0
     lattice parameter (alat)  =      14.1729  a.u.
     unit-cell volume          =    8574.3059 (a.u.)^3
     number of atoms/cell      =           39
     number of atomic types    =            4
     number of electrons       =       335.00
     number of Kohn-Sham states=          202
     kinetic-energy cutoff     =      50.0000  Ry
     charge density cutoff     =     300.0000  Ry
     scf convergence threshold =      1.0E-08
     mixing beta               =       0.7000
     number of iterations used =            8  local-TF  mixing
     Exchange-correlation= BEEF-VDW
                           (   1   4  43  14   2   0   0)

     celldm(1)=  14.172946  celldm(2)=   0.000000  celldm(3)=   0.000000
     celldm(4)=   0.000000  celldm(5)=   0.000000  celldm(6)=   0.000000

     crystal axes: (cart. coord. in units of alat)
               a(1) = (   1.000000   0.000000   0.000000 )  
               a(2) = (   0.500000   0.866025   0.000000 )  
               a(3) = (   0.000000   0.000000   3.477667 )  

     reciprocal axes: (cart. coord. in units 2 pi/alat)
               b(1) = (  1.000000 -0.577350  0.000000 )  
               b(2) = (  0.000000  1.154701  0.000000 )  
               b(3) = (  0.000000  0.000000  0.287549 )  


     PseudoPot. # 1 for Co read from file:
     /users/kbadger1/espresso/pseudo/pslibrary.1.0.0/pbe/PSEUDOPOTENTIALS/Co.pbe-n-kjpaw_psl.1.0.0.UPF
     MD5 check sum: 88af6ec42553d4236c267fdfcb472151
     Pseudo is Projector augmented-wave + core cor, Zval =  9.0
     Generated using 'atomic' code by A. Dal Corso  v.7.0
     Shape of augmentation charge: PSQ
     Using radial grid of 1193 points,  6 beta functions with: 
                l(1) =   0
                l(2) =   0
                l(3) =   1
                l(4) =   1
                l(5) =   2
                l(6) =   2
     Q(r) pseudized with 0 coefficients 


     PseudoPot. # 2 for C  read from file:
     /users/kbadger1/espresso/pseudo/pslibrary.1.0.0/pbe/PSEUDOPOTENTIALS/C.pbe-n-kjpaw_psl.1.0.0.UPF
     MD5 check sum: 6408e75cdba28732cea38a4db8498ce4
     Pseudo is Projector augmented-wave + core cor, Zval =  4.0
     Generated using 'atomic' code by A. Dal Corso  v.7.0
     Shape of augmentation charge: PSQ
     Using radial grid of 1073 points,  4 beta functions with: 
                l(1) =   0
                l(2) =   0
                l(3) =   1
                l(4) =   1
     Q(r) pseudized with 0 coefficients 


     PseudoPot. # 3 for O  read from file:
     /users/kbadger1/espresso/pseudo/pslibrary.1.0.0/pbe/PSEUDOPOTENTIALS/O.pbe-nl-kjpaw_psl.1.0.0.UPF
     MD5 check sum: f0439fab3598ca4e468f064226030408
     Pseudo is Projector augmented-wave + core cor, Zval =  6.0
     Generated using 'atomic' code by A. Dal Corso  v.7.0
     Shape of augmentation charge: PSQ
     Using radial grid of 1095 points,  4 beta functions with: 
                l(1) =   0
                l(2) =   0
                l(3) =   1
                l(4) =   1
     Q(r) pseudized with 0 coefficients 


     PseudoPot. # 4 for H  read from file:
     /users/kbadger1/espresso/pseudo/pslibrary.1.0.0/pbe/PSEUDOPOTENTIALS/H.pbe-kjpaw_psl.1.0.0.UPF
     MD5 check sum: fe4c6fa958fa6d3815bf5d2419cbf1df
     Pseudo is Projector augmented-wave, Zval =  1.0
     Generated using 'atomic' code by A. Dal Corso  v.7.0
     Shape of augmentation charge: PSQ
     Using radial grid of  929 points,  2 beta functions with: 
                l(1) =   0
                l(2) =   0
     Q(r) pseudized with 0 coefficients 


     atomic species   valence    mass     pseudopotential
        Co             9.00    58.93319     Co( 1.00)
        C              4.00    12.01100     C ( 1.00)
        O              6.00    15.99900     O ( 1.00)
        H              1.00     1.00800     H ( 1.00)

     Starting magnetic structure 
     atomic species   magnetization
        Co           1.000
        C            1.000
        O            0.000
        H            0.000

     No symmetry found



   Cartesian axes

     site n.     atom                  positions (alat units)
         1           Co  tau(   1) = (   0.0000000   0.1924501   1.3333333  )
         2           Co  tau(   2) = (   0.3333333   0.1924501   1.3333333  )
         3           Co  tau(   3) = (   0.6666667   0.1924501   1.3333333  )
         4           Co  tau(   4) = (   0.1666667   0.4811252   1.3333333  )
         5           Co  tau(   5) = (   0.5000000   0.4811252   1.3333333  )
         6           Co  tau(   6) = (   0.8333333   0.4811252   1.3333333  )
         7           Co  tau(   7) = (   0.3333333   0.7698004   1.3333333  )
         8           Co  tau(   8) = (   0.6666667   0.7698004   1.3333333  )
         9           Co  tau(   9) = (   1.0000000   0.7698004   1.3333333  )
        10           Co  tau(  10) = (   0.0000000   0.0000000   1.6036667  )
        11           Co  tau(  11) = (   0.3333333   0.0000000   1.6036667  )
        12           Co  tau(  12) = (   0.6666667   0.0000000   1.6036667  )
        13           Co  tau(  13) = (   0.1666667   0.2886751   1.6036667  )
        14           Co  tau(  14) = (   0.5000000   0.2886751   1.6036667  )
        15           Co  tau(  15) = (   0.8333333   0.2886751   1.6036667  )
        16           Co  tau(  16) = (   0.3333333   0.5773503   1.6036667  )
        17           Co  tau(  17) = (   0.6666667   0.5773503   1.6036667  )
        18           Co  tau(  18) = (   1.0000000   0.5773503   1.6036667  )
        19           Co  tau(  19) = (   0.0000000   0.1924501   1.8740000  )
        20           Co  tau(  20) = (   0.3333333   0.1924501   1.8740000  )
        21           Co  tau(  21) = (   0.6666667   0.1924501   1.8740000  )
        22           Co  tau(  22) = (   0.1666667   0.4811252   1.8740000  )
        23           Co  tau(  23) = (   0.5000000   0.4811252   1.8740000  )
        24           Co  tau(  24) = (   0.8333333   0.4811252   1.8740000  )
        25           Co  tau(  25) = (   0.3333333   0.7698004   1.8740000  )
        26           Co  tau(  26) = (   0.6666667   0.7698004   1.8740000  )
        27           Co  tau(  27) = (   1.0000000   0.7698004   1.8740000  )
        28           Co  tau(  28) = (   0.0000000   0.0000000   2.1443333  )
        29           Co  tau(  29) = (   0.3333333   0.0000000   2.1443333  )
        30           Co  tau(  30) = (   0.6666667   0.0000000   2.1443333  )
        31           Co  tau(  31) = (   0.1666667   0.2886751   2.1443333  )
        32           Co  tau(  32) = (   0.5000000   0.2886751   2.1443333  )
        33           Co  tau(  33) = (   0.8333333   0.2886751   2.1443333  )
        34           Co  tau(  34) = (   0.3333333   0.5773503   2.1443333  )
        35           Co  tau(  35) = (   0.6666667   0.5773503   2.1443333  )
        36           Co  tau(  36) = (   1.0000000   0.5773503   2.1443333  )
        37           C   tau(  37) = (   0.1600301   0.0181476   2.3380322  )
        38           O   tau(  38) = (   0.1656308   0.0268995   2.4960189  )
        39           H   tau(  39) = (   0.5005543   0.0898277   2.2744288  )

     number of k points=    13  Marzari-Vanderbilt smearing, width (Ry)=  0.0010
                       cart. coord. in units 2pi/alat
        k(    1) = (   0.0000000   0.0000000   0.0000000), wk =   0.0400000
        k(    2) = (   0.0000000   0.2309401   0.0000000), wk =   0.0800000
        k(    3) = (   0.0000000   0.4618802   0.0000000), wk =   0.0800000
        k(    4) = (   0.2000000  -0.1154701   0.0000000), wk =   0.0800000
        k(    5) = (   0.2000000   0.1154701   0.0000000), wk =   0.0800000
        k(    6) = (   0.2000000   0.3464102   0.0000000), wk =   0.0800000
        k(    7) = (   0.2000000  -0.5773503   0.0000000), wk =   0.0800000
        k(    8) = (   0.2000000  -0.3464102   0.0000000), wk =   0.0800000
        k(    9) = (   0.4000000  -0.2309401   0.0000000), wk =   0.0800000
        k(   10) = (   0.4000000   0.0000000   0.0000000), wk =   0.0800000
        k(   11) = (   0.4000000   0.2309401   0.0000000), wk =   0.0800000
        k(   12) = (   0.4000000  -0.6928203   0.0000000), wk =   0.0800000
        k(   13) = (   0.4000000  -0.4618802   0.0000000), wk =   0.0800000

     Dense  grid:   752179 G-vectors     FFT dimensions: (  80,  80, 288)

     Smooth grid:   409445 G-vectors     FFT dimensions: (  64,  64, 225)

     Estimated max dynamical RAM per process >      99.02 MB

     Estimated total dynamical RAM >       9.28 GB
     Generating pointlists ...
     new r_m :   0.0946 (alat units)  1.3407 (a.u.) for type    1
     new r_m :   0.0653 (alat units)  0.9256 (a.u.) for type    2
     new r_m :   0.0653 (alat units)  0.9256 (a.u.) for type    3
     new r_m :   0.0946 (alat units)  1.3407 (a.u.) for type    4

     Initial potential from superposition of free atoms

     starting charge     334.9897, renormalised to     335.0000

     negative rho (up, down):  3.048E-03 4.486E-04


     %%%%%%%%%%%%%%%%%%%%%%%%%%%%%%%%%%%%%%%%%%%%%%%%%%%%%%%%%%%%%%%%%%%%%%%%
     %                                                                      %
     % You are using vdW-DF, which was implemented by the Thonhauser group. %
     % Please cite the following two papers that made this development      %
     % possible and the two reviews that describe the various versions:     %
     %                                                                      %
     %   T. Thonhauser et al., PRL 115, 136402 (2015).                      %
     %   T. Thonhauser et al., PRB 76, 125112 (2007).                       %
     %   K. Berland et al., Rep. Prog. Phys. 78, 066501 (2015).             %
     %   D.C. Langreth et al., J. Phys.: Condens. Matter 21, 084203 (2009). %
     %                                                                      %
     % If you are calculating stress with vdW-DF, please also cite:         %
     %                                                                      %
     %   R. Sabatini et al., J. Phys.: Condens. Matter 24, 424209 (2012).   %
     %   C.M. Frostenson et al., Electr. Struct. 4, 014001 (2022).          %
     %                                                                      %
     %%%%%%%%%%%%%%%%%%%%%%%%%%%%%%%%%%%%%%%%%%%%%%%%%%%%%%%%%%%%%%%%%%%%%%%%

     %%%%%%%%%%%%%%%%%%%%%%%%%%%%%%%%%%%%%%%%%%%%%%%%%%%%%%%%%%%%%%%%%%%%%%%%
     %                                                                      %
     %  vdW-DF NEWS:                                                        %
     %                                                                      %
     %  * vdW-DF3 is now available. DOI: 10.1021/acs.jctc.0c00471           %
     %    use with input_dft = 'vdW-DF3-opt1' or 'vdW-DF3-opt2'             %
     %                                                                      %
     %  * Unscreened and range-separated hybrid vdW-DF-cx functionals       %
     %    DOI: 10.1063/1.4986522 and 10.1088/1361-648X/ac2ad2               %
     %    use with input_dft = 'vdW-DF-cx0'    and 'vdW-DF-ahcx'            %
     %  * Unscreened and range-separated hybrid vdW-DF2-b86r functionals    %
     %    DOI: 10.1063/1.4986522 and DOI: 10.1103/PhysRevX.12.041003        %
     %    use with input_dft = 'vdW-DF2-br0' and 'vdW-DF2-ahbr'             %
     %                                                                      %
     %%%%%%%%%%%%%%%%%%%%%%%%%%%%%%%%%%%%%%%%%%%%%%%%%%%%%%%%%%%%%%%%%%%%%%%%


     Starting wfcs are  333 randomized atomic wfcs
     Checking if some PAW data can be deallocated... 

     total cpu time spent up to now is       12.1 secs

     per-process dynamical memory:   231.9 Mb

     Self-consistent Calculation

     iteration #  1     ecut=    50.00 Ry     beta= 0.70
     Davidson diagonalization with overlap
     ethr =  1.00E-02,  avg # of iterations =  2.0

     negative rho (up, down):  3.465E-05 8.717E-08

     total cpu time spent up to now is       30.1 secs

     total energy              =   -6053.13589296 Ry
     estimated scf accuracy    <      39.03937874 Ry

     total magnetization       =    69.00 Bohr mag/cell
     absolute magnetization    =    81.20 Bohr mag/cell

     iteration #  2     ecut=    50.00 Ry     beta= 0.70
     Davidson diagonalization with overlap
     ethr =  1.00E-02,  avg # of iterations =  1.0

     negative rho (up, down):  5.345E-06 3.507E-08

     total cpu time spent up to now is       44.3 secs

     total energy              =   -6052.73178996 Ry
     estimated scf accuracy    <      23.93685425 Ry

     total magnetization       =    69.00 Bohr mag/cell
     absolute magnetization    =    76.77 Bohr mag/cell

     iteration #  3     ecut=    50.00 Ry     beta= 0.70
     Davidson diagonalization with overlap
     ethr =  7.15E-03,  avg # of iterations =  1.3

     negative rho (up, down):  3.381E-08 0.000E+00

     total cpu time spent up to now is       59.4 secs

     total energy              =   -6055.16818366 Ry
     estimated scf accuracy    <      86.76664561 Ry

     total magnetization       =    66.12 Bohr mag/cell
     absolute magnetization    =    73.63 Bohr mag/cell

     iteration #  4     ecut=    50.00 Ry     beta= 0.70
     Davidson diagonalization with overlap
     ethr =  7.15E-03,  avg # of iterations =  1.0

     total cpu time spent up to now is       72.8 secs

     total energy              =   -6056.47158815 Ry
     estimated scf accuracy    <       5.20134123 Ry

     total magnetization       =    60.29 Bohr mag/cell
     absolute magnetization    =    70.16 Bohr mag/cell

     iteration #  5     ecut=    50.00 Ry     beta= 0.70
     Davidson diagonalization with overlap
     ethr =  1.55E-03,  avg # of iterations =  1.2

     total cpu time spent up to now is       87.6 secs

     total energy              =   -6056.46163870 Ry
     estimated scf accuracy    <       1.74851578 Ry

     total magnetization       =    60.53 Bohr mag/cell
     absolute magnetization    =    69.85 Bohr mag/cell

     iteration #  6     ecut=    50.00 Ry     beta= 0.70
     Davidson diagonalization with overlap
     ethr =  5.22E-04,  avg # of iterations =  2.7

     total cpu time spent up to now is      102.7 secs

     total energy              =   -6056.55101164 Ry
     estimated scf accuracy    <       1.03812064 Ry

     total magnetization       =    60.26 Bohr mag/cell
     absolute magnetization    =    69.23 Bohr mag/cell

     iteration #  7     ecut=    50.00 Ry     beta= 0.70
     Davidson diagonalization with overlap
     ethr =  3.10E-04,  avg # of iterations =  3.0

     total cpu time spent up to now is      119.4 secs

     total energy              =   -6056.57985037 Ry
     estimated scf accuracy    <       0.53379534 Ry

     total magnetization       =    60.29 Bohr mag/cell
     absolute magnetization    =    68.99 Bohr mag/cell

     iteration #  8     ecut=    50.00 Ry     beta= 0.70
     Davidson diagonalization with overlap
     ethr =  1.59E-04,  avg # of iterations =  3.1

     total cpu time spent up to now is      134.6 secs

     total energy              =   -6056.60652024 Ry
     estimated scf accuracy    <       0.14272538 Ry

     total magnetization       =    60.37 Bohr mag/cell
     absolute magnetization    =    68.88 Bohr mag/cell

     iteration #  9     ecut=    50.00 Ry     beta= 0.70
     Davidson diagonalization with overlap
     c_bands:  1 eigenvalues not converged
     c_bands:  1 eigenvalues not converged
     ethr =  4.26E-05,  avg # of iterations = 10.4

     total cpu time spent up to now is      160.6 secs

     total energy              =   -6056.61528261 Ry
     estimated scf accuracy    <       0.15113920 Ry

     total magnetization       =    60.55 Bohr mag/cell
     absolute magnetization    =    68.71 Bohr mag/cell

     iteration # 10     ecut=    50.00 Ry     beta= 0.70
     Davidson diagonalization with overlap
     ethr =  4.26E-05,  avg # of iterations =  2.5

     total cpu time spent up to now is      176.3 secs

     total energy              =   -6056.61834029 Ry
     estimated scf accuracy    <       0.14564211 Ry

     total magnetization       =    60.80 Bohr mag/cell
     absolute magnetization    =    68.74 Bohr mag/cell

     iteration # 11     ecut=    50.00 Ry     beta= 0.70
     Davidson diagonalization with overlap
     ethr =  4.26E-05,  avg # of iterations =  1.1

     total cpu time spent up to now is      190.4 secs

     total energy              =   -6056.61336978 Ry
     estimated scf accuracy    <       0.13080176 Ry

     total magnetization       =    60.75 Bohr mag/cell
     absolute magnetization    =    68.62 Bohr mag/cell

     iteration # 12     ecut=    50.00 Ry     beta= 0.70
     Davidson diagonalization with overlap
     ethr =  3.90E-05,  avg # of iterations =  1.7

     negative rho (up, down):  1.312E-06 0.000E+00

     total cpu time spent up to now is      205.3 secs

     total energy              =   -6056.61400353 Ry
     estimated scf accuracy    <       0.07569267 Ry

     total magnetization       =    60.62 Bohr mag/cell
     absolute magnetization    =    68.43 Bohr mag/cell

     iteration # 13     ecut=    50.00 Ry     beta= 0.70
     Davidson diagonalization with overlap
     ethr =  2.26E-05,  avg # of iterations =  1.6

     negative rho (up, down):  5.461E-07 0.000E+00

     total cpu time spent up to now is      219.0 secs

     total energy              =   -6056.61418095 Ry
     estimated scf accuracy    <       0.10753222 Ry

     total magnetization       =    60.71 Bohr mag/cell
     absolute magnetization    =    68.44 Bohr mag/cell

     iteration # 14     ecut=    50.00 Ry     beta= 0.70
     Davidson diagonalization with overlap
     ethr =  2.26E-05,  avg # of iterations =  1.1

     negative rho (up, down):  9.485E-03 7.833E-03

     total cpu time spent up to now is      233.7 secs

     total energy              =   -6056.60905828 Ry
     estimated scf accuracy    <       0.07235297 Ry

     total magnetization       =    60.75 Bohr mag/cell
     absolute magnetization    =    68.43 Bohr mag/cell

     iteration # 15     ecut=    50.00 Ry     beta= 0.70
     Davidson diagonalization with overlap
     ethr =  2.16E-05,  avg # of iterations =  1.3

     negative rho (up, down):  2.253E-02 2.071E-02

     total cpu time spent up to now is      247.8 secs

     total energy              =   -6056.60541771 Ry
     estimated scf accuracy    <       0.04492684 Ry

     total magnetization       =    60.66 Bohr mag/cell
     absolute magnetization    =    68.34 Bohr mag/cell

     iteration # 16     ecut=    50.00 Ry     beta= 0.70
     Davidson diagonalization with overlap
     c_bands:  1 eigenvalues not converged
     c_bands:  2 eigenvalues not converged
     ethr =  1.34E-05,  avg # of iterations =  3.2

     negative rho (up, down):  3.493E-02 3.301E-02

     total cpu time spent up to now is      264.3 secs

     total energy              =   -6056.60447036 Ry
     estimated scf accuracy    <       0.05164117 Ry

     total magnetization       =    60.76 Bohr mag/cell
     absolute magnetization    =    68.40 Bohr mag/cell

     iteration # 17     ecut=    50.00 Ry     beta= 0.70
     Davidson diagonalization with overlap
     ethr =  1.34E-05,  avg # of iterations =  1.5

     negative rho (up, down):  2.161E-02 2.016E-02

     total cpu time spent up to now is      278.0 secs

     total energy              =   -6056.60493410 Ry
     estimated scf accuracy    <       0.01933950 Ry

     total magnetization       =    60.74 Bohr mag/cell
     absolute magnetization    =    68.37 Bohr mag/cell

     iteration # 18     ecut=    50.00 Ry     beta= 0.70
     Davidson diagonalization with overlap
     c_bands:  2 eigenvalues not converged
     c_bands:  1 eigenvalues not converged
     ethr =  5.77E-06,  avg # of iterations =  4.8

     negative rho (up, down):  1.126E-02 1.003E-02

     total cpu time spent up to now is      297.0 secs

     total energy              =   -6056.60498271 Ry
     estimated scf accuracy    <       0.01888152 Ry

     total magnetization       =    60.72 Bohr mag/cell
     absolute magnetization    =    68.35 Bohr mag/cell

     iteration # 19     ecut=    50.00 Ry     beta= 0.70
     Davidson diagonalization with overlap
     ethr =  5.64E-06,  avg # of iterations =  1.5

     negative rho (up, down):  1.843E-02 1.700E-02

     total cpu time spent up to now is      311.2 secs

     total energy              =   -6056.60470539 Ry
     estimated scf accuracy    <       0.01075806 Ry

     total magnetization       =    60.73 Bohr mag/cell
     absolute magnetization    =    68.37 Bohr mag/cell

     iteration # 20     ecut=    50.00 Ry     beta= 0.70
     Davidson diagonalization with overlap
     c_bands:  1 eigenvalues not converged
     c_bands:  1 eigenvalues not converged
     c_bands:  2 eigenvalues not converged
     ethr =  3.21E-06,  avg # of iterations =  5.7

     negative rho (up, down):  1.745E-02 1.623E-02

     total cpu time spent up to now is      330.4 secs

     total energy              =   -6056.60342212 Ry
     estimated scf accuracy    <       0.01216727 Ry

     total magnetization       =    60.73 Bohr mag/cell
     absolute magnetization    =    68.33 Bohr mag/cell

     iteration # 21     ecut=    50.00 Ry     beta= 0.70
     Davidson diagonalization with overlap
     ethr =  3.21E-06,  avg # of iterations =  1.9

     negative rho (up, down):  3.917E-03 3.210E-03

     total cpu time spent up to now is      344.9 secs

     total energy              =   -6056.60262242 Ry
     estimated scf accuracy    <       0.01087362 Ry

     total magnetization       =    60.72 Bohr mag/cell
     absolute magnetization    =    68.30 Bohr mag/cell

     iteration # 22     ecut=    50.00 Ry     beta= 0.70
     Davidson diagonalization with overlap
     ethr =  3.21E-06,  avg # of iterations =  1.5

     negative rho (up, down):  5.474E-03 4.884E-03

     total cpu time spent up to now is      361.0 secs

     total energy              =   -6056.60292361 Ry
     estimated scf accuracy    <       0.00856903 Ry

     total magnetization       =    60.69 Bohr mag/cell
     absolute magnetization    =    68.28 Bohr mag/cell

     iteration # 23     ecut=    50.00 Ry     beta= 0.70
     Davidson diagonalization with overlap
     c_bands:  2 eigenvalues not converged
     ethr =  2.56E-06,  avg # of iterations =  2.1

     negative rho (up, down):  6.376E-03 5.878E-03

     total cpu time spent up to now is      375.4 secs

     total energy              =   -6056.60321488 Ry
     estimated scf accuracy    <       0.00644426 Ry

     total magnetization       =    60.69 Bohr mag/cell
     absolute magnetization    =    68.28 Bohr mag/cell

     iteration # 24     ecut=    50.00 Ry     beta= 0.70
     Davidson diagonalization with overlap
     ethr =  1.92E-06,  avg # of iterations =  1.6

     negative rho (up, down):  7.206E-03 6.386E-03

     total cpu time spent up to now is      390.4 secs

     total energy              =   -6056.60280639 Ry
     estimated scf accuracy    <       0.00681434 Ry

     total magnetization       =    60.70 Bohr mag/cell
     absolute magnetization    =    68.29 Bohr mag/cell

     iteration # 25     ecut=    50.00 Ry     beta= 0.70
     Davidson diagonalization with overlap
     ethr =  1.92E-06,  avg # of iterations =  1.6

     negative rho (up, down):  6.583E-03 5.880E-03

     total cpu time spent up to now is      404.5 secs

     total energy              =   -6056.60318798 Ry
     estimated scf accuracy    <       0.00229895 Ry

     total magnetization       =    60.72 Bohr mag/cell
     absolute magnetization    =    68.32 Bohr mag/cell

     iteration # 26     ecut=    50.00 Ry     beta= 0.70
     Davidson diagonalization with overlap
     ethr =  6.86E-07,  avg # of iterations =  1.6

     negative rho (up, down):  5.058E-03 4.363E-03

     total cpu time spent up to now is      420.4 secs

     total energy              =   -6056.60343550 Ry
     estimated scf accuracy    <       0.00100769 Ry

     total magnetization       =    60.73 Bohr mag/cell
     absolute magnetization    =    68.32 Bohr mag/cell

     iteration # 27     ecut=    50.00 Ry     beta= 0.70
     Davidson diagonalization with overlap
     ethr =  3.01E-07,  avg # of iterations =  2.9

     negative rho (up, down):  4.182E-03 3.425E-03

     total cpu time spent up to now is      436.6 secs

     total energy              =   -6056.60341326 Ry
     estimated scf accuracy    <       0.00080015 Ry

     total magnetization       =    60.72 Bohr mag/cell
     absolute magnetization    =    68.30 Bohr mag/cell

     iteration # 28     ecut=    50.00 Ry     beta= 0.70
     Davidson diagonalization with overlap
     ethr =  2.39E-07,  avg # of iterations =  1.3

     negative rho (up, down):  3.181E-03 2.255E-03

     total cpu time spent up to now is      450.7 secs

     total energy              =   -6056.60348715 Ry
     estimated scf accuracy    <       0.00023544 Ry

     total magnetization       =    60.74 Bohr mag/cell
     absolute magnetization    =    68.32 Bohr mag/cell

     iteration # 29     ecut=    50.00 Ry     beta= 0.70
     Davidson diagonalization with overlap
     ethr =  7.03E-08,  avg # of iterations =  5.7

     negative rho (up, down):  3.073E-03 2.097E-03

     total cpu time spent up to now is      469.5 secs

     total energy              =   -6056.60351997 Ry
     estimated scf accuracy    <       0.00059481 Ry

     total magnetization       =    60.74 Bohr mag/cell
     absolute magnetization    =    68.32 Bohr mag/cell

     iteration # 30     ecut=    50.00 Ry     beta= 0.70
     Davidson diagonalization with overlap
     ethr =  7.03E-08,  avg # of iterations =  1.3

     negative rho (up, down):  2.649E-03 1.660E-03

     total cpu time spent up to now is      484.7 secs

     total energy              =   -6056.60352507 Ry
     estimated scf accuracy    <       0.00015154 Ry

     total magnetization       =    60.74 Bohr mag/cell
     absolute magnetization    =    68.32 Bohr mag/cell

     iteration # 31     ecut=    50.00 Ry     beta= 0.70
     Davidson diagonalization with overlap
     ethr =  4.52E-08,  avg # of iterations =  1.4

     negative rho (up, down):  2.633E-03 1.546E-03

     total cpu time spent up to now is      499.1 secs

     total energy              =   -6056.60355832 Ry
     estimated scf accuracy    <       0.00004970 Ry

     total magnetization       =    60.74 Bohr mag/cell
     absolute magnetization    =    68.31 Bohr mag/cell

     iteration # 32     ecut=    50.00 Ry     beta= 0.70
     Davidson diagonalization with overlap
     ethr =  1.48E-08,  avg # of iterations =  3.4

     negative rho (up, down):  2.708E-03 1.595E-03

     total cpu time spent up to now is      515.5 secs

     total energy              =   -6056.60356953 Ry
     estimated scf accuracy    <       0.00002578 Ry

     total magnetization       =    60.74 Bohr mag/cell
     absolute magnetization    =    68.31 Bohr mag/cell

     iteration # 33     ecut=    50.00 Ry     beta= 0.70
     Davidson diagonalization with overlap
     ethr =  7.69E-09,  avg # of iterations =  3.3

     negative rho (up, down):  2.711E-03 1.597E-03

     total cpu time spent up to now is      532.1 secs

     total energy              =   -6056.60357165 Ry
     estimated scf accuracy    <       0.00001842 Ry

     total magnetization       =    60.74 Bohr mag/cell
     absolute magnetization    =    68.31 Bohr mag/cell

     iteration # 34     ecut=    50.00 Ry     beta= 0.70
     Davidson diagonalization with overlap
     ethr =  5.50E-09,  avg # of iterations =  3.3

     negative rho (up, down):  2.574E-03 1.458E-03

     total cpu time spent up to now is      549.1 secs

     total energy              =   -6056.60357236 Ry
     estimated scf accuracy    <       0.00003703 Ry

     total magnetization       =    60.74 Bohr mag/cell
     absolute magnetization    =    68.31 Bohr mag/cell

     iteration # 35     ecut=    50.00 Ry     beta= 0.70
     Davidson diagonalization with overlap
     ethr =  5.50E-09,  avg # of iterations =  1.2

     negative rho (up, down):  2.586E-03 1.483E-03

     total cpu time spent up to now is      563.7 secs

     total energy              =   -6056.60357467 Ry
     estimated scf accuracy    <       0.00000645 Ry

     total magnetization       =    60.74 Bohr mag/cell
     absolute magnetization    =    68.31 Bohr mag/cell

     iteration # 36     ecut=    50.00 Ry     beta= 0.70
     Davidson diagonalization with overlap
     ethr =  1.93E-09,  avg # of iterations =  3.8

     negative rho (up, down):  2.515E-03 1.433E-03

     total cpu time spent up to now is      580.1 secs

     total energy              =   -6056.60357546 Ry
     estimated scf accuracy    <       0.00000250 Ry

     total magnetization       =    60.74 Bohr mag/cell
     absolute magnetization    =    68.31 Bohr mag/cell

     iteration # 37     ecut=    50.00 Ry     beta= 0.70
     Davidson diagonalization with overlap
     c_bands:  1 eigenvalues not converged
     ethr =  7.45E-10,  avg # of iterations =  8.6

     negative rho (up, down):  2.510E-03 1.424E-03

     total cpu time spent up to now is      604.3 secs

     total energy              =   -6056.60357574 Ry
     estimated scf accuracy    <       0.00000201 Ry

     total magnetization       =    60.74 Bohr mag/cell
     absolute magnetization    =    68.31 Bohr mag/cell

     iteration # 38     ecut=    50.00 Ry     beta= 0.70
     Davidson diagonalization with overlap
     ethr =  5.99E-10,  avg # of iterations =  1.4

     negative rho (up, down):  2.400E-03 1.314E-03

     total cpu time spent up to now is      618.9 secs

     total energy              =   -6056.60357567 Ry
     estimated scf accuracy    <       0.00000182 Ry

     total magnetization       =    60.74 Bohr mag/cell
     absolute magnetization    =    68.31 Bohr mag/cell

     iteration # 39     ecut=    50.00 Ry     beta= 0.70
     Davidson diagonalization with overlap
     ethr =  5.44E-10,  avg # of iterations =  2.0

     negative rho (up, down):  2.355E-03 1.263E-03

     total cpu time spent up to now is      634.3 secs

     total energy              =   -6056.60357576 Ry
     estimated scf accuracy    <       0.00000309 Ry

     total magnetization       =    60.73 Bohr mag/cell
     absolute magnetization    =    68.31 Bohr mag/cell

     iteration # 40     ecut=    50.00 Ry     beta= 0.70
     Davidson diagonalization with overlap
     ethr =  5.44E-10,  avg # of iterations =  1.2

     negative rho (up, down):  2.299E-03 1.208E-03

     total cpu time spent up to now is      648.5 secs

     total energy              =   -6056.60357571 Ry
     estimated scf accuracy    <       0.00000179 Ry

     total magnetization       =    60.73 Bohr mag/cell
     absolute magnetization    =    68.31 Bohr mag/cell

     iteration # 41     ecut=    50.00 Ry     beta= 0.70
     Davidson diagonalization with overlap
     ethr =  5.34E-10,  avg # of iterations =  1.3

     negative rho (up, down):  2.352E-03 1.269E-03

     total cpu time spent up to now is      663.3 secs

     total energy              =   -6056.60357566 Ry
     estimated scf accuracy    <       0.00000269 Ry

     total magnetization       =    60.73 Bohr mag/cell
     absolute magnetization    =    68.31 Bohr mag/cell

     iteration # 42     ecut=    50.00 Ry     beta= 0.70
     Davidson diagonalization with overlap
     ethr =  5.34E-10,  avg # of iterations =  1.1

     negative rho (up, down):  2.337E-03 1.252E-03

     total cpu time spent up to now is      678.0 secs

     total energy              =   -6056.60357571 Ry
     estimated scf accuracy    <       0.00000092 Ry

     total magnetization       =    60.73 Bohr mag/cell
     absolute magnetization    =    68.31 Bohr mag/cell

     iteration # 43     ecut=    50.00 Ry     beta= 0.70
     Davidson diagonalization with overlap
     ethr =  2.74E-10,  avg # of iterations =  1.5

     negative rho (up, down):  2.343E-03 1.258E-03

     total cpu time spent up to now is      692.8 secs

     total energy              =   -6056.60357572 Ry
     estimated scf accuracy    <       0.00000123 Ry

     total magnetization       =    60.73 Bohr mag/cell
     absolute magnetization    =    68.31 Bohr mag/cell

     iteration # 44     ecut=    50.00 Ry     beta= 0.70
     Davidson diagonalization with overlap
     ethr =  2.74E-10,  avg # of iterations =  1.1

     negative rho (up, down):  2.279E-03 1.190E-03

     total cpu time spent up to now is      706.8 secs

     total energy              =   -6056.60357575 Ry
     estimated scf accuracy    <       0.00000091 Ry

     total magnetization       =    60.73 Bohr mag/cell
     absolute magnetization    =    68.31 Bohr mag/cell

     iteration # 45     ecut=    50.00 Ry     beta= 0.70
     Davidson diagonalization with overlap
     ethr =  2.70E-10,  avg # of iterations =  1.3

     negative rho (up, down):  2.269E-03 1.181E-03

     total cpu time spent up to now is      721.3 secs

     total energy              =   -6056.60357575 Ry
     estimated scf accuracy    <       0.00000020 Ry

     total magnetization       =    60.73 Bohr mag/cell
     absolute magnetization    =    68.31 Bohr mag/cell

     iteration # 46     ecut=    50.00 Ry     beta= 0.70
     Davidson diagonalization with overlap
     ethr =  5.87E-11,  avg # of iterations =  3.4

     negative rho (up, down):  2.275E-03 1.187E-03

     total cpu time spent up to now is      738.5 secs

     total energy              =   -6056.60357577 Ry
     estimated scf accuracy    <       0.00000017 Ry

     total magnetization       =    60.73 Bohr mag/cell
     absolute magnetization    =    68.31 Bohr mag/cell

     iteration # 47     ecut=    50.00 Ry     beta= 0.70
     Davidson diagonalization with overlap
     ethr =  5.11E-11,  avg # of iterations =  1.4

     negative rho (up, down):  2.263E-03 1.174E-03

     total cpu time spent up to now is      753.1 secs

     total energy              =   -6056.60357576 Ry
     estimated scf accuracy    <       0.00000010 Ry

     total magnetization       =    60.73 Bohr mag/cell
     absolute magnetization    =    68.31 Bohr mag/cell

     iteration # 48     ecut=    50.00 Ry     beta= 0.70
     Davidson diagonalization with overlap
     ethr =  2.91E-11,  avg # of iterations =  3.2

     negative rho (up, down):  2.257E-03 1.168E-03

     total cpu time spent up to now is      769.4 secs

     total energy              =   -6056.60357576 Ry
     estimated scf accuracy    <       0.00000006 Ry

     total magnetization       =    60.73 Bohr mag/cell
     absolute magnetization    =    68.31 Bohr mag/cell

     iteration # 49     ecut=    50.00 Ry     beta= 0.70
     Davidson diagonalization with overlap
     ethr =  1.83E-11,  avg # of iterations =  2.7

     negative rho (up, down):  2.258E-03 1.168E-03

     total cpu time spent up to now is      786.3 secs

     total energy              =   -6056.60357575 Ry
     estimated scf accuracy    <       0.00000010 Ry

     total magnetization       =    60.73 Bohr mag/cell
     absolute magnetization    =    68.31 Bohr mag/cell

     iteration # 50     ecut=    50.00 Ry     beta= 0.70
     Davidson diagonalization with overlap
     ethr =  1.83E-11,  avg # of iterations =  1.4

     negative rho (up, down):  2.263E-03 1.174E-03

     total cpu time spent up to now is      801.9 secs

     total energy              =   -6056.60357577 Ry
     estimated scf accuracy    <       0.00000010 Ry

     total magnetization       =    60.73 Bohr mag/cell
     absolute magnetization    =    68.31 Bohr mag/cell

     iteration # 51     ecut=    50.00 Ry     beta= 0.70
     Davidson diagonalization with overlap
     ethr =  1.83E-11,  avg # of iterations =  1.2

     negative rho (up, down):  2.255E-03 1.165E-03

     total cpu time spent up to now is      815.7 secs

     total energy              =   -6056.60357575 Ry
     estimated scf accuracy    <       0.00000003 Ry

     total magnetization       =    60.73 Bohr mag/cell
     absolute magnetization    =    68.31 Bohr mag/cell

     iteration # 52     ecut=    50.00 Ry     beta= 0.70
     Davidson diagonalization with overlap
     ethr =  7.47E-12,  avg # of iterations =  2.2

     negative rho (up, down):  2.253E-03 1.163E-03

     total cpu time spent up to now is      831.6 secs

     total energy              =   -6056.60357575 Ry
     estimated scf accuracy    <       0.00000001 Ry

     total magnetization       =    60.73 Bohr mag/cell
     absolute magnetization    =    68.31 Bohr mag/cell

     iteration # 53     ecut=    50.00 Ry     beta= 0.70
     Davidson diagonalization with overlap
     c_bands:  1 eigenvalues not converged
     ethr =  3.88E-12,  avg # of iterations =  4.6

     negative rho (up, down):  2.251E-03 1.160E-03

     total cpu time spent up to now is      849.2 secs

     total energy              =   -6056.60357574 Ry
     estimated scf accuracy    <       0.00000001 Ry

     total magnetization       =    60.73 Bohr mag/cell
     absolute magnetization    =    68.31 Bohr mag/cell

     iteration # 54     ecut=    50.00 Ry     beta= 0.70
     Davidson diagonalization with overlap
     ethr =  3.77E-12,  avg # of iterations =  1.6

     negative rho (up, down):  2.251E-03 1.161E-03

     Magnetic moment per site  (integrated on atomic sphere of radius R)
     atom   1 (R=0.095)  charge=  5.8730  magn=  1.6977
     atom   2 (R=0.095)  charge=  5.8736  magn=  1.6931
     atom   3 (R=0.095)  charge=  5.8731  magn=  1.7007
     atom   4 (R=0.095)  charge=  5.8733  magn=  1.7058
     atom   5 (R=0.095)  charge=  5.8734  magn=  1.7019
     atom   6 (R=0.095)  charge=  5.8735  magn=  1.7007
     atom   7 (R=0.095)  charge=  5.8731  magn=  1.6976
     atom   8 (R=0.095)  charge=  5.8735  magn=  1.6961
     atom   9 (R=0.095)  charge=  5.8736  magn=  1.6970
     atom  10 (R=0.095)  charge=  5.8705  magn=  1.6303
     atom  11 (R=0.095)  charge=  5.8719  magn=  1.6345
     atom  12 (R=0.095)  charge=  5.8716  magn=  1.6376
     atom  13 (R=0.095)  charge=  5.8713  magn=  1.6393
     atom  14 (R=0.095)  charge=  5.8722  magn=  1.6325
     atom  15 (R=0.095)  charge=  5.8718  magn=  1.6382
     atom  16 (R=0.095)  charge=  5.8714  magn=  1.6300
     atom  17 (R=0.095)  charge=  5.8716  magn=  1.6381
     atom  18 (R=0.095)  charge=  5.8720  magn=  1.6299
     atom  19 (R=0.095)  charge=  5.8699  magn=  1.6301
     atom  20 (R=0.095)  charge=  5.8711  magn=  1.6468
     atom  21 (R=0.095)  charge=  5.8704  magn=  1.6546
     atom  22 (R=0.095)  charge=  5.8710  magn=  1.6260
     atom  23 (R=0.095)  charge=  5.8712  magn=  1.6090
     atom  24 (R=0.095)  charge=  5.8720  magn=  1.6219
     atom  25 (R=0.095)  charge=  5.8701  magn=  1.5813
     atom  26 (R=0.095)  charge=  5.8683  magn=  1.6510
     atom  27 (R=0.095)  charge=  5.8714  magn=  1.6297
     atom  28 (R=0.095)  charge=  5.8868  magn=  1.2711
     atom  29 (R=0.095)  charge=  5.8916  magn=  1.1808
     atom  30 (R=0.095)  charge=  5.8730  magn=  1.5877
     atom  31 (R=0.095)  charge=  5.8775  magn=  1.6937
     atom  32 (R=0.095)  charge=  5.8742  magn=  1.6335
     atom  33 (R=0.095)  charge=  5.8717  magn=  1.7352
     atom  34 (R=0.095)  charge=  5.8696  magn=  1.7271
     atom  35 (R=0.095)  charge=  5.8746  magn=  1.7071
     atom  36 (R=0.095)  charge=  5.8710  magn=  1.7379
     atom  37 (R=0.065)  charge=  1.0375  magn= -0.0197
     atom  38 (R=0.065)  charge=  2.9105  magn= -0.0436
     atom  39 (R=0.095)  charge=  0.9379  magn= -0.0162

     total cpu time spent up to now is      864.2 secs

     End of self-consistent calculation

 ------ SPIN UP ------------


          k = 0.0000 0.0000 0.0000 ( 51087 PWs)   bands (ev):

   -22.0244  -9.1067  -7.6727  -6.5831  -5.8276  -5.7139  -5.3528  -5.2131
    -4.8380  -4.8283  -4.8261  -4.8123  -4.7979  -4.7880  -4.6442  -4.3918
    -4.2986  -4.2949  -4.2757  -4.2598  -4.2351  -4.1022  -3.7828  -3.7781
    -3.7701  -3.7537  -3.7326  -3.6991  -3.6473  -3.6451  -3.6400  -3.6323
    -3.6159  -3.5701  -3.5666  -3.4976  -3.2628  -3.2568  -3.2552  -3.2520
    -3.1978  -3.1926  -3.1893  -3.1864  -3.1825  -3.1758  -3.1564  -3.1065
    -3.0258  -3.0243  -2.9605  -2.9544  -2.9502  -2.9460  -2.9196  -2.9172
    -2.9161  -2.9154  -2.8878  -2.8674  -2.8178  -2.8148  -2.8084  -2.8019
    -2.7498  -2.6230  -2.3201  -2.2830  -2.2817  -2.2796  -2.2746  -2.1704
    -2.1560  -2.1387  -2.1327  -2.1277  -2.1148  -2.1120  -2.0936  -2.0902
    -2.0679  -2.0511  -2.0466  -2.0213  -1.9981  -1.9909  -1.9769  -1.9679
    -1.9632  -1.9586  -1.9512  -1.9433  -1.9327  -1.9253  -1.9190  -1.9081
    -1.9073  -1.9050  -1.9024  -1.9010  -1.8980  -1.8963  -1.8924  -1.8820
    -1.8783  -1.8583  -1.8439  -1.8338  -1.8303  -1.7501  -1.7477  -1.6331
    -1.5741  -1.4593  -1.4570  -1.4536  -1.4509  -1.4424  -1.4234  -1.4115
    -1.4084  -1.4070  -1.3917  -1.3674  -1.3640  -1.2362  -1.2336  -1.2141
    -1.2094  -1.1324  -1.0876  -1.0628  -1.0476  -1.0348  -1.0058  -0.9864
    -0.9731  -0.9658  -0.9554  -0.9465  -0.9197  -0.8910  -0.8552  -0.8341
    -0.7785  -0.7141  -0.7119  -0.7106  -0.6954  -0.6636  -0.6539  -0.6478
    -0.6468  -0.6405  -0.6389  -0.6330  -0.6323  -0.6249  -0.6232  -0.6150
    -0.6088  -0.6008  -0.5840  -0.5823  -0.5739  -0.5681  -0.5545  -0.5489
    -0.5422  -0.5399  -0.5253  -0.5183  -0.5121  -0.5090  -0.4997  -0.4952
    -0.4919  -0.4876  -0.4738  -0.4561  -0.4365  -0.4158  -0.4133  -0.4079
    -0.4007  -0.4000  -0.3911  -0.3852  -0.3801  -0.3349  -0.3219  -0.3170
    -0.3121  -0.3115  -0.2549  -0.2508  -0.2465  -0.2384  -0.2295  -0.2076
     0.5117   0.6862

          k = 0.0000 0.2309 0.0000 ( 51134 PWs)   bands (ev):

   -22.0244  -9.0966  -7.5320  -6.4920  -5.8450  -5.7281  -5.5295  -5.3404
    -5.2041  -5.0462  -5.0211  -4.6565  -4.5022  -4.4835  -4.4697  -4.4174
    -4.3259  -4.3004  -4.2429  -4.1695  -4.1584  -4.0953  -3.8869  -3.7851
    -3.7772  -3.7076  -3.6638  -3.6518  -3.6487  -3.6334  -3.6274  -3.6148
    -3.5936  -3.5372  -3.5252  -3.5067  -3.4983  -3.4538  -3.2773  -3.2726
    -3.2580  -3.2179  -3.2164  -3.2037  -3.1758  -3.1075  -3.0842  -3.0650
    -3.0509  -3.0475  -3.0275  -3.0000  -2.9634  -2.9112  -2.9021  -2.8775
    -2.8459  -2.8392  -2.8051  -2.8004  -2.7814  -2.7472  -2.7327  -2.7216
    -2.7009  -2.6169  -2.3993  -2.3912  -2.3705  -2.3473  -2.3393  -2.2498
    -2.2432  -2.2292  -2.2255  -2.2134  -2.2082  -2.1963  -2.1676  -2.1162
    -2.1039  -2.0942  -2.0767  -2.0522  -2.0395  -2.0296  -2.0272  -2.0127
    -1.9989  -1.9947  -1.9902  -1.9846  -1.9824  -1.9749  -1.9695  -1.8989
    -1.8840  -1.8718  -1.8165  -1.8147  -1.8036  -1.7960  -1.7874  -1.7835
    -1.7755  -1.7632  -1.7570  -1.7523  -1.7459  -1.7235  -1.7138  -1.6926
    -1.6888  -1.6833  -1.6311  -1.5875  -1.5797  -1.4916  -1.4796  -1.4764
    -1.4722  -1.4501  -1.4437  -1.4359  -1.4172  -1.4150  -1.3704  -1.2872
    -1.2605  -1.2110  -1.1948  -1.1673  -1.1639  -1.1071  -1.0921  -1.0875
    -1.0637  -0.9906  -0.9797  -0.9599  -0.9577  -0.9374  -0.9112  -0.8955
    -0.8894  -0.8690  -0.8608  -0.8435  -0.8172  -0.8000  -0.7950  -0.7903
    -0.7428  -0.7135  -0.7095  -0.7059  -0.6961  -0.6629  -0.6500  -0.6369
    -0.6338  -0.6280  -0.6212  -0.6095  -0.6035  -0.5883  -0.5774  -0.5616
    -0.5260  -0.5129  -0.5023  -0.4779  -0.4528  -0.4419  -0.4153  -0.3898
    -0.3863  -0.3731  -0.3687  -0.3560  -0.3377  -0.3299  -0.3248  -0.2939
    -0.2614  -0.2545  -0.2361  -0.2183  -0.2108  -0.1997  -0.1892  -0.1737
    -0.1204  -0.0520   0.1152   0.1385   0.2089   0.2692   0.3842   0.4097
     0.4534   0.7195

          k = 0.0000 0.4619 0.0000 ( 51204 PWs)   bands (ev):

   -22.0244  -9.0808  -7.1176  -6.4966  -6.2083  -5.8169  -5.6261  -5.3569
    -5.2581  -5.1465  -5.1267  -4.9213  -4.3282  -4.3119  -4.3012  -4.2482
    -4.2144  -4.1260  -4.1223  -4.0553  -3.9924  -3.9852  -3.9799  -3.8266
    -3.8092  -3.8071  -3.7975  -3.7951  -3.7354  -3.6919  -3.6914  -3.5631
    -3.5223  -3.5146  -3.4920  -3.4815  -3.4765  -3.4591  -3.3682  -3.3616
    -3.3492  -3.3437  -3.2695  -3.1984  -3.1421  -3.0982  -3.0529  -3.0354
    -3.0049  -2.9814  -2.9650  -2.9481  -2.9415  -2.9286  -2.9190  -2.8635
    -2.8543  -2.8298  -2.8051  -2.7807  -2.6589  -2.6506  -2.6382  -2.6179
    -2.5643  -2.5369  -2.5125  -2.5007  -2.4923  -2.4200  -2.3686  -2.3663
    -2.3624  -2.3545  -2.3445  -2.3235  -2.3184  -2.2943  -2.2818  -2.2627
    -2.2377  -2.2063  -2.1871  -2.1557  -2.1430  -2.0982  -2.0719  -2.0499
    -2.0334  -2.0181  -2.0051  -1.9927  -1.9722  -1.9379  -1.9300  -1.9197
    -1.9095  -1.8989  -1.8813  -1.8574  -1.8523  -1.8434  -1.8403  -1.8231
    -1.7995  -1.7663  -1.7627  -1.7342  -1.6698  -1.6532  -1.6395  -1.6281
    -1.6133  -1.5760  -1.5466  -1.5261  -1.5238  -1.4991  -1.4971  -1.4904
    -1.4848  -1.4783  -1.4689  -1.4590  -1.4485  -1.4391  -1.4313  -1.4249
    -1.4192  -1.3577  -1.3029  -1.2946  -1.2728  -1.2597  -1.2340  -1.2265
    -1.1933  -1.1383  -1.1280  -1.1192  -1.0735  -1.0513  -1.0246  -0.9907
    -0.9717  -0.9637  -0.9345  -0.9196  -0.9078  -0.8935  -0.8704  -0.7843
    -0.7676  -0.7408  -0.7282  -0.7122  -0.7075  -0.6994  -0.6940  -0.6829
    -0.6785  -0.6475  -0.5739  -0.5598  -0.5499  -0.5395  -0.5312  -0.5270
    -0.5158  -0.4997  -0.4784  -0.4709  -0.4624  -0.4359  -0.3807  -0.3633
    -0.3584  -0.3385  -0.3266  -0.2653  -0.2580  -0.2332  -0.2245  -0.1812
    -0.1609  -0.1446  -0.1401  -0.1282  -0.1150  -0.1079  -0.1067  -0.0692
    -0.0123   0.0010   0.4765   0.5713   0.8701   1.1039   1.1273   1.3315
     1.4246   1.4872

          k = 0.2000-0.1155 0.0000 ( 51134 PWs)   bands (ev):

   -22.0244  -9.0942  -7.5339  -6.4947  -5.8986  -5.7034  -5.5095  -5.3356
    -5.1778  -5.0643  -5.0243  -4.6111  -4.5298  -4.4835  -4.4741  -4.4160
    -4.3517  -4.2943  -4.2235  -4.1997  -4.1519  -4.0673  -3.8974  -3.7835
    -3.7728  -3.7011  -3.6696  -3.6534  -3.6484  -3.6426  -3.6266  -3.6109
    -3.5884  -3.5494  -3.5253  -3.5055  -3.4981  -3.4538  -3.2855  -3.2747
    -3.2655  -3.2205  -3.2155  -3.1984  -3.1750  -3.1135  -3.0823  -3.0665
    -3.0500  -3.0444  -3.0355  -2.9961  -2.9552  -2.9120  -2.9016  -2.8815
    -2.8421  -2.8341  -2.8042  -2.8002  -2.7776  -2.7432  -2.7345  -2.7292
    -2.6864  -2.6218  -2.4021  -2.3893  -2.3628  -2.3472  -2.3399  -2.2500
    -2.2465  -2.2325  -2.2283  -2.2137  -2.2035  -2.1882  -2.1622  -2.1148
    -2.1092  -2.0928  -2.0765  -2.0549  -2.0441  -2.0299  -2.0214  -2.0140
    -2.0018  -1.9977  -1.9951  -1.9909  -1.9821  -1.9762  -1.9447  -1.9010
    -1.8793  -1.8670  -1.8195  -1.8163  -1.8042  -1.7959  -1.7906  -1.7817
    -1.7803  -1.7725  -1.7664  -1.7509  -1.7500  -1.7270  -1.7129  -1.6959
    -1.6859  -1.6728  -1.6425  -1.5991  -1.5792  -1.5079  -1.4767  -1.4749
    -1.4615  -1.4552  -1.4427  -1.4386  -1.4309  -1.4016  -1.3204  -1.2912
    -1.2572  -1.2123  -1.1975  -1.1687  -1.1527  -1.1279  -1.1000  -1.0888
    -1.0365  -1.0112  -0.9962  -0.9672  -0.9546  -0.9410  -0.9150  -0.9044
    -0.8832  -0.8682  -0.8507  -0.8309  -0.8224  -0.8064  -0.7978  -0.7876
    -0.7251  -0.7218  -0.7084  -0.7059  -0.6891  -0.6560  -0.6460  -0.6409
    -0.6367  -0.6275  -0.6226  -0.6116  -0.6060  -0.5834  -0.5773  -0.5558
    -0.5179  -0.5050  -0.4967  -0.4744  -0.4544  -0.4479  -0.4114  -0.3899
    -0.3863  -0.3788  -0.3645  -0.3608  -0.3385  -0.3300  -0.3242  -0.2901
    -0.2641  -0.2497  -0.2368  -0.2162  -0.2110  -0.1968  -0.1842  -0.1696
    -0.1220  -0.0535   0.0975   0.1384   0.1716   0.2565   0.3727   0.4099
     0.4434   0.8020

          k = 0.2000 0.1155 0.0000 ( 51134 PWs)   bands (ev):

   -22.0244  -9.0937  -7.5347  -6.4967  -5.9147  -5.6879  -5.4944  -5.3508
    -5.1700  -5.0528  -5.0450  -4.5999  -4.5200  -4.4826  -4.4773  -4.4139
    -4.3491  -4.3124  -4.2282  -4.1934  -4.1571  -4.0611  -3.8962  -3.7884
    -3.7681  -3.6936  -3.6666  -3.6528  -3.6487  -3.6459  -3.6373  -3.6131
    -3.5732  -3.5548  -3.5290  -3.5040  -3.5001  -3.4560  -3.2892  -3.2720
    -3.2677  -3.2192  -3.2171  -3.2011  -3.1690  -3.1126  -3.0861  -3.0633
    -3.0491  -3.0461  -3.0384  -3.0018  -2.9516  -2.9104  -2.8998  -2.8825
    -2.8464  -2.8261  -2.8048  -2.8002  -2.7840  -2.7391  -2.7360  -2.7273
    -2.6799  -2.6266  -2.3985  -2.3901  -2.3607  -2.3481  -2.3394  -2.2501
    -2.2441  -2.2361  -2.2270  -2.2204  -2.2019  -2.1891  -2.1509  -2.1130
    -2.1070  -2.0947  -2.0743  -2.0520  -2.0442  -2.0343  -2.0285  -2.0124
    -2.0026  -1.9969  -1.9949  -1.9915  -1.9859  -1.9761  -1.9433  -1.9093
    -1.8759  -1.8653  -1.8208  -1.8144  -1.8076  -1.7992  -1.7891  -1.7830
    -1.7794  -1.7713  -1.7647  -1.7512  -1.7497  -1.7394  -1.7066  -1.6983
    -1.6835  -1.6767  -1.6423  -1.5996  -1.5857  -1.5089  -1.4820  -1.4762
    -1.4637  -1.4497  -1.4438  -1.4394  -1.4302  -1.3901  -1.3121  -1.2882
    -1.2581  -1.2158  -1.1944  -1.1725  -1.1477  -1.1347  -1.0968  -1.0865
    -1.0416  -1.0065  -0.9919  -0.9712  -0.9554  -0.9424  -0.9170  -0.9050
    -0.8811  -0.8676  -0.8527  -0.8353  -0.8236  -0.8054  -0.7979  -0.7869
    -0.7266  -0.7157  -0.7089  -0.7075  -0.6961  -0.6586  -0.6510  -0.6408
    -0.6351  -0.6264  -0.6229  -0.6066  -0.5989  -0.5848  -0.5787  -0.5614
    -0.5192  -0.4986  -0.4917  -0.4773  -0.4593  -0.4459  -0.4120  -0.3902
    -0.3866  -0.3803  -0.3640  -0.3602  -0.3383  -0.3282  -0.3260  -0.2911
    -0.2595  -0.2508  -0.2362  -0.2162  -0.2118  -0.1947  -0.1710  -0.1682
    -0.1181  -0.0719   0.1084   0.1375   0.1677   0.2546   0.3782   0.4038
     0.4503   0.7501

          k = 0.2000 0.3464 0.0000 ( 51202 PWs)   bands (ev):

   -22.0244  -9.0808  -7.2576  -6.3690  -6.0407  -5.9272  -5.6993  -5.5232
    -5.3316  -5.1526  -4.7409  -4.6613  -4.4921  -4.4749  -4.3359  -4.2709
    -4.2669  -4.1716  -4.1610  -4.0736  -4.0339  -4.0078  -3.8970  -3.8835
    -3.8250  -3.7805  -3.6878  -3.6730  -3.6475  -3.6403  -3.6333  -3.6116
    -3.5915  -3.5803  -3.5447  -3.5183  -3.4801  -3.4466  -3.4318  -3.4099
    -3.2917  -3.2381  -3.2140  -3.1975  -3.1685  -3.1469  -3.0913  -3.0541
    -3.0116  -2.9894  -2.9765  -2.9592  -2.9463  -2.9157  -2.9042  -2.8899
    -2.8747  -2.8613  -2.7525  -2.7267  -2.6903  -2.6745  -2.6567  -2.6333
    -2.6119  -2.5832  -2.5021  -2.4341  -2.4222  -2.3913  -2.3808  -2.3469
    -2.3356  -2.3241  -2.3156  -2.2913  -2.2850  -2.2669  -2.2592  -2.2524
    -2.2369  -2.1834  -2.1584  -2.1284  -2.0690  -2.0675  -2.0428  -2.0379
    -2.0253  -1.9969  -1.9706  -1.9637  -1.9524  -1.9321  -1.9115  -1.9072
    -1.9020  -1.8917  -1.8859  -1.8743  -1.8561  -1.8451  -1.8374  -1.8216
    -1.8070  -1.8000  -1.7704  -1.7259  -1.7174  -1.6832  -1.6761  -1.6707
    -1.6600  -1.6516  -1.6172  -1.5830  -1.5694  -1.5553  -1.5399  -1.5066
    -1.5050  -1.4938  -1.4845  -1.4648  -1.4532  -1.4318  -1.4256  -1.3754
    -1.3644  -1.3311  -1.3142  -1.2578  -1.2199  -1.1929  -1.1714  -1.1059
    -1.0858  -1.0656  -1.0563  -1.0454  -1.0368  -1.0325  -1.0039  -0.9889
    -0.9759  -0.9588  -0.9441  -0.9076  -0.8986  -0.8733  -0.8630  -0.8449
    -0.8277  -0.8072  -0.7914  -0.7782  -0.7743  -0.7496  -0.6404  -0.6152
    -0.6028  -0.5906  -0.5711  -0.5649  -0.5463  -0.5403  -0.5207  -0.5153
    -0.5001  -0.4721  -0.4463  -0.4323  -0.4125  -0.4045  -0.3666  -0.3442
    -0.3340  -0.3319  -0.3261  -0.3044  -0.2986  -0.2925  -0.2798  -0.2695
    -0.2534  -0.1794  -0.1681  -0.1613  -0.1221  -0.1128  -0.1030   0.0395
     0.1273   0.2347   0.2456   0.4215   0.5117   0.6305   1.0226   1.1125
     1.2205   1.3846

          k = 0.2000-0.5774 0.0000 ( 51262 PWs)   bands (ev):

   -22.0244  -9.0736  -6.7664  -6.6848  -6.2068  -6.0459  -5.7295  -5.5443
    -5.2683  -5.2014  -4.9588  -4.7052  -4.4708  -4.2365  -4.1868  -4.0840
    -4.0570  -4.0470  -4.0227  -4.0199  -3.9668  -3.9521  -3.9423  -3.9400
    -3.9188  -3.8561  -3.7948  -3.7887  -3.7676  -3.7624  -3.7245  -3.6235
    -3.6107  -3.6046  -3.5757  -3.5395  -3.4689  -3.4524  -3.3974  -3.3152
    -3.3091  -3.2514  -3.2305  -3.2033  -3.1820  -3.1220  -3.0977  -3.0811
    -3.0434  -3.0270  -2.9936  -2.9352  -2.9114  -2.8759  -2.8652  -2.8278
    -2.8153  -2.7389  -2.7334  -2.7169  -2.7115  -2.6985  -2.6731  -2.6417
    -2.5775  -2.5229  -2.5099  -2.4991  -2.4704  -2.4405  -2.4153  -2.3719
    -2.3659  -2.3318  -2.3190  -2.3164  -2.3096  -2.2906  -2.2639  -2.2588
    -2.2433  -2.2302  -2.2156  -2.1878  -2.1827  -2.1517  -2.1058  -2.0890
    -2.0694  -2.0298  -2.0214  -1.9977  -1.9736  -1.9446  -1.9331  -1.9211
    -1.9056  -1.8998  -1.8944  -1.8795  -1.8719  -1.8448  -1.8410  -1.8006
    -1.7706  -1.7511  -1.7434  -1.7316  -1.7160  -1.7113  -1.7042  -1.6942
    -1.6838  -1.6728  -1.6615  -1.6339  -1.6015  -1.5840  -1.5684  -1.5507
    -1.4953  -1.4828  -1.4636  -1.4430  -1.4338  -1.4156  -1.4014  -1.3933
    -1.3489  -1.3334  -1.3245  -1.2743  -1.2194  -1.1909  -1.1829  -1.1746
    -1.1497  -1.1406  -1.1288  -1.0914  -1.0832  -1.0675  -1.0480  -1.0384
    -0.9890  -0.9744  -0.9625  -0.9515  -0.9343  -0.8897  -0.8788  -0.8624
    -0.8549  -0.8448  -0.8316  -0.8093  -0.7920  -0.7640  -0.7469  -0.6066
    -0.5861  -0.5735  -0.5606  -0.5495  -0.5375  -0.5325  -0.5221  -0.4928
    -0.4793  -0.4653  -0.4614  -0.4470  -0.4043  -0.3456  -0.3378  -0.3305
    -0.3236  -0.3025  -0.2922  -0.2781  -0.2377  -0.2359  -0.2255  -0.2180
    -0.2156  -0.1477  -0.1345  -0.1309  -0.1171  -0.1078  -0.0861  -0.0608
     0.1031   0.2498   0.4775   0.8633   1.0720   1.1753   1.2891   1.5004
     1.6678   1.7063

          k = 0.2000-0.3464 0.0000 ( 51202 PWs)   bands (ev):

   -22.0244  -9.0816  -7.2552  -6.3677  -6.0224  -5.9349  -5.6985  -5.5519
    -5.3255  -5.1387  -4.7272  -4.6954  -4.4850  -4.4772  -4.3327  -4.2722
    -4.2662  -4.1706  -4.1653  -4.0705  -4.0264  -4.0146  -3.9022  -3.8808
    -3.8246  -3.7819  -3.6873  -3.6727  -3.6598  -3.6416  -3.6277  -3.6008
    -3.5922  -3.5834  -3.5432  -3.5199  -3.4830  -3.4424  -3.4302  -3.4113
    -3.2912  -3.2382  -3.2146  -3.1948  -3.1722  -3.1424  -3.0799  -3.0533
    -3.0104  -2.9885  -2.9692  -2.9662  -2.9505  -2.9204  -2.8973  -2.8900
    -2.8730  -2.8675  -2.7574  -2.7278  -2.6938  -2.6774  -2.6509  -2.6303
    -2.6188  -2.5798  -2.5020  -2.4348  -2.4134  -2.3920  -2.3810  -2.3485
    -2.3399  -2.3225  -2.3167  -2.2927  -2.2837  -2.2653  -2.2540  -2.2516
    -2.2367  -2.1916  -2.1599  -2.1322  -2.0723  -2.0665  -2.0405  -2.0338
    -2.0233  -1.9976  -1.9739  -1.9623  -1.9494  -1.9299  -1.9152  -1.9047
    -1.9015  -1.8937  -1.8854  -1.8707  -1.8549  -1.8497  -1.8319  -1.8167
    -1.8106  -1.8027  -1.7770  -1.7243  -1.7201  -1.6850  -1.6761  -1.6681
    -1.6638  -1.6509  -1.6110  -1.5880  -1.5708  -1.5431  -1.5329  -1.5118
    -1.5041  -1.4947  -1.4900  -1.4603  -1.4475  -1.4345  -1.4266  -1.3761
    -1.3660  -1.3299  -1.3127  -1.2631  -1.2161  -1.1896  -1.1639  -1.1096
    -1.0852  -1.0617  -1.0538  -1.0492  -1.0443  -1.0329  -1.0039  -0.9887
    -0.9732  -0.9599  -0.9482  -0.9107  -0.8965  -0.8742  -0.8628  -0.8416
    -0.8232  -0.8168  -0.7892  -0.7770  -0.7722  -0.7501  -0.6379  -0.6224
    -0.6025  -0.5843  -0.5679  -0.5607  -0.5553  -0.5340  -0.5280  -0.5108
    -0.5029  -0.4777  -0.4402  -0.4330  -0.4123  -0.4059  -0.3668  -0.3435
    -0.3353  -0.3293  -0.3271  -0.3031  -0.3006  -0.2906  -0.2795  -0.2673
    -0.2553  -0.1784  -0.1690  -0.1641  -0.1190  -0.1137  -0.1128   0.0445
     0.1140   0.2352   0.2433   0.4418   0.5146   0.6221   1.0278   1.1092
     1.2247   1.3499

          k = 0.4000-0.2309 0.0000 ( 51204 PWs)   bands (ev):

   -22.0244  -9.0745  -7.1269  -6.5057  -6.2209  -5.8985  -5.5334  -5.3630
    -5.2030  -5.1617  -5.1178  -4.9361  -4.3558  -4.3184  -4.2844  -4.2445
    -4.2051  -4.1277  -4.1239  -4.0280  -3.9980  -3.9844  -3.9566  -3.8309
    -3.8091  -3.8017  -3.7990  -3.7962  -3.7199  -3.6970  -3.6865  -3.6304
    -3.5251  -3.5154  -3.4994  -3.4807  -3.4775  -3.4375  -3.3695  -3.3624
    -3.3517  -3.3426  -3.3054  -3.2147  -3.1340  -3.1058  -3.0417  -3.0293
    -3.0020  -2.9866  -2.9653  -2.9493  -2.9397  -2.9323  -2.9141  -2.8684
    -2.8526  -2.8303  -2.7928  -2.7691  -2.6600  -2.6469  -2.6221  -2.6083
    -2.5737  -2.5341  -2.5198  -2.4994  -2.4916  -2.4239  -2.3692  -2.3650
    -2.3616  -2.3513  -2.3436  -2.3245  -2.3115  -2.3006  -2.2741  -2.2506
    -2.2383  -2.2063  -2.1883  -2.1616  -2.1374  -2.1135  -2.0640  -2.0554
    -2.0337  -2.0219  -2.0078  -1.9839  -1.9768  -1.9336  -1.9275  -1.9146
    -1.9083  -1.8977  -1.8815  -1.8688  -1.8535  -1.8478  -1.8407  -1.8153
    -1.8033  -1.7735  -1.7557  -1.7353  -1.6672  -1.6606  -1.6312  -1.6241
    -1.6094  -1.5806  -1.5584  -1.5241  -1.5141  -1.5051  -1.5003  -1.4898
    -1.4848  -1.4747  -1.4686  -1.4658  -1.4556  -1.4393  -1.4256  -1.4149
    -1.3826  -1.3755  -1.3178  -1.2900  -1.2702  -1.2584  -1.2415  -1.2140
    -1.1959  -1.1505  -1.1222  -1.1160  -1.0923  -1.0660  -1.0324  -1.0082
    -0.9886  -0.9627  -0.9381  -0.9303  -0.9021  -0.8823  -0.8516  -0.8001
    -0.7509  -0.7339  -0.7229  -0.7085  -0.7051  -0.6982  -0.6913  -0.6801
    -0.6662  -0.6505  -0.5673  -0.5597  -0.5480  -0.5420  -0.5295  -0.5164
    -0.5060  -0.4915  -0.4776  -0.4733  -0.4635  -0.4409  -0.3737  -0.3568
    -0.3534  -0.3469  -0.3200  -0.2665  -0.2592  -0.2295  -0.2223  -0.1827
    -0.1599  -0.1433  -0.1379  -0.1172  -0.1127  -0.1093  -0.1035  -0.0707
    -0.0138  -0.0001   0.3845   0.6094   0.9153   1.0780   1.1188   1.2435
     1.4388   1.4959

          k = 0.4000 0.0000 0.0000 ( 51202 PWs)   bands (ev):

   -22.0244  -9.0769  -7.2629  -6.3695  -6.0888  -5.9195  -5.6961  -5.4839
    -5.3464  -5.1235  -4.7761  -4.6143  -4.4937  -4.4876  -4.3369  -4.2732
    -4.2626  -4.1692  -4.1603  -4.0976  -4.0414  -3.9578  -3.9006  -3.8829
    -3.8234  -3.7842  -3.6884  -3.6832  -3.6521  -3.6418  -3.6326  -3.6070
    -3.5897  -3.5790  -3.5608  -3.5233  -3.4792  -3.4527  -3.4397  -3.4019
    -3.3088  -3.2431  -3.2153  -3.1924  -3.1630  -3.1536  -3.0776  -3.0452
    -3.0229  -2.9836  -2.9740  -2.9665  -2.9454  -2.9136  -2.9032  -2.8898
    -2.8775  -2.8667  -2.7685  -2.7011  -2.6941  -2.6736  -2.6428  -2.6271
    -2.6177  -2.5798  -2.5034  -2.4341  -2.4122  -2.3907  -2.3829  -2.3461
    -2.3426  -2.3255  -2.3182  -2.2984  -2.2789  -2.2701  -2.2608  -2.2515
    -2.2190  -2.1887  -2.1670  -2.1164  -2.0709  -2.0669  -2.0495  -2.0338
    -2.0163  -2.0060  -1.9815  -1.9571  -1.9521  -1.9309  -1.9066  -1.9028
    -1.9010  -1.8957  -1.8905  -1.8754  -1.8614  -1.8450  -1.8286  -1.8205
    -1.8086  -1.7848  -1.7455  -1.7262  -1.7191  -1.6975  -1.6743  -1.6676
    -1.6585  -1.6454  -1.6288  -1.5866  -1.5685  -1.5535  -1.5365  -1.5274
    -1.5078  -1.4960  -1.4892  -1.4784  -1.4570  -1.4379  -1.4254  -1.3694
    -1.3596  -1.3350  -1.3216  -1.2450  -1.2196  -1.2009  -1.1801  -1.0981
    -1.0831  -1.0650  -1.0614  -1.0432  -1.0403  -1.0284  -1.0053  -0.9966
    -0.9838  -0.9559  -0.9403  -0.8999  -0.8856  -0.8727  -0.8683  -0.8521
    -0.8203  -0.8080  -0.7972  -0.7782  -0.7720  -0.7496  -0.6322  -0.6121
    -0.5950  -0.5805  -0.5707  -0.5621  -0.5575  -0.5323  -0.5249  -0.5188
    -0.4997  -0.4803  -0.4486  -0.4346  -0.4152  -0.3996  -0.3612  -0.3426
    -0.3357  -0.3325  -0.3241  -0.3042  -0.2980  -0.2871  -0.2843  -0.2668
    -0.2537  -0.1774  -0.1702  -0.1627  -0.1252  -0.1180  -0.0916   0.0373
     0.1978   0.2290   0.2717   0.3360   0.5350   0.6130   0.9306   1.1192
     1.2070   1.4684

          k = 0.4000 0.2309 0.0000 ( 51204 PWs)   bands (ev):

   -22.0244  -9.0732  -7.1308  -6.5116  -6.2247  -5.9101  -5.4772  -5.3752
    -5.2315  -5.1538  -5.1147  -4.9323  -4.3538  -4.3165  -4.3026  -4.2396
    -4.2008  -4.1275  -4.1255  -4.0155  -3.9948  -3.9862  -3.9433  -3.8358
    -3.8094  -3.8038  -3.7970  -3.7955  -3.7116  -3.6956  -3.6844  -3.6512
    -3.5273  -3.5230  -3.5052  -3.4816  -3.4799  -3.4312  -3.3689  -3.3609
    -3.3475  -3.3377  -3.3109  -3.2174  -3.1369  -3.0994  -3.0444  -3.0287
    -3.0088  -2.9786  -2.9653  -2.9579  -2.9428  -2.9279  -2.9021  -2.8685
    -2.8562  -2.8308  -2.7989  -2.7594  -2.6544  -2.6492  -2.6265  -2.6132
    -2.5734  -2.5335  -2.5132  -2.5057  -2.4932  -2.4228  -2.3689  -2.3659
    -2.3588  -2.3539  -2.3433  -2.3238  -2.3113  -2.3007  -2.2764  -2.2416
    -2.2372  -2.2068  -2.1889  -2.1646  -2.1398  -2.1060  -2.0639  -2.0519
    -2.0351  -2.0264  -2.0075  -1.9967  -1.9743  -1.9352  -1.9285  -1.9190
    -1.9089  -1.8998  -1.8799  -1.8709  -1.8542  -1.8463  -1.8420  -1.8123
    -1.8006  -1.7846  -1.7516  -1.7359  -1.6695  -1.6614  -1.6330  -1.6238
    -1.6087  -1.5812  -1.5545  -1.5235  -1.5153  -1.5081  -1.5014  -1.4931
    -1.4873  -1.4748  -1.4706  -1.4626  -1.4562  -1.4374  -1.4209  -1.4042
    -1.3902  -1.3750  -1.3231  -1.2892  -1.2696  -1.2500  -1.2351  -1.2145
    -1.2009  -1.1502  -1.1246  -1.1140  -1.0901  -1.0703  -1.0362  -1.0033
    -0.9876  -0.9656  -0.9333  -0.9289  -0.9003  -0.8819  -0.8522  -0.8205
    -0.7455  -0.7294  -0.7159  -0.7093  -0.7048  -0.6968  -0.6898  -0.6796
    -0.6725  -0.6616  -0.5687  -0.5565  -0.5516  -0.5387  -0.5310  -0.5149
    -0.5051  -0.4933  -0.4854  -0.4696  -0.4528  -0.4430  -0.3739  -0.3577
    -0.3538  -0.3467  -0.3199  -0.2646  -0.2597  -0.2267  -0.2234  -0.1827
    -0.1651  -0.1407  -0.1373  -0.1181  -0.1145  -0.1058  -0.0936  -0.0759
    -0.0123   0.0030   0.3954   0.6382   0.8787   1.0415   1.1234   1.2029
     1.4624   1.5279

          k = 0.4000-0.6928 0.0000 ( 51262 PWs)   bands (ev):

   -22.0244  -9.0689  -6.8008  -6.6728  -6.2137  -5.9708  -5.9025  -5.3980
    -5.2165  -5.2085  -5.0323  -4.7018  -4.4722  -4.2353  -4.1817  -4.0599
    -4.0555  -4.0328  -4.0221  -4.0008  -3.9700  -3.9507  -3.9441  -3.9399
    -3.9251  -3.8255  -3.7991  -3.7925  -3.7745  -3.7596  -3.7522  -3.6260
    -3.6093  -3.6057  -3.5879  -3.5630  -3.5056  -3.4447  -3.3586  -3.3137
    -3.3102  -3.2989  -3.2149  -3.2007  -3.1774  -3.1313  -3.0960  -3.0925
    -3.0509  -3.0157  -2.9901  -2.9336  -2.9123  -2.8776  -2.8652  -2.8189
    -2.8055  -2.7408  -2.7307  -2.7256  -2.7130  -2.7027  -2.6528  -2.6399
    -2.5755  -2.5172  -2.5096  -2.4955  -2.4847  -2.4444  -2.4213  -2.3712
    -2.3572  -2.3318  -2.3252  -2.3157  -2.3008  -2.2773  -2.2637  -2.2557
    -2.2378  -2.2241  -2.2044  -2.1900  -2.1824  -2.1422  -2.1216  -2.1028
    -2.0857  -2.0519  -2.0238  -1.9854  -1.9659  -1.9441  -1.9326  -1.9225
    -1.9088  -1.9013  -1.8928  -1.8781  -1.8619  -1.8502  -1.8454  -1.7780
    -1.7650  -1.7494  -1.7437  -1.7330  -1.7154  -1.7078  -1.7032  -1.6957
    -1.6901  -1.6753  -1.6605  -1.6479  -1.6031  -1.5800  -1.5726  -1.5444
    -1.5195  -1.4964  -1.4659  -1.4386  -1.4262  -1.4170  -1.4029  -1.3852
    -1.3413  -1.3354  -1.3096  -1.2621  -1.2275  -1.2032  -1.1808  -1.1750
    -1.1468  -1.1314  -1.1256  -1.1089  -1.0926  -1.0757  -1.0541  -1.0301
    -0.9873  -0.9823  -0.9666  -0.9422  -0.9327  -0.8937  -0.8847  -0.8705
    -0.8525  -0.8442  -0.8262  -0.8103  -0.7811  -0.7689  -0.7445  -0.5937
    -0.5800  -0.5671  -0.5612  -0.5521  -0.5462  -0.5306  -0.5239  -0.4871
    -0.4817  -0.4683  -0.4617  -0.4411  -0.4019  -0.3466  -0.3376  -0.3316
    -0.3116  -0.3040  -0.2878  -0.2531  -0.2457  -0.2350  -0.2276  -0.2201
    -0.2089  -0.2013  -0.1351  -0.1301  -0.1163  -0.1095  -0.0834  -0.0574
     0.1427   0.2628   0.5405   0.7565   1.0326   1.1872   1.2161   1.5742
     1.6776   1.7146

          k = 0.4000-0.4619 0.0000 ( 51262 PWs)   bands (ev):

   -22.0244  -9.0697  -6.7914  -6.6746  -6.2161  -6.0055  -5.8480  -5.4361
    -5.2430  -5.1941  -5.0055  -4.7012  -4.4711  -4.2332  -4.1861  -4.0608
    -4.0555  -4.0402  -4.0219  -4.0162  -3.9707  -3.9489  -3.9431  -3.9397
    -3.9234  -3.8396  -3.7964  -3.7920  -3.7718  -3.7636  -3.7319  -3.6271
    -3.6084  -3.6027  -3.5822  -3.5580  -3.5051  -3.4476  -3.3677  -3.3141
    -3.3104  -3.2935  -3.2183  -3.2011  -3.1797  -3.1268  -3.0974  -3.0883
    -3.0418  -3.0189  -2.9945  -2.9322  -2.9129  -2.8805  -2.8642  -2.8231
    -2.8033  -2.7406  -2.7322  -2.7228  -2.7128  -2.7015  -2.6616  -2.6304
    -2.5743  -2.5171  -2.5093  -2.4977  -2.4817  -2.4364  -2.4290  -2.3732
    -2.3595  -2.3321  -2.3239  -2.3104  -2.3048  -2.2824  -2.2616  -2.2575
    -2.2394  -2.2298  -2.2088  -2.1887  -2.1815  -2.1380  -2.1063  -2.1030
    -2.0828  -2.0609  -2.0194  -1.9863  -1.9680  -1.9402  -1.9315  -1.9261
    -1.9067  -1.9013  -1.8929  -1.8813  -1.8644  -1.8480  -1.8418  -1.7784
    -1.7688  -1.7457  -1.7398  -1.7362  -1.7179  -1.7124  -1.7058  -1.6930
    -1.6887  -1.6810  -1.6578  -1.6433  -1.6029  -1.5806  -1.5742  -1.5422
    -1.5007  -1.4943  -1.4788  -1.4391  -1.4237  -1.4152  -1.4044  -1.3865
    -1.3412  -1.3388  -1.3149  -1.2625  -1.2242  -1.2031  -1.1799  -1.1725
    -1.1494  -1.1330  -1.1224  -1.1169  -1.0854  -1.0737  -1.0532  -1.0316
    -0.9908  -0.9839  -0.9659  -0.9450  -0.9284  -0.8951  -0.8812  -0.8653
    -0.8509  -0.8451  -0.8343  -0.8046  -0.7825  -0.7655  -0.7490  -0.5995
    -0.5789  -0.5645  -0.5597  -0.5513  -0.5395  -0.5339  -0.5202  -0.4864
    -0.4824  -0.4732  -0.4579  -0.4449  -0.4011  -0.3447  -0.3389  -0.3320
    -0.3053  -0.3028  -0.2941  -0.2714  -0.2490  -0.2347  -0.2264  -0.2133
    -0.2083  -0.1870  -0.1331  -0.1321  -0.1165  -0.1087  -0.0841  -0.0602
     0.1289   0.2590   0.5062   0.8454   1.0051   1.1854   1.2268   1.5327
     1.6528   1.7237

 ------ SPIN DOWN ----------


          k = 0.0000 0.0000 0.0000 ( 51087 PWs)   bands (ev):

   -22.1187  -9.1930  -7.8039  -6.6436  -5.8184  -5.6971  -5.4005  -5.1441
    -4.6429  -4.6296  -4.6277  -4.6126  -4.5985  -4.5652  -4.2481  -3.7617
    -3.7573  -3.7440  -3.7328  -3.7218  -3.6418  -3.3464  -2.8213  -2.8134
    -2.8029  -2.7997  -2.7157  -2.6094  -2.3591  -2.3510  -2.3431  -2.3385
    -2.3158  -2.2403  -2.1434  -2.1408  -2.0693  -2.0641  -2.0452  -2.0434
    -1.9596  -1.9582  -1.9092  -1.9059  -1.8437  -1.8256  -1.8079  -1.7959
    -1.7626  -1.7206  -1.5602  -1.5572  -1.5357  -1.5308  -1.5259  -1.5237
    -1.5079  -1.5066  -1.4769  -1.4614  -1.4377  -1.4348  -1.4305  -1.4294
    -1.3477  -1.2718  -0.9126  -0.8869  -0.8485  -0.8465  -0.7872  -0.7237
    -0.6581  -0.5887  -0.5549  -0.5477  -0.5298  -0.5232  -0.5114  -0.4954
    -0.4806  -0.4717  -0.4525  -0.4447  -0.4334  -0.4318  -0.4307  -0.4018
    -0.3738  -0.3277  -0.3213  -0.3035  -0.2988  -0.2854  -0.2749  -0.2720
    -0.2658  -0.2488  -0.2442  -0.2424  -0.2398  -0.2379  -0.2182  -0.1598
    -0.1360  -0.1203  -0.1097  -0.0654  -0.0351  -0.0296  -0.0167  -0.0111
    -0.0086  -0.0044  -0.0024   0.0641   0.0656   0.0723   0.1175   0.1353
     0.1398   0.1599   0.1652   0.2037   0.2821   0.3797   0.3828   0.4404
     0.4511   0.4591   0.4668   0.4719   0.6446   0.6705   0.7680   0.7834
     0.8169   0.8335   0.9975   1.0087   1.0205   1.0327   1.0399   1.0471
     1.0627   1.1586   1.1857   1.1967   1.2137   1.2140   1.2273   1.2491
     1.2522   1.2662   1.2801   1.2914   1.3085   1.3101   1.3228   1.3459
     1.3580   1.3620   1.3692   1.3905   1.4122   1.4183   1.4286   1.4432
     1.4446   1.4571   1.4690   1.4775   1.4816   1.4956   1.4981   1.5323
     1.5424   1.5589   1.5609   1.5695   1.5729   1.5787   1.5850   1.6236
     1.6291   1.6307   1.6341   1.6393   1.6400   1.6525   1.6549   1.6675
     1.6718   1.7161   1.7186   1.8558   1.8649   1.8689   1.8722   1.8739
     1.8756   2.0430

          k = 0.0000 0.2309 0.0000 ( 51134 PWs)   bands (ev):

   -22.1187  -9.1828  -7.6623  -6.5445  -5.8592  -5.7252  -5.5517  -5.3785
    -5.1476  -4.9881  -4.9134  -4.4729  -4.1254  -4.0810  -4.0581  -3.9634
    -3.8507  -3.7765  -3.4598  -3.4093  -3.3668  -3.2657  -2.9334  -2.8143
    -2.7714  -2.7236  -2.6864  -2.6235  -2.4484  -2.3783  -2.3725  -2.3546
    -2.3421  -2.2948  -2.2869  -2.2854  -2.2454  -2.2092  -2.1081  -2.1032
    -2.0211  -2.0168  -1.9457  -1.8694  -1.8361  -1.8250  -1.8118  -1.7042
    -1.6821  -1.6555  -1.6123  -1.5783  -1.5597  -1.5405  -1.5319  -1.5260
    -1.5156  -1.5055  -1.4167  -1.4044  -1.3880  -1.3696  -1.3335  -1.2857
    -1.2522  -1.1639  -0.9625  -0.9223  -0.8974  -0.8941  -0.8346  -0.7966
    -0.7346  -0.7110  -0.6882  -0.6580  -0.5993  -0.5823  -0.5684  -0.5567
    -0.5114  -0.4987  -0.4918  -0.4850  -0.4739  -0.4516  -0.4168  -0.4114
    -0.3950  -0.3214  -0.3202  -0.3080  -0.2863  -0.2754  -0.2564  -0.2493
    -0.2454  -0.2369  -0.2316  -0.2211  -0.2186  -0.2173  -0.1819  -0.1649
    -0.1529  -0.1379  -0.1231  -0.1136  -0.0858  -0.0814  -0.0625  -0.0354
    -0.0333  -0.0038   0.0121   0.0722   0.0895   0.0978   0.1288   0.1318
     0.2212   0.2550   0.2902   0.3432   0.3500   0.3567   0.4165   0.4229
     0.4309   0.4383   0.4464   0.4525   0.5921   0.7032   0.7642   0.7767
     0.7869   0.7988   0.8074   0.8209   0.8676   0.8840   0.9351   0.9559
     0.9913   1.0279   1.0570   1.0659   1.0896   1.1105   1.1334   1.1828
     1.2139   1.2314   1.2410   1.2438   1.2728   1.2786   1.3213   1.3292
     1.3449   1.3682   1.4144   1.4208   1.4352   1.4387   1.4634   1.4765
     1.5121   1.5197   1.5242   1.5286   1.5544   1.6077   1.6121   1.6230
     1.6274   1.6530   1.6558   1.6806   1.6917   1.6966   1.7046   1.7105
     1.7327   1.7708   1.7790   1.7912   1.7935   1.8049   1.8175   1.8331
     1.8583   1.8587   1.8633   1.9009   1.9525   1.9647   1.9677   2.0176
     2.0470   2.1058

          k = 0.0000 0.4619 0.0000 ( 51204 PWs)   bands (ev):

   -22.1187  -9.1669  -7.2415  -6.5855  -6.2548  -5.8103  -5.6741  -5.4004
    -5.2750  -5.1602  -5.1043  -4.7965  -4.1136  -4.0219  -3.8705  -3.4633
    -3.4612  -3.4025  -3.3366  -3.1679  -3.0557  -3.0208  -2.9936  -2.8622
    -2.8591  -2.7999  -2.7486  -2.7024  -2.6437  -2.6223  -2.6088  -2.5584
    -2.5432  -2.4103  -2.3369  -2.3276  -2.2578  -2.2330  -2.1367  -2.1244
    -2.1096  -2.0995  -2.0230  -1.8434  -1.8249  -1.8001  -1.7806  -1.7331
    -1.6097  -1.6007  -1.5938  -1.5780  -1.5632  -1.5421  -1.5343  -1.5120
    -1.4864  -1.4229  -1.4108  -1.3964  -1.3736  -1.3622  -1.2208  -1.1836
    -1.0791  -1.0528  -0.9509  -0.9264  -0.9079  -0.8743  -0.8656  -0.8529
    -0.8327  -0.8125  -0.7888  -0.7825  -0.7102  -0.6962  -0.6716  -0.6458
    -0.6225  -0.6049  -0.5837  -0.5763  -0.5423  -0.5088  -0.4658  -0.4373
    -0.4284  -0.3722  -0.3672  -0.3543  -0.3004  -0.2822  -0.2660  -0.2291
    -0.2177  -0.2045  -0.1893  -0.1822  -0.1736  -0.1681  -0.1192  -0.1116
    -0.1076  -0.0784  -0.0709  -0.0637  -0.0554  -0.0388  -0.0292  -0.0064
     0.0072   0.0175   0.0642   0.0927   0.1435   0.1525   0.1667   0.1942
     0.2060   0.2148   0.2414   0.2612   0.3089   0.3152   0.3315   0.3541
     0.3802   0.3993   0.4113   0.4211   0.4574   0.5130   0.5817   0.5898
     0.6609   0.6918   0.7587   0.7781   0.8267   0.8437   0.8720   0.8766
     0.9009   0.9134   0.9385   0.9855   0.9883   1.0413   1.1647   1.1784
     1.1846   1.2186   1.2279   1.2354   1.2782   1.3000   1.3372   1.3390
     1.3673   1.3859   1.3963   1.4643   1.4749   1.4822   1.5354   1.5413
     1.5456   1.5485   1.5780   1.5836   1.6133   1.6266   1.6387   1.6585
     1.6647   1.7075   1.7242   1.7716   1.7824   1.7954   1.8065   1.8160
     1.8230   1.8601   1.8609   1.8763   1.8860   1.8968   1.9063   1.9082
     1.9544   2.0101   2.0426   2.1017   2.1172   2.1882   2.5441   2.6200
     2.6494   2.7052

          k = 0.2000-0.1155 0.0000 ( 51134 PWs)   bands (ev):

   -22.1187  -9.1807  -7.6640  -6.5474  -5.9138  -5.6979  -5.5248  -5.3799
    -5.1256  -4.9957  -4.9307  -4.4044  -4.2188  -4.0761  -4.0634  -3.9304
    -3.8462  -3.7801  -3.4767  -3.3966  -3.3297  -3.2659  -2.9815  -2.7907
    -2.7797  -2.7413  -2.6832  -2.6010  -2.4618  -2.3760  -2.3726  -2.3624
    -2.3311  -2.3083  -2.2885  -2.2863  -2.2431  -2.1986  -2.1068  -2.1022
    -2.0221  -2.0154  -1.9640  -1.8514  -1.8329  -1.8251  -1.8065  -1.7073
    -1.6783  -1.6537  -1.6173  -1.5720  -1.5613  -1.5387  -1.5322  -1.5276
    -1.5124  -1.4983  -1.4201  -1.4037  -1.3845  -1.3664  -1.3377  -1.2967
    -1.2422  -1.1742  -0.9563  -0.9152  -0.9035  -0.8932  -0.8351  -0.7923
    -0.7638  -0.7224  -0.6865  -0.6557  -0.6106  -0.5752  -0.5624  -0.5481
    -0.5176  -0.5057  -0.4892  -0.4787  -0.4634  -0.4610  -0.4319  -0.4180
    -0.3685  -0.3277  -0.3203  -0.3175  -0.2958  -0.2709  -0.2614  -0.2507
    -0.2437  -0.2371  -0.2284  -0.2230  -0.2172  -0.2135  -0.1798  -0.1669
    -0.1446  -0.1398  -0.1222  -0.1097  -0.1034  -0.0893  -0.0658  -0.0377
    -0.0204  -0.0130   0.0257   0.0695   0.0893   0.1043   0.1173   0.1337
     0.2303   0.2611   0.2956   0.3396   0.3483   0.3700   0.4041   0.4247
     0.4336   0.4425   0.4479   0.4515   0.6000   0.7055   0.7682   0.7809
     0.7873   0.7975   0.8094   0.8261   0.8567   0.8691   0.9408   0.9674
     0.9912   1.0395   1.0655   1.0741   1.1001   1.1159   1.1311   1.1458
     1.2098   1.2297   1.2459   1.2518   1.2716   1.2836   1.3181   1.3279
     1.3417   1.3562   1.4087   1.4188   1.4300   1.4409   1.4586   1.4992
     1.5154   1.5192   1.5257   1.5306   1.5488   1.5982   1.6097   1.6180
     1.6238   1.6478   1.6577   1.6837   1.6940   1.6972   1.7051   1.7169
     1.7328   1.7751   1.7781   1.7939   1.7965   1.8063   1.8156   1.8354
     1.8488   1.8585   1.8627   1.8804   1.9586   1.9629   1.9711   2.0249
     2.0442   2.1028

          k = 0.2000 0.1155 0.0000 ( 51134 PWs)   bands (ev):

   -22.1187  -9.1802  -7.6647  -6.5491  -5.9298  -5.6831  -5.5073  -5.3963
    -5.1133  -4.9927  -4.9490  -4.3731  -4.2233  -4.0816  -4.0644  -3.9619
    -3.8344  -3.7778  -3.4761  -3.4076  -3.3182  -3.2528  -2.9862  -2.8170
    -2.7702  -2.7306  -2.6946  -2.5867  -2.4655  -2.3785  -2.3718  -2.3593
    -2.3348  -2.3074  -2.2889  -2.2868  -2.2484  -2.1894  -2.1057  -2.1031
    -2.0195  -2.0165  -1.9664  -1.8620  -1.8289  -1.8229  -1.7960  -1.7032
    -1.6862  -1.6628  -1.6029  -1.5885  -1.5520  -1.5432  -1.5298  -1.5219
    -1.5197  -1.4802  -1.4364  -1.4024  -1.3848  -1.3660  -1.3384  -1.2989
    -1.2455  -1.1708  -0.9539  -0.9177  -0.9010  -0.8905  -0.8364  -0.8158
    -0.7826  -0.7053  -0.6719  -0.6507  -0.6138  -0.5771  -0.5682  -0.5375
    -0.5218  -0.5113  -0.4868  -0.4763  -0.4691  -0.4502  -0.4442  -0.4004
    -0.3673  -0.3226  -0.3197  -0.3139  -0.2998  -0.2710  -0.2595  -0.2509
    -0.2470  -0.2370  -0.2280  -0.2209  -0.2182  -0.2134  -0.1823  -0.1666
    -0.1516  -0.1384  -0.1228  -0.1103  -0.1080  -0.0911  -0.0599  -0.0405
    -0.0232  -0.0014   0.0306   0.0586   0.0896   0.1047   0.1237   0.1334
     0.2020   0.2623   0.2919   0.3374   0.3477   0.3810   0.4062   0.4216
     0.4360   0.4437   0.4465   0.4520   0.6115   0.7009   0.7663   0.7810
     0.7901   0.8034   0.8078   0.8227   0.8477   0.8835   0.9451   0.9635
     0.9947   1.0459   1.0619   1.0780   1.0992   1.1197   1.1296   1.1495
     1.2039   1.2288   1.2466   1.2550   1.2732   1.2836   1.3112   1.3271
     1.3375   1.3598   1.4114   1.4167   1.4315   1.4401   1.4574   1.5001
     1.5166   1.5200   1.5253   1.5371   1.5433   1.5916   1.6095   1.6177
     1.6261   1.6512   1.6548   1.6829   1.6910   1.7011   1.7028   1.7166
     1.7343   1.7765   1.7783   1.7923   1.7975   1.8060   1.8203   1.8346
     1.8483   1.8574   1.8623   1.8748   1.9577   1.9638   1.9737   2.0229
     2.0466   2.1003

          k = 0.2000 0.3464 0.0000 ( 51202 PWs)   bands (ev):

   -22.1187  -9.1673  -7.3839  -6.4044  -6.1011  -6.0078  -5.7039  -5.5495
    -5.3773  -5.1010  -4.6620  -4.5264  -4.2699  -4.2438  -3.9222  -3.4442
    -3.4299  -3.4254  -3.4144  -3.2941  -3.1636  -3.1316  -3.1044  -2.9065
    -2.7614  -2.6895  -2.6762  -2.6533  -2.5842  -2.5741  -2.5622  -2.4786
    -2.4726  -2.4655  -2.4288  -2.3174  -2.3039  -2.2591  -2.0991  -2.0886
    -2.0668  -1.9990  -1.9631  -1.9494  -1.9072  -1.7974  -1.7392  -1.7349
    -1.6414  -1.6092  -1.5717  -1.5683  -1.5577  -1.5473  -1.5224  -1.5108
    -1.5004  -1.4817  -1.4239  -1.3798  -1.3527  -1.3009  -1.1969  -1.1701
    -1.1085  -1.0836  -0.9942  -0.9321  -0.8958  -0.8714  -0.8381  -0.8298
    -0.8025  -0.7805  -0.7439  -0.7285  -0.7115  -0.6839  -0.6594  -0.6457
    -0.6390  -0.6268  -0.6031  -0.5743  -0.5408  -0.4543  -0.4406  -0.4244
    -0.4098  -0.3886  -0.3590  -0.3386  -0.3215  -0.3077  -0.2907  -0.2846
    -0.2676  -0.2458  -0.2285  -0.2187  -0.1974  -0.1847  -0.1663  -0.1338
    -0.1199  -0.1157  -0.1049  -0.0914  -0.0718  -0.0650  -0.0526  -0.0445
     0.0371   0.0480   0.0571   0.0752   0.1127   0.1728   0.2033   0.2216
     0.2462   0.2574   0.2979   0.3244   0.3514   0.3567   0.3712   0.3810
     0.3876   0.4090   0.4305   0.4775   0.5153   0.6142   0.6786   0.6977
     0.7422   0.7665   0.7959   0.8228   0.8408   0.8519   0.8605   0.8779
     0.8959   0.9041   0.9256   0.9401   0.9783   1.0250   1.0829   1.0878
     1.1168   1.1456   1.1475   1.1767   1.2011   1.2488   1.2657   1.3133
     1.3271   1.3707   1.4618   1.4873   1.5000   1.5146   1.5309   1.5402
     1.5660   1.5756   1.5895   1.5949   1.6569   1.6622   1.6765   1.6827
     1.6930   1.7181   1.7318   1.7440   1.7554   1.7715   1.7747   1.7969
     1.8165   1.8176   1.8282   1.8431   1.8491   1.8611   1.9056   1.9337
[...]
     atom    8 type  1   force =     0.00430691   -0.00220878   -0.10175970
     atom    9 type  1   force =    -0.00097876   -0.00151313   -0.10478728
     atom   10 type  1   force =    -0.00038249    0.00136460   -0.01224959
     atom   11 type  1   force =     0.00029651    0.00084172   -0.00748422
     atom   12 type  1   force =     0.00055509    0.00068629   -0.00973126
     atom   13 type  1   force =     0.00199126   -0.00184451   -0.01113900
     atom   14 type  1   force =    -0.00161651   -0.00067797   -0.01031671
     atom   15 type  1   force =    -0.00049049   -0.00091254   -0.01333844
     atom   16 type  1   force =    -0.00094759   -0.00041813   -0.01688858
     atom   17 type  1   force =     0.00211858   -0.00050274   -0.01135083
     atom   18 type  1   force =    -0.00152903    0.00171248   -0.01548687
     atom   19 type  1   force =     0.00047430    0.00793278    0.00865458
     atom   20 type  1   force =    -0.00288697    0.00831775    0.00120979
     atom   21 type  1   force =     0.00236911    0.00191047    0.01416683
     atom   22 type  1   force =     0.00128678   -0.00035927    0.01898122
     atom   23 type  1   force =     0.00029254    0.00119103    0.01009089
     atom   24 type  1   force =    -0.00148084    0.00066197    0.01655341
     atom   25 type  1   force =    -0.00298894   -0.00450794   -0.00214407
     atom   26 type  1   force =     0.00197441   -0.00664485    0.00024979
     atom   27 type  1   force =     0.00183200   -0.00482610    0.00333524
     atom   28 type  1   force =     0.05957304    0.00771999    0.07027463
     atom   29 type  1   force =    -0.05109009    0.00876722    0.07286636
     atom   30 type  1   force =     0.00056182    0.00451753    0.07848249
     atom   31 type  1   force =     0.00554253   -0.04479815    0.14592324
     atom   32 type  1   force =    -0.00217786   -0.00695918    0.09205037
     atom   33 type  1   force =    -0.00298423   -0.00173348    0.11636676
     atom   34 type  1   force =    -0.00181798   -0.00502203    0.11206647
     atom   35 type  1   force =     0.00402012    0.03696778    0.13988749
     atom   36 type  1   force =    -0.00164126    0.00408723    0.11359287
     atom   37 type  2   force =     0.05450919    0.04584688    0.44503936
     atom   38 type  3   force =    -0.09301417   -0.14426593   -2.71647631
     atom   39 type  4   force =     0.00050605   -0.00095550   -0.02170442
     The ionic contribution  to forces
     atom    1 type  1   force =    -0.00628464    0.00702191 -111.12617775
     atom    2 type  1   force =     0.00452786    0.00764465 -111.12965336
     atom    3 type  1   force =     0.00175678    0.00310219 -111.11716906
     atom    4 type  1   force =    -0.00033609    0.00388265 -111.11392161
     atom    5 type  1   force =    -0.00076837   -0.00195418 -111.11609070
     atom    6 type  1   force =     0.00110446   -0.00374514 -111.11539788
     atom    7 type  1   force =    -0.00563321   -0.00382964 -111.11974767
     atom    8 type  1   force =    -0.00137997   -0.00706443 -111.13386036
     atom    9 type  1   force =     0.00701320   -0.00505803 -111.12254117
     atom   10 type  1   force =    -0.05597882   -0.00986088  -40.15493687
     atom   11 type  1   force =     0.04321335   -0.01505199  -40.17909928
     atom   12 type  1   force =     0.01276237   -0.01059008  -40.06936283
     atom   13 type  1   force =    -0.00975013    0.07210845  -40.11092453
     atom   14 type  1   force =     0.02996917    0.03531178  -40.07042700
     atom   15 type  1   force =    -0.02021793    0.02631257  -40.05000220
     atom   16 type  1   force =    -0.02101938   -0.01218844  -40.04018871
     atom   17 type  1   force =    -0.00179311   -0.06145619  -40.08659874
     atom   18 type  1   force =     0.02281338   -0.02458684  -40.04423552
     atom   19 type  1   force =    -0.33102839    0.36405845   31.16238083
     atom   20 type  1   force =     0.22633171    0.40776005   30.99924819
     atom   21 type  1   force =     0.10437289    0.14776974   31.58042002
     atom   22 type  1   force =    -0.01156008    0.17413146   31.73921342
     atom   23 type  1   force =    -0.04029009   -0.09386392   31.65884938
     atom   24 type  1   force =     0.05182956   -0.16948509   31.68687943
     atom   25 type  1   force =    -0.27889461   -0.17703959   31.49326872
     atom   26 type  1   force =    -0.05663691   -0.39429968   30.72413918
     atom   27 type  1   force =     0.33602504   -0.26234708   31.34872977
     atom   28 type  1   force =    -4.44427157   -0.60452209   99.04804233
     atom   29 type  1   force =     3.19935523   -1.13774086   98.66813228
     atom   30 type  1   force =     1.09728568   -0.69424857  103.58672148
     atom   31 type  1   force =    -0.21650746    3.40627773  102.28173417
     atom   32 type  1   force =     0.93342862    1.85256755  103.57815786
     atom   33 type  1   force =    -0.70868171    0.84153859  104.21966521
     atom   34 type  1   force =    -0.65479435   -0.43409514  104.39438055
     atom   35 type  1   force =    -0.00744139   -2.66278689  103.12865842
     atom   36 type  1   force =     0.66738501   -0.73491676  104.35712049
     atom   37 type  2   force =    -0.41616053   -0.45179239   50.97238774
     atom   38 type  3   force =     0.13701302    0.48543116   89.30814872
     atom   39 type  4   force =     0.41324143    0.13760495   14.96405707
     The local contribution  to forces
     atom    1 type  1   force =     0.00639868   -0.00823483  111.23137088
     atom    2 type  1   force =    -0.00204924   -0.00973962  111.23870182
     atom    3 type  1   force =    -0.00426833   -0.00364339  111.22055282
     atom    4 type  1   force =    -0.00175065   -0.00281493  111.21919393
     atom    5 type  1   force =    -0.00036115    0.00198742  111.22148334
     atom    6 type  1   force =     0.00136896    0.00141330  111.22256736
     atom    7 type  1   force =     0.00864703    0.00385890  111.22580370
     atom    8 type  1   force =    -0.00329272    0.01019495  111.23983981
     atom    9 type  1   force =    -0.00563469    0.00757330  111.23061415
     atom   10 type  1   force =     0.05553097    0.00661523   40.14639294
     atom   11 type  1   force =    -0.04228662    0.01414522   40.16490299
     atom   12 type  1   force =    -0.01314978    0.00946143   40.05956743
     atom   13 type  1   force =     0.00700472   -0.06933184   40.10424509
     atom   14 type  1   force =    -0.02870914   -0.03358922   40.06058544
     atom   15 type  1   force =     0.02169331   -0.02390617   40.04161255
     atom   16 type  1   force =     0.02185425    0.01361897   40.03675466
     atom   17 type  1   force =    -0.00102771    0.06062725   40.08032594
     atom   18 type  1   force =    -0.02067829    0.02261317   40.03910157
     atom   19 type  1   force =     0.33082073   -0.36978357  -31.15355671
     atom   20 type  1   force =    -0.22505423   -0.41372675  -30.98516217
     atom   21 type  1   force =    -0.10582509   -0.14999249  -31.57401841
     atom   22 type  1   force =     0.00911564   -0.17558789  -31.73324091
     atom   23 type  1   force =     0.03934530    0.09174117  -31.64731990
     atom   24 type  1   force =    -0.04903910    0.16837311  -31.68280358
     atom   25 type  1   force =     0.28158701    0.18156301  -31.47751722
     atom   26 type  1   force =     0.05486030    0.40134354  -30.70696519
     atom   27 type  1   force =    -0.33841423    0.26497267  -31.33895767
     atom   28 type  1   force =     4.36792878    0.59491903  -99.11650036
     atom   29 type  1   force =    -3.14638952    1.12482166  -98.72643025
     atom   30 type  1   force =    -1.08348276    0.68318841 -103.67220212
     atom   31 type  1   force =     0.20695928   -3.35008070 -102.43508540
     atom   32 type  1   force =    -0.92728455   -1.83125545 -103.67786215
     atom   33 type  1   force =     0.71196648   -0.83614198 -104.34612913
     atom   34 type  1   force =     0.65616588    0.43874927 -104.51349820
     atom   35 type  1   force =     0.00328650    2.61615192 -103.27472765
     atom   36 type  1   force =    -0.66404142    0.72560846 -104.47911545
     atom   37 type  2   force =     0.36276199    0.40465358  -51.40973599
     atom   38 type  3   force =    -0.04519493   -0.34264097  -86.61647951
     atom   39 type  4   force =    -0.41399059   -0.13652342  -14.94389572
     The core correction contribution to forces
     atom    1 type  1   force =    -0.00011451   -0.00016024    0.00972965
     atom    2 type  1   force =     0.00003111   -0.00038550    0.00987897
     atom    3 type  1   force =     0.00011282    0.00004733    0.00989049
     atom    4 type  1   force =     0.00005004    0.00006482    0.01001507
     atom    5 type  1   force =     0.00006402    0.00007447    0.01004529
     atom    6 type  1   force =    -0.00005751   -0.00007166    0.00985627
     atom    7 type  1   force =     0.00004286    0.00014667    0.01014756
     atom    8 type  1   force =    -0.00016830    0.00042581    0.00989567
     atom    9 type  1   force =    -0.00005698    0.00013243    0.01019799
     atom   10 type  1   force =     0.00019026    0.00003998   -0.00188205
     atom   11 type  1   force =    -0.00002122    0.00020207   -0.00160399
     atom   12 type  1   force =    -0.00016233    0.00016229   -0.00174677
     atom   13 type  1   force =    -0.00038519    0.00004012   -0.00174443
     atom   14 type  1   force =     0.00015601   -0.00006948   -0.00199416
     atom   15 type  1   force =     0.00025925    0.00008846   -0.00167244
     atom   16 type  1   force =     0.00008200   -0.00007221   -0.00179105
     atom   17 type  1   force =    -0.00015824    0.00004445   -0.00208628
     atom   18 type  1   force =     0.00002937   -0.00034476   -0.00167421
     atom   19 type  1   force =    -0.00019703    0.00058586    0.00080192
     atom   20 type  1   force =    -0.00002369    0.00061668    0.00045567
     atom   21 type  1   force =     0.00036426    0.00015844    0.00186104
     atom   22 type  1   force =    -0.00019308    0.00009517    0.00225769
     atom   23 type  1   force =    -0.00028415    0.00063962    0.00136133
     atom   24 type  1   force =     0.00027610   -0.00036811    0.00140561
     atom   25 type  1   force =     0.00007683   -0.00052002    0.00115807
     atom   26 type  1   force =    -0.00096851   -0.00129320    0.00074068
     atom   27 type  1   force =     0.00041036   -0.00031507    0.00156500
     atom   28 type  1   force =     0.01231156    0.00083676   -0.00504829
     atom   29 type  1   force =    -0.00159622    0.00683984   -0.00056228
     atom   30 type  1   force =    -0.00922637    0.00481155   -0.00591133
     atom   31 type  1   force =     0.00032463   -0.00747326   -0.00603456
     atom   32 type  1   force =    -0.00027833   -0.01078563   -0.00534798
     atom   33 type  1   force =     0.00005113   -0.00215829   -0.00935499
     atom   34 type  1   force =     0.00069668    0.00106496   -0.00953045
     atom   35 type  1   force =    -0.00049494    0.00564474   -0.00745404
     atom   36 type  1   force =    -0.00026797    0.00246225   -0.00874293
     atom   37 type  2   force =    -0.00105506   -0.00071861   -0.00165482
     atom   38 type  3   force =     0.00066623    0.00103614    0.01966878
     atom   39 type  4   force =     0.00000000    0.00000000    0.00000000
     The Hubbard contrib.    to forces
     atom    1 type  1   force =     0.00000000    0.00000000    0.00000000
     atom    2 type  1   force =     0.00000000    0.00000000    0.00000000
     atom    3 type  1   force =     0.00000000    0.00000000    0.00000000
     atom    4 type  1   force =     0.00000000    0.00000000    0.00000000
     atom    5 type  1   force =     0.00000000    0.00000000    0.00000000
     atom    6 type  1   force =     0.00000000    0.00000000    0.00000000
     atom    7 type  1   force =     0.00000000    0.00000000    0.00000000
     atom    8 type  1   force =     0.00000000    0.00000000    0.00000000
     atom    9 type  1   force =     0.00000000    0.00000000    0.00000000
     atom   10 type  1   force =     0.00000000    0.00000000    0.00000000
     atom   11 type  1   force =     0.00000000    0.00000000    0.00000000
     atom   12 type  1   force =     0.00000000    0.00000000    0.00000000
     atom   13 type  1   force =     0.00000000    0.00000000    0.00000000
     atom   14 type  1   force =     0.00000000    0.00000000    0.00000000
     atom   15 type  1   force =     0.00000000    0.00000000    0.00000000
     atom   16 type  1   force =     0.00000000    0.00000000    0.00000000
     atom   17 type  1   force =     0.00000000    0.00000000    0.00000000
     atom   18 type  1   force =     0.00000000    0.00000000    0.00000000
     atom   19 type  1   force =     0.00000000    0.00000000    0.00000000
     atom   20 type  1   force =     0.00000000    0.00000000    0.00000000
     atom   21 type  1   force =     0.00000000    0.00000000    0.00000000
     atom   22 type  1   force =     0.00000000    0.00000000    0.00000000
     atom   23 type  1   force =     0.00000000    0.00000000    0.00000000
     atom   24 type  1   force =     0.00000000    0.00000000    0.00000000
     atom   25 type  1   force =     0.00000000    0.00000000    0.00000000
     atom   26 type  1   force =     0.00000000    0.00000000    0.00000000
     atom   27 type  1   force =     0.00000000    0.00000000    0.00000000
     atom   28 type  1   force =     0.00000000    0.00000000    0.00000000
     atom   29 type  1   force =     0.00000000    0.00000000    0.00000000
     atom   30 type  1   force =     0.00000000    0.00000000    0.00000000
     atom   31 type  1   force =     0.00000000    0.00000000    0.00000000
     atom   32 type  1   force =     0.00000000    0.00000000    0.00000000
     atom   33 type  1   force =     0.00000000    0.00000000    0.00000000
     atom   34 type  1   force =     0.00000000    0.00000000    0.00000000
     atom   35 type  1   force =     0.00000000    0.00000000    0.00000000
     atom   36 type  1   force =     0.00000000    0.00000000    0.00000000
     atom   37 type  2   force =     0.00000000    0.00000000    0.00000000
     atom   38 type  3   force =     0.00000000    0.00000000    0.00000000
     atom   39 type  4   force =     0.00000000    0.00000000    0.00000000
     The SCF correction term to forces
     atom    1 type  1   force =     0.00000000    0.00000000   -0.00000000
     atom    2 type  1   force =    -0.00000000    0.00000000   -0.00000000
     atom    3 type  1   force =    -0.00000000    0.00000000   -0.00000000
     atom    4 type  1   force =     0.00000000   -0.00000000   -0.00000000
     atom    5 type  1   force =    -0.00000000   -0.00000000   -0.00000000
     atom    6 type  1   force =     0.00000000    0.00000000   -0.00000000
     atom    7 type  1   force =     0.00000000   -0.00000000   -0.00000000
     atom    8 type  1   force =     0.00000000    0.00000000   -0.00000000
     atom    9 type  1   force =    -0.00000000   -0.00000000   -0.00000000
     atom   10 type  1   force =    -0.00000000    0.00000000   -0.00000000
     atom   11 type  1   force =    -0.00000000    0.00000000   -0.00000000
     atom   12 type  1   force =     0.00000000   -0.00000000   -0.00000000
     atom   13 type  1   force =    -0.00000000    0.00000000   -0.00000000
     atom   14 type  1   force =    -0.00000000    0.00000000   -0.00000000
     atom   15 type  1   force =     0.00000000   -0.00000000   -0.00000000
     atom   16 type  1   force =    -0.00000000   -0.00000000   -0.00000000
     atom   17 type  1   force =    -0.00000000    0.00000000   -0.00000000
     atom   18 type  1   force =     0.00000000   -0.00000000   -0.00000000
     atom   19 type  1   force =    -0.00000000    0.00000000    0.00000000
     atom   20 type  1   force =     0.00000000    0.00000000    0.00000000
     atom   21 type  1   force =    -0.00000000    0.00000000    0.00000000
     atom   22 type  1   force =     0.00000000   -0.00000000    0.00000000
     atom   23 type  1   force =    -0.00000000   -0.00000000    0.00000000
     atom   24 type  1   force =    -0.00000000   -0.00000000    0.00000000
     atom   25 type  1   force =     0.00000000   -0.00000000    0.00000000
     atom   26 type  1   force =    -0.00000000   -0.00000000    0.00000000
     atom   27 type  1   force =     0.00000000   -0.00000000    0.00000000
     atom   28 type  1   force =    -0.00000000   -0.00000000    0.00000000
     atom   29 type  1   force =     0.00000000   -0.00000000    0.00000000
     atom   30 type  1   force =    -0.00000000    0.00000000    0.00000000
     atom   31 type  1   force =     0.00000000    0.00000000    0.00000000
     atom   32 type  1   force =     0.00000000    0.00000000    0.00000000
     atom   33 type  1   force =    -0.00000000    0.00000000    0.00000000
     atom   34 type  1   force =     0.00000000   -0.00000000    0.00000000
     atom   35 type  1   force =    -0.00000000   -0.00000000    0.00000000
     atom   36 type  1   force =    -0.00000000   -0.00000000    0.00000000
     atom   37 type  2   force =    -0.00000006   -0.00000116    0.00001992
     atom   38 type  3   force =     0.00000038   -0.00000069    0.00000457
     atom   39 type  4   force =     0.00000049    0.00000194    0.00000493

     Total force =     0.008365     Total SCF correction =     0.000021

     Writing all to output data dir ./pwscf.save/

     init_run     :     11.28s CPU     11.73s WALL (       1 calls)
     electrons    :    840.96s CPU    852.34s WALL (       1 calls)
     forces       :      3.46s CPU      3.55s WALL (       1 calls)

     Called by init_run:
     wfcinit      :      8.18s CPU      8.51s WALL (       1 calls)
     potinit      :      2.00s CPU      2.08s WALL (       1 calls)
     hinit0       :      0.84s CPU      0.85s WALL (       1 calls)

     Called by electrons:
     c_bands      :    705.91s CPU    714.94s WALL (      54 calls)
     sum_band     :     89.12s CPU     90.37s WALL (      54 calls)
     v_of_rho     :      9.49s CPU      9.91s WALL (      55 calls)
     newd         :      3.13s CPU      3.18s WALL (      55 calls)
     PAW_pot      :     14.25s CPU     14.41s WALL (      55 calls)
     mix_rho      :     20.34s CPU     20.65s WALL (      54 calls)
     vdW_kernel   :      1.09s CPU      1.10s WALL (       1 calls)

     Called by c_bands:
     init_us_2    :      9.73s CPU      9.89s WALL (    2860 calls)
     init_us_2:cp :      9.71s CPU      9.89s WALL (    2860 calls)
     cegterg      :    681.10s CPU    689.47s WALL (    1404 calls)

     Called by *egterg:
     cdiaghg      :    213.25s CPU    214.82s WALL (    4804 calls)
     h_psi        :    307.11s CPU    311.98s WALL (    4830 calls)
     s_psi        :     39.71s CPU     40.18s WALL (    4830 calls)
     g_psi        :      0.99s CPU      1.02s WALL (    3400 calls)

     Called by h_psi:
     h_psi:calbec :     54.20s CPU     55.03s WALL (    4830 calls)
     vloc_psi     :    209.82s CPU    213.29s WALL (    4830 calls)
     add_vuspsi   :     40.57s CPU     41.10s WALL (    4830 calls)

     General routines
     calbec       :     78.96s CPU     80.09s WALL (    6338 calls)
     fft          :      6.38s CPU      6.81s WALL (    4972 calls)
     ffts         :     11.69s CPU     11.88s WALL (   24665 calls)
     fftw         :    241.57s CPU    245.48s WALL ( 1454090 calls)
     interpolate  :      0.40s CPU      0.40s WALL (     110 calls)

     Parallel routines

     PWSCF        :  14m21.20s CPU  14m38.24s WALL


   This run was terminated on:   6:18:52  11Dec2025            

=------------------------------------------------------------------------------=
   JOB DONE.
=------------------------------------------------------------------------------=
