  37  37   0   0
  0.4190497E+02  0.8468310E-09  0.8468310E-09  0.2496566E-08  0.5000000E-15
  1.000000000000000E-004
  CAR 
 unknown system                          
      8.64686611     -9.89995715  301     -0.07605192      1.00000000
     -9.900  0.0000E+00  0.0000E+00
     -9.838  0.0000E+00  0.0000E+00
     -9.776  0.0000E+00  0.0000E+00
     -9.714 -0.4565E-28 -0.2822E-29
     -9.653 -0.6809E-24 -0.4210E-25
     -9.591 -0.4696E-20 -0.2904E-21
     -9.529 -0.1496E-16 -0.9252E-18
     -9.467 -0.2132E-13 -0.1319E-14
     -9.405 -0.1427E-10 -0.8834E-12
     -9.344 -0.4364E-08 -0.2707E-09
     -9.282 -0.6043E-06 -0.3763E-07
     -9.220 -0.3733E-04 -0.2345E-05
     -9.158 -0.9969E-03 -0.6398E-04
     -9.096 -0.1065E-01 -0.7224E-03
     -9.034 -0.3364E-01 -0.2802E-02
     -8.973  0.5555E-01  0.6320E-03
     -8.911  0.3356E+00  0.2138E-01
     -8.849  0.6185E+00  0.5961E-01
     -8.787  0.2095E+01  0.1891E+00
     -8.725  0.3816E+01  0.4251E+00
     -8.664  0.2188E+01  0.5603E+00
     -8.602 -0.4867E-01  0.5573E+00
     -8.540  0.2275E+00  0.5714E+00
     -8.478  0.2623E+01  0.7335E+00
     -8.416  0.3807E+01  0.9689E+00
     -8.354  0.3561E+01  0.1189E+01
     -8.293  0.3725E+01  0.1419E+01
     -8.231  0.1803E+01  0.1531E+01
     -8.169 -0.2223E-01  0.1529E+01
     -8.107 -0.3682E+00  0.1507E+01
     -8.045 -0.2320E+00  0.1492E+01
     -7.983  0.2310E+01  0.1635E+01
     -7.922  0.6746E+01  0.2052E+01
     -7.860  0.5803E+01  0.2411E+01
     -7.798  0.1527E+01  0.2505E+01
     -7.736  0.1939E+01  0.2625E+01
     -7.674  0.5487E+01  0.2964E+01
     -7.613  0.6114E+01  0.3342E+01
     -7.551  0.2722E+01  0.3511E+01
     -7.489  0.1039E+01  0.3575E+01
     -7.427  0.3175E+01  0.3771E+01
     -7.365  0.5630E+01  0.4119E+01
     -7.303  0.7450E+01  0.4580E+01
     -7.242  0.9002E+01  0.5137E+01
     -7.180  0.9381E+01  0.5716E+01
     -7.118  0.6820E+01  0.6138E+01
     -7.056  0.5172E+01  0.6458E+01
     -6.994  0.4961E+01  0.6765E+01
     -6.932  0.3969E+01  0.7010E+01
     -6.871  0.4352E+01  0.7279E+01
     -6.809  0.7185E+01  0.7723E+01
     -6.747  0.8306E+01  0.8237E+01
     -6.685  0.6132E+01  0.8616E+01
     -6.623  0.7827E+01  0.9100E+01
     -6.562  0.1414E+02  0.9974E+01
     -6.500  0.1395E+02  0.1084E+02
     -6.438  0.1083E+02  0.1151E+02
     -6.376  0.1098E+02  0.1218E+02
     -6.314  0.9089E+01  0.1275E+02
     -6.252  0.1068E+02  0.1341E+02
     -6.191  0.2032E+02  0.1466E+02
     -6.129  0.3301E+02  0.1670E+02
     -6.067  0.3657E+02  0.1897E+02
     -6.005  0.3083E+02  0.2087E+02
     -5.943  0.2919E+02  0.2268E+02
     -5.881  0.3276E+02  0.2470E+02
     -5.820  0.3638E+02  0.2695E+02
     -5.758  0.2963E+02  0.2878E+02
     -5.696  0.2601E+02  0.3039E+02
     -5.634  0.3373E+02  0.3248E+02
     -5.572  0.4056E+02  0.3498E+02
     -5.511  0.4336E+02  0.3766E+02
     -5.449  0.5279E+02  0.4093E+02
     -5.387  0.6312E+02  0.4483E+02
     -5.325  0.6370E+02  0.4877E+02
     -5.263  0.5538E+02  0.5219E+02
     -5.201  0.4465E+02  0.5495E+02
     -5.140  0.4067E+02  0.5747E+02
     -5.078  0.5115E+02  0.6063E+02
     -5.016  0.7056E+02  0.6499E+02
     -4.954  0.5949E+02  0.6867E+02
     -4.892  0.2992E+02  0.7052E+02
     -4.830  0.2562E+02  0.7210E+02
     -4.769  0.4142E+02  0.7466E+02
     -4.707  0.3773E+02  0.7700E+02
     -4.645  0.2164E+02  0.7833E+02
     -4.583  0.2703E+02  0.8001E+02
     -4.521  0.4560E+02  0.8282E+02
     -4.460  0.5965E+02  0.8651E+02
     -4.398  0.6204E+02  0.9035E+02
     -4.336  0.5233E+02  0.9358E+02
     -4.274  0.4487E+02  0.9636E+02
     -4.212  0.4354E+02  0.9905E+02
     -4.150  0.4826E+02  0.1020E+03
     -4.089  0.5893E+02  0.1057E+03
     -4.027  0.5741E+02  0.1092E+03
     -3.965  0.4608E+02  0.1121E+03
     -3.903  0.4114E+02  0.1146E+03
     -3.841  0.3935E+02  0.1170E+03
     -3.780  0.3662E+02  0.1193E+03
     -3.718  0.4420E+02  0.1220E+03
     -3.656  0.6110E+02  0.1258E+03
     -3.594  0.6328E+02  0.1297E+03
     -3.532  0.5665E+02  0.1332E+03
     -3.470  0.5772E+02  0.1368E+03
     -3.409  0.6914E+02  0.1411E+03
     -3.347  0.7668E+02  0.1458E+03
     -3.285  0.7218E+02  0.1503E+03
     -3.223  0.6679E+02  0.1544E+03
     -3.161  0.7576E+02  0.1591E+03
     -3.099  0.8864E+02  0.1646E+03
     -3.038  0.8132E+02  0.1696E+03
     -2.976  0.7521E+02  0.1743E+03
     -2.914  0.7787E+02  0.1791E+03
     -2.852  0.7658E+02  0.1838E+03
     -2.790  0.8719E+02  0.1892E+03
     -2.729  0.1030E+03  0.1956E+03
     -2.667  0.1019E+03  0.2019E+03
     -2.605  0.7881E+02  0.2067E+03
     -2.543  0.6171E+02  0.2105E+03
     -2.481  0.6370E+02  0.2145E+03
     -2.419  0.5787E+02  0.2181E+03
     -2.358  0.4160E+02  0.2206E+03
     -2.296  0.2847E+02  0.2224E+03
     -2.234  0.2525E+02  0.2240E+03
     -2.172  0.3282E+02  0.2260E+03
     -2.110  0.4759E+02  0.2289E+03
     -2.048  0.6949E+02  0.2332E+03
     -1.987  0.9005E+02  0.2388E+03
     -1.925  0.9065E+02  0.2444E+03
     -1.863  0.7607E+02  0.2491E+03
     -1.801  0.5630E+02  0.2526E+03
     -1.739  0.4330E+02  0.2553E+03
     -1.678  0.4340E+02  0.2579E+03
     -1.616  0.4923E+02  0.2610E+03
     -1.554  0.5741E+02  0.2645E+03
     -1.492  0.5796E+02  0.2681E+03
     -1.430  0.5527E+02  0.2715E+03
     -1.368  0.6005E+02  0.2752E+03
     -1.307  0.5818E+02  0.2788E+03
     -1.245  0.5083E+02  0.2820E+03
     -1.183  0.5901E+02  0.2856E+03
     -1.121  0.7719E+02  0.2904E+03
     -1.059  0.8593E+02  0.2957E+03
     -0.997  0.8299E+02  0.3008E+03
     -0.936  0.6582E+02  0.3049E+03
     -0.874  0.5646E+02  0.3084E+03
     -0.812  0.5747E+02  0.3120E+03
     -0.750  0.4874E+02  0.3150E+03
     -0.688  0.4267E+02  0.3176E+03
     -0.627  0.5514E+02  0.3210E+03
     -0.565  0.6288E+02  0.3249E+03
     -0.503  0.5883E+02  0.3285E+03
     -0.441  0.6109E+02  0.3323E+03
     -0.379  0.7336E+02  0.3369E+03
     -0.317  0.9111E+02  0.3425E+03
     -0.256  0.9095E+02  0.3481E+03
     -0.194  0.6496E+02  0.3521E+03
     -0.132  0.6085E+02  0.3559E+03
     -0.070  0.9241E+02  0.3616E+03
     -0.008  0.8864E+02  0.3671E+03
      0.054  0.4570E+02  0.3699E+03
      0.115  0.3516E+02  0.3721E+03
      0.177  0.5543E+02  0.3755E+03
      0.239  0.5350E+02  0.3788E+03
      0.301  0.4232E+02  0.3814E+03
      0.363  0.3607E+02  0.3837E+03
      0.424  0.2288E+02  0.3851E+03
      0.486  0.1024E+02  0.3857E+03
      0.548  0.3651E+01  0.3859E+03
      0.610  0.2634E+01  0.3861E+03
      0.672  0.5900E+01  0.3865E+03
      0.734  0.1321E+02  0.3873E+03
      0.795  0.1604E+02  0.3883E+03
      0.857  0.9958E+01  0.3889E+03
      0.919  0.7833E+01  0.3894E+03
      0.981  0.1134E+02  0.3901E+03
      1.043  0.7883E+01  0.3906E+03
      1.104  0.1943E+01  0.3907E+03
      1.166  0.5249E+01  0.3910E+03
      1.228  0.1263E+02  0.3918E+03
      1.290  0.1345E+02  0.3926E+03
      1.352  0.1126E+02  0.3933E+03
      1.414  0.1029E+02  0.3939E+03
      1.475  0.1755E+02  0.3950E+03
      1.537  0.2782E+02  0.3968E+03
      1.599  0.2397E+02  0.3982E+03
      1.661  0.1726E+02  0.3993E+03
      1.723  0.1504E+02  0.4002E+03
      1.785  0.7836E+01  0.4007E+03
      1.846  0.1161E+01  0.4008E+03
      1.908  0.2398E+01  0.4009E+03
      1.970  0.6026E+01  0.4013E+03
      2.032  0.7173E+01  0.4017E+03
      2.094  0.4907E+01  0.4021E+03
      2.155  0.4722E+01  0.4023E+03
      2.217  0.9758E+01  0.4029E+03
      2.279  0.1163E+02  0.4037E+03
      2.341  0.1146E+02  0.4044E+03
      2.403  0.1656E+02  0.4054E+03
      2.465  0.2256E+02  0.4068E+03
      2.526  0.1819E+02  0.4079E+03
      2.588  0.8829E+01  0.4085E+03
      2.650  0.6341E+01  0.4089E+03
      2.712  0.7831E+01  0.4093E+03
      2.774  0.1431E+02  0.4102E+03
      2.836  0.1956E+02  0.4114E+03
      2.897  0.1606E+02  0.4124E+03
      2.959  0.1048E+02  0.4131E+03
      3.021  0.8480E+01  0.4136E+03
      3.083  0.1265E+02  0.4144E+03
      3.145  0.1378E+02  0.4152E+03
      3.206  0.1103E+02  0.4159E+03
      3.268  0.9741E+01  0.4165E+03
      3.330  0.6644E+01  0.4169E+03
      3.392  0.1792E+01  0.4170E+03
      3.454  0.1909E+01  0.4172E+03
      3.516  0.7540E+01  0.4176E+03
      3.577  0.1400E+02  0.4185E+03
      3.639  0.2060E+02  0.4198E+03
      3.701  0.2380E+02  0.4212E+03
      3.763  0.1863E+02  0.4224E+03
      3.825  0.9518E+01  0.4230E+03
      3.887  0.4020E+01  0.4232E+03
      3.948  0.3269E+01  0.4234E+03
      4.010  0.4499E+01  0.4237E+03
      4.072  0.6660E+01  0.4241E+03
      4.134  0.8106E+01  0.4246E+03
      4.196  0.7327E+01  0.4251E+03
      4.257  0.5334E+01  0.4254E+03
      4.319  0.6341E+01  0.4258E+03
      4.381  0.1748E+02  0.4269E+03
      4.443  0.2580E+02  0.4285E+03
      4.505  0.1642E+02  0.4295E+03
      4.567  0.7141E+01  0.4299E+03
      4.628  0.8720E+01  0.4305E+03
      4.690  0.1292E+02  0.4313E+03
      4.752  0.1469E+02  0.4322E+03
      4.814  0.1145E+02  0.4329E+03
      4.876  0.7041E+01  0.4333E+03
      4.938  0.6608E+01  0.4337E+03
      4.999  0.9751E+01  0.4343E+03
      5.061  0.8491E+01  0.4348E+03
      5.123  0.6201E+01  0.4352E+03
      5.185  0.9618E+01  0.4358E+03
      5.247  0.1353E+02  0.4367E+03
      5.308  0.1308E+02  0.4375E+03
      5.370  0.8283E+01  0.4380E+03
      5.432  0.9092E+01  0.4385E+03
      5.494  0.1803E+02  0.4397E+03
      5.556  0.2405E+02  0.4411E+03
      5.618  0.2531E+02  0.4427E+03
      5.679  0.2550E+02  0.4443E+03
      5.741  0.2347E+02  0.4457E+03
      5.803  0.1947E+02  0.4469E+03
      5.865  0.1722E+02  0.4480E+03
      5.927  0.1843E+02  0.4491E+03
      5.988  0.2552E+02  0.4507E+03
      6.050  0.3051E+02  0.4526E+03
      6.112  0.2104E+02  0.4539E+03
      6.174  0.1105E+02  0.4546E+03
      6.236  0.1612E+02  0.4556E+03
      6.298  0.2826E+02  0.4573E+03
      6.359  0.3250E+02  0.4593E+03
      6.421  0.2116E+02  0.4607E+03
      6.483  0.1090E+02  0.4613E+03
      6.545  0.1827E+02  0.4625E+03
      6.607  0.2955E+02  0.4643E+03
      6.669  0.2932E+02  0.4661E+03
      6.730  0.2565E+02  0.4677E+03
      6.792  0.2148E+02  0.4690E+03
      6.854  0.1377E+02  0.4699E+03
      6.916  0.1264E+02  0.4706E+03
      6.978  0.1646E+02  0.4717E+03
      7.039  0.1547E+02  0.4726E+03
      7.101  0.1725E+02  0.4737E+03
      7.163  0.2319E+02  0.4751E+03
      7.225  0.2480E+02  0.4767E+03
      7.287  0.1864E+02  0.4778E+03
      7.349  0.9089E+01  0.4784E+03
      7.410  0.3251E+01  0.4786E+03
      7.472  0.3746E+01  0.4788E+03
      7.534  0.6013E+01  0.4792E+03
      7.596  0.7082E+01  0.4796E+03
      7.658  0.5246E+01  0.4799E+03
      7.720  0.1432E+01  0.4800E+03
      7.781 -0.2017E+00  0.4800E+03
      7.843 -0.1530E+00  0.4800E+03
      7.905 -0.2415E-01  0.4800E+03
      7.967 -0.1596E-02  0.4800E+03
      8.029 -0.4881E-04  0.4800E+03
      8.090 -0.7027E-06  0.4800E+03
      8.152 -0.4746E-08  0.4800E+03
      8.214 -0.1495E-10  0.4800E+03
      8.276 -0.2212E-13  0.4800E+03
      8.338  0.0000E+00  0.4800E+03
      8.400  0.0000E+00  0.4800E+03
      8.461  0.0000E+00  0.4800E+03
      8.523  0.0000E+00  0.4800E+03
      8.585  0.0000E+00  0.4800E+03
      8.647  0.0000E+00  0.4800E+03
