   37   37    1    1
  0.4190497E+02  0.8468310E-09  0.8468310E-09  0.2496566E-08  0.5000000E-15
  1.000000000000000E-004
  CAR 
 unknown system                          
    361     13    240
 
  0.1276756E-14  0.1276756E-14  0.1276756E-14  0.4000000E-01
      1         -8.899957   1.000000
      2         -7.758369   1.000000
      3         -7.016589   1.000000
      4         -6.502897   1.000000
      5         -6.481560   1.000000
      6         -6.455967   1.000000
      7         -6.451732   1.000000
      8         -6.444554   1.000000
      9         -6.443237   1.000000
     10         -6.425444   1.000000
     11         -6.154343   1.000000
     12         -5.922038   1.000000
     13         -5.918921   1.000000
     14         -5.906962   1.000000
     15         -5.899343   1.000000
     16         -5.895922   1.000000
     17         -5.832964   1.000000
     18         -5.463406   1.000000
     19         -5.462244   1.000000
     20         -5.458244   1.000000
     21         -5.449554   1.000000
     22         -5.449463   1.000000
     23         -5.334091   1.000000
     24         -5.233238   1.000000
     25         -5.229050   1.000000
     26         -5.226481   1.000000
     27         -5.219664   1.000000
     28         -5.218467   1.000000
     29         -5.123478   1.000000
     30         -5.030811   1.000000
     31         -5.027302   1.000000
     32         -5.024169   1.000000
     33         -5.019226   1.000000
     34         -5.018034   1.000000
     35         -4.978320   1.000000
     36         -4.962297   1.000000
     37         -4.956845   1.000000
     38         -4.950748   1.000000
     39         -4.919556   1.000000
     40         -4.910187   1.000000
     41         -4.569669   1.000000
     42         -4.381496   1.000000
     43         -4.381293   1.000000
     44         -4.360032   1.000000
     45         -4.343574   1.000000
     46         -4.327933   1.000000
     47         -4.314260   1.000000
     48         -4.304633   1.000000
     49         -4.292251   1.000000
     50         -4.288889   1.000000
     51         -4.167673   1.000000
     52         -4.137078   1.000000
     53         -4.134689   1.000000
     54         -4.043792   1.000000
     55         -4.032290   1.000000
     56         -3.593173   1.000000
     57         -3.578994   1.000000
     58         -3.571136   1.000000
     59         -3.567950   1.000000
     60         -3.550315   1.000000
     61         -3.498899   1.000000
     62         -3.492887   1.000000
     63         -3.392246   1.000000
     64         -3.381486   1.000000
     65         -3.375200   1.000000
     66         -3.373019   1.000000
     67         -3.367322   1.000000
     68         -3.362485   1.000000
     69         -3.352795   1.000000
     70         -3.320836   1.000000
     71         -3.310715   1.000000
     72         -3.304387   1.000000
     73         -3.301065   1.000000
     74         -3.292255   1.000000
     75         -3.273740   1.000000
     76         -3.263626   1.000000
     77         -3.256163   1.000000
     78         -3.168067   1.000000
     79         -3.157699   1.000000
     80         -3.144527   1.000000
     81         -3.138829   1.000000
     82         -3.127235   1.000000
     83         -3.115428   1.000000
     84         -2.960684   1.000000
     85         -2.930224   1.000000
     86         -2.923724   1.000000
     87         -2.916054   1.000000
     88         -2.904258   1.000000
     89         -2.901770   1.000000
     90         -2.883925   1.000000
     91         -2.883035   1.000000
     92         -2.842248   1.000000
     93         -2.824164   1.000000
     94         -2.812163   1.000000
     95         -2.787223   1.000000
     96         -2.742914   1.000000
     97         -2.740517   1.000000
     98         -2.695807   1.000000
     99         -2.693947   1.000000
    100         -2.684183   1.000000
    101         -2.613227   1.000000
    102         -2.538437   1.000000
    103         -2.520420   1.000000
    104         -2.517971   1.000000
    105         -2.508625   1.000000
    106         -2.507705   1.000000
    107         -2.483289   1.000000
    108         -2.265176   1.000000
    109         -2.034766   1.000000
    110         -2.006864   1.000000
    111         -2.004173   1.000000
    112         -1.997133   1.000000
    113         -1.993610   1.000000
    114         -1.982209   1.000000
    115         -1.978069   1.000000
    116         -1.965893   1.000000
    117         -1.961514   1.000000
    118         -1.955338   1.000000
    119         -1.938288   1.000000
    120         -1.875500   1.000000
    121         -1.861513   1.000000
    122         -1.819704   1.000000
    123         -1.741685   1.000000
    124         -1.725489   1.000000
    125         -1.719033   1.000000
    126         -1.718379   1.000000
    127         -1.702208   1.000000
    128         -1.617122   1.000000
    129         -1.588985   1.000000
    130         -1.541314   1.000000
    131         -1.536897   1.000000
    132         -1.535581   1.000000
    133         -1.479058   1.000000
    134         -1.303673   1.000000
    135         -1.286984   1.000000
    136         -1.276122   1.000000
    137         -1.260324   1.000000
    138         -1.253412   1.000000
    139         -1.249521   1.000000
    140         -1.195900   1.000000
    141         -1.176003   1.000000
    142         -1.074006   1.000000
    143         -1.047204   1.000000
    144         -1.034519   1.000000
    145         -1.025229   1.000000
    146         -1.023033   1.000000
    147         -1.019869   1.000000
    148         -0.899775   1.000000
    149         -0.883775   1.000000
    150         -0.857611   1.000000
    151         -0.845851   1.000000
    152         -0.834633   1.000000
    153         -0.832254   1.000000
    154         -0.827520   1.000000
    155         -0.818185   1.000000
    156         -0.812588   1.000000
    157         -0.807073   1.000000
    158         -0.799252   1.000000
    159         -0.793336   1.000000
    160         -0.739606   1.000000
    161         -0.706097   1.000000
    162         -0.696974   1.000000
    163         -0.694936   1.000000
    164         -0.671213   1.000000
    165         -0.664493   1.000000
    166         -0.644115   1.000000
    167         -0.643431   1.000000
    168         -0.605637   1.000000
    169         -0.596223   1.000000
    170         -0.578012   1.000000
    171         -0.571809   1.000000
    172         -0.558472   1.000000
    173         -0.543702   1.000000
    174         -0.540045   1.000000
    175         -0.538764   1.000000
    176         -0.462458   1.000000
    177         -0.453852   1.000001
    178         -0.445970   1.000001
    179         -0.440362   1.000002
    180         -0.428939   1.000004
    181         -0.428747   1.000004
    182         -0.392100   1.000037
    183         -0.352315   1.000331
    184         -0.341754   1.000558
    185         -0.322354   1.001364
    186         -0.320852   1.001456
    187         -0.308586   1.002438
    188         -0.304926   1.002823
    189         -0.123384   0.855092
    190         -0.102641   0.716440
    191         -0.019552   0.096311
    192         -0.016394   0.081526
    193         -0.007541   0.045434
    194          0.002027   0.015031
    195          0.010313  -0.004587
    196          0.012159  -0.008176
    197          0.511574  -0.000000
    198          0.821641  -0.000000
    199          0.835042  -0.000000
    200          0.874302  -0.000000
    201          0.894257  -0.000000
    202          0.899491  -0.000000
    203          0.906578  -0.000000
    204          2.779245   0.000000
    205          3.123590   0.000000
    206          3.167597   0.000000
    207          3.191706   0.000000
    208          3.220723   0.000000
    209          3.227619   0.000000
    210          4.530736   0.000000
    211          4.719939   0.000000
    212          4.789223   0.000000
    213          4.810804   0.000000
    214          4.813628   0.000000
    215          4.826175   0.000000
    216          4.903605   0.000000
    217          5.091997   0.000000
    218          5.164016   0.000000
    219          5.435162   0.000000
    220          5.541477   0.000000
    221          5.787923   0.000000
    222          5.822097   0.000000
    223          5.840743   0.000000
    224          5.853819   0.000000
    225          5.873024   0.000000
    226          6.169446   0.000000
    227          6.373565   0.000000
    228          6.609044   0.000000
    229          6.621335   0.000000
    230          6.621650   0.000000
    231          6.840288   0.000000
    232          6.998475   0.000000
    233          7.119913   0.000000
    234          7.148012   0.000000
    235          7.154018   0.000000
    236          7.158209   0.000000
    237          7.164885   0.000000
    238          7.216681   0.000000
    239          7.252952   0.000000
    240          7.646866   0.000000
 
  0.2000000E+00  0.1278043E-14  0.1276756E-14  0.8000000E-01
      1         -8.751543   1.000000
      2         -7.626596   1.000000
      3         -6.995984   1.000000
      4         -6.903432   1.000000
      5         -6.560801   1.000000
      6         -6.551364   1.000000
      7         -6.360681   1.000000
      8         -6.262892   1.000000
      9         -6.234045   1.000000
     10         -6.212031   1.000000
     11         -6.113191   1.000000
     12         -6.009053   1.000000
     13         -5.985135   1.000000
     14         -5.849906   1.000000
     15         -5.833327   1.000000
     16         -5.827212   1.000000
     17         -5.737211   1.000000
     18         -5.540174   1.000000
     19         -5.426954   1.000000
     20         -5.419888   1.000000
     21         -5.406263   1.000000
     22         -5.391158   1.000000
     23         -5.333482   1.000000
     24         -5.305198   1.000000
     25         -5.276116   1.000000
     26         -5.227710   1.000000
     27         -5.221779   1.000000
     28         -5.206824   1.000000
     29         -5.169787   1.000000
     30         -5.122050   1.000000
     31         -5.112794   1.000000
     32         -5.035108   1.000000
     33         -5.017170   1.000000
     34         -5.012590   1.000000
     35         -5.008927   1.000000
     36         -4.876768   1.000000
     37         -4.811198   1.000000
     38         -4.787381   1.000000
     39         -4.766627   1.000000
     40         -4.752819   1.000000
     41         -4.591454   1.000000
     42         -4.502993   1.000000
     43         -4.495893   1.000000
     44         -4.452508   1.000000
     45         -4.418918   1.000000
     46         -4.397987   1.000000
     47         -4.390631   1.000000
     48         -4.310134   1.000000
     49         -4.213687   1.000000
     50         -4.167469   1.000000
     51         -4.131373   1.000000
     52         -4.107901   1.000000
     53         -4.081118   1.000000
     54         -4.054462   1.000000
     55         -4.038734   1.000000
     56         -3.837974   1.000000
     57         -3.740639   1.000000
     58         -3.733782   1.000000
     59         -3.689210   1.000000
     60         -3.663767   1.000000
     61         -3.626305   1.000000
     62         -3.591769   1.000000
     63         -3.560247   1.000000
     64         -3.555140   1.000000
     65         -3.535200   1.000000
     66         -3.523845   1.000000
     67         -3.473507   1.000000
     68         -3.450679   1.000000
     69         -3.413918   1.000000
     70         -3.378827   1.000000
     71         -3.363051   1.000000
     72         -3.346089   1.000000
     73         -3.268264   1.000000
     74         -3.259186   1.000000
     75         -3.239008   1.000000
     76         -3.186163   1.000000
     77         -3.180007   1.000000
     78         -3.157950   1.000000
     79         -3.131944   1.000000
     80         -3.109101   1.000000
     81         -3.098896   1.000000
     82         -3.065383   1.000000
     83         -3.024743   1.000000
     84         -2.997902   1.000000
     85         -2.967000   1.000000
     86         -2.954104   1.000000
     87         -2.945938   1.000000
     88         -2.935455   1.000000
     89         -2.915090   1.000000
     90         -2.896875   1.000000
     91         -2.871762   1.000000
     92         -2.817684   1.000000
     93         -2.811915   1.000000
     94         -2.781688   1.000000
     95         -2.774857   1.000000
     96         -2.759224   1.000000
     97         -2.738931   1.000000
     98         -2.721521   1.000000
     99         -2.690812   1.000000
    100         -2.685353   1.000000
    101         -2.611885   1.000000
    102         -2.569364   1.000000
    103         -2.541737   1.000000
    104         -2.529165   1.000000
    105         -2.510432   1.000000
    106         -2.502603   1.000000
    107         -2.494876   1.000000
    108         -2.482094   1.000000
    109         -2.446891   1.000000
    110         -2.438362   1.000000
    111         -2.426763   1.000000
    112         -2.412970   1.000000
    113         -2.204824   1.000000
    114         -2.080332   1.000000
    115         -2.042507   1.000000
    116         -2.008858   1.000000
    117         -2.001088   1.000000
    118         -1.994118   1.000000
    119         -1.983218   1.000000
    120         -1.956105   1.000000
    121         -1.942604   1.000000
    122         -1.857421   1.000000
    123         -1.802035   1.000000
    124         -1.780536   1.000000
    125         -1.712639   1.000000
    126         -1.661421   1.000000
    127         -1.646985   1.000000
    128         -1.622589   1.000000
    129         -1.594042   1.000000
    130         -1.563453   1.000000
    131         -1.549926   1.000000
    132         -1.532146   1.000000
    133         -1.520169   1.000000
    134         -1.448558   1.000000
    135         -1.416822   1.000000
    136         -1.402524   1.000000
    137         -1.387097   1.000000
    138         -1.376249   1.000000
    139         -1.296907   1.000000
    140         -1.196686   1.000000
    141         -1.184464   1.000000
    142         -1.159512   1.000000
    143         -1.154361   1.000000
    144         -1.140153   1.000000
    145         -1.122828   1.000000
    146         -1.071001   1.000000
    147         -1.036484   1.000000
    148         -1.004968   1.000000
    149         -0.992869   1.000000
    150         -0.983976   1.000000
    151         -0.942368   1.000000
    152         -0.923910   1.000000
    153         -0.905009   1.000000
    154         -0.891732   1.000000
    155         -0.822123   1.000000
    156         -0.796042   1.000000
    157         -0.780988   1.000000
    158         -0.761440   1.000000
    159         -0.727450   1.000000
    160         -0.660122   1.000000
    161         -0.641646   1.000000
    162         -0.630656   1.000000
    163         -0.603047   1.000000
    164         -0.590984   1.000000
    165         -0.563172   1.000000
    166         -0.549167   1.000000
    167         -0.485520   1.000000
    168         -0.473359   1.000000
    169         -0.422278   1.000006
    170         -0.405187   1.000017
    171         -0.403031   1.000019
    172         -0.382791   1.000064
    173         -0.366008   1.000162
    174         -0.353487   1.000312
    175         -0.343798   1.000505
    176         -0.339721   1.000615
    177         -0.331539   1.000903
    178         -0.271549   1.009221
    179         -0.267058   1.010574
    180         -0.134723   0.913962
    181         -0.117972   0.822552
    182         -0.104910   0.733309
    183         -0.093727   0.647017
    184         -0.078197   0.518152
    185         -0.069840   0.447544
    186         -0.038127   0.203207
    187         -0.029325   0.148404
    188         -0.008941   0.050619
    189          0.002292   0.014312
    190          0.069643  -0.029521
    191          0.107595  -0.013069
    192          0.130579  -0.006415
    193          0.189599  -0.000559
    194          0.290017  -0.000001
    195          0.298614  -0.000001
    196          0.312869  -0.000000
    197          0.355867  -0.000000
    198          0.682104  -0.000000
    199          0.747948  -0.000000
    200          1.240007  -0.000000
    201          1.466955  -0.000000
    202          1.484626  -0.000000
    203          1.599954  -0.000000
    204          2.392774  -0.000000
    205          2.775213   0.000000
    206          2.905498   0.000000
    207          3.535562   0.000000
    208          3.644024   0.000000
    209          3.659239   0.000000
    210          3.745045   0.000000
    211          3.988498   0.000000
    212          4.407473   0.000000
    213          4.604206   0.000000
    214          4.747564   0.000000
    215          4.932823   0.000000
    216          4.995142   0.000000
    217          5.001199   0.000000
    218          5.194573   0.000000
    219          5.257821   0.000000
    220          5.466977   0.000000
    221          5.660637   0.000000
    222          5.683987   0.000000
    223          5.789821   0.000000
    224          5.907603   0.000000
    225          6.123620   0.000000
    226          6.209339   0.000000
    227          6.283095   0.000000
    228          6.322740   0.000000
    229          6.350773   0.000000
    230          6.564870   0.000000
    231          6.707352   0.000000
    232          6.748272   0.000000
    233          6.789339   0.000000
    234          6.882769   0.000000
    235          6.938934   0.000000
    236          7.066204   0.000000
    237          7.288749   0.000000
    238          7.461273   0.000000
    239          7.527140   0.000000
    240          7.595718   0.000000
 
  0.2000000E+00  0.2000000E+00  0.1276756E-14  0.8000000E-01
      1         -8.752827   1.000000
      2         -7.638145   1.000000
      3         -7.054497   1.000000
      4         -6.848125   1.000000
      5         -6.562056   1.000000
      6         -6.554261   1.000000
      7         -6.361810   1.000000
      8         -6.278915   1.000000
      9         -6.213172   1.000000
     10         -6.210726   1.000000
     11         -6.159649   1.000000
     12         -6.002971   1.000000
     13         -5.892614   1.000000
     14         -5.854699   1.000000
     15         -5.832131   1.000000
     16         -5.830168   1.000000
     17         -5.804762   1.000000
     18         -5.531528   1.000000
     19         -5.420787   1.000000
     20         -5.415072   1.000000
     21         -5.412014   1.000000
     22         -5.345943   1.000000
     23         -5.332435   1.000000
     24         -5.292361   1.000000
     25         -5.274276   1.000000
     26         -5.270986   1.000000
     27         -5.227495   1.000000
     28         -5.217741   1.000000
     29         -5.121583   1.000000
     30         -5.110858   1.000000
     31         -5.103743   1.000000
     32         -5.028990   1.000000
     33         -5.018522   1.000000
     34         -5.010333   1.000000
     35         -5.004863   1.000000
     36         -4.839664   1.000000
     37         -4.810164   1.000000
     38         -4.783654   1.000000
     39         -4.774659   1.000000
     40         -4.766501   1.000000
     41         -4.565435   1.000000
     42         -4.495809   1.000000
     43         -4.489894   1.000000
     44         -4.460767   1.000000
     45         -4.422206   1.000000
     46         -4.416841   1.000000
     47         -4.392172   1.000000
     48         -4.332573   1.000000
     49         -4.212552   1.000000
     50         -4.176746   1.000000
     51         -4.128027   1.000000
     52         -4.119779   1.000000
     53         -4.071330   1.000000
     54         -4.048168   1.000000
     55         -4.026568   1.000000
     56         -3.824377   1.000000
     57         -3.737239   1.000000
     58         -3.734980   1.000000
     59         -3.671994   1.000000
     60         -3.657243   1.000000
     61         -3.625872   1.000000
     62         -3.586885   1.000000
     63         -3.580302   1.000000
     64         -3.554097   1.000000
     65         -3.534627   1.000000
     66         -3.526677   1.000000
     67         -3.503836   1.000000
     68         -3.444706   1.000000
     69         -3.392523   1.000000
     70         -3.370510   1.000000
     71         -3.363094   1.000000
     72         -3.355090   1.000000
     73         -3.300530   1.000000
     74         -3.278429   1.000000
     75         -3.269190   1.000000
     76         -3.185932   1.000000
     77         -3.164468   1.000000
     78         -3.157910   1.000000
     79         -3.134661   1.000000
     80         -3.083440   1.000000
     81         -3.066241   1.000000
     82         -3.065856   1.000000
     83         -3.052635   1.000000
     84         -2.981150   1.000000
     85         -2.964971   1.000000
     86         -2.964495   1.000000
     87         -2.934734   1.000000
     88         -2.929410   1.000000
     89         -2.906072   1.000000
     90         -2.902227   1.000000
     91         -2.867814   1.000000
     92         -2.831776   1.000000
     93         -2.805210   1.000000
     94         -2.784809   1.000000
     95         -2.777507   1.000000
     96         -2.760407   1.000000
     97         -2.749582   1.000000
     98         -2.724792   1.000000
     99         -2.710010   1.000000
    100         -2.693849   1.000000
    101         -2.611724   1.000000
    102         -2.561369   1.000000
    103         -2.550253   1.000000
    104         -2.547587   1.000000
    105         -2.522629   1.000000
    106         -2.510545   1.000000
    107         -2.502326   1.000000
    108         -2.492906   1.000000
    109         -2.450329   1.000000
    110         -2.437805   1.000000
    111         -2.431783   1.000000
    112         -2.419419   1.000000
    113         -2.162535   1.000000
    114         -2.077439   1.000000
    115         -2.048410   1.000000
    116         -2.034745   1.000000
    117         -2.007702   1.000000
    118         -1.992114   1.000000
    119         -1.981198   1.000000
    120         -1.951351   1.000000
    121         -1.934818   1.000000
    122         -1.910541   1.000000
    123         -1.822830   1.000000
    124         -1.791171   1.000000
    125         -1.716333   1.000000
    126         -1.664088   1.000000
    127         -1.653898   1.000000
    128         -1.613893   1.000000
    129         -1.612519   1.000000
    130         -1.565974   1.000000
    131         -1.557347   1.000000
    132         -1.537139   1.000000
    133         -1.532753   1.000000
    134         -1.439586   1.000000
    135         -1.404404   1.000000
    136         -1.397745   1.000000
    137         -1.380034   1.000000
    138         -1.374561   1.000000
    139         -1.210784   1.000000
    140         -1.203984   1.000000
    141         -1.191613   1.000000
    142         -1.175215   1.000000
    143         -1.158350   1.000000
    144         -1.142003   1.000000
    145         -1.115285   1.000000
    146         -1.056358   1.000000
    147         -1.048322   1.000000
    148         -1.025382   1.000000
    149         -0.993573   1.000000
    150         -0.980549   1.000000
    151         -0.932868   1.000000
    152         -0.922648   1.000000
    153         -0.907445   1.000000
    154         -0.904773   1.000000
    155         -0.820020   1.000000
    156         -0.804569   1.000000
    157         -0.770993   1.000000
    158         -0.756676   1.000000
    159         -0.711464   1.000000
    160         -0.676802   1.000000
    161         -0.670071   1.000000
    162         -0.623929   1.000000
    163         -0.614466   1.000000
    164         -0.610078   1.000000
    165         -0.569278   1.000000
    166         -0.547798   1.000000
    167         -0.487009   1.000000
    168         -0.475222   1.000000
    169         -0.412821   1.000010
    170         -0.407411   1.000015
    171         -0.392456   1.000036
    172         -0.373137   1.000110
    173         -0.364406   1.000176
    174         -0.349773   1.000376
    175         -0.346695   1.000438
    176         -0.339824   1.000612
    177         -0.325724   1.001175
    178         -0.279533   1.007133
    179         -0.276653   1.007840
    180         -0.135203   0.916168
    181         -0.129192   0.886857
    182         -0.101464   0.707545
    183         -0.080497   0.537580
    184         -0.061848   0.381127
    185         -0.059206   0.359660
    186         -0.028908   0.145987
    187         -0.010422   0.056317
    188          0.005349   0.006454
    189          0.011901  -0.007691
    190          0.086252  -0.022004
    191          0.103816  -0.014482
    192          0.127507  -0.007114
    193          0.193060  -0.000473
    194          0.294825  -0.000001
    195          0.301125  -0.000001
    196          0.309701  -0.000000
    197          0.348775  -0.000000
    198          0.712220  -0.000000
    199          0.747137  -0.000000
    200          1.248371  -0.000000
    201          1.448816  -0.000000
    202          1.479674  -0.000000
    203          1.604731  -0.000000
    204          2.343052  -0.000000
    205          2.860904   0.000000
    206          2.908418   0.000000
    207          3.496214   0.000000
    208          3.649352   0.000000
    209          3.686486   0.000000
    210          3.733759   0.000000
    211          3.930377   0.000000
    212          4.387573   0.000000
    213          4.605807   0.000000
    214          4.720564   0.000000
    215          4.976261   0.000000
    216          4.999153   0.000000
    217          5.004280   0.000000
    218          5.229957   0.000000
    219          5.326418   0.000000
    220          5.452925   0.000000
    221          5.584954   0.000000
    222          5.699502   0.000000
    223          5.891073   0.000000
    224          5.891300   0.000000
    225          6.086062   0.000000
    226          6.259204   0.000000
    227          6.284954   0.000000
    228          6.339820   0.000000
    229          6.351770   0.000000
    230          6.620269   0.000000
    231          6.679012   0.000000
    232          6.735707   0.000000
    233          6.779518   0.000000
    234          6.794592   0.000000
    235          6.945216   0.000000
    236          7.048192   0.000000
    237          7.228688   0.000000
    238          7.456148   0.000000
    239          7.588592   0.000000
    240          7.603814   0.000000
 
  0.1276756E-14  0.2000000E+00  0.1276756E-14  0.8000000E-01
      1         -8.751536   1.000000
      2         -7.626593   1.000000
      3         -6.995885   1.000000
      4         -6.903259   1.000000
      5         -6.561130   1.000000
      6         -6.551387   1.000000
      7         -6.360664   1.000000
      8         -6.262427   1.000000
      9         -6.234065   1.000000
     10         -6.212497   1.000000
     11         -6.113354   1.000000
     12         -6.009015   1.000000
     13         -5.985188   1.000000
     14         -5.849668   1.000000
     15         -5.833178   1.000000
     16         -5.827049   1.000000
     17         -5.737249   1.000000
     18         -5.540374   1.000000
     19         -5.426843   1.000000
     20         -5.419820   1.000000
     21         -5.406115   1.000000
     22         -5.391188   1.000000
     23         -5.333583   1.000000
     24         -5.305266   1.000000
     25         -5.276292   1.000000
     26         -5.227464   1.000000
     27         -5.221715   1.000000
     28         -5.207038   1.000000
     29         -5.169770   1.000000
     30         -5.122235   1.000000
     31         -5.112867   1.000000
     32         -5.034586   1.000000
     33         -5.017230   1.000000
     34         -5.012571   1.000000
     35         -5.009009   1.000000
     36         -4.876699   1.000000
     37         -4.811237   1.000000
     38         -4.787047   1.000000
     39         -4.766925   1.000000
     40         -4.753238   1.000000
     41         -4.591555   1.000000
     42         -4.503108   1.000000
     43         -4.496130   1.000000
     44         -4.452523   1.000000
     45         -4.418811   1.000000
     46         -4.397928   1.000000
     47         -4.390462   1.000000
     48         -4.310061   1.000000
     49         -4.213828   1.000000
     50         -4.167604   1.000000
     51         -4.131114   1.000000
     52         -4.108064   1.000000
     53         -4.081143   1.000000
     54         -4.054365   1.000000
     55         -4.038699   1.000000
     56         -3.838547   1.000000
     57         -3.740424   1.000000
     58         -3.733756   1.000000
     59         -3.689803   1.000000
     60         -3.664156   1.000000
     61         -3.626390   1.000000
     62         -3.592432   1.000000
     63         -3.560006   1.000000
     64         -3.554646   1.000000
     65         -3.535024   1.000000
     66         -3.523482   1.000000
     67         -3.473415   1.000000
     68         -3.450548   1.000000
     69         -3.413959   1.000000
     70         -3.378669   1.000000
     71         -3.363035   1.000000
     72         -3.346289   1.000000
     73         -3.268183   1.000000
     74         -3.258002   1.000000
     75         -3.238056   1.000000
     76         -3.186575   1.000000
     77         -3.180234   1.000000
     78         -3.158001   1.000000