 vasp.6.4.2 20Jul23 (build Mar 01 2024 16:46:03) complex                        
  
 executed on             LinuxIFC date 2025.01.15  11:13:02
 running   48 mpi-ranks, on    1 nodes
 distrk:  each k-point on   48 cores,    1 groups
 distr:  one band on NCORE=   1 cores,   48 groups


--------------------------------------------------------------------------------------------------------


 INCAR:
   ENCUT = 680.290000
   SIGMA = 0.100000
   ZAB_VDW = -1.886700
   EDIFF = 1.00e-05
   ALGO = Fast
   GGA = BF
   IBRION = -1
   ISMEAR = 1
   ISPIN = 1
   ISYM = 0
   LUSE_VDW = .TRUE.
   LREAL = Auto

 POTCAR:    PAW_PBE Pt 04Feb2005                  
 POTCAR:    PAW_PBE H 15Jun2001                   
 -----------------------------------------------------------------------------
|                                                                             |
|           W    W    AA    RRRRR   N    N  II  N    N   GGGG   !!!           |
|           W    W   A  A   R    R  NN   N  II  NN   N  G    G  !!!           |
|           W    W  A    A  R    R  N N  N  II  N N  N  G       !!!           |
|           W WW W  AAAAAA  RRRRR   N  N N  II  N  N N  G  GGG   !            |
|           WW  WW  A    A  R   R   N   NN  II  N   NN  G    G                |
|           W    W  A    A  R    R  N    N  II  N    N   GGGG   !!!           |
|                                                                             |
|     For optimal performance we recommend to set                             |
|       NCORE = 2 up to number-of-cores-per-socket                            |
|     NCORE specifies how many cores store one orbital (NPAR=cpu/NCORE).      |
|     This setting can greatly improve the performance of VASP for DFT.       |
|     The default, NCORE=1 might be grossly inefficient on modern             |
|     multi-core architectures or massively parallel machines. Do your        |
|     own testing! More info at https://www.vasp.at/wiki/index.php/NCORE      |
|     Unfortunately you need to use the default for GW and RPA                |
|     calculations (for HF NCORE is supported but not extensively tested      |
|     yet).                                                                   |
|                                                                             |
 -----------------------------------------------------------------------------

 -----------------------------------------------------------------------------
|                                                                             |
|               ----> ADVICE to this user running VASP <----                  |
|                                                                             |
|     You have switched on vdW-DFT.                                           |
|     This routine was written and supplied by Jiri Klimes. We recommend      |
|     that you carefully read and cite the following publications:            |
|       J. Klimes, D.R. Bowler, A. Michelides                                 |
|          J. Phys.: Cond Matt. 22 022201 (2010)                              |
|       J. Klimes, D.R. Bowler, A. Michelides                                 |
|          Phys. Rev. B. 83, 195131 (2011)                                    |
|     and references therein.                                                 |
|                                                                             |
 -----------------------------------------------------------------------------

 POTCAR:    PAW_PBE Pt 04Feb2005                  
   SHA256 =  3ed90460adef76debcff1cfb73ee1349b515b1a3db03439735b44de3a8db7dc8 Pt/POTCAR             
   COPYR  = (c) Copyright 04Feb2005 Georg Kresse                                                    
   COPYR  = This file is part of the software VASP. Any use, copying, and all other rights are regul
   COPYR  = If you do not have a valid VASP license, you may not use, copy or distribute this file. 
   VRHFIN =Pt: s1d9                                                                                 
   LEXCH  = PE                                                                                      
   EATOM  =   729.1176 eV,   53.5886 Ry                                                             
                                                                                                    
   TITEL  = PAW_PBE Pt 04Feb2005                                                                    
   LULTRA =        F    use ultrasoft PP ?                                                          
   IUNSCR =        1    unscreen: 0-lin 1-nonlin 2-no                                               
   RPACOR =    2.330    partial core radius                                                         
   POMASS =  195.080; ZVAL   =   10.000    mass and valenz                                          
   RCORE  =    2.600    outmost cutoff radius                                                       
   RWIGS  =    2.750; RWIGS  =    1.455    wigner-seitz radius (au A)                               
   ENMAX  =  230.283; ENMIN  =  172.712 eV                                                          
   ICORE  =        3    local potential                                                             
   LCOR   =        T    correct aug charges                                                         
   LPAW   =        T    paw PP                                                                      
   EAUG   =  358.966                                                                                
   DEXC   =    0.000                                                                                
   RMAX   =    2.658    core radius for proj-oper                                                   
   RAUG   =    1.300    factor for augmentation sphere                                              
   RDEP   =    2.761    radius for radial grids                                                     
   RDEPT  =    2.203    core radius for aug-charge                                                  
                                                                                                    
   Atomic configuration                                                                             
   16 entries                                                                                       
     n  l   j            E        occ.                                                              
     1  0  0.50    -78401.1885   2.0000                                                             
     2  0  0.50    -13770.7750   2.0000                                                             
     2  1  1.50    -11931.0468   6.0000                                                             
     3  0  0.50     -3234.7234   2.0000                                                             
     3  1  1.50     -2699.2216   6.0000                                                             
     3  2  2.50     -2119.5714  10.0000                                                             
     4  0  0.50      -695.1528   2.0000                                                             
     4  1  1.50      -519.6034   6.0000                                                             
     4  2  2.50      -306.6786  10.0000                                                             
     4  3  3.50       -70.1041  14.0000                                                             
     5  0  0.50      -101.7747   2.0000                                                             
     5  1  1.50       -55.9873   6.0000                                                             
     5  2  2.50        -6.1423   9.0000                                                             
     6  0  0.50        -5.6573   1.0000                                                             
     6  1  1.50        -6.8029   0.0000                                                             
     5  3  2.50        -1.3606   0.0000                                                             
   Description                                                                                      
     l       E           TYP  RCUT    TYP  RCUT                                                     
     2     -6.1423404     23  2.500                                                                 
     2     -7.5029230     23  2.500                                                                 
     0     -5.6573207     23  2.500                                                                 
     0      0.7416693     23  2.500                                                                 
     1     -2.7211652     23  2.600                                                                 
     1     20.4087390     23  2.600                                                                 
     3     -1.3605826     23  2.500                                                                 
  local pseudopotential read in
  partial core-charges read in
  partial kinetic energy density read in
  atomic valenz-charges read in
  non local Contribution for L=           2  read in
    real space projection operators read in
  non local Contribution for L=           2  read in
    real space projection operators read in
  non local Contribution for L=           0  read in
    real space projection operators read in
  non local Contribution for L=           0  read in
    real space projection operators read in
  non local Contribution for L=           1  read in
    real space projection operators read in
  non local Contribution for L=           1  read in
    real space projection operators read in
    PAW grid and wavefunctions read in
 
   number of l-projection  operators is LMAX  =           6
   number of lm-projection operators is LMMAX =          18
 
 POTCAR:    PAW_PBE H 15Jun2001                   
   SHA256 =  030f79b5d3ab3cf0e668861823c8fb652ff669f3e15e46930bd03bfd63a607b6 H/POTCAR              
   COPYR  = (c) Copyright 15Jun2001 Georg Kresse                                                    
   COPYR  = This file is part of the software VASP. Any use, copying, and all other rights are regul
   COPYR  = If you do not have a valid VASP license, you may not use, copy or distribute this file. 
   VRHFIN =H: ultrasoft test                                                                        
   LEXCH  = PE                                                                                      
   EATOM  =    12.4884 eV,    0.9179 Ry                                                             
                                                                                                    
   TITEL  = PAW_PBE H 15Jun2001                                                                     
   LULTRA =        F    use ultrasoft PP ?                                                          
   IUNSCR =        0    unscreen: 0-lin 1-nonlin 2-no                                               
   RPACOR =    0.000    partial core radius                                                         
   POMASS =    1.000; ZVAL   =    1.000    mass and valenz                                          
   RCORE  =    1.100    outmost cutoff radius                                                       
   RWIGS  =    0.700; RWIGS  =    0.370    wigner-seitz radius (au A)                               
   ENMAX  =  250.000; ENMIN  =  200.000 eV                                                          
   RCLOC  =    0.701    cutoff for local pot                                                        
   LCOR   =        T    correct aug charges                                                         
   LPAW   =        T    paw PP                                                                      
   EAUG   =  400.000                                                                                
   RMAX   =    1.123    core radius for proj-oper                                                   
   RAUG   =    1.200    factor for augmentation sphere                                              
   RDEP   =    1.112    radius for radial grids                                                     
   RDEPT  =    0.926    core radius for aug-charge                                                  
                                                                                                    
   Atomic configuration                                                                             
    2 entries                                                                                       
     n  l   j            E        occ.                                                              
     1  0  0.50        -6.4927   1.0000                                                             
     2  1  0.50        -3.4015   0.0000                                                             
   Description                                                                                      
     l       E           TYP  RCUT    TYP  RCUT                                                     
     0     -6.4927494     23  1.100                                                                 
     0      6.8029130     23  1.100                                                                 
     1     -4.0817478     23  1.100                                                                 
  local pseudopotential read in
  atomic valenz-charges read in
  non local Contribution for L=           0  read in
    real space projection operators read in
  non local Contribution for L=           0  read in
    real space projection operators read in
  non local Contribution for L=           1  read in
    real space projection operators read in
    PAW grid and wavefunctions read in
 
   number of l-projection  operators is LMAX  =           3
   number of lm-projection operators is LMMAX =           5
 
 Optimization of the real space projectors (new method)

 maximal supplied QI-value         = 14.36
 optimisation between [QCUT,QGAM] = [ 13.36, 26.71] = [ 49.96,199.83] Ry 
 Optimized for a Real-space Cutoff    1.42 Angstroem

   l    n(q)    QCUT    max X(q) W(low)/X(q) W(high)/X(q)  e(spline) 
   2     11    13.357    66.195    0.16E-03    0.81E-04    0.36E-06
   2     11    13.357    64.643    0.16E-03    0.82E-04    0.36E-06
   0     11    13.357    95.520    0.60E-04    0.72E-05    0.55E-06
   0     11    13.357    63.403    0.58E-04    0.70E-05    0.53E-06
   1     11    13.357    19.961    0.21E-03    0.56E-03    0.21E-05
   1     11    13.357    13.289    0.17E-03    0.46E-03    0.17E-05
 Optimization of the real space projectors (new method)

 maximal supplied QI-value         = 34.20
 optimisation between [QCUT,QGAM] = [ 13.34, 26.68] = [ 49.83,199.32] Ry 
 Optimized for a Real-space Cutoff    0.91 Angstroem

   l    n(q)    QCUT    max X(q) W(low)/X(q) W(high)/X(q)  e(spline) 
   0      7    13.340    19.460    0.48E-03    0.16E-03    0.16E-06
   0      7    13.340    12.209    0.46E-03    0.14E-03    0.15E-06
   1      7    13.340     4.655    0.46E-03    0.87E-03    0.11E-06
 -----------------------------------------------------------------------------
|                                                                             |
|               ----> ADVICE to this user running VASP <----                  |
|                                                                             |
|     You enforced a specific xc type in the INCAR file but a different       |
|     type was found in the POTCAR file.                                      |
|     I HOPE YOU KNOW WHAT YOU ARE DOING!                                     |
|                                                                             |
 -----------------------------------------------------------------------------

  PAW_PBE Pt 04Feb2005                  :
 energy of atom  1       EATOM= -729.1176
 kinetic energy error for atom=    0.0010 (will be added to EATOM!!)
  PAW_PBE H 15Jun2001                   :
 energy of atom  2       EATOM=  -12.4884
 kinetic energy error for atom=    0.0002 (will be added to EATOM!!)
 
 
 POSCAR: Pt H
  positions in cartesian coordinates
  No initial velocities read in
 exchange correlation table for  LEXCH =       17
   RHO(1)=    0.500       N(1)  =     2000
   RHO(2)=  100.500       N(2)  =     4000
 


--------------------------------------------------------------------------------------------------------


 ion  position               nearest neighbor table
   1  0.000  0.000  0.340-   3 2.81   7 2.81   6 2.82   8 2.82  12 2.82  16 2.82   2 2.83   4 2.83
                            10 2.83
   2  0.334  0.000  0.340-   8 2.81   9 2.82  17 2.82   1 2.83   3 2.83   4 2.83   5 2.83  10 2.83
                            11 2.83
   3  0.668  0.000  0.340-   7 2.81   1 2.81   9 2.81  18 2.82   5 2.83   2 2.83   6 2.83  11 2.83
                            12 2.83
   4  0.000  0.334  0.340-   6 2.81   9 2.82  15 2.82   5 2.83   2 2.83   1 2.83   7 2.83  10 2.83
                            13 2.83
   5  0.334  0.334  0.340-   3 2.83   4 2.83   6 2.83   7 2.83   2 2.83   8 2.83  11 2.83  13 2.83
                            14 2.83
   6  0.668  0.334  0.340-   4 2.81   1 2.82   5 2.83   8 2.83   3 2.83   9 2.83  12 2.83  14 2.83
                            15 2.83
   7  0.000  0.668  0.340-   3 2.81   1 2.81   9 2.81  18 2.82   5 2.83   8 2.83   4 2.83  13 2.83
                            16 2.83
   8  0.334  0.668  0.340-   2 2.81   1 2.82   6 2.83   7 2.83   9 2.83   5 2.83  14 2.83  16 2.83
                            17 2.83
   9  0.668  0.668  0.340-   3 2.81   7 2.81   4 2.82   2 2.82   8 2.83   6 2.83  15 2.83  17 2.83
                            18 2.83
  10  0.111  0.111  0.433-  26 2.80  19 2.80  12 2.81  16 2.81  15 2.82  17 2.82  11 2.83  13 2.83
                             2 2.83   4 2.83   1 2.83  20 2.85
  11  0.445  0.111  0.433-  27 2.81  17 2.81  21 2.82  18 2.82  20 2.82  13 2.83  10 2.83  12 2.83
                            14 2.83   5 2.83   3 2.83   2 2.83
  12  0.779  0.111  0.433-  25 2.79  21 2.80  16 2.81  10 2.81  18 2.81   1 2.82  11 2.83  14 2.83
                            15 2.83   6 2.83   3 2.83  19 2.83
  13  0.111  0.445  0.433-  22 2.81  15 2.81  23 2.82  18 2.82  20 2.82  14 2.83  11 2.83  10 2.83
                            16 2.83   7 2.83   5 2.83   4 2.83
  14  0.445  0.445  0.433-  21 2.80  23 2.80  24 2.82  16 2.83  12 2.83  13 2.83  15 2.83  17 2.83
                            11 2.83   8 2.83   6 2.83   5 2.83
  15  0.779  0.445  0.433-  24 2.80  19 2.81  13 2.81  10 2.82   4 2.82  22 2.83  17 2.83  14 2.83
                            18 2.83  12 2.83   9 2.83   6 2.83
  16  0.111  0.779  0.433-  25 2.79  23 2.80  12 2.81  10 2.81  18 2.81   1 2.82  17 2.83  14 2.83
                            13 2.83   8 2.83   7 2.83  26 2.83
  17  0.445  0.779  0.433-  24 2.80  26 2.81  11 2.81  10 2.82   2 2.82  27 2.83  15 2.83  16 2.83
                            18 2.83  14 2.83   9 2.83   8 2.83
  18  0.779  0.779  0.433-  25 2.80  16 2.81  12 2.81  11 2.82  13 2.82   7 2.82   3 2.82  22 2.82
                            27 2.82  17 2.83  15 2.83   9 2.83
  19  0.892  0.225  0.525-  10 2.80  15 2.81  22 2.81  20 2.81  26 2.82  24 2.82  28 2.83  21 2.83
                            33 2.83  12 2.83  25 2.83  31 2.91
  20  0.224  0.225  0.526-  22 2.81  27 2.81  26 2.81  19 2.81  13 2.82  11 2.82  23 2.83  21 2.83
                            10 2.85  32 2.86  29 2.88  31 2.88
  21  0.558  0.224  0.524-  14 2.80  12 2.80  11 2.82  25 2.82  24 2.82  27 2.82  23 2.83  20 2.83
                            19 2.83  32 2.83  30 2.84  33 2.86
  22  0.892  0.557  0.525-  19 2.81  13 2.81  20 2.81  24 2.82  18 2.82  23 2.82  15 2.83  36 2.83
                            25 2.83  27 2.84  34 2.84  31 2.87
  23  0.224  0.558  0.524-  14 2.80  16 2.80  13 2.82  25 2.82  24 2.82  22 2.82  20 2.83  21 2.83
                            26 2.83  32 2.83  34 2.84  35 2.86
  24  0.558  0.558  0.524-  17 2.80  15 2.80  14 2.82  27 2.82  22 2.82  19 2.82  23 2.82  26 2.82
                            21 2.82  35 2.84  33 2.84  36 2.86
  25  0.891  0.891  0.524-  12 2.79  16 2.79  18 2.80  21 2.82  23 2.82  22 2.83  27 2.83  26 2.83
                            19 2.83  28 2.83  34 2.84  30 2.84
  26  0.225  0.892  0.525-  10 2.80  27 2.81  17 2.81  20 2.81  19 2.82  24 2.82  28 2.83  35 2.83
                            23 2.83  25 2.83  16 2.83  29 2.91
  27  0.556  0.892  0.525-  26 2.81  11 2.81  20 2.81  24 2.82  18 2.82  21 2.82  17 2.83  36 2.83
                            25 2.83  22 2.84  30 2.84  29 2.87
  28  0.002  0.002  0.617-  30 2.79  34 2.79  33 2.82  35 2.82  26 2.83  19 2.83  25 2.83  31 2.87
                            29 2.87
  29  0.340  0.002  0.621-  37 1.76  36 2.81  30 2.81  35 2.82  31 2.86  32 2.87  28 2.87  27 2.87
                            20 2.88  26 2.91
  30  0.671  0.004  0.618-  28 2.79  29 2.81  34 2.82  33 2.82  36 2.82  32 2.83  21 2.84  25 2.84
                            27 2.84
  31  0.002  0.340  0.621-  37 1.76  36 2.80  34 2.81  33 2.82  29 2.86  32 2.86  28 2.87  22 2.87
                            20 2.88  19 2.91
  32  0.340  0.340  0.618-  33 2.78  35 2.79  34 2.83  30 2.83  23 2.83  21 2.83  20 2.86  31 2.86
                            29 2.87
  33  0.670  0.337  0.618-  32 2.78  31 2.82  28 2.82  36 2.82  30 2.82  35 2.83  19 2.83  24 2.84
                            21 2.86
  34  0.004  0.671  0.618-  28 2.79  31 2.81  30 2.82  35 2.82  36 2.82  32 2.83  25 2.84  23 2.84
                            22 2.84
  35  0.337  0.671  0.618-  32 2.79  29 2.82  34 2.82  28 2.82  36 2.82  33 2.83  26 2.83  24 2.84
                            23 2.86
  36  0.670  0.670  0.618-  31 2.80  29 2.81  33 2.82  35 2.82  34 2.82  30 2.82  22 2.83  27 2.83
                            24 2.86
  37  0.182  0.182  0.661-  31 1.76  29 1.76
 

IMPORTANT INFORMATION: All symmetrisations will be switched off!
NOSYMM: (Re-)initialisation of all symmetry stuff for point group C_1.


----------------------------------------------------------------------------------------

                                     Primitive cell                                     

  volume of cell :    1550.4837

  direct lattice vectors                    reciprocal lattice vectors
     8.468310000  0.000000000  0.000000000     0.118087316 -0.068177744  0.000000000
     4.234155000  7.333771587  0.000000000     0.000000000  0.136355488  0.000000000
     0.000000000  0.000000000 24.965661990     0.000000000  0.000000000  0.040055016

  length of vectors
     8.468310000  8.468310000 24.965661990     0.136355488  0.136355488  0.040055016

  position of ions in fractional coordinates (direct lattice)
     0.000000000  0.000000000  0.340467639
     0.334001368  0.000000000  0.340467639
     0.668002736  0.000000000  0.340467639
     1.000000000  0.334001368  0.340467639
     0.334001368  0.334001368  0.340467639
     0.668002736  0.334001368  0.340467639
     1.000000000  0.668002736  0.340467639
     0.334001368  0.668002736  0.340467639
     0.668002736  0.668002736  0.340467639
     0.111333789  0.111333789  0.432970737
     0.445335157  0.111333789  0.432970737
     0.779336525  0.111333789  0.432970737
     0.111333789  0.445335157  0.432970737
     0.445335157  0.445335157  0.432970737
     0.779336525  0.445335157  0.432970737
     0.111333789  0.779336525  0.432970737
     0.445335157  0.779336525  0.432970737
     0.779336525  0.779336525  0.432970737
     0.891646234  0.225278284  0.524901604
     0.224390186  0.224581117  0.525633111
     0.558223607  0.224489517  0.524229039
     0.891779666  0.556568810  0.525151786
     0.224424701  0.558312632  0.524215906
     0.557861910  0.558136040  0.524380049
     0.890963182  0.891064053  0.524077251
     0.224893093  0.892002314  0.524899044
     0.556362643  0.891938958  0.525149369
     0.001525968  0.001889554  0.617131807
     0.339839412  0.002247621  0.620903105
     0.670886514  0.003679999  0.617627315
     0.002035608  0.340013819  0.620902820
     0.340010015  0.340363412  0.617664988
     0.670443643  0.337155735  0.617644175
     0.003523725  0.671106567  0.617619538
     0.336893528  0.670821487  0.617625513
     0.670345186  0.670434647  0.617851502
     0.182207302  0.182414856  0.661276785

  ion indices of the primitive-cell ions
   primitive index   ion index
                 1           1
                 2           2
                 3           3
                 4           4
                 5           5
                 6           6
                 7           7
                 8           8
                 9           9
                10          10
                11          11
                12          12
                13          13
                14          14
                15          15
                16          16
                17          17
                18          18
                19          19
                20          20
                21          21
                22          22
                23          23
                24          24
                25          25
                26          26
                27          27
                28          28
                29          29
                30          30
                31          31
                32          32
                33          33
                34          34
                35          35
                36          36
                37          37

----------------------------------------------------------------------------------------

 
 
 KPOINTS: KPOINTS created by Atomic Simulation Env

Automatic generation of k-mesh.
 Grid dimensions read from file:
 generate k-points for:    5    5    1

 Generating k-lattice:

  Cartesian coordinates                     Fractional coordinates (reciprocal lattice)
     0.023617463 -0.013635549  0.000000000     0.200000000 -0.000000000  0.000000000
     0.000000000  0.027271098  0.000000000     0.000000000  0.200000000  0.000000000
     0.000000000  0.000000000  0.040055016     0.000000000  0.000000000  1.000000000

  Length of vectors
     0.027271098  0.027271098  0.040055016

  Shift w.r.t. Gamma in fractional coordinates (k-lattice)
     0.000000000  0.000000000  0.000000000

 
 Subroutine IBZKPT returns following result:
 ===========================================
 
 Found     13 irreducible k-points:
 
 Following reciprocal coordinates:
            Coordinates               Weight
  0.000000  0.000000  0.000000      1.000000
  0.200000  0.000000  0.000000      2.000000
  0.200000  0.200000  0.000000      2.000000
  0.000000  0.200000  0.000000      2.000000
  0.400000  0.000000  0.000000      2.000000
  0.400000  0.400000  0.000000      2.000000
  0.000000  0.400000  0.000000      2.000000
  0.400000  0.200000  0.000000      2.000000
  0.200000  0.400000  0.000000      2.000000
 -0.200000  0.200000  0.000000      2.000000
 -0.400000  0.200000  0.000000      2.000000
  0.400000 -0.400000  0.000000      2.000000
 -0.200000  0.400000  0.000000      2.000000
 
 Following cartesian coordinates:
            Coordinates               Weight
  0.000000  0.000000  0.000000      1.000000
  0.023617 -0.013636  0.000000      2.000000
  0.023617  0.013636  0.000000      2.000000
  0.000000  0.027271  0.000000      2.000000
  0.047235 -0.027271  0.000000      2.000000
  0.047235  0.027271  0.000000      2.000000
  0.000000  0.054542  0.000000      2.000000
  0.047235  0.000000  0.000000      2.000000
  0.023617  0.040907  0.000000      2.000000
 -0.023617  0.040907  0.000000      2.000000
 -0.047235  0.054542  0.000000      2.000000
  0.047235 -0.081813  0.000000      2.000000
 -0.023617  0.068178  0.000000      2.000000
 


--------------------------------------------------------------------------------------------------------




 Dimension of arrays:
   k-points           NKPTS =     13   k-points in BZ     NKDIM =     13   number of bands    NBANDS=    240
   number of dos      NEDOS =    301   number of ions     NIONS =     37
   non local maximal  LDIM  =      6   non local SUM 2l+1 LMDIM =     18
   total plane-waves  NPLWV = 466560
   max r-space proj   IRMAX =   3679   max aug-charges    IRDMAX=  18423
   dimension x,y,z NGX =    54 NGY =   54 NGZ =  160
   dimension x,y,z NGXF=   108 NGYF=  108 NGZF=  320
   support grid    NGXF=   108 NGYF=  108 NGZF=  320
   ions per type =              36   1
   NGX,Y,Z   is equivalent  to a cutoff of  10.60, 10.60, 10.65 a.u.
   NGXF,Y,Z  is equivalent  to a cutoff of  21.20, 21.20, 21.31 a.u.

 SYSTEM =  unknown system                          
 POSCAR =  Pt H                                    

 Startparameter for this run:
   NWRITE =      2    write-flag & timer
   PREC   = normal    normal or accurate (medium, high low for compatibility)
   ISTART =      1    job   : 0-new  1-cont  2-samecut
   ICHARG =      0    charge: 1-file 2-atom 10-const
   ISPIN  =      1    spin polarized calculation?
   LNONCOLLINEAR =      F non collinear calculations
   LSORBIT =      F    spin-orbit coupling
   INIWAV =      1    electr: 0-lowe 1-rand  2-diag
   LASPH  =      F    aspherical Exc in radial PAW
 Electronic Relaxation 1
   ENCUT  =  680.3 eV  50.00 Ry    7.07 a.u.  18.01 18.01 53.09*2*pi/ulx,y,z
   ENINI  =  680.3     initial cutoff
   ENAUG  =  400.0 eV  augmentation charge cutoff
   NELM   =     60;   NELMIN=  2; NELMDL=  0     # of ELM steps 
   EDIFF  = 0.1E-04   stopping-criterion for ELM
   LREAL  =      T    real-space projection
   NLSPLINE    = F    spline interpolate recip. space projectors
   LCOMPAT=      F    compatible to vasp.4.4
   GGA_COMPAT  = T    GGA compatible to vasp.4.4-vasp.4.6
   LMAXPAW     = -100 max onsite density
   LMAXMIX     =    2 max onsite mixed and CHGCAR
   VOSKOWN=      0    Vosko Wilk Nusair interpolation
   ROPT   =   -0.00050  -0.00050
 Ionic relaxation
   EDIFFG = 0.1E-03   stopping-criterion for IOM
   NSW    =      0    number of steps for IOM
   NBLOCK =      1;   KBLOCK =      1    inner block; outer block 
   IBRION =     -1    ionic relax: 0-MD 1-quasi-New 2-CG
   NFREE  =      0    steps in history (QN), initial steepest desc. (CG)
   ISIF   =      2    stress and relaxation
   IWAVPR =     10    prediction:  0-non 1-charg 2-wave 3-comb
   ISYM   =      0    0-nonsym 1-usesym 2-fastsym
   LCORR  =      T    Harris-Foulkes like correction to forces

   POTIM  = 0.5000    time-step for ionic-motion
   TEIN   =    0.0    initial temperature
   TEBEG  =    0.0;   TEEND  =   0.0 temperature during run
   SMASS  =  -3.00    Nose mass-parameter (am)
   estimated Nose-frequenzy (Omega)   =  0.10E-29 period in steps = 0.13E+47 mass=  -0.164E-26a.u.
   SCALEE = 1.0000    scale energy and forces
   NPACO  =    256;   APACO  = 10.0  distance and # of slots for P.C.
   PSTRESS=    0.0 pullay stress

  Mass of Ions in am
   POMASS = 195.08  1.00
  Ionic Valenz
   ZVAL   =  10.00  1.00
  Atomic Wigner-Seitz radii
   RWIGS  =  -1.00 -1.00
  virtual crystal weights 
   VCA    =   1.00  1.00
   NELECT =     361.0000    total number of electrons
   NUPDOWN=      -1.0000    fix difference up-down

 DOS related values:
   EMIN   =  10.00;   EMAX   =-10.00  energy-range for DOS
   EFERMI =   0.00;   METHOD = LEGACY      
   ISMEAR =     1;   SIGMA  =   0.10  broadening in eV -4-tet -1-fermi 0-gaus

 Electronic relaxation 2 (details)
   IALGO  =     68    algorithm
   LDIAG  =      T    sub-space diagonalisation (order eigenvalues)
   LSUBROT=      F    optimize rotation matrix (better conditioning)
   TURBO    =      0    0=normal 1=particle mesh
   IRESTART =      0    0=no restart 2=restart with 2 vectors
   NREBOOT  =      0    no. of reboots
   NMIN     =      0    reboot dimension
   EREF     =   0.00    reference energy to select bands
   IMIX   =      4    mixing-type and parameters
     AMIX     =   0.40;   BMIX     =  1.00
     AMIX_MAG =   1.60;   BMIX_MAG =  1.00
     AMIN     =   0.10
     WC   =   100.;   INIMIX=   1;  MIXPRE=   1;  MAXMIX= -45

 Intra band minimization:
   WEIMIN = 0.0000     energy-eigenvalue tresh-hold
   EBREAK =  0.10E-07  absolut break condition
   DEPER  =   0.30     relativ break condition  

   TIME   =   0.40     timestep for ELM

  volume/ion in A,a.u.               =      41.90       282.79
  Fermi-wavevector in a.u.,A,eV,Ry     =   1.007136  1.903211 13.800704  1.014323
  Thomas-Fermi vector in A             =   2.139922
 
 Write flags
   LWAVE        =      T    write WAVECAR
   LDOWNSAMPLE  =      F    k-point downsampling of WAVECAR
   LCHARG       =      T    write CHGCAR
   LVTOT        =      F    write LOCPOT, total local potential
   LVHAR        =      F    write LOCPOT, Hartree potential only
   LELF         =      F    write electronic localiz. function (ELF)
   LORBIT       =      0    0 simple, 1 ext, 2 COOP (PROOUT), +10 PAW based schemes


 Dipole corrections
   LMONO  =      F    monopole corrections only (constant potential shift)
   LDIPOL =      F    correct potential (dipole corrections)
   IDIPOL =      0    1-x, 2-y, 3-z, 4-all directions 
   EPSILON=  1.0000000 bulk dielectric constant

 Exchange correlation treatment:
   GGA     =    BF    GGA type
   LEXCH   =    17    internal setting for exchange type
   LIBXC   =     F    Libxc                    
   VOSKOWN =     0    Vosko Wilk Nusair interpolation
   LHFCALC =     F    Hartree Fock is set to
   LHFONE  =     F    Hartree Fock one center treatment
   AEXX    =    0.0000 exact exchange contribution

 vdW DFT:
   LUSE_VDW   =     T    switch on vdW DFT
   IVDW_NL    =     1    kernel type
   LSPIN_VDW  =     F    use spin-polarized vdW DFT
   Zab_VDW    =******    correlation parameter
   PARAM1     =0.1234
   PARAM2     =1.0000
   PARAM3     =0.0000
   -- rVV10 --
   BPARAM     = 6.3000
   CPARAM     = 0.0093

 Linear response parameters
   LEPSILON=     F    determine dielectric tensor
   LRPA    =     F    only Hartree local field effects (RPA)
   LNABLA  =     F    use nabla operator in PAW spheres
   LVEL    =     F    velocity operator in full k-point grid
   CSHIFT  =0.1000    complex shift for real part using Kramers Kronig
   OMEGAMAX=  -1.0    maximum frequency
   DEG_THRESHOLD= 0.2000000E-02 threshold for treating states as degnerate
   RTIME   =   -0.100 relaxation time in fs
  (WPLASMAI=    0.000 imaginary part of plasma frequency in eV, 0.658/RTIME)
   DFIELD  = 0.0000000 0.0000000 0.0000000 field for delta impulse in time
 
  Optional k-point grid parameters
   LKPOINTS_OPT  =     F    use optional k-point grid
   KPOINTS_OPT_MODE=     1    mode for optional k-point grid
 
 Orbital magnetization related:
   ORBITALMAG=     F  switch on orbital magnetization
   LCHIMAG   =     F  perturbation theory with respect to B field
   DQ        =  0.001000  dq finite difference perturbation B field
   LLRAUG    =     F  two centre corrections for induced B field
   LBONE     =     F  B-component reconstruction in AE one-centre
   LVGVCALC  =     T  calculate vGv susceptibility
   LVGVAPPL  =     F  apply vGv susceptibility instead of pGv for G=0

 Random number generation:
   RANDOM_GENERATOR = DEFAULT
   PCG_SEED         = not used


--------------------------------------------------------------------------------------------------------


 Static calculation
 charge density and potential will be updated during run
 non-spin polarized calculation
 RMM-DIIS sequential band-by-band and
  variant of blocked Davidson during initial phase
 perform sub-space diagonalisation
    before iterative eigenvector-optimisation
 modified Broyden-mixing scheme, WC =      100.0
 initial mixing is a Kerker type mixing with AMIX =  0.4000 and BMIX =      1.0000
 Hartree-type preconditioning will be used
 using additional bands           59
 real space projection scheme for non local part
 use partial core corrections
 calculate Harris-corrections to forces 
   (improved forces if not selfconsistent)
 use gradient corrections 
 use of overlap-Matrix (Vanderbilt PP)
 Methfessel and Paxton  Order N= 1 SIGMA  =   0.10


--------------------------------------------------------------------------------------------------------


  energy-cutoff  :      680.29
  volume of cell :     1550.48
      direct lattice vectors                 reciprocal lattice vectors
     8.468310000  0.000000000  0.000000000     0.118087316 -0.068177744  0.000000000
     4.234155000  7.333771587  0.000000000     0.000000000  0.136355488  0.000000000
     0.000000000  0.000000000 24.965661990     0.000000000  0.000000000  0.040055016

  length of vectors
     8.468310000  8.468310000 24.965661990     0.136355488  0.136355488  0.040055016


 
 old parameters found on file WAVECAR:
  energy-cutoff  :      680.29
  volume of cell :     1550.48
      direct lattice vectors                 reciprocal lattice vectors
     8.468310000  0.000000000  0.000000000     0.118087316 -0.068177744  0.000000000
     4.234155000  7.333771587  0.000000000     0.000000000  0.136355488  0.000000000
     0.000000000  0.000000000 24.965661990     0.000000000  0.000000000  0.040055016

  length of vectors

 
 k-points in units of 2pi/SCALE and weight: KPOINTS created by Atomic Simulation Env
   0.00000000  0.00000000  0.00000000       0.040
   0.02361746 -0.01363555  0.00000000       0.080
   0.02361746  0.01363555  0.00000000       0.080
   0.00000000  0.02727110  0.00000000       0.080
   0.04723493 -0.02727110  0.00000000       0.080
   0.04723493  0.02727110  0.00000000       0.080
   0.00000000  0.05454220  0.00000000       0.080
   0.04723493  0.00000000  0.00000000       0.080
   0.02361746  0.04090665  0.00000000       0.080
  -0.02361746  0.04090665  0.00000000       0.080
  -0.04723493  0.05454220  0.00000000       0.080
   0.04723493 -0.08181329  0.00000000       0.080
  -0.02361746  0.06817774  0.00000000       0.080
 
 k-points in reciprocal lattice and weights: KPOINTS created by Atomic Simulation Env
   0.00000000  0.00000000  0.00000000       0.040
   0.20000000  0.00000000  0.00000000       0.080
   0.20000000  0.20000000  0.00000000       0.080
   0.00000000  0.20000000  0.00000000       0.080
   0.40000000  0.00000000  0.00000000       0.080
   0.40000000  0.40000000  0.00000000       0.080
   0.00000000  0.40000000  0.00000000       0.080
   0.40000000  0.20000000  0.00000000       0.080
   0.20000000  0.40000000  0.00000000       0.080
  -0.20000000  0.20000000  0.00000000       0.080
  -0.40000000  0.20000000  0.00000000       0.080
   0.40000000 -0.40000000  0.00000000       0.080
  -0.20000000  0.40000000  0.00000000       0.080
 
 position of ions in fractional coordinates (direct lattice) 
   0.00000000  0.00000000  0.34046764
   0.33400137  0.00000000  0.34046764
   0.66800274  0.00000000  0.34046764
   0.00000000  0.33400137  0.34046764
   0.33400137  0.33400137  0.34046764
   0.66800274  0.33400137  0.34046764
   0.00000000  0.66800274  0.34046764
   0.33400137  0.66800274  0.34046764
   0.66800274  0.66800274  0.34046764
   0.11133379  0.11133379  0.43297074
   0.44533516  0.11133379  0.43297074
   0.77933653  0.11133379  0.43297074
   0.11133379  0.44533516  0.43297074
   0.44533516  0.44533516  0.43297074
   0.77933653  0.44533516  0.43297074
   0.11133379  0.77933653  0.43297074
   0.44533516  0.77933653  0.43297074
   0.77933653  0.77933653  0.43297074
   0.89164623  0.22527828  0.52490160
   0.22439019  0.22458112  0.52563311
   0.55822361  0.22448952  0.52422904
   0.89177967  0.55656881  0.52515179
   0.22442470  0.55831263  0.52421591
   0.55786191  0.55813604  0.52438005
   0.89096318  0.89106405  0.52407725
   0.22489309  0.89200231  0.52489904
   0.55636264  0.89193896  0.52514937
   0.00152597  0.00188955  0.61713181
   0.33983941  0.00224762  0.62090310
   0.67088651  0.00368000  0.61762731
   0.00203561  0.34001382  0.62090282
   0.34001002  0.34036341  0.61766499
   0.67044364  0.33715573  0.61764418
   0.00352372  0.67110657  0.61761954
   0.33689353  0.67082149  0.61762551
   0.67034519  0.67043465  0.61785150
   0.18220730  0.18241486  0.66127678
 
 position of ions in cartesian coordinates  (Angst):
   0.00000000  0.00000000  8.50000000
   2.82842712  0.00000000  8.50000000
   5.65685425  0.00000000  8.50000000
   1.41421356  2.44948974  8.50000000
   4.24264069  2.44948974  8.50000000
   7.07106781  2.44948974  8.50000000
   2.82842712  4.89897949  8.50000000
   5.65685425  4.89897949  8.50000000
   8.48528137  4.89897949  8.50000000
   1.41421356  0.81649658 10.80940108
   4.24264069  0.81649658 10.80940108
   7.07106781  0.81649658 10.80940108
   2.82842712  3.26598632 10.80940108
   5.65685425  3.26598632 10.80940108
   8.48528137  3.26598632 10.80940108
   4.24264069  5.71547607 10.80940108
   7.07106781  5.71547607 10.80940108
   9.89949494  5.71547607 10.80940108
   8.50459989  1.65213948 13.10451601
   2.85111692  1.64702662 13.12277857
   5.67773396  1.64635484 13.08772498
   9.90846527  4.08174852 13.11076198
   4.26448016  4.09453732 13.08739711
   7.08738210  4.09324223 13.09149507
  11.31785574  6.53486023 13.08393551
   5.68134049  6.54174123 13.10445212
   8.48805913  6.54127659 13.11070164
   0.02092303  0.01385756 15.40710410
   2.88738227  0.01648354 15.50125704
   5.69685666  0.02698827 15.41947477
   1.45690937  2.49358369 15.50124992
   4.32046165  2.49614752 15.42041532
   7.10509425  2.47262315 15.41989571
   2.87140922  4.92174227 15.41928062
   5.69328099  4.91965156 15.41942979
   8.51541506  4.91681457 15.42507175
   2.31536069  1.33778889 16.50921269
 


--------------------------------------------------------------------------------------------------------


 k-point   1 :   0.0000 0.0000 0.0000  plane waves:   62399
 k-point   2 :   0.2000 0.0000 0.0000  plane waves:   62407
 k-point   3 :   0.2000 0.2000 0.0000  plane waves:   62407
 k-point   4 :   0.0000 0.2000 0.0000  plane waves:   62407
 k-point   5 :   0.4000 0.0000 0.0000  plane waves:   62451
 k-point   6 :   0.4000 0.4000 0.0000  plane waves:   62451
 k-point   7 :   0.0000 0.4000 0.0000  plane waves:   62451
 k-point   8 :   0.4000 0.2000 0.0000  plane waves:   62510
 k-point   9 :   0.2000 0.4000 0.0000  plane waves:   62510
 k-point  10 :  -0.2000 0.2000 0.0000  plane waves:   62510
 k-point  11 :  -0.4000 0.2000 0.0000  plane waves:   62498
 k-point  12 :   0.4000-0.4000 0.0000  plane waves:   62498
 k-point  13 :  -0.2000 0.4000 0.0000  plane waves:   62498

 maximum and minimum number of plane-waves per node :     62510    62399

 maximum number of plane-waves:     62510
 maximum index in each direction: 
   IXMAX=   18   IYMAX=   18   IZMAX=   53
   IXMIN=  -18   IYMIN=  -18   IZMIN=  -53


 serial   3D FFT for wavefunctions
 parallel 3D FFT for charge:
    minimum data exchange during FFTs selected (reduces bandwidth)


 total amount of memory used by VASP MPI-rank0   148527. kBytes
=======================================================================

   base      :      30000. kBytes
   nonlr-proj:      22454. kBytes
   fftplans  :       5213. kBytes
   grid      :      24541. kBytes
   one-center:        575. kBytes
   wavefun   :      65744. kBytes
 
     INWAV:  cpu time      7.2100: real time     11.6911
 Broyden mixing: mesh for mixing (old mesh)
   NGX = 37   NGY = 37   NGZ =107
  (NGX  =108   NGY  =108   NGZ  =320)
  gives a total of 146483 points

 charge density for first step will be calculated from the start-wavefunctions


--------------------------------------------------------------------------------------------------------


 Maximum index for non-local projection operator         3550
 Maximum index for augmentation-charges         1172 (set IRDMAX)


--------------------------------------------------------------------------------------------------------


 initial charge from wavefunction
 First call to EWALD:  gamma=   0.153
 Maximum number of real-space cells 4x 4x 2
 Maximum number of reciprocal cells 2x 2x 5

    FEWALD:  cpu time      0.0047: real time      0.0047


--------------------------------------- Ionic step        1  -------------------------------------------




--------------------------------------- Iteration      1(   1)  ---------------------------------------


vdW kernel read from vdw_kernel.bindat
  0.0000  0.2424  0.5071  0.7962  1.1119  1.4567  1.8333  2.2446  2.6937  3.1842
  3.7199  4.3049  4.9438  5.6415  6.4036  7.2358  8.1446  9.1372 10.2212 11.4050
 12.6979 14.1099 15.6519 17.3360 19.1751 21.1837 23.3773 25.7729 28.3892 31.2465
 34.3669 37.7748 41.4965 45.5611 50.0000
 
    POTLOK:  cpu time      2.7463: real time      2.7714
    SETDIJ:  cpu time      0.0080: real time      0.0081
     EDDAV:  cpu time     20.4080: real time     20.6578
       DOS:  cpu time      0.0009: real time      0.0010
    CHARGE:  cpu time      0.7592: real time      0.7649
    MIXING:  cpu time      0.0030: real time      0.0031
    --------------------------------------------
      LOOP:  cpu time     23.9254: real time     24.2062

 eigenvalue-minimisations  :  7200
 total energy-change (2. order) :-0.1045629E+03  (-0.7334842E-02)
 number of electron     360.9999974 magnetization 
 augmentation part      114.1812115 magnetization 

 Broyden mixing:
  rms(total) = 0.93225E-01    rms(broyden)= 0.93225E-01
  rms(prec ) = 0.11334E+00
  weight for this iteration     100.00

 Free energy of the ion-electron system (eV)
  ---------------------------------------------------
  alpha Z        PSCENC =       797.33612757
  Ewald energy   TEWEN  =    132213.44993504
  -Hartree energ DENC   =   -159608.92034960
  -exchange      EXHF   =         0.00000000
  -V(xc)+E(xc)   XCENC  =        89.65384719
  PAW double counting   =     32176.87162736   -31179.06369604
  entropy T*S    EENTRO =        -0.09179468
  eigenvalues    EBANDS =     -1090.60172363
  atomic energy  EATOM  =     26496.80315902
  Solvation  Ediel_sol  =         0.00000000
  ---------------------------------------------------
  free energy    TOTEN  =      -104.56286777 eV

  energy without entropy =     -104.47107309  energy(sigma->0) =     -104.53226954


--------------------------------------------------------------------------------------------------------




--------------------------------------- Iteration      1(   2)  ---------------------------------------


    POTLOK:  cpu time      2.3595: real time      2.4166
    SETDIJ:  cpu time      0.0055: real time      0.0056
    EDDIAG:  cpu time      2.8109: real time      2.8305
  RMM-DIIS:  cpu time      8.4045: real time      8.4591
    ORTHCH:  cpu time      1.0989: real time      1.1063
       DOS:  cpu time      0.0012: real time      0.0012
    CHARGE:  cpu time      0.7656: real time      0.7726
    MIXING:  cpu time      0.0029: real time      0.0029
    --------------------------------------------
      LOOP:  cpu time     15.4491: real time     15.5946

 eigenvalue-minimisations  :  6683
 total energy-change (2. order) :-0.2669944E+00  (-0.9212796E-02)
 number of electron     360.9999971 magnetization 
 augmentation part      114.1758602 magnetization 

 Broyden mixing:
  rms(total) = 0.59273E+00    rms(broyden)= 0.59273E+00
  rms(prec ) = 0.80929E+00
  weight for this iteration     100.00

 eigenvalues of (default mixing * dielectric matrix)
  average eigenvalue GAMMA=   0.1255
  0.1255

 Free energy of the ion-electron system (eV)
  ---------------------------------------------------
  alpha Z        PSCENC =       797.33612757
  Ewald energy   TEWEN  =    132213.44993504
  -Hartree energ DENC   =   -159612.83539804
  -exchange      EXHF   =         0.00000000
  -V(xc)+E(xc)   XCENC  =        89.65081764
  PAW double counting   =     32179.20151403   -31181.38573417
  entropy T*S    EENTRO =        -0.08324602
  eigenvalues    EBANDS =     -1086.96703722
  atomic energy  EATOM  =     26496.80315902
  Solvation  Ediel_sol  =         0.00000000
  ---------------------------------------------------
  free energy    TOTEN  =      -104.82986214 eV

  energy without entropy =     -104.74661613  energy(sigma->0) =     -104.80211347


--------------------------------------------------------------------------------------------------------




--------------------------------------- Iteration      1(   3)  ---------------------------------------


    POTLOK:  cpu time      2.4160: real time      2.4309
    SETDIJ:  cpu time      0.0116: real time      0.0117
    EDDIAG:  cpu time      2.8411: real time      2.8614
  RMM-DIIS:  cpu time      8.7278: real time      8.7840
    ORTHCH:  cpu time      0.6342: real time      0.6397
       DOS:  cpu time      0.0010: real time      0.0010
    CHARGE:  cpu time      0.7549: real time      0.7602
    MIXING:  cpu time      0.0021: real time      0.0022
    --------------------------------------------
      LOOP:  cpu time     15.3887: real time     15.4911

 eigenvalue-minimisations  :  6776
 total energy-change (2. order) : 0.2399155E+00  (-0.4566674E-02)
 number of electron     360.9999974 magnetization 
 augmentation part      114.1679099 magnetization 

 Broyden mixing:
  rms(total) = 0.20755E+00    rms(broyden)= 0.20754E+00
  rms(prec ) = 0.26761E+00
  weight for this iteration     100.00

 eigenvalues of (default mixing * dielectric matrix)
  average eigenvalue GAMMA=   0.1445
  0.2010  0.0880

 Free energy of the ion-electron system (eV)
  ---------------------------------------------------
  alpha Z        PSCENC =       797.33612757
  Ewald energy   TEWEN  =    132213.44993504
  -Hartree energ DENC   =   -159611.77422112
  -exchange      EXHF   =         0.00000000
  -V(xc)+E(xc)   XCENC  =        89.65410289
  PAW double counting   =     32179.28777551   -31181.47297264
  entropy T*S    EENTRO =        -0.09175396
  eigenvalues    EBANDS =     -1087.78209895
  atomic energy  EATOM  =     26496.80315902
  Solvation  Ediel_sol  =         0.00000000
  ---------------------------------------------------
  free energy    TOTEN  =      -104.58994664 eV

  energy without entropy =     -104.49819268  energy(sigma->0) =     -104.55936199


--------------------------------------------------------------------------------------------------------




--------------------------------------- Iteration      1(   4)  ---------------------------------------


    POTLOK:  cpu time      2.4322: real time      2.4806
    SETDIJ:  cpu time      0.0044: real time      0.0044
    EDDIAG:  cpu time      2.8904: real time      2.9134
  RMM-DIIS:  cpu time      7.7678: real time      8.0357
    ORTHCH:  cpu time      0.6442: real time      0.6506
       DOS:  cpu time      0.0013: real time      0.0013
    CHARGE:  cpu time      0.7662: real time      0.7776
    MIXING:  cpu time      0.0024: real time      0.0024
    --------------------------------------------
      LOOP:  cpu time     14.5090: real time     14.8660

 eigenvalue-minimisations  :  6473
 total energy-change (2. order) : 0.3355645E-01  (-0.1028000E-02)
 number of electron     360.9999973 magnetization 
 augmentation part      114.1717552 magnetization 

 Broyden mixing:
  rms(total) = 0.20273E-01    rms(broyden)= 0.20272E-01
  rms(prec ) = 0.22505E-01
  weight for this iteration     100.00

 eigenvalues of (default mixing * dielectric matrix)
  average eigenvalue GAMMA=   0.2293
  0.3866  0.2149  0.0865

 Free energy of the ion-electron system (eV)
  ---------------------------------------------------
  alpha Z        PSCENC =       797.33612757
  Ewald energy   TEWEN  =    132213.44993504
  -Hartree energ DENC   =   -159610.95504142
  -exchange      EXHF   =         0.00000000
  -V(xc)+E(xc)   XCENC  =        89.65645233
  PAW double counting   =     32179.05766586   -31181.24501807
  entropy T*S    EENTRO =        -0.09261637
  eigenvalues    EBANDS =     -1088.56705415
  atomic energy  EATOM  =     26496.80315902
  Solvation  Ediel_sol  =         0.00000000
  ---------------------------------------------------
  free energy    TOTEN  =      -104.55639020 eV

  energy without entropy =     -104.46377382  energy(sigma->0) =     -104.52551807


--------------------------------------------------------------------------------------------------------




--------------------------------------- Iteration      1(   5)  ---------------------------------------


    POTLOK:  cpu time      2.3946: real time      2.4129
    SETDIJ:  cpu time      0.0044: real time      0.0046
    EDDIAG:  cpu time      2.9519: real time      2.9809
  RMM-DIIS:  cpu time      8.2612: real time      8.3420
    ORTHCH:  cpu time      0.6438: real time      0.6504
       DOS:  cpu time      0.0010: real time      0.0011
    CHARGE:  cpu time      0.7595: real time      0.7673
    MIXING:  cpu time      0.0031: real time      0.0032
    --------------------------------------------
      LOOP:  cpu time     15.0196: real time     15.1623

 eigenvalue-minimisations  :  6738
 total energy-change (2. order) : 0.5683794E-03  (-0.1517618E-03)
 number of electron     360.9999973 magnetization 
 augmentation part      114.1714733 magnetization 

 Broyden mixing:
  rms(total) = 0.14030E-01    rms(broyden)= 0.14030E-01
  rms(prec ) = 0.15270E-01
  weight for this iteration     100.00

 eigenvalues of (default mixing * dielectric matrix)
  average eigenvalue GAMMA=   0.2936
  0.4914  0.0868  0.4012  0.1952

 Free energy of the ion-electron system (eV)
  ---------------------------------------------------
  alpha Z        PSCENC =       797.33612757
  Ewald energy   TEWEN  =    132213.44993504
  -Hartree energ DENC   =   -159611.18049604
  -exchange      EXHF   =         0.00000000
  -V(xc)+E(xc)   XCENC  =        89.65586493
  PAW double counting   =     32178.69808861   -31180.88763070
  entropy T*S    EENTRO =        -0.09238018
  eigenvalues    EBANDS =     -1088.33849007
  atomic energy  EATOM  =     26496.80315902
  Solvation  Ediel_sol  =         0.00000000
  ---------------------------------------------------
  free energy    TOTEN  =      -104.55582182 eV

  energy without entropy =     -104.46344164  energy(sigma->0) =     -104.52502842


--------------------------------------------------------------------------------------------------------




--------------------------------------- Iteration      1(   6)  ---------------------------------------


    POTLOK:  cpu time      2.3401: real time      2.4096
    SETDIJ:  cpu time      0.0209: real time      0.0212
    EDDIAG:  cpu time      2.7468: real time      2.7734
  RMM-DIIS:  cpu time      8.5221: real time      8.7524
    ORTHCH:  cpu time      0.8434: real time      0.8502
       DOS:  cpu time      0.0011: real time      0.0011
    CHARGE:  cpu time      0.7520: real time      0.7579
    MIXING:  cpu time      0.0043: real time      0.0044
    --------------------------------------------
      LOOP:  cpu time     15.2308: real time     15.5701

 eigenvalue-minimisations  :  6930
 total energy-change (2. order) : 0.8730682E-04  (-0.2549333E-04)
 number of electron     360.9999973 magnetization 
 augmentation part      114.1731588 magnetization 

 Broyden mixing:
  rms(total) = 0.81204E-02    rms(broyden)= 0.81204E-02
  rms(prec ) = 0.86808E-02
  weight for this iteration     100.00

 eigenvalues of (default mixing * dielectric matrix)
  average eigenvalue GAMMA=   0.3553
  0.6033  0.6033  0.0868  0.2039  0.2791

 Free energy of the ion-electron system (eV)
  ---------------------------------------------------
  alpha Z        PSCENC =       797.33612757
  Ewald energy   TEWEN  =    132213.44993504
  -Hartree energ DENC   =   -159610.97802258
  -exchange      EXHF   =         0.00000000
  -V(xc)+E(xc)   XCENC  =        89.65659621
  PAW double counting   =     32178.20523077   -31180.39799015
  entropy T*S    EENTRO =        -0.09261319
  eigenvalues    EBANDS =     -1088.53815721
  atomic energy  EATOM  =     26496.80315902
  Solvation  Ediel_sol  =         0.00000000
  ---------------------------------------------------
  free energy    TOTEN  =      -104.55573451 eV

  energy without entropy =     -104.46312132  energy(sigma->0) =     -104.52486345


--------------------------------------------------------------------------------------------------------




--------------------------------------- Iteration      1(   7)  ---------------------------------------


    POTLOK:  cpu time      2.4335: real time      2.4487
    SETDIJ:  cpu time      0.0044: real time      0.0044
    EDDIAG:  cpu time      2.5318: real time      2.5521
  RMM-DIIS:  cpu time      8.5041: real time      8.5588
    ORTHCH:  cpu time      0.6988: real time      0.7042
       DOS:  cpu time      0.0011: real time      0.0011
    --------------------------------------------
      LOOP:  cpu time     14.1737: real time     14.2692

 eigenvalue-minimisations  :  6604
 total energy-change (2. order) : 0.2707420E-05  (-0.8249960E-05)
 number of electron     360.9999973 magnetization 
 augmentation part      114.1731588 magnetization 

 Free energy of the ion-electron system (eV)
  ---------------------------------------------------
  alpha Z        PSCENC =       797.33612757
  Ewald energy   TEWEN  =    132213.44993504
  -Hartree energ DENC   =   -159611.14558891
  -exchange      EXHF   =         0.00000000
  -V(xc)+E(xc)   XCENC  =        89.65646130
  PAW double counting   =     32178.03069841   -31180.22411408
  entropy T*S    EENTRO =        -0.09255013
  eigenvalues    EBANDS =     -1088.36986002
  atomic energy  EATOM  =     26496.80315902
  Solvation  Ediel_sol  =         0.00000000
  ---------------------------------------------------
  free energy    TOTEN  =      -104.55573180 eV

  energy without entropy =     -104.46318168  energy(sigma->0) =     -104.52488176


--------------------------------------------------------------------------------------------------------




 average (electrostatic) potential at core
  the test charge radii are     1.2059  0.5201
  (the norm of the test charge is              1.0000)
       1 -73.5461       2 -73.5393       3 -73.5367       4 -73.5393       5 -73.5264
       6 -73.5351       7 -73.5368       8 -73.5352       9 -73.5464      10 -73.9780
      11 -73.9672      12 -73.9867      13 -73.9673      14 -73.9890      15 -73.9932
      16 -73.9867      17 -73.9928      18 -73.9413      19 -73.9463      20 -73.9142
      21 -73.9714      22 -73.9427      23 -73.9723      24 -73.9728      25 -73.9975
      26 -73.9471      27 -73.9425      28 -73.5312      29 -73.6455      30 -73.5460
      31 -73.6467      32 -73.5198      33 -73.5513      34 -73.5463      35 -73.5510
      36 -73.5563      37 -38.3604
 
 
 
 E-fermi :  -0.0761     XC(G=0):  -5.8730     alpha+bet : -5.8354

 Fermi energy:        -0.0760519225

 k-point     1 :       0.0000    0.0000    0.0000
  band No.  band energies     occupation 
      1      -8.9000      2.00000
      2      -7.7584      2.00000
      3      -7.0166      2.00000
      4      -6.5029      2.00000
      5      -6.4816      2.00000
      6      -6.4560      2.00000
      7      -6.4517      2.00000
      8      -6.4446      2.00000
      9      -6.4432      2.00000
     10      -6.4254      2.00000
     11      -6.1543      2.00000
     12      -5.9220      2.00000
     13      -5.9189      2.00000
     14      -5.9070      2.00000
     15      -5.8993      2.00000
     16      -5.8959      2.00000
     17      -5.8330      2.00000
     18      -5.4634      2.00000
     19      -5.4622      2.00000
     20      -5.4582      2.00000
     21      -5.4496      2.00000
     22      -5.4495      2.00000
     23      -5.3341      2.00000
     24      -5.2332      2.00000
     25      -5.2290      2.00000
     26      -5.2265      2.00000
     27      -5.2197      2.00000
     28      -5.2185      2.00000
     29      -5.1235      2.00000
     30      -5.0308      2.00000
     31      -5.0273      2.00000
     32      -5.0242      2.00000
     33      -5.0192      2.00000
     34      -5.0180      2.00000
     35      -4.9783      2.00000
     36      -4.9623      2.00000
     37      -4.9568      2.00000
     38      -4.9507      2.00000
     39      -4.9196      2.00000
     40      -4.9102      2.00000
     41      -4.5697      2.00000
     42      -4.3815      2.00000
     43      -4.3813      2.00000
     44      -4.3600      2.00000
     45      -4.3436      2.00000
     46      -4.3279      2.00000
     47      -4.3143      2.00000
     48      -4.3046      2.00000
     49      -4.2923      2.00000
     50      -4.2889      2.00000
     51      -4.1677      2.00000
     52      -4.1371      2.00000
     53      -4.1347      2.00000
     54      -4.0438      2.00000
     55      -4.0323      2.00000
     56      -3.5932      2.00000
     57      -3.5790      2.00000
     58      -3.5711      2.00000
     59      -3.5679      2.00000
     60      -3.5503      2.00000
     61      -3.4989      2.00000
     62      -3.4929      2.00000
     63      -3.3922      2.00000
     64      -3.3815      2.00000
     65      -3.3752      2.00000
     66      -3.3730      2.00000
     67      -3.3673      2.00000
     68      -3.3625      2.00000
     69      -3.3528      2.00000
     70      -3.3208      2.00000
     71      -3.3107      2.00000
     72      -3.3044      2.00000
     73      -3.3011      2.00000
     74      -3.2923      2.00000
     75      -3.2737      2.00000
     76      -3.2636      2.00000
     77      -3.2562      2.00000
     78      -3.1681      2.00000
     79      -3.1577      2.00000
     80      -3.1445      2.00000
     81      -3.1388      2.00000
     82      -3.1272      2.00000
     83      -3.1154      2.00000
     84      -2.9607      2.00000
     85      -2.9302      2.00000
     86      -2.9237      2.00000
     87      -2.9161      2.00000
     88      -2.9043      2.00000
     89      -2.9018      2.00000
     90      -2.8839      2.00000
     91      -2.8830      2.00000
     92      -2.8422      2.00000
     93      -2.8242      2.00000
     94      -2.8122      2.00000
     95      -2.7872      2.00000
     96      -2.7429      2.00000
     97      -2.7405      2.00000
     98      -2.6958      2.00000
     99      -2.6939      2.00000
    100      -2.6842      2.00000
    101      -2.6132      2.00000
    102      -2.5384      2.00000
    103      -2.5204      2.00000
    104      -2.5180      2.00000
    105      -2.5086      2.00000
    106      -2.5077      2.00000
    107      -2.4833      2.00000
    108      -2.2652      2.00000
    109      -2.0348      2.00000
    110      -2.0069      2.00000
    111      -2.0042      2.00000
    112      -1.9971      2.00000
    113      -1.9936      2.00000
    114      -1.9822      2.00000
    115      -1.9781      2.00000
    116      -1.9659      2.00000
    117      -1.9615      2.00000
    118      -1.9553      2.00000
    119      -1.9383      2.00000
    120      -1.8755      2.00000
    121      -1.8615      2.00000
    122      -1.8197      2.00000
    123      -1.7417      2.00000
    124      -1.7255      2.00000
    125      -1.7190      2.00000
    126      -1.7184      2.00000
    127      -1.7022      2.00000
    128      -1.6171      2.00000
    129      -1.5890      2.00000
    130      -1.5413      2.00000
    131      -1.5369      2.00000
    132      -1.5356      2.00000
    133      -1.4791      2.00000
    134      -1.3037      2.00000
    135      -1.2870      2.00000
    136      -1.2761      2.00000
    137      -1.2603      2.00000
    138      -1.2534      2.00000
    139      -1.2495      2.00000
    140      -1.1959      2.00000
    141      -1.1760      2.00000
    142      -1.0740      2.00000
    143      -1.0472      2.00000
    144      -1.0345      2.00000
    145      -1.0252      2.00000
    146      -1.0230      2.00000
    147      -1.0199      2.00000
    148      -0.8998      2.00000
    149      -0.8838      2.00000
    150      -0.8576      2.00000
    151      -0.8459      2.00000
    152      -0.8346      2.00000
    153      -0.8323      2.00000
    154      -0.8275      2.00000
    155      -0.8182      2.00000
    156      -0.8126      2.00000
    157      -0.8071      2.00000
    158      -0.7993      2.00000
    159      -0.7933      2.00000
    160      -0.7396      2.00000
    161      -0.7061      2.00000
    162      -0.6970      2.00000
    163      -0.6949      2.00000
    164      -0.6712      2.00000
    165      -0.6645      2.00000
    166      -0.6441      2.00000
    167      -0.6434      2.00000
    168      -0.6056      2.00000
    169      -0.5962      2.00000
    170      -0.5780      2.00000
    171      -0.5718      2.00000
    172      -0.5585      2.00000
    173      -0.5437      2.00000
    174      -0.5400      2.00000
    175      -0.5388      2.00000
    176      -0.4625      2.00000
    177      -0.4539      2.00000
    178      -0.4460      2.00000
    179      -0.4404      2.00000
    180      -0.4289      2.00001
    181      -0.4287      2.00001
    182      -0.3921      2.00007
    183      -0.3523      2.00066
    184      -0.3418      2.00112
    185      -0.3224      2.00273
    186      -0.3209      2.00291
    187      -0.3086      2.00488
    188      -0.3049      2.00565
    189      -0.1234      1.71018
    190      -0.1026      1.43288
    191      -0.0196      0.19262
    192      -0.0164      0.16305
    193      -0.0075      0.09087
    194       0.0020      0.03006
    195       0.0103     -0.00917
    196       0.0122     -0.01635
    197       0.5116     -0.00000
    198       0.8216     -0.00000
    199       0.8350     -0.00000
    200       0.8743     -0.00000
    201       0.8943     -0.00000
    202       0.8995     -0.00000
    203       0.9066     -0.00000
    204       2.7792      0.00000
    205       3.1236      0.00000
    206       3.1676      0.00000
    207       3.1917      0.00000
    208       3.2207      0.00000
    209       3.2276      0.00000
    210       4.5307      0.00000
    211       4.7199      0.00000
    212       4.7892      0.00000
    213       4.8108      0.00000
    214       4.8136      0.00000
    215       4.8262      0.00000
    216       4.9036      0.00000
    217       5.0920      0.00000
    218       5.1640      0.00000
    219       5.4352      0.00000
    220       5.5415      0.00000
    221       5.7879      0.00000
    222       5.8221      0.00000
    223       5.8407      0.00000
    224       5.8538      0.00000
    225       5.8730      0.00000
    226       6.1694      0.00000
    227       6.3736      0.00000
    228       6.6090      0.00000
    229       6.6213      0.00000
    230       6.6217      0.00000
    231       6.8403      0.00000
    232       6.9985      0.00000
    233       7.1199      0.00000
    234       7.1480      0.00000
    235       7.1540      0.00000
    236       7.1582      0.00000
    237       7.1649      0.00000
    238       7.2167      0.00000
    239       7.2530      0.00000
    240       7.6469      0.00000

 k-point     2 :       0.2000    0.0000    0.0000
  band No.  band energies     occupation 
      1      -8.7515      2.00000
      2      -7.6266      2.00000
      3      -6.9960      2.00000
      4      -6.9034      2.00000
      5      -6.5608      2.00000
      6      -6.5514      2.00000
      7      -6.3607      2.00000
      8      -6.2629      2.00000
      9      -6.2340      2.00000
     10      -6.2120      2.00000
     11      -6.1132      2.00000
     12      -6.0091      2.00000
     13      -5.9851      2.00000
     14      -5.8499      2.00000
     15      -5.8333      2.00000
     16      -5.8272      2.00000
     17      -5.7372      2.00000
     18      -5.5402      2.00000
     19      -5.4270      2.00000
     20      -5.4199      2.00000
     21      -5.4063      2.00000
     22      -5.3912      2.00000
     23      -5.3335      2.00000
     24      -5.3052      2.00000
     25      -5.2761      2.00000
     26      -5.2277      2.00000
     27      -5.2218      2.00000
     28      -5.2068      2.00000
     29      -5.1698      2.00000
     30      -5.1220      2.00000
     31      -5.1128      2.00000
     32      -5.0351      2.00000
     33      -5.0172      2.00000
     34      -5.0126      2.00000
     35      -5.0089      2.00000
     36      -4.8768      2.00000
     37      -4.8112      2.00000
     38      -4.7874      2.00000
     39      -4.7666      2.00000
     40      -4.7528      2.00000
     41      -4.5915      2.00000
     42      -4.5030      2.00000
     43      -4.4959      2.00000
     44      -4.4525      2.00000
     45      -4.4189      2.00000
     46      -4.3980      2.00000
     47      -4.3906      2.00000
     48      -4.3101      2.00000
     49      -4.2137      2.00000
     50      -4.1675      2.00000
     51      -4.1314      2.00000
     52      -4.1079      2.00000
     53      -4.0811      2.00000
     54      -4.0545      2.00000
     55      -4.0387      2.00000
     56      -3.8380      2.00000
     57      -3.7406      2.00000
     58      -3.7338      2.00000
     59      -3.6892      2.00000
     60      -3.6638      2.00000
     61      -3.6263      2.00000
     62      -3.5918      2.00000
     63      -3.5602      2.00000
     64      -3.5551      2.00000
     65      -3.5352      2.00000
     66      -3.5238      2.00000
     67      -3.4735      2.00000
     68      -3.4507      2.00000
     69      -3.4139      2.00000
     70      -3.3788      2.00000
     71      -3.3631      2.00000
     72      -3.3461      2.00000
     73      -3.2683      2.00000
     74      -3.2592      2.00000
     75      -3.2390      2.00000
     76      -3.1862      2.00000
     77      -3.1800      2.00000
     78      -3.1580      2.00000
     79      -3.1319      2.00000
     80      -3.1091      2.00000
     81      -3.0989      2.00000
     82      -3.0654      2.00000
     83      -3.0247      2.00000
     84      -2.9979      2.00000
     85      -2.9670      2.00000
     86      -2.9541      2.00000
     87      -2.9459      2.00000
     88      -2.9355      2.00000
     89      -2.9151      2.00000
     90      -2.8969      2.00000
     91      -2.8718      2.00000
     92      -2.8177      2.00000
     93      -2.8119      2.00000
     94      -2.7817      2.00000
     95      -2.7749      2.00000
     96      -2.7592      2.00000
     97      -2.7389      2.00000
     98      -2.7215      2.00000
     99      -2.6908      2.00000
    100      -2.6854      2.00000
    101      -2.6119      2.00000
    102      -2.5694      2.00000
    103      -2.5417      2.00000
    104      -2.5292      2.00000
    105      -2.5104      2.00000
    106      -2.5026      2.00000
    107      -2.4949      2.00000
    108      -2.4821      2.00000
    109      -2.4469      2.00000
    110      -2.4384      2.00000
    111      -2.4268      2.00000
    112      -2.4130      2.00000
    113      -2.2048      2.00000
    114      -2.0803      2.00000
    115      -2.0425      2.00000
    116      -2.0089      2.00000
    117      -2.0011      2.00000
    118      -1.9941      2.00000
    119      -1.9832      2.00000
    120      -1.9561      2.00000
    121      -1.9426      2.00000
    122      -1.8574      2.00000
    123      -1.8020      2.00000
    124      -1.7805      2.00000
    125      -1.7126      2.00000
    126      -1.6614      2.00000
    127      -1.6470      2.00000
    128      -1.6226      2.00000
    129      -1.5940      2.00000
    130      -1.5635      2.00000
    131      -1.5499      2.00000
    132      -1.5321      2.00000
    133      -1.5202      2.00000
    134      -1.4486      2.00000
    135      -1.4168      2.00000
    136      -1.4025      2.00000
    137      -1.3871      2.00000
    138      -1.3762      2.00000
    139      -1.2969      2.00000
    140      -1.1967      2.00000
    141      -1.1845      2.00000
    142      -1.1595      2.00000
    143      -1.1544      2.00000
    144      -1.1402      2.00000
    145      -1.1228      2.00000
    146      -1.0710      2.00000
    147      -1.0365      2.00000
    148      -1.0050      2.00000
    149      -0.9929      2.00000
    150      -0.9840      2.00000
    151      -0.9424      2.00000
    152      -0.9239      2.00000
    153      -0.9050      2.00000
    154      -0.8917      2.00000
    155      -0.8221      2.00000
    156      -0.7960      2.00000
    157      -0.7810      2.00000
    158      -0.7614      2.00000
    159      -0.7275      2.00000
    160      -0.6601      2.00000
    161      -0.6416      2.00000
    162      -0.6307      2.00000
    163      -0.6030      2.00000
    164      -0.5910      2.00000
    165      -0.5632      2.00000
    166      -0.5492      2.00000
    167      -0.4855      2.00000
    168      -0.4734      2.00000
    169      -0.4223      2.00001
    170      -0.4052      2.00003
    171      -0.4030      2.00004
    172      -0.3828      2.00013
    173      -0.3660      2.00032
    174      -0.3535      2.00062
    175      -0.3438      2.00101
    176      -0.3397      2.00123
    177      -0.3315      2.00181
    178      -0.2715      2.01844
    179      -0.2671      2.02115
    180      -0.1347      1.82792
    181      -0.1180      1.64510
    182      -0.1049      1.46662
    183      -0.0937      1.29403
    184      -0.0782      1.03630
    185      -0.0698      0.89509
    186      -0.0381      0.40641
    187      -0.0293      0.29681
    188      -0.0089      0.10124
    189       0.0023      0.02862
    190       0.0696     -0.05904
    191       0.1076     -0.02614
    192       0.1306     -0.01283
    193       0.1896     -0.00112
    194       0.2900     -0.00000
    195       0.2986     -0.00000
    196       0.3129     -0.00000
    197       0.3559     -0.00000
    198       0.6821     -0.00000
    199       0.7479     -0.00000
    200       1.2400     -0.00000
    201       1.4670     -0.00000
    202       1.4846     -0.00000
    203       1.6000     -0.00000
    204       2.3928     -0.00000
    205       2.7752      0.00000
    206       2.9055      0.00000
    207       3.5356      0.00000
    208       3.6440      0.00000
    209       3.6592      0.00000
    210       3.7450      0.00000
    211       3.9885      0.00000
    212       4.4075      0.00000
    213       4.6042      0.00000
    214       4.7476      0.00000
    215       4.9328      0.00000
    216       4.9951      0.00000
    217       5.0012      0.00000
    218       5.1946      0.00000
    219       5.2578      0.00000
    220       5.4670      0.00000
    221       5.6606      0.00000
    222       5.6840      0.00000
    223       5.7898      0.00000
    224       5.9076      0.00000
    225       6.1236      0.00000
    226       6.2093      0.00000
    227       6.2831      0.00000
    228       6.3227      0.00000
    229       6.3508      0.00000
    230       6.5649      0.00000
    231       6.7074      0.00000
    232       6.7483      0.00000
    233       6.7893      0.00000
    234       6.8828      0.00000
    235       6.9389      0.00000
    236       7.0662      0.00000
    237       7.2887      0.00000
    238       7.4613      0.00000
    239       7.5271      0.00000
    240       7.5957      0.00000

 k-point     3 :       0.2000    0.2000    0.0000
  band No.  band energies     occupation 
      1      -8.7528      2.00000
      2      -7.6381      2.00000
      3      -7.0545      2.00000
      4      -6.8481      2.00000
      5      -6.5621      2.00000
      6      -6.5543      2.00000
      7      -6.3618      2.00000
      8      -6.2789      2.00000
      9      -6.2132      2.00000
     10      -6.2107      2.00000
     11      -6.1596      2.00000
     12      -6.0030      2.00000
     13      -5.8926      2.00000
     14      -5.8547      2.00000
     15      -5.8321      2.00000
     16      -5.8302      2.00000
     17      -5.8048      2.00000
     18      -5.5315      2.00000
     19      -5.4208      2.00000
     20      -5.4151      2.00000
     21      -5.4120      2.00000
     22      -5.3459      2.00000
     23      -5.3324      2.00000
     24      -5.2924      2.00000
     25      -5.2743      2.00000
     26      -5.2710      2.00000
     27      -5.2275      2.00000
     28      -5.2177      2.00000
     29      -5.1216      2.00000
     30      -5.1109      2.00000
     31      -5.1037      2.00000
     32      -5.0290      2.00000
     33      -5.0185      2.00000
     34      -5.0103      2.00000
     35      -5.0049      2.00000
     36      -4.8397      2.00000
     37      -4.8102      2.00000
     38      -4.7837      2.00000
     39      -4.7747      2.00000
     40      -4.7665      2.00000
     41      -4.5654      2.00000
     42      -4.4958      2.00000
     43      -4.4899      2.00000
     44      -4.4608      2.00000
     45      -4.4222      2.00000
     46      -4.4168      2.00000
     47      -4.3922      2.00000
     48      -4.3326      2.00000
     49      -4.2126      2.00000
     50      -4.1767      2.00000
     51      -4.1280      2.00000
     52      -4.1198      2.00000
     53      -4.0713      2.00000
     54      -4.0482      2.00000
     55      -4.0266      2.00000
     56      -3.8244      2.00000
     57      -3.7372      2.00000
     58      -3.7350      2.00000
     59      -3.6720      2.00000
     60      -3.6572      2.00000
     61      -3.6259      2.00000
     62      -3.5869      2.00000
     63      -3.5803      2.00000
     64      -3.5541      2.00000
     65      -3.5346      2.00000
     66      -3.5267      2.00000
     67      -3.5038      2.00000
     68      -3.4447      2.00000
     69      -3.3925      2.00000
     70      -3.3705      2.00000
     71      -3.3631      2.00000
     72      -3.3551      2.00000
     73      -3.3005      2.00000
     74      -3.2784      2.00000
     75      -3.2692      2.00000
     76      -3.1859      2.00000
     77      -3.1645      2.00000
     78      -3.1579      2.00000
     79      -3.1347      2.00000
     80      -3.0834      2.00000
     81      -3.0662      2.00000
     82      -3.0659      2.00000
     83      -3.0526      2.00000
     84      -2.9811      2.00000
     85      -2.9650      2.00000
     86      -2.9645      2.00000
     87      -2.9347      2.00000
     88      -2.9294      2.00000
     89      -2.9061      2.00000
     90      -2.9022      2.00000
     91      -2.8678      2.00000
     92      -2.8318      2.00000
     93      -2.8052      2.00000
     94      -2.7848      2.00000
     95      -2.7775      2.00000
     96      -2.7604      2.00000
     97      -2.7496      2.00000
     98      -2.7248      2.00000
     99      -2.7100      2.00000
    100      -2.6938      2.00000
    101      -2.6117      2.00000
    102      -2.5614      2.00000
    103      -2.5503      2.00000
    104      -2.5476      2.00000
    105      -2.5226      2.00000
    106      -2.5105      2.00000
    107      -2.5023      2.00000
    108      -2.4929      2.00000
    109      -2.4503      2.00000
    110      -2.4378      2.00000
    111      -2.4318      2.00000
    112      -2.4194      2.00000
    113      -2.1625      2.00000
    114      -2.0774      2.00000
    115      -2.0484      2.00000
    116      -2.0347      2.00000
    117      -2.0077      2.00000
    118      -1.9921      2.00000
    119      -1.9812      2.00000
    120      -1.9514      2.00000
    121      -1.9348      2.00000
    122      -1.9105      2.00000
    123      -1.8228      2.00000
    124      -1.7912      2.00000
    125      -1.7163      2.00000
    126      -1.6641      2.00000
    127      -1.6539      2.00000
    128      -1.6139      2.00000
    129      -1.6125      2.00000
    130      -1.5660      2.00000
    131      -1.5573      2.00000
    132      -1.5371      2.00000
    133      -1.5328      2.00000
[...]
    148      -1.1315      2.00000
    149      -1.1025      2.00000
    150      -1.0760      2.00000
    151      -1.0531      2.00000
    152      -1.0349      2.00000
    153      -1.0280      2.00000
    154      -0.9006      2.00000
    155      -0.8651      2.00000
    156      -0.8034      2.00000
    157      -0.7391      2.00000
    158      -0.7191      2.00000
    159      -0.6378      2.00000
    160      -0.6203      2.00000
    161      -0.5867      2.00000
    162      -0.5183      2.00000
    163      -0.5058      2.00000
    164      -0.4965      2.00000
    165      -0.4094      2.00003
    166      -0.3974      2.00005
    167      -0.3169      2.00345
    168      -0.2978      2.00745
    169      -0.2790      2.01454
    170      -0.2741      2.01705
    171      -0.2661      2.02178
    172      -0.2400      2.04249
    173      -0.2165      2.06321
    174      -0.1792      2.05617
    175      -0.1211      1.68395
    176      -0.1090      1.52525
    177      -0.0844      1.14094
    178      -0.0664      0.83711
    179      -0.0571      0.68507
    180      -0.0517      0.60115
    181      -0.0419      0.45822
    182       0.0244     -0.05115
    183       0.1123     -0.02289
    184       0.1489     -0.00658
    185       0.1587     -0.00446
    186       0.1627     -0.00377
    187       0.1780     -0.00193
    188       0.2262     -0.00016
    189       0.2650     -0.00002
    190       0.3585     -0.00000
    191       0.4635     -0.00000
    192       1.1537     -0.00000
    193       1.3360     -0.00000
    194       1.3480     -0.00000
    195       1.5055     -0.00000
    196       1.5721     -0.00000
    197       1.6456     -0.00000
    198       1.7072     -0.00000
    199       1.7127     -0.00000
    200       2.0438     -0.00000
    201       2.3039     -0.00000
    202       2.3402     -0.00000
    203       2.5261     -0.00000
    204       2.7802      0.00000
    205       2.8007      0.00000
    206       2.8910      0.00000
    207       2.9359      0.00000
    208       3.0649      0.00000
    209       3.1845      0.00000
    210       3.2567      0.00000
    211       3.2936      0.00000
    212       3.5686      0.00000
    213       3.7162      0.00000
    214       3.7583      0.00000
    215       4.1693      0.00000
    216       4.3954      0.00000
    217       4.4356      0.00000
    218       4.6730      0.00000
    219       4.7212      0.00000
    220       5.4393      0.00000
    221       5.5121      0.00000
    222       5.5579      0.00000
    223       5.6268      0.00000
    224       5.7268      0.00000
    225       5.8024      0.00000
    226       5.8754      0.00000
    227       5.9675      0.00000
    228       5.9971      0.00000
    229       6.0057      0.00000
    230       6.0327      0.00000
    231       6.2585      0.00000
    232       6.4540      0.00000
    233       6.5573      0.00000
    234       6.6526      0.00000
    235       6.8032      0.00000
    236       6.9669      0.00000
    237       6.9777      0.00000
    238       7.1177      0.00000
    239       7.2194      0.00000
    240       7.3235      0.00000


--------------------------------------------------------------------------------------------------------


 soft charge-density along one line, spin component           1
         0         1         2         3         4         5         6         7         8         9
 total charge-density along one line
 
 pseudopotential strength for first ion, spin component:           1
 -6.580   0.002  -0.000  -0.009  -0.001  -6.675   0.002  -0.000
  0.002  -6.466   0.001   0.001  -0.011   0.002  -6.564   0.001
 -0.000   0.001  -6.455   0.001  -0.000  -0.000   0.001  -6.553
 -0.009   0.001   0.001  -6.466   0.002  -0.009   0.001   0.001
 -0.001  -0.011  -0.000   0.002  -6.580  -0.001  -0.011  -0.000
 -6.675   0.002  -0.000  -0.009  -0.001  -6.754   0.001  -0.000
  0.002  -6.564   0.001   0.001  -0.011   0.001  -6.646   0.001
 -0.000   0.001  -6.553   0.001  -0.000  -0.000   0.001  -6.635
 -0.009   0.001   0.001  -6.563   0.002  -0.009   0.001   0.001
 -0.001  -0.011  -0.000   0.002  -6.674  -0.001  -0.010  -0.000
 -0.000  -0.001  -0.035  -0.001  -0.000  -0.000  -0.001  -0.034
 -0.000  -0.001  -0.052  -0.001  -0.000  -0.000  -0.001  -0.051
 -0.000  -0.004   0.000   0.000   0.000  -0.000  -0.004   0.000
  0.000   0.000  -0.008   0.000   0.000   0.000   0.000  -0.008
  0.000   0.000   0.000  -0.004  -0.000   0.000   0.000   0.000
 -0.000  -0.004   0.000   0.000   0.001  -0.000  -0.003   0.000
  0.000  -0.000  -0.008  -0.000   0.000   0.000  -0.000  -0.008
  0.000   0.000   0.000  -0.004  -0.000   0.000   0.000   0.000
 total augmentation occupancy for first ion, spin component:           1
  3.229   0.009   0.011  -0.255  -0.025  -1.899  -0.006  -0.006   0.077   0.016   0.004  -0.001   0.006  -0.001  -0.041  -0.000
  0.009   4.218   0.017   0.018  -0.266  -0.005  -2.169  -0.010  -0.010   0.093   0.009  -0.003  -0.244  -0.001   0.000   0.014
  0.011   0.017   4.382   0.029   0.006  -0.007  -0.011  -2.564  -0.018  -0.004   0.845  -0.184  -0.003  -0.281  -0.004   0.000
 -0.255   0.018   0.029   4.240   0.009   0.086  -0.010  -0.017  -2.181  -0.005   0.014  -0.005   0.000  -0.001  -0.244  -0.000
 -0.025  -0.266   0.006   0.009   3.258   0.016   0.084  -0.004  -0.006  -1.917   0.002  -0.000  -0.047  -0.000   0.006   0.004
 -1.899  -0.005  -0.007   0.086   0.016   2.217   0.003   0.003   0.041  -0.010  -0.003   0.000  -0.007  -0.000   0.040   0.000
 -0.006  -2.169  -0.011  -0.010   0.084   0.003   1.968   0.006   0.004   0.037  -0.005   0.001   0.236  -0.001  -0.001  -0.019
 -0.006  -0.010  -2.564  -0.017  -0.004   0.003   0.006   2.533   0.010   0.002  -0.710   0.127   0.003   0.337   0.005  -0.000
  0.077  -0.010  -0.018  -2.181  -0.006   0.041   0.004   0.010   1.973   0.003  -0.009   0.002  -0.001  -0.002   0.235   0.000
  0.016   0.093  -0.004  -0.005  -1.917  -0.010   0.037   0.002   0.003   2.228  -0.002   0.000   0.048  -0.000  -0.007  -0.004
  0.004   0.009   0.845   0.014   0.002  -0.003  -0.005  -0.710  -0.009  -0.002   2.507  -0.575  -0.003   0.191  -0.005   0.000
 -0.001  -0.003  -0.184  -0.005  -0.000   0.000   0.001   0.127   0.002   0.000  -0.575   0.148   0.001  -0.068   0.001  -0.000
  0.006  -0.244  -0.003   0.000  -0.047  -0.007   0.236   0.003  -0.001   0.048  -0.003   0.001   0.254  -0.000  -0.000  -0.018
 -0.001  -0.001  -0.281  -0.001  -0.000  -0.000  -0.001   0.337  -0.002  -0.000   0.191  -0.068  -0.000   0.142  -0.000   0.000
 -0.041   0.000  -0.004  -0.244   0.006   0.040  -0.001   0.005   0.235  -0.007  -0.005   0.001  -0.000  -0.000   0.253   0.000
 -0.000   0.014   0.000  -0.000   0.004   0.000  -0.019  -0.000   0.000  -0.004   0.000  -0.000  -0.018   0.000   0.000   0.001
 -0.000   0.000   0.008   0.000  -0.000   0.000   0.000  -0.023   0.000   0.000  -0.021   0.007   0.000  -0.011   0.000  -0.000
  0.003  -0.000   0.000   0.014  -0.000  -0.003   0.000  -0.000  -0.019   0.000   0.000  -0.000   0.000   0.000  -0.018  -0.000


------------------------ aborting loop because EDIFF is reached ----------------------------------------


    CHARGE:  cpu time      0.7515: real time      0.7576
    FORLOC:  cpu time      0.0171: real time      0.0172
    FORNL :  cpu time      2.6257: real time      2.6465
    STRESS:  cpu time      8.3340: real time      8.5979
    FORCOR:  cpu time      3.1094: real time      3.1264
    FORHAR:  cpu time      0.0159: real time      0.0160
    MIXING:  cpu time      0.0060: real time      0.0061
    OFIELD:  cpu time      0.0000: real time      0.0000

  FORCE on cell =-STRESS in cart. coord.  units (eV):
  Direction    XX          YY          ZZ          XY          YZ          ZX
  --------------------------------------------------------------------------------------
  Alpha Z   797.33613   797.33613   797.33613
  Ewald  151921.33959151960.51234************   -33.38104    -5.79650    -9.42829
  Hartree157885.16785157896.90890************   -10.00607    -1.57488    -2.57805
  E(xc)   -1657.96153 -1657.50100 -1666.80022    -0.39184    -0.07573    -0.12262
  Local  ************************321305.17743    37.06803     5.58822     9.11551
  n-local   108.66948   109.59275    87.24562    -0.73783    -0.42955    -0.68129
  augment  1892.49507  1890.23760  1954.06597     1.88885     0.80244     1.30065
  Kinetic  5213.81006  5206.84904  5369.28184     5.89727     1.50865     2.44027
  Fock        0.00000     0.00000     0.00000     0.00000     0.00000     0.00000
  -------------------------------------------------------------------------------------
  Total     -32.80005   -33.18493     2.23080     0.33736     0.02264     0.04617
  in kB     -33.89362   -34.29133     2.30517     0.34861     0.02340     0.04771
  external pressure =      -21.96 kB  Pullay stress =        0.00 kB


 VOLUME and BASIS-vectors are now :
 -----------------------------------------------------------------------------
  energy-cutoff  :      680.29
  volume of cell :     1550.48
      direct lattice vectors                 reciprocal lattice vectors
     8.468310000  0.000000000  0.000000000     0.118087316 -0.068177744  0.000000000
     4.234155000  7.333771587  0.000000000     0.000000000  0.136355488  0.000000000
     0.000000000  0.000000000 24.965661990     0.000000000  0.000000000  0.040055016

  length of vectors
     8.468310000  8.468310000 24.965661990     0.136355488  0.136355488  0.040055016


 FORCES acting on ions
    electron-ion (+dipol)            ewald-force                    non-local-force                 convergence-correction
 -----------------------------------------------------------------------------------------------
   -.386E+01 -.223E+01 0.248E+04   0.382E+01 0.221E+01 -.248E+04   0.104E+00 0.607E-01 -.129E+01   -.248E-01 -.146E-01 0.166E+00
   -.459E+00 -.389E+01 0.248E+04   0.478E+00 0.386E+01 -.247E+04   0.276E-01 0.106E+00 -.128E+01   -.388E-01 -.228E-01 0.115E+00
   0.367E+01 -.561E+01 0.248E+04   -.377E+01 0.559E+01 -.247E+04   -.163E-01 0.100E+00 -.128E+01   0.638E-01 0.106E-03 0.148E+00
   -.360E+01 0.155E+01 0.248E+04   0.358E+01 -.152E+01 -.247E+04   0.106E+00 -.285E-01 -.128E+01   -.390E-01 -.252E-01 0.113E+00
   0.271E-01 0.217E-01 0.247E+04   -.670E-01 -.425E-01 -.247E+04   0.111E-02 0.916E-03 -.131E+01   0.305E-01 0.147E-01 0.129E+00
   0.333E+01 -.222E+01 0.247E+04   -.333E+01 0.224E+01 -.247E+04   -.691E-01 0.252E-01 -.130E+01   0.819E-02 -.370E-01 0.140E+00
   -.302E+01 0.598E+01 0.248E+04   0.296E+01 -.606E+01 -.247E+04   0.785E-01 -.637E-01 -.128E+01   0.322E-01 0.583E-01 0.147E+00
   -.265E+00 0.399E+01 0.247E+04   0.277E+00 -.400E+01 -.247E+04   -.129E-01 -.723E-01 -.130E+01   -.255E-01 0.272E-01 0.141E+00
   0.367E+01 0.211E+01 0.247E+04   -.363E+01 -.209E+01 -.247E+04   -.987E-01 -.565E-01 -.129E+01   -.665E-02 -.844E-03 0.107E+00
   -.597E+01 -.348E+01 0.833E+03   0.602E+01 0.350E+01 -.833E+03   0.140E+00 0.844E-01 -.279E+00   -.874E-01 -.515E-01 0.166E+00
   0.298E+01 -.400E+01 0.834E+03   -.305E+01 0.393E+01 -.834E+03   0.213E-02 0.116E+00 -.264E+00   0.698E-01 0.667E-02 0.198E+00
   0.143E+01 -.660E+01 0.836E+03   -.151E+01 0.659E+01 -.835E+03   0.105E-01 0.164E+00 -.338E+00   0.167E-01 -.470E-01 0.199E+00
   -.195E+01 0.459E+01 0.834E+03   0.185E+01 -.461E+01 -.834E+03   0.100E+00 -.539E-01 -.265E+00   0.418E-01 0.530E-01 0.195E+00
   0.336E+00 0.232E+00 0.839E+03   -.363E+00 -.245E+00 -.838E+03   0.492E-01 0.286E-01 -.388E+00   -.712E-02 -.761E-02 0.201E+00
   0.103E+01 -.156E+01 0.835E+03   -.971E+00 0.159E+01 -.834E+03   -.701E-01 0.415E-01 -.315E+00   -.336E-01 -.501E-01 0.165E+00
   -.500E+01 0.451E+01 0.836E+03   0.495E+01 -.458E+01 -.836E+03   0.146E+00 -.713E-01 -.339E+00   -.320E-01 0.420E-01 0.191E+00
   -.803E+00 0.163E+01 0.834E+03   0.862E+00 -.159E+01 -.834E+03   -.250E-02 -.773E-01 -.314E+00   -.563E-01 -.138E-02 0.160E+00
   0.589E+01 0.336E+01 0.831E+03   -.590E+01 -.337E+01 -.831E+03   -.151E+00 -.855E-01 -.255E+00   0.897E-01 0.567E-01 0.187E+00
   -.395E+01 -.916E+00 -.826E+03   0.411E+01 0.107E+01 0.826E+03   -.113E+00 -.813E-01 0.402E+00   -.516E-01 -.749E-01 -.258E-02
   0.195E+01 0.119E+01 -.838E+03   -.200E+01 -.122E+01 0.837E+03   0.161E-01 0.110E-01 0.609E+00   0.282E-01 0.116E-01 0.549E-01
   0.212E+01 0.411E+00 -.811E+03   -.217E+01 -.391E+00 0.811E+03   0.211E-01 0.827E-02 0.488E+00   0.261E-01 -.272E-01 -.325E-02
   0.148E+00 0.850E+00 -.827E+03   -.260E+00 -.108E+01 0.827E+03   0.507E-01 0.210E+00 0.246E+00   0.581E-01 0.206E-01 0.249E-01
   0.139E+01 0.159E+01 -.811E+03   -.140E+01 -.163E+01 0.811E+03   0.156E-01 0.198E-01 0.490E+00   -.541E-02 0.283E-01 -.581E-03
   -.112E+01 -.646E+00 -.814E+03   0.121E+01 0.699E+00 0.814E+03   -.292E-01 -.182E-01 0.529E+00   -.556E-01 -.356E-01 -.784E-02
   0.147E+01 0.758E+00 -.811E+03   -.151E+01 -.795E+00 0.811E+03   0.737E-02 0.702E-02 0.549E+00   0.319E-01 0.279E-01 -.202E-01
   -.292E+01 -.286E+01 -.826E+03   0.313E+01 0.292E+01 0.826E+03   -.123E+00 -.625E-01 0.402E+00   -.873E-01 0.125E-02 0.408E-02
   0.808E+00 -.323E+00 -.827E+03   -.107E+01 0.337E+00 0.827E+03   0.208E+00 -.609E-01 0.246E+00   0.517E-01 0.459E-01 0.269E-01
   -.184E+01 -.981E+00 -.244E+04   0.125E+01 0.648E+00 0.244E+04   0.611E+00 0.349E+00 0.145E+01   -.162E-01 -.135E-01 -.767E-01
   -.580E+01 0.226E+02 -.246E+04   0.575E+01 -.222E+02 0.246E+04   0.516E-01 -.450E+00 -.444E+00   -.438E-02 0.314E-01 -.316E-01
   -.120E+01 -.291E-01 -.245E+04   0.124E+01 0.193E-01 0.245E+04   -.500E-01 0.200E-03 0.118E+01   0.136E-01 0.126E-01 -.802E-01
   0.167E+02 -.163E+02 -.246E+04   -.163E+02 0.160E+02 0.246E+04   -.365E+00 0.272E+00 -.444E+00   0.268E-01 -.277E-01 -.328E-01
   -.121E+01 -.544E+00 -.245E+04   0.218E+01 0.111E+01 0.244E+04   -.948E+00 -.553E+00 0.146E+01   -.177E-01 -.162E-01 -.658E-01
   -.134E+01 0.123E+00 -.245E+04   0.138E+01 -.557E-01 0.245E+04   -.111E-01 -.733E-02 0.117E+01   -.202E-01 -.581E-01 -.664E-01
   -.613E+00 -.113E+01 -.245E+04   0.624E+00 0.116E+01 0.245E+04   -.314E-01 -.431E-01 0.118E+01   0.195E-01 0.131E-01 -.756E-01
   -.557E+00 -.124E+01 -.245E+04   0.626E+00 0.123E+01 0.245E+04   -.157E-01 -.113E-01 0.117E+01   -.535E-01 0.185E-01 -.602E-01
   0.116E+01 0.549E+00 -.245E+04   -.114E+01 -.551E+00 0.245E+04   -.473E-01 -.214E-01 0.122E+01   0.274E-01 0.274E-01 -.280E-01
   -.203E+01 -.116E+01 -.314E+03   0.219E+01 0.125E+01 0.316E+03   -.222E+00 -.128E+00 -.174E+01   0.506E-03 -.183E-02 -.432E-02
 -----------------------------------------------------------------------------------------------
   0.575E+00 0.334E+00 0.185E+01   0.128E-12 0.184E-12 -.512E-11   -.631E+00 -.342E+00 -.420E+01   -.268E-01 -.157E-01 0.242E+01
 
 
 POSITION                                       TOTAL-FORCE (eV/Angst)
 -----------------------------------------------------------------------------------
      0.00000      0.00000      8.50000         0.041866      0.023126     -0.127345
      2.82843      0.00000      8.50000         0.009945      0.049036     -0.084065
      5.65685      0.00000      8.50000        -0.045471      0.081002     -0.150379
      1.41421      2.44949      8.50000         0.048461     -0.017894     -0.084140
      4.24264      2.44949      8.50000        -0.006090     -0.004604     -0.073178
      7.07107      2.44949      8.50000        -0.056791      0.003043     -0.086957
      2.82843      4.89898      8.50000         0.048344     -0.081495     -0.150420
      5.65685      4.89898      8.50000        -0.024711     -0.052064     -0.086978
      8.48528      4.89898      8.50000        -0.063099     -0.037862     -0.082361
      1.41421      0.81650     10.80940         0.103180      0.061077      0.184679
      4.24264      0.81650     10.80940         0.002503      0.049817      0.127586
      7.07107      0.81650     10.80940        -0.048728      0.105766      0.039305
      2.82843      3.26599     10.80940         0.043592     -0.022396      0.127095
      5.65685      3.26599     10.80940         0.016542      0.008424      0.037387
      8.48528      3.26599     10.80940        -0.037550      0.026044      0.154240
      4.24264      5.71548     10.80940         0.067315     -0.095598      0.038279
      7.07107      5.71548     10.80940         0.002060     -0.043539      0.154118
      9.89949      5.71548     10.80940        -0.067970     -0.038661      0.048045
      8.50460      1.65214     13.10452         0.000129     -0.001658     -0.000640
      2.85112      1.64703     13.12278        -0.003626     -0.001410      0.002716
      5.67773      1.64635     13.08772         0.001277      0.001779     -0.001435
      9.90847      4.08175     13.11076        -0.001058      0.000023      0.002076
      4.26448      4.09454     13.08740         0.001661      0.003149     -0.000576
      7.08738      4.09324     13.09150         0.003160      0.000576     -0.006715
     11.31786      6.53486     13.08394        -0.005873     -0.001730      0.002035
      5.68134      6.54174     13.10445         0.000575     -0.000365     -0.000296
      8.48806      6.54128     13.11070        -0.000283      0.000441      0.001915
      0.02092      0.01386     15.40710         0.005720      0.003076     -0.000690
      2.88738      0.01648     15.50126         0.005282      0.002372      0.003854
      5.69686      0.02699     15.41947         0.003582      0.003623      0.000590
      1.45691      2.49358     15.50125         0.005191      0.002935      0.004315
      4.32046      2.49615     15.42042         0.002446      0.000205     -0.009048
      7.10509      2.47262     15.41990         0.004945      0.002246     -0.001620
      2.87141      4.92174     15.41928         0.001045      0.001859      0.001592
      5.69328      4.91965     15.41943         0.001935      0.001551      0.000128
      8.51542      4.91681     15.42507         0.001977      0.004625     -0.000483
      2.31536      1.33779     16.50921        -0.061483     -0.036518      0.017373
 -----------------------------------------------------------------------------------
    total drift:                               -0.082180     -0.023564      0.072684


--------------------------------------------------------------------------------------------------------



  FREE ENERGIE OF THE ION-ELECTRON SYSTEM (eV)
  ---------------------------------------------------
  free  energy   TOTEN  =      -104.55573180 eV

  energy  without entropy=     -104.46318168  energy(sigma->0) =     -104.52488176
 


--------------------------------------------------------------------------------------------------------


    POTLOK:  cpu time      2.3747: real time      2.4020


--------------------------------------------------------------------------------------------------------


 writing wavefunctions
     LOOP+:  cpu time    142.0774: real time    144.5107
    4ORBIT:  cpu time      0.0000: real time      0.0000

 total amount of memory used by VASP MPI-rank0   148527. kBytes
=======================================================================

   base      :      30000. kBytes
   nonlr-proj:      22454. kBytes
   fftplans  :       5213. kBytes
   grid      :      24541. kBytes
   one-center:        575. kBytes
   wavefun   :      65744. kBytes
 
  
  
 General timing and accounting informations for this job:
 ========================================================
  
                  Total CPU time used (sec):      155.364
                            User time (sec):      151.960
                          System time (sec):        3.404
                         Elapsed time (sec):      163.061
  
                   Maximum memory used (kb):      632820.
                   Average memory used (kb):          N/A
  
                          Minor page faults:       240405
                          Major page faults:          723
                 Voluntary context switches:         5492
