<?xml version="1.0" encoding="ISO-8859-1"?>
<modeling>
 <generator>
  <i name="program" type="string">vasp </i>
  <i name="version" type="string">6.4.2  </i>
  <i name="subversion" type="string">20Jul23 (build Mar 01 2024 16:46:03) complex                          parallel </i>
  <i name="platform" type="string">LinuxIFC </i>
  <i name="date" type="string">2025 01 15 </i>
  <i name="time" type="string">11:13:02 </i>
 </generator>
 <incar>
  <i type="string" name="ALGO">Fast</i>
  <i type="int" name="ISPIN">     1</i>
  <i type="int" name="IBRION">    -1</i>
  <i name="EDIFF">      0.00001000</i>
  <i type="int" name="ISYM">     0</i>
  <i name="ENCUT">    680.29000000</i>
  <i type="string" name="LREAL">Auto</i>
  <i type="int" name="ISMEAR">     1</i>
  <i name="SIGMA">      0.10000000</i>
  <i type="string" name="GGA">BF</i>
  <i type="logical" name="LUSE_VDW"> T  </i>
  <i name="Zab_VDW">     -1.88670000</i>
 </incar>
 <primitive_cell>
  <structure name="primitive_cell" >
   <crystal>
    <varray name="basis" >
     <v>       8.46831000       0.00000000       0.00000000 </v>
     <v>       4.23415500       7.33377159       0.00000000 </v>
     <v>       0.00000000       0.00000000      24.96566199 </v>
    </varray>
    <i name="volume">   1550.48373159 </i>
    <varray name="rec_basis" >
     <v>       0.11808732      -0.06817774       0.00000000 </v>
     <v>       0.00000000       0.13635549       0.00000000 </v>
     <v>       0.00000000       0.00000000       0.04005502 </v>
    </varray>
   </crystal>
   <varray name="positions" >
    <v>       0.00000000       0.00000000       0.34046764 </v>
    <v>       0.33400137       0.00000000       0.34046764 </v>
    <v>       0.66800274       0.00000000       0.34046764 </v>
    <v>       1.00000000       0.33400137       0.34046764 </v>
    <v>       0.33400137       0.33400137       0.34046764 </v>
    <v>       0.66800274       0.33400137       0.34046764 </v>
    <v>       1.00000000       0.66800274       0.34046764 </v>
    <v>       0.33400137       0.66800274       0.34046764 </v>
    <v>       0.66800274       0.66800274       0.34046764 </v>
    <v>       0.11133379       0.11133379       0.43297074 </v>
    <v>       0.44533516       0.11133379       0.43297074 </v>
    <v>       0.77933653       0.11133379       0.43297074 </v>
    <v>       0.11133379       0.44533516       0.43297074 </v>
    <v>       0.44533516       0.44533516       0.43297074 </v>
    <v>       0.77933653       0.44533516       0.43297074 </v>
    <v>       0.11133379       0.77933653       0.43297074 </v>
    <v>       0.44533516       0.77933653       0.43297074 </v>
    <v>       0.77933653       0.77933653       0.43297074 </v>
    <v>       0.89164623       0.22527828       0.52490160 </v>
    <v>       0.22439019       0.22458112       0.52563311 </v>
    <v>       0.55822361       0.22448952       0.52422904 </v>
    <v>       0.89177967       0.55656881       0.52515179 </v>
    <v>       0.22442470       0.55831263       0.52421591 </v>
    <v>       0.55786191       0.55813604       0.52438005 </v>
    <v>       0.89096318       0.89106405       0.52407725 </v>
    <v>       0.22489309       0.89200231       0.52489904 </v>
    <v>       0.55636264       0.89193896       0.52514937 </v>
    <v>       0.00152597       0.00188955       0.61713181 </v>
    <v>       0.33983941       0.00224762       0.62090310 </v>
    <v>       0.67088651       0.00368000       0.61762731 </v>
    <v>       0.00203561       0.34001382       0.62090282 </v>
    <v>       0.34001002       0.34036341       0.61766499 </v>
    <v>       0.67044364       0.33715573       0.61764418 </v>
    <v>       0.00352372       0.67110657       0.61761954 </v>
    <v>       0.33689353       0.67082149       0.61762551 </v>
    <v>       0.67034519       0.67043465       0.61785150 </v>
    <v>       0.18220730       0.18241486       0.66127678 </v>
   </varray>
  </structure>
  <varray name="primitive_index" >
   <v type="int" >        1 </v>
   <v type="int" >        2 </v>
   <v type="int" >        3 </v>
   <v type="int" >        4 </v>
   <v type="int" >        5 </v>
   <v type="int" >        6 </v>
   <v type="int" >        7 </v>
   <v type="int" >        8 </v>
   <v type="int" >        9 </v>
   <v type="int" >       10 </v>
   <v type="int" >       11 </v>
   <v type="int" >       12 </v>
   <v type="int" >       13 </v>
   <v type="int" >       14 </v>
   <v type="int" >       15 </v>
   <v type="int" >       16 </v>
   <v type="int" >       17 </v>
   <v type="int" >       18 </v>
   <v type="int" >       19 </v>
   <v type="int" >       20 </v>
   <v type="int" >       21 </v>
   <v type="int" >       22 </v>
   <v type="int" >       23 </v>
   <v type="int" >       24 </v>
   <v type="int" >       25 </v>
   <v type="int" >       26 </v>
   <v type="int" >       27 </v>
   <v type="int" >       28 </v>
   <v type="int" >       29 </v>
   <v type="int" >       30 </v>
   <v type="int" >       31 </v>
   <v type="int" >       32 </v>
   <v type="int" >       33 </v>
   <v type="int" >       34 </v>
   <v type="int" >       35 </v>
   <v type="int" >       36 </v>
   <v type="int" >       37 </v>
  </varray>
 </primitive_cell>
 <kpoints>
  <generation param="Monkhorst-Pack">
   <v type="int" name="divisions">       5        5        1 </v>
   <v name="usershift">      0.00000000       0.00000000       0.00000000 </v>
   <v name="genvec1">      0.20000000      -0.00000000       0.00000000 </v>
   <v name="genvec2">      0.00000000       0.20000000       0.00000000 </v>
   <v name="genvec3">      0.00000000       0.00000000       1.00000000 </v>
   <v name="shift">      0.00000000       0.00000000       0.00000000 </v>
  </generation>
  <varray name="kpointlist" >
   <v>       0.00000000       0.00000000       0.00000000 </v>
   <v>       0.20000000       0.00000000       0.00000000 </v>
   <v>       0.20000000       0.20000000       0.00000000 </v>
   <v>       0.00000000       0.20000000       0.00000000 </v>
   <v>       0.40000000       0.00000000       0.00000000 </v>
   <v>       0.40000000       0.40000000       0.00000000 </v>
   <v>       0.00000000       0.40000000       0.00000000 </v>
   <v>       0.40000000       0.20000000       0.00000000 </v>
   <v>       0.20000000       0.40000000       0.00000000 </v>
   <v>      -0.20000000       0.20000000       0.00000000 </v>
   <v>      -0.40000000       0.20000000       0.00000000 </v>
   <v>       0.40000000      -0.40000000       0.00000000 </v>
   <v>      -0.20000000       0.40000000       0.00000000 </v>
  </varray>
  <varray name="weights" >
   <v>       0.04000000 </v>
   <v>       0.08000000 </v>
   <v>       0.08000000 </v>
   <v>       0.08000000 </v>
   <v>       0.08000000 </v>
   <v>       0.08000000 </v>
   <v>       0.08000000 </v>
   <v>       0.08000000 </v>
   <v>       0.08000000 </v>
   <v>       0.08000000 </v>
   <v>       0.08000000 </v>
   <v>       0.08000000 </v>
   <v>       0.08000000 </v>
  </varray>
 </kpoints>
 <parameters>
  <separator name="general" >
   <i type="string" name="SYSTEM">unknown system</i>
   <i type="logical" name="LCOMPAT"> F  </i>
  </separator>
  <separator name="electronic" >
   <i type="string" name="PREC">normal</i>
   <i name="ENMAX">    680.29000000</i>
   <i name="ENAUG">    400.00000000</i>
   <i name="EDIFF">      0.00001000</i>
   <i type="int" name="IALGO">    68</i>
   <i type="int" name="IWAVPR">    10</i>
   <i type="int" name="NBANDS">   240</i>
   <i type="int" name="NBANDSLOW">    -1</i>
   <i type="int" name="NBANDSHIGH">    -1</i>
   <i name="NELECT">    361.00000000</i>
   <i type="int" name="TURBO">     0</i>
   <i type="int" name="IRESTART">     0</i>
   <i type="int" name="NREBOOT">     0</i>
   <i type="int" name="NMIN">     0</i>
   <i name="EREF">      0.00000000</i>
   <separator name="electronic smearing" >
    <i type="int" name="ISMEAR">     1</i>
    <i name="SIGMA">      0.10000000</i>
    <i name="KSPACING">      0.50000000</i>
    <i type="logical" name="KGAMMA"> T  </i>
    <i type="logical" name="KBLOWUP"> T  </i>
   </separator>
   <separator name="electronic projectors" >
    <i type="logical" name="LREAL"> T  </i>
    <v name="ROPT">     -0.00050000     -0.00050000</v>
    <i type="int" name="LMAXPAW">  -100</i>
    <i type="int" name="LMAXMIX">     2</i>
    <i type="logical" name="NLSPLINE"> F  </i>
   </separator>
   <separator name="electronic startup" >
    <i type="int" name="ISTART">     1</i>
    <i type="int" name="ICHARG">     0</i>
    <i type="int" name="INIWAV">     1</i>
   </separator>
   <separator name="electronic spin" >
    <i type="int" name="ISPIN">     1</i>
    <i type="logical" name="LNONCOLLINEAR"> F  </i>
    <v name="MAGMOM">      1.00000000      1.00000000      1.00000000      1.00000000      1.00000000      1.00000000      1.00000000      1.00000000      1.00000000      1.00000000      1.00000000      1.00000000      1.00000000      1.00000000      1.00000000      1.00000000      1.00000000      1.00000000      1.00000000      1.00000000
      1.00000000      1.00000000      1.00000000      1.00000000      1.00000000      1.00000000      1.00000000      1.00000000      1.00000000      1.00000000      1.00000000      1.00000000      1.00000000      1.00000000      1.00000000      1.00000000      1.00000000</v>
    <i name="NUPDOWN">     -1.00000000</i>
    <i type="logical" name="LSORBIT"> F  </i>
    <v name="SAXIS">      0.00000000      0.00000000      1.00000000</v>
    <i type="logical" name="LSPIRAL"> F  </i>
    <v name="QSPIRAL">      0.00000000      0.00000000      0.00000000</v>
    <i type="logical" name="LZEROZ"> F  </i>
   </separator>
   <separator name="electronic exchange-correlation" >
    <i type="logical" name="LASPH"> F  </i>
    <i type="logical" name="LMETAGGA"> F  </i>
   </separator>
   <separator name="electronic convergence" >
    <i type="int" name="NELM">    60</i>
    <i type="int" name="NELMDL">     0</i>
    <i type="int" name="NELMIN">     2</i>
    <i name="ENINI">    680.29000000</i>
    <separator name="electronic convergence detail" >
     <i type="logical" name="LDIAG"> T  </i>
     <i type="logical" name="LSUBROT"> F  </i>
     <i name="WEIMIN">      0.00000000</i>
     <i name="EBREAK">      0.00000001</i>
     <i name="DEPER">      0.30000000</i>
     <i type="int" name="NRMM">     4</i>
     <i name="TIME">      0.40000000</i>
    </separator>
   </separator>
   <separator name="electronic mixer" >
    <i name="AMIX">      0.40000000</i>
    <i name="BMIX">      1.00000000</i>
    <i name="AMIN">      0.10000000</i>
    <i name="AMIX_MAG">      1.60000000</i>
    <i name="BMIX_MAG">      1.00000000</i>
    <separator name="electronic mixer details" >
     <i type="int" name="IMIX">     4</i>
     <i type="logical" name="MIXFIRST"> F  </i>
     <i type="int" name="MAXMIX">   -45</i>
     <i name="WC">    100.00000000</i>
     <i type="int" name="INIMIX">     1</i>
     <i type="int" name="MIXPRE">     1</i>
     <i type="int" name="MREMOVE">     5</i>
    </separator>
   </separator>
   <separator name="electronic dipolcorrection" >
    <i type="logical" name="LDIPOL"> F  </i>
    <i type="logical" name="LMONO"> F  </i>
    <i type="int" name="IDIPOL">     0</i>
    <i name="EPSILON">      1.00000000</i>
    <v name="DIPOL">   -100.00000000   -100.00000000   -100.00000000</v>
    <i name="EFIELD">      0.00000000</i>
   </separator>
  </separator>
  <separator name="grids" >
   <i type="int" name="NGX">    54</i>
   <i type="int" name="NGY">    54</i>
   <i type="int" name="NGZ">   160</i>
   <i type="int" name="NGXF">   108</i>
   <i type="int" name="NGYF">   108</i>
   <i type="int" name="NGZF">   320</i>
   <i type="logical" name="ADDGRID"> F  </i>
  </separator>
  <separator name="ionic" >
   <i type="int" name="NSW">     0</i>
   <i type="int" name="IBRION">    -1</i>
   <i type="int" name="MDALGO">     0</i>
   <i type="int" name="ISIF">     2</i>
   <i name="PSTRESS">      0.00000000</i>
   <i name="EDIFFG">      0.00010000</i>
   <i type="int" name="NFREE">     0</i>
   <i name="POTIM">      0.50000000</i>
   <i name="SMASS">     -3.00000000</i>
   <i name="SCALEE">      1.00000000</i>
  </separator>
  <separator name="ionic md" >
   <i name="TEBEG">      0.00010000</i>
   <i name="TEEND">      0.00010000</i>
   <i type="int" name="NBLOCK">     1</i>
   <i type="int" name="KBLOCK">     1</i>
   <i type="int" name="NPACO">   256</i>
   <i name="APACO">     10.00000000</i>
  </separator>
  <separator name="symmetry" >
   <i type="int" name="ISYM">     0</i>
   <i name="SYMPREC">      0.00001000</i>
  </separator>
  <separator name="dos" >
   <i type="int" name="LORBIT">     0</i>
   <v name="RWIGS">     -1.00000000     -1.00000000</v>
   <i type="int" name="NEDOS">   301</i>
   <i name="EMIN">     10.00000000</i>
   <i name="EMAX">    -10.00000000</i>
   <i name="EFERMI">      0.00000000</i>
  </separator>
  <separator name="writing" >
   <i type="int" name="NWRITE">     2</i>
   <i type="logical" name="LWAVE"> T  </i>
   <i type="logical" name="LDOWNSAMPLE"> F  </i>
   <i type="logical" name="LCHARG"> T  </i>
   <i type="logical" name="LPARD"> F  </i>
   <i type="logical" name="LVTOT"> F  </i>
   <i type="logical" name="LVHAR"> F  </i>
   <i type="logical" name="LELF"> F  </i>
   <i type="logical" name="LOPTICS"> F  </i>
   <v name="STM">      0.00000000      0.00000000      0.00000000      0.00000000      0.00000000      0.00000000      0.00000000</v>
  </separator>
  <separator name="performance" >
   <i type="int" name="NPAR">    48</i>
   <i type="int" name="NSIM">     4</i>
   <i type="int" name="NBLK">    -1</i>
   <i type="logical" name="LPLANE"> T  </i>
   <i type="logical" name="LSCALAPACK"> T  </i>
   <i type="logical" name="LSCAAWARE"> F  </i>
   <i type="logical" name="LSCALU"> F  </i>
   <i type="logical" name="LASYNC"> F  </i>
   <i type="logical" name="LORBITALREAL"> F  </i>
  </separator>
  <separator name="miscellaneous" >
   <i type="int" name="IDIOT">     3</i>
   <i type="int" name="PHON_NSTRUCT">    -1</i>
   <i type="logical" name="LMUSIC"> F  </i>
   <v name="POMASS">    195.08000000      1.00000000</v>
   <v name="DARWINR">      0.00000000      0.00000000</v>
   <v name="DARWINV">      1.00000000      1.00000000</v>
   <i type="logical" name="LCORR"> T  </i>
  </separator>
  <i type="logical" name="GGA_COMPAT"> T  </i>
  <i type="logical" name="LBERRY"> F  </i>
  <i type="int" name="ICORELEVEL">     0</i>
  <i type="logical" name="LDAU"> F  </i>
  <i type="int" name="I_CONSTRAINED_M">     0</i>
  <separator name="electronic exchange-correlation" >
   <i type="string" name="GGA">BF</i>
   <i type="int" name="VOSKOWN">     0</i>
   <i type="logical" name="LHFCALC"> F  </i>
   <i type="string" name="PRECFOCK"></i>
   <i type="logical" name="LSYMGRAD"> F  </i>
   <i type="logical" name="LHFONE"> F  </i>
   <i type="logical" name="LRHFCALC"> F  </i>
   <i type="logical" name="LTHOMAS"> F  </i>
   <i type="logical" name="LMODELHF"> F  </i>
   <i type="logical" name="LFOCKACE"> F  </i>
   <i name="ENCUT4O">     -1.00000000</i>
   <i type="int" name="EXXOEP">     0</i>
   <i type="int" name="FOURORBIT">     0</i>
   <i name="AEXX">      0.00000000</i>
   <i name="HFALPHA">      0.00000000</i>
   <i name="MCALPHA">      0.00000000</i>
   <i name="ALDAX">      1.00000000</i>
   <i name="AGGAX">      1.00000000</i>
   <i name="ALDAC">      1.00000000</i>
   <i name="AGGAC">      1.00000000</i>
   <i type="int" name="NKREDX">     1</i>
   <i type="int" name="NKREDY">     1</i>
   <i type="int" name="NKREDZ">     1</i>
   <i type="logical" name="SHIFTRED"> F  </i>
   <i type="logical" name="ODDONLY"> F  </i>
   <i type="logical" name="EVENONLY"> F  </i>
   <i type="int" name="LMAXFOCK">     0</i>
   <i type="int" name="NMAXFOCKAE">     0</i>
   <i type="logical" name="LFOCKAEDFT"> F  </i>
   <i name="HFSCREEN">      0.00000000</i>
   <i name="HFSCREENC">      0.00000000</i>
   <i type="int" name="NBANDSGWLOW">     0</i>
  </separator>
  <separator name="vdW DFT" >
   <i type="logical" name="LUSE_VDW"> T  </i>
   <i type="int" name="IVDW_NL">     1</i>
   <i type="logical" name="LSPIN_VDW"> F  </i>
   <i name="Zab_VDW">     -1.88670000</i>
   <i name="PARAM1">      0.12340000</i>
   <i name="PARAM2">      1.00000000</i>
   <i name="PARAM3">      0.00000000</i>
  </separator>
  <separator name="model GW" >
   <i type="int" name="MODEL_GW">     0</i>
   <i name="MODEL_EPS0">     25.14297943</i>
   <i name="MODEL_ALPHA">      1.00000000</i>
  </separator>
  <separator name="linear response parameters" >
   <i type="logical" name="LEPSILON"> F  </i>
   <i type="logical" name="LRPA"> F  </i>
   <i type="logical" name="LNABLA"> F  </i>
   <i type="logical" name="LVEL"> F  </i>
   <i name="CSHIFT">      0.10000000</i>
   <i name="OMEGAMAX">     -1.00000000</i>
   <i name="DEG_THRESHOLD">      0.00200000</i>
   <i name="RTIME">     -0.10000000</i>
   <i name="WPLASMAI">      0.00000000</i>
   <v name="DFIELD">      0.00000000      0.00000000      0.00000000</v>
   <v name="WPLASMA">      0.00000000      0.00000000      0.00000000      0.00000000      0.00000000      0.00000000      0.00000000      0.00000000      0.00000000</v>
  </separator>
  <separator name="orbital magnetization" >
   <i type="logical" name="NUCIND"> F  </i>
   <v name="MAGPOS">      0.00000000      0.00000000      0.00000000</v>
   <i type="logical" name="LNICSALL"> T  </i>
   <i type="logical" name="ORBITALMAG"> F  </i>
   <i type="logical" name="LMAGBLOCH"> F  </i>
   <i type="logical" name="LCHIMAG"> F  </i>
   <i type="logical" name="LGAUGE"> T  </i>
   <i type="int" name="MAGATOM">     0</i>
   <v name="MAGDIPOL">      0.00000000      0.00000000      0.00000000</v>
   <v name="AVECCONST">      0.00000000      0.00000000      0.00000000</v>
  </separator>
  <separator name="response functions" >
   <i type="logical" name="LALL_IN_ONE"> F  </i>
   <i type="int" name="IALL_IN_ONE">    -1</i>
   <i type="int" name="NBANDS_WAVE">    -1</i>
   <i type="logical" name="LFINITE_TEMPERATURE"> F  </i>
   <i type="logical" name="LADDER"> F  </i>
   <i type="logical" name="LRPAFORCE"> F  </i>
   <i type="logical" name="LFXC"> F  </i>
   <i type="logical" name="LHARTREE"> T  </i>
   <i type="int" name="IBSE">     0</i>
   <v type="int" name="KPOINT">    -1     0     0     0</v>
   <i type="logical" name="LTCTC"> F  </i>
   <i type="logical" name="LTCTE"> F  </i>
   <i type="logical" name="LTETE"> F  </i>
   <i type="logical" name="LTRIPLET"> F  </i>
   <i type="logical" name="LFXCEPS"> F  </i>
   <i type="logical" name="LFXHEG"> F  </i>
   <i type="int" name="NATURALO">     2</i>
   <i type="logical" name="LHOLEGF"> F  </i>
   <i type="logical" name="L2ORDER"> F  </i>
   <i type="logical" name="LDMP1"> F  </i>
   <i type="logical" name="LMP2LT"> F  </i>
   <i type="logical" name="LSMP2LT"> F  </i>
   <i type="logical" name="LGWLF"> F  </i>
   <i name="ENCUTGW">     -1.60000002</i>
   <i name="ENCUTGWSOFT">     -1.60000002</i>
   <i name="ENCUTLF">     -1.00000000</i>
   <i type="logical" name="LESF_SPLINES"> F  </i>
   <i type="int" name="LMAXMP2">    -1</i>
   <i name="SCISSOR">      0.00000000</i>
   <i type="int" name="NOMEGA">     0</i>
   <i type="int" name="NOMEGAR">     0</i>
   <i type="int" name="NBANDSGW">    -1</i>
   <i type="int" name="NBANDSO">    -1</i>
   <i type="int" name="NBANDSV">    -1</i>
   <i type="int" name="NELMGW">     1</i>
   <i type="int" name="NELMHF">     1</i>
   <i type="int" name="DIM">     3</i>
   <i type="int" name="IESPILON">     4</i>
   <i type="int" name="ANTIRES">     0</i>
   <i name="OMEGAMAX">    -30.00000000</i>
   <i name="OMEGAMIN">    -30.00000000</i>
   <i name="OMEGATL">   -200.00000000</i>
   <i type="int" name="OMEGAGRID">     0</i>
   <i name="CSHIFT">     -0.10000000</i>
   <i type="logical" name="LSELFENERGY"> F  </i>
   <i type="logical" name="LSPECTRAL"> F  </i>
   <i type="logical" name="LSPECTRALGW"> F  </i>
   <i type="logical" name="LSINGLES"> F  </i>
   <i type="logical" name="LFERMIGW"> F  </i>
   <i type="logical" name="ODDONLYGW"> F  </i>
   <i type="logical" name="EVENONLYGW"> F  </i>
   <i type="int" name="NKREDLFX">     1</i>
   <i type="int" name="NKREDLFY">     1</i>
   <i type="int" name="NKREDLFZ">     1</i>
   <i type="int" name="MAXMEM">  2800</i>
   <i type="int" name="TELESCOPE">     0</i>
   <i type="int" name="NTAUPAR">    -1</i>
   <i type="int" name="NOMEGAPAR">    -1</i>
   <i name="DAMP_NEWTON">      0.80000001</i>
   <i name="LAMBDA">      1.00000000</i>
  </separator>
  <separator name="External order field" >
   <i name="OFIELD_KAPPA">      0.00000000</i>
   <v name="OFIELD_K">      0.00000000      0.00000000      0.00000000</v>
   <i name="OFIELD_Q6_NEAR">      0.00000000</i>
   <i name="OFIELD_Q6_FAR">      0.00000000</i>
   <i name="OFIELD_A">      0.00000000</i>
  </separator>
  <separator name="optional k-points parameters" >
   <i type="int" name="KPOINTS_OPT_MODE">     1</i>
   <i type="logical" name="LKPOINTS_OPT"> F  </i>
  </separator>
 </parameters>
 <atominfo>
  <atoms>      37 </atoms>
  <types>       2 </types>
  <array name="atoms" >
   <dimension dim="1">ion</dimension>
   <field type="string">element</field>
   <field type="int">atomtype</field>
   <set>
    <rc><c>Pt</c><c>   1</c></rc>
    <rc><c>Pt</c><c>   1</c></rc>
    <rc><c>Pt</c><c>   1</c></rc>
    <rc><c>Pt</c><c>   1</c></rc>
    <rc><c>Pt</c><c>   1</c></rc>
    <rc><c>Pt</c><c>   1</c></rc>
    <rc><c>Pt</c><c>   1</c></rc>
    <rc><c>Pt</c><c>   1</c></rc>
    <rc><c>Pt</c><c>   1</c></rc>
    <rc><c>Pt</c><c>   1</c></rc>
    <rc><c>Pt</c><c>   1</c></rc>
    <rc><c>Pt</c><c>   1</c></rc>
    <rc><c>Pt</c><c>   1</c></rc>
    <rc><c>Pt</c><c>   1</c></rc>
    <rc><c>Pt</c><c>   1</c></rc>
    <rc><c>Pt</c><c>   1</c></rc>
    <rc><c>Pt</c><c>   1</c></rc>
    <rc><c>Pt</c><c>   1</c></rc>
    <rc><c>Pt</c><c>   1</c></rc>
    <rc><c>Pt</c><c>   1</c></rc>
    <rc><c>Pt</c><c>   1</c></rc>
    <rc><c>Pt</c><c>   1</c></rc>
    <rc><c>Pt</c><c>   1</c></rc>
    <rc><c>Pt</c><c>   1</c></rc>
    <rc><c>Pt</c><c>   1</c></rc>
    <rc><c>Pt</c><c>   1</c></rc>
    <rc><c>Pt</c><c>   1</c></rc>
    <rc><c>Pt</c><c>   1</c></rc>
    <rc><c>Pt</c><c>   1</c></rc>
    <rc><c>Pt</c><c>   1</c></rc>
    <rc><c>Pt</c><c>   1</c></rc>
    <rc><c>Pt</c><c>   1</c></rc>
    <rc><c>Pt</c><c>   1</c></rc>
    <rc><c>Pt</c><c>   1</c></rc>
    <rc><c>Pt</c><c>   1</c></rc>
    <rc><c>Pt</c><c>   1</c></rc>
    <rc><c>H </c><c>   2</c></rc>
   </set>
  </array>
  <array name="atomtypes" >
   <dimension dim="1">type</dimension>
   <field type="int">atomspertype</field>
   <field type="string">element</field>
   <field>mass</field>
   <field>valence</field>
   <field type="string">pseudopotential</field>
   <set>
    <rc><c>  36</c><c>Pt</c><c>    195.08000000</c><c>     10.00000000</c><c>  PAW_PBE Pt 04Feb2005                  </c></rc>
    <rc><c>   1</c><c>H </c><c>      1.00000000</c><c>      1.00000000</c><c>  PAW_PBE H 15Jun2001                   </c></rc>
   </set>
  </array>
 </atominfo>
 <structure name="initialpos" >
  <crystal>
   <varray name="basis" >
    <v>       8.46831000       0.00000000       0.00000000 </v>
    <v>       4.23415500       7.33377159       0.00000000 </v>
    <v>       0.00000000       0.00000000      24.96566199 </v>
   </varray>
   <i name="volume">   1550.48373159 </i>
   <varray name="rec_basis" >
    <v>       0.11808732      -0.06817774       0.00000000 </v>
    <v>       0.00000000       0.13635549       0.00000000 </v>
    <v>       0.00000000       0.00000000       0.04005502 </v>
   </varray>
  </crystal>
  <varray name="positions" >
   <v>       0.00000000       0.00000000       0.34046764 </v>
   <v>       0.33400137       0.00000000       0.34046764 </v>
   <v>       0.66800274       0.00000000       0.34046764 </v>
   <v>       0.00000000       0.33400137       0.34046764 </v>
   <v>       0.33400137       0.33400137       0.34046764 </v>
   <v>       0.66800274       0.33400137       0.34046764 </v>
   <v>       0.00000000       0.66800274       0.34046764 </v>
   <v>       0.33400137       0.66800274       0.34046764 </v>
   <v>       0.66800274       0.66800274       0.34046764 </v>
   <v>       0.11133379       0.11133379       0.43297074 </v>
   <v>       0.44533516       0.11133379       0.43297074 </v>
   <v>       0.77933653       0.11133379       0.43297074 </v>
   <v>       0.11133379       0.44533516       0.43297074 </v>
   <v>       0.44533516       0.44533516       0.43297074 </v>
   <v>       0.77933653       0.44533516       0.43297074 </v>
   <v>       0.11133379       0.77933653       0.43297074 </v>
   <v>       0.44533516       0.77933653       0.43297074 </v>
   <v>       0.77933653       0.77933653       0.43297074 </v>
   <v>       0.89164623       0.22527828       0.52490160 </v>
   <v>       0.22439019       0.22458112       0.52563311 </v>
   <v>       0.55822361       0.22448952       0.52422904 </v>
   <v>       0.89177967       0.55656881       0.52515179 </v>
   <v>       0.22442470       0.55831263       0.52421591 </v>
   <v>       0.55786191       0.55813604       0.52438005 </v>
   <v>       0.89096318       0.89106405       0.52407725 </v>
   <v>       0.22489309       0.89200231       0.52489904 </v>
   <v>       0.55636264       0.89193896       0.52514937 </v>
   <v>       0.00152597       0.00188955       0.61713181 </v>
   <v>       0.33983941       0.00224762       0.62090310 </v>
   <v>       0.67088651       0.00368000       0.61762731 </v>
   <v>       0.00203561       0.34001382       0.62090282 </v>
   <v>       0.34001002       0.34036341       0.61766499 </v>
   <v>       0.67044364       0.33715573       0.61764418 </v>
   <v>       0.00352372       0.67110657       0.61761954 </v>
   <v>       0.33689353       0.67082149       0.61762551 </v>
   <v>       0.67034519       0.67043465       0.61785150 </v>
   <v>       0.18220730       0.18241486       0.66127678 </v>
  </varray>
  <varray name="selective"  type="logical" >
   <v type="logical" >  F  F  F </v>
   <v type="logical" >  F  F  F </v>
   <v type="logical" >  F  F  F </v>
   <v type="logical" >  F  F  F </v>
   <v type="logical" >  F  F  F </v>
   <v type="logical" >  F  F  F </v>
   <v type="logical" >  F  F  F </v>
   <v type="logical" >  F  F  F </v>
   <v type="logical" >  F  F  F </v>
   <v type="logical" >  F  F  F </v>
   <v type="logical" >  F  F  F </v>
   <v type="logical" >  F  F  F </v>
   <v type="logical" >  F  F  F </v>
   <v type="logical" >  F  F  F </v>
   <v type="logical" >  F  F  F </v>
   <v type="logical" >  F  F  F </v>
   <v type="logical" >  F  F  F </v>
   <v type="logical" >  F  F  F </v>
   <v type="logical" >  T  T  T </v>
   <v type="logical" >  T  T  T </v>
   <v type="logical" >  T  T  T </v>
   <v type="logical" >  T  T  T </v>
   <v type="logical" >  T  T  T </v>
   <v type="logical" >  T  T  T </v>
   <v type="logical" >  T  T  T </v>
   <v type="logical" >  T  T  T </v>
   <v type="logical" >  T  T  T </v>
   <v type="logical" >  T  T  T </v>
   <v type="logical" >  T  T  T </v>
   <v type="logical" >  T  T  T </v>
   <v type="logical" >  T  T  T </v>
   <v type="logical" >  T  T  T </v>
   <v type="logical" >  T  T  T </v>
   <v type="logical" >  T  T  T </v>
   <v type="logical" >  T  T  T </v>
   <v type="logical" >  T  T  T </v>
   <v type="logical" >  T  T  T </v>
  </varray>
  <nose>
   <v>      -3.00000000       0.00000000       0.00010000       0.00010000 </v>
  </nose>
 </structure>
 <calculation>
  <scstep>
   <time name="dav">   20.41   20.66</time>
   <time name="total">   23.93   24.21</time>
   <energy>
    <i name="alphaZ">    797.33612757 </i>
    <i name="ewald"> 132213.44993504 </i>
    <i name="hartreedc">-159608.92034960 </i>
    <i name="XCdc">     89.65384719 </i>
    <i name="pawpsdc">  32176.87162736 </i>
    <i name="pawaedc"> -31179.06369604 </i>
    <i name="eentropy">     -0.09179468 </i>
    <i name="bandstr">  -1090.60172363 </i>
    <i name="atom">  26496.80315902 </i>
    <i name="e_fr_energy">   -104.56286777 </i>
    <i name="e_wo_entrp">   -104.47107309 </i>
    <i name="e_0_energy">   -104.53226954 </i>
   </energy>
  </scstep>
  <scstep>
   <time name="diag">    2.81    2.83</time>
   <time name="diis">    8.40    8.46</time>
   <time name="orth">    1.10    1.11</time>
   <time name="total">   15.45   15.59</time>
   <energy>
    <i name="e_fr_energy">   -104.82986214 </i>
    <i name="e_wo_entrp">   -104.74661613 </i>
    <i name="e_0_energy">   -104.80211347 </i>
   </energy>
  </scstep>
  <scstep>
   <time name="diag">    2.84    2.86</time>
   <time name="diis">    8.73    8.78</time>
   <time name="orth">    0.63    0.64</time>
   <time name="total">   15.39   15.49</time>
   <energy>
    <i name="e_fr_energy">   -104.58994664 </i>
    <i name="e_wo_entrp">   -104.49819268 </i>
    <i name="e_0_energy">   -104.55936199 </i>
   </energy>
  </scstep>
  <scstep>
   <time name="diag">    2.89    2.91</time>
   <time name="diis">    7.77    8.04</time>
   <time name="orth">    0.64    0.65</time>
   <time name="total">   14.51   14.87</time>
   <energy>
    <i name="e_fr_energy">   -104.55639020 </i>
    <i name="e_wo_entrp">   -104.46377382 </i>
    <i name="e_0_energy">   -104.52551807 </i>
   </energy>
  </scstep>
  <scstep>
   <time name="diag">    2.95    2.98</time>
   <time name="diis">    8.26    8.34</time>
   <time name="orth">    0.64    0.65</time>
   <time name="total">   15.02   15.16</time>
   <energy>
    <i name="e_fr_energy">   -104.55582182 </i>
    <i name="e_wo_entrp">   -104.46344164 </i>
    <i name="e_0_energy">   -104.52502842 </i>
   </energy>
  </scstep>
  <scstep>
   <time name="diag">    2.75    2.77</time>
   <time name="diis">    8.52    8.75</time>
   <time name="orth">    0.84    0.85</time>
   <time name="total">   15.23   15.57</time>
   <energy>
    <i name="e_fr_energy">   -104.55573451 </i>
    <i name="e_wo_entrp">   -104.46312132 </i>
    <i name="e_0_energy">   -104.52486345 </i>
   </energy>
  </scstep>
  <scstep>
   <time name="diag">    2.53    2.55</time>
   <time name="diis">    8.50    8.56</time>
   <time name="orth">    0.70    0.70</time>
   <time name="total">   14.17   14.27</time>
   <energy>
    <i name="alphaZ">    797.33612757 </i>
    <i name="ewald"> 132213.44993504 </i>
    <i name="hartreedc">-159611.14558891 </i>
    <i name="XCdc">     89.65646130 </i>
    <i name="pawpsdc">  32178.03069841 </i>
    <i name="pawaedc"> -31180.22411408 </i>
    <i name="eentropy">     -0.09255013 </i>
    <i name="bandstr">  -1088.36986002 </i>
    <i name="atom">  26496.80315902 </i>
    <i name="e_fr_energy">   -104.55573180 </i>
    <i name="e_wo_entrp">   -104.46318168 </i>
    <i name="e_0_energy">   -104.52488176 </i>
   </energy>
  </scstep>
  <structure>
   <crystal>
    <varray name="basis" >
     <v>       8.46831000       0.00000000       0.00000000 </v>
     <v>       4.23415500       7.33377159       0.00000000 </v>
     <v>       0.00000000       0.00000000      24.96566199 </v>
    </varray>
    <i name="volume">   1550.48373159 </i>
    <varray name="rec_basis" >
     <v>       0.11808732      -0.06817774       0.00000000 </v>
     <v>       0.00000000       0.13635549       0.00000000 </v>
     <v>       0.00000000       0.00000000       0.04005502 </v>
    </varray>
   </crystal>
   <varray name="positions" >
    <v>       0.00000000       0.00000000       0.34046764 </v>
    <v>       0.33400137       0.00000000       0.34046764 </v>
    <v>       0.66800274       0.00000000       0.34046764 </v>
    <v>       0.00000000       0.33400137       0.34046764 </v>
    <v>       0.33400137       0.33400137       0.34046764 </v>
    <v>       0.66800274       0.33400137       0.34046764 </v>
    <v>       0.00000000       0.66800274       0.34046764 </v>
    <v>       0.33400137       0.66800274       0.34046764 </v>
    <v>       0.66800274       0.66800274       0.34046764 </v>
    <v>       0.11133379       0.11133379       0.43297074 </v>
    <v>       0.44533516       0.11133379       0.43297074 </v>
    <v>       0.77933653       0.11133379       0.43297074 </v>
    <v>       0.11133379       0.44533516       0.43297074 </v>
    <v>       0.44533516       0.44533516       0.43297074 </v>
    <v>       0.77933653       0.44533516       0.43297074 </v>
    <v>       0.11133379       0.77933653       0.43297074 </v>
    <v>       0.44533516       0.77933653       0.43297074 </v>
    <v>       0.77933653       0.77933653       0.43297074 </v>
    <v>       0.89164623       0.22527828       0.52490160 </v>
    <v>       0.22439019       0.22458112       0.52563311 </v>
    <v>       0.55822361       0.22448952       0.52422904 </v>
    <v>       0.89177967       0.55656881       0.52515179 </v>
    <v>       0.22442470       0.55831263       0.52421591 </v>
    <v>       0.55786191       0.55813604       0.52438005 </v>
    <v>       0.89096318       0.89106405       0.52407725 </v>
    <v>       0.22489309       0.89200231       0.52489904 </v>
    <v>       0.55636264       0.89193896       0.52514937 </v>
    <v>       0.00152597       0.00188955       0.61713181 </v>
    <v>       0.33983941       0.00224762       0.62090310 </v>
    <v>       0.67088651       0.00368000       0.61762731 </v>
    <v>       0.00203561       0.34001382       0.62090282 </v>
    <v>       0.34001002       0.34036341       0.61766499 </v>
    <v>       0.67044364       0.33715573       0.61764418 </v>
    <v>       0.00352372       0.67110657       0.61761954 </v>
    <v>       0.33689353       0.67082149       0.61762551 </v>
    <v>       0.67034519       0.67043465       0.61785150 </v>
    <v>       0.18220730       0.18241486       0.66127678 </v>
   </varray>
  </structure>
  <varray name="forces" >
   <v>       0.04186621       0.02312572      -0.12734472 </v>
   <v>       0.00994530       0.04903590      -0.08406539 </v>
   <v>      -0.04547093       0.08100180      -0.15037877 </v>
   <v>       0.04846137      -0.01789368      -0.08413987 </v>
   <v>      -0.00609005      -0.00460362      -0.07317810 </v>
   <v>      -0.05679091       0.00304338      -0.08695655 </v>
   <v>       0.04834410      -0.08149481      -0.15042002 </v>
   <v>      -0.02471081      -0.05206385      -0.08697839 </v>
   <v>      -0.06309852      -0.03786211      -0.08236097 </v>
   <v>       0.10318035       0.06107725       0.18467911 </v>
   <v>       0.00250296       0.04981659       0.12758608 </v>
   <v>      -0.04872764       0.10576572       0.03930520 </v>
   <v>       0.04359239      -0.02239591       0.12709466 </v>
   <v>       0.01654171       0.00842352       0.03738700 </v>
   <v>      -0.03755015       0.02604363       0.15423961 </v>
   <v>       0.06731509      -0.09559784       0.03827907 </v>
   <v>       0.00205961      -0.04353944       0.15411826 </v>
   <v>      -0.06797039      -0.03866122       0.04804457 </v>
   <v>       0.00012885      -0.00165756      -0.00064037 </v>
   <v>      -0.00362637      -0.00140990       0.00271588 </v>
   <v>       0.00127713       0.00177948      -0.00143531 </v>
   <v>      -0.00105794       0.00002276       0.00207579 </v>
   <v>       0.00166093       0.00314908      -0.00057566 </v>
   <v>       0.00316045       0.00057588      -0.00671546 </v>
   <v>      -0.00587339      -0.00173005       0.00203467 </v>
   <v>       0.00057490      -0.00036457      -0.00029647 </v>
   <v>      -0.00028317       0.00044118       0.00191533 </v>
   <v>       0.00572043       0.00307592      -0.00068950 </v>
   <v>       0.00528187       0.00237190       0.00385365 </v>
   <v>       0.00358174       0.00362322       0.00059009 </v>
   <v>       0.00519050       0.00293502       0.00431452 </v>
   <v>       0.00244611       0.00020460      -0.00904826 </v>
   <v>       0.00494478       0.00224593      -0.00161961 </v>
   <v>       0.00104475       0.00185854       0.00159211 </v>
   <v>       0.00193497       0.00155074       0.00012838 </v>
   <v>       0.00197677       0.00462478      -0.00048333 </v>
   <v>      -0.06148303      -0.03651797       0.01737275 </v>
  </varray>
  <varray name="stress" >
   <v>     -33.89361592       0.34861033       0.04771156 </v>
   <v>       0.34861045     -34.29132892       0.02339950 </v>
   <v>       0.04771147       0.02339969       2.30517256 </v>
  </varray>
  <energy>
   <i name="e_fr_energy">   -104.55573180 </i>
   <i name="e_wo_entrp">   -104.46318168 </i>
   <i name="e_0_energy">   -104.52488176 </i>
  </energy>
  <time name="totalsc">  142.08  144.51</time>
  <eigenvalues>
   <array>
    <dimension dim="1">band</dimension>
    <dimension dim="2">kpoint</dimension>
    <dimension dim="3">spin</dimension>
    <field>eigene</field>
    <field>occ</field>
    <set>
     <set comment="spin 1">
      <set comment="kpoint 1">
       <r>   -8.9000    1.0000 </r>
       <r>   -7.7584    1.0000 </r>
       <r>   -7.0166    1.0000 </r>
       <r>   -6.5029    1.0000 </r>
       <r>   -6.4816    1.0000 </r>
       <r>   -6.4560    1.0000 </r>
       <r>   -6.4517    1.0000 </r>
       <r>   -6.4446    1.0000 </r>
       <r>   -6.4432    1.0000 </r>
       <r>   -6.4254    1.0000 </r>
       <r>   -6.1543    1.0000 </r>
       <r>   -5.9220    1.0000 </r>
       <r>   -5.9189    1.0000 </r>
       <r>   -5.9070    1.0000 </r>
       <r>   -5.8993    1.0000 </r>
       <r>   -5.8959    1.0000 </r>
       <r>   -5.8330    1.0000 </r>
       <r>   -5.4634    1.0000 </r>
       <r>   -5.4622    1.0000 </r>
       <r>   -5.4582    1.0000 </r>
       <r>   -5.4496    1.0000 </r>
       <r>   -5.4495    1.0000 </r>
       <r>   -5.3341    1.0000 </r>
       <r>   -5.2332    1.0000 </r>
       <r>   -5.2290    1.0000 </r>
       <r>   -5.2265    1.0000 </r>
       <r>   -5.2197    1.0000 </r>
       <r>   -5.2185    1.0000 </r>
       <r>   -5.1235    1.0000 </r>
       <r>   -5.0308    1.0000 </r>
       <r>   -5.0273    1.0000 </r>
       <r>   -5.0242    1.0000 </r>
       <r>   -5.0192    1.0000 </r>
       <r>   -5.0180    1.0000 </r>
       <r>   -4.9783    1.0000 </r>
       <r>   -4.9623    1.0000 </r>
       <r>   -4.9568    1.0000 </r>
       <r>   -4.9507    1.0000 </r>
       <r>   -4.9196    1.0000 </r>
       <r>   -4.9102    1.0000 </r>
       <r>   -4.5697    1.0000 </r>
       <r>   -4.3815    1.0000 </r>
       <r>   -4.3813    1.0000 </r>
       <r>   -4.3600    1.0000 </r>
       <r>   -4.3436    1.0000 </r>
       <r>   -4.3279    1.0000 </r>
       <r>   -4.3143    1.0000 </r>
       <r>   -4.3046    1.0000 </r>
       <r>   -4.2923    1.0000 </r>
       <r>   -4.2889    1.0000 </r>
       <r>   -4.1677    1.0000 </r>
       <r>   -4.1371    1.0000 </r>
       <r>   -4.1347    1.0000 </r>
       <r>   -4.0438    1.0000 </r>
       <r>   -4.0323    1.0000 </r>
       <r>   -3.5932    1.0000 </r>
       <r>   -3.5790    1.0000 </r>
       <r>   -3.5711    1.0000 </r>
       <r>   -3.5679    1.0000 </r>
       <r>   -3.5503    1.0000 </r>
       <r>   -3.4989    1.0000 </r>
       <r>   -3.4929    1.0000 </r>
       <r>   -3.3922    1.0000 </r>
       <r>   -3.3815    1.0000 </r>
       <r>   -3.3752    1.0000 </r>
       <r>   -3.3730    1.0000 </r>
       <r>   -3.3673    1.0000 </r>
       <r>   -3.3625    1.0000 </r>
       <r>   -3.3528    1.0000 </r>
       <r>   -3.3208    1.0000 </r>
       <r>   -3.3107    1.0000 </r>
       <r>   -3.3044    1.0000 </r>
       <r>   -3.3011    1.0000 </r>
       <r>   -3.2923    1.0000 </r>
       <r>   -3.2737    1.0000 </r>
       <r>   -3.2636    1.0000 </r>
       <r>   -3.2562    1.0000 </r>
       <r>   -3.1681    1.0000 </r>
       <r>   -3.1577    1.0000 </r>
       <r>   -3.1445    1.0000 </r>
       <r>   -3.1388    1.0000 </r>
       <r>   -3.1272    1.0000 </r>
       <r>   -3.1154    1.0000 </r>
       <r>   -2.9607    1.0000 </r>
       <r>   -2.9302    1.0000 </r>
       <r>   -2.9237    1.0000 </r>
       <r>   -2.9161    1.0000 </r>
       <r>   -2.9043    1.0000 </r>
       <r>   -2.9018    1.0000 </r>
       <r>   -2.8839    1.0000 </r>
       <r>   -2.8830    1.0000 </r>
       <r>   -2.8422    1.0000 </r>
       <r>   -2.8242    1.0000 </r>
       <r>   -2.8122    1.0000 </r>
       <r>   -2.7872    1.0000 </r>
       <r>   -2.7429    1.0000 </r>
       <r>   -2.7405    1.0000 </r>
       <r>   -2.6958    1.0000 </r>
       <r>   -2.6939    1.0000 </r>
       <r>   -2.6842    1.0000 </r>
       <r>   -2.6132    1.0000 </r>
       <r>   -2.5384    1.0000 </r>
       <r>   -2.5204    1.0000 </r>
       <r>   -2.5180    1.0000 </r>
       <r>   -2.5086    1.0000 </r>
       <r>   -2.5077    1.0000 </r>
       <r>   -2.4833    1.0000 </r>
       <r>   -2.2652    1.0000 </r>
       <r>   -2.0348    1.0000 </r>
       <r>   -2.0069    1.0000 </r>
       <r>   -2.0042    1.0000 </r>
       <r>   -1.9971    1.0000 </r>
       <r>   -1.9936    1.0000 </r>
       <r>   -1.9822    1.0000 </r>
       <r>   -1.9781    1.0000 </r>
       <r>   -1.9659    1.0000 </r>
       <r>   -1.9615    1.0000 </r>
       <r>   -1.9553    1.0000 </r>
       <r>   -1.9383    1.0000 </r>
       <r>   -1.8755    1.0000 </r>
       <r>   -1.8615    1.0000 </r>
       <r>   -1.8197    1.0000 </r>
       <r>   -1.7417    1.0000 </r>
       <r>   -1.7255    1.0000 </r>
       <r>   -1.7190    1.0000 </r>
       <r>   -1.7184    1.0000 </r>
       <r>   -1.7022    1.0000 </r>
       <r>   -1.6171    1.0000 </r>
       <r>   -1.5890    1.0000 </r>
       <r>   -1.5413    1.0000 </r>
       <r>   -1.5369    1.0000 </r>
       <r>   -1.5356    1.0000 </r>
       <r>   -1.4791    1.0000 </r>
       <r>   -1.3037    1.0000 </r>
       <r>   -1.2870    1.0000 </r>
       <r>   -1.2761    1.0000 </r>
       <r>   -1.2603    1.0000 </r>
       <r>   -1.2534    1.0000 </r>
       <r>   -1.2495    1.0000 </r>
       <r>   -1.1959    1.0000 </r>
       <r>   -1.1760    1.0000 </r>
       <r>   -1.0740    1.0000 </r>
       <r>   -1.0472    1.0000 </r>
       <r>   -1.0345    1.0000 </r>
       <r>   -1.0252    1.0000 </r>
       <r>   -1.0230    1.0000 </r>
       <r>   -1.0199    1.0000 </r>
       <r>   -0.8998    1.0000 </r>
       <r>   -0.8838    1.0000 </r>
       <r>   -0.8576    1.0000 </r>
       <r>   -0.8459    1.0000 </r>
       <r>   -0.8346    1.0000 </r>
       <r>   -0.8323    1.0000 </r>
       <r>   -0.8275    1.0000 </r>
       <r>   -0.8182    1.0000 </r>
       <r>   -0.8126    1.0000 </r>
       <r>   -0.8071    1.0000 </r>
       <r>   -0.7993    1.0000 </r>
       <r>   -0.7933    1.0000 </r>
       <r>   -0.7396    1.0000 </r>
       <r>   -0.7061    1.0000 </r>
       <r>   -0.6970    1.0000 </r>
       <r>   -0.6949    1.0000 </r>
       <r>   -0.6712    1.0000 </r>
       <r>   -0.6645    1.0000 </r>
       <r>   -0.6441    1.0000 </r>
       <r>   -0.6434    1.0000 </r>
       <r>   -0.6056    1.0000 </r>
       <r>   -0.5962    1.0000 </r>
       <r>   -0.5780    1.0000 </r>
       <r>   -0.5718    1.0000 </r>
       <r>   -0.5585    1.0000 </r>
       <r>   -0.5437    1.0000 </r>
       <r>   -0.5400    1.0000 </r>
       <r>   -0.5388    1.0000 </r>
       <r>   -0.4625    1.0000 </r>
       <r>   -0.4539    1.0000 </r>
       <r>   -0.4460    1.0000 </r>
       <r>   -0.4404    1.0000 </r>
       <r>   -0.4289    1.0000 </r>
       <r>   -0.4287    1.0000 </r>
       <r>   -0.3921    1.0000 </r>
       <r>   -0.3523    1.0003 </r>
       <r>   -0.3418    1.0006 </r>
       <r>   -0.3224    1.0014 </r>
       <r>   -0.3209    1.0015 </r>
       <r>   -0.3086    1.0024 </r>
       <r>   -0.3049    1.0028 </r>
       <r>   -0.1234    0.8551 </r>
       <r>   -0.1026    0.7164 </r>
       <r>   -0.0196    0.0963 </r>
       <r>   -0.0164    0.0815 </r>
       <r>   -0.0075    0.0454 </r>
       <r>    0.0020    0.0150 </r>
       <r>    0.0103   -0.0046 </r>
       <r>    0.0122   -0.0082 </r>
       <r>    0.5116   -0.0000 </r>
       <r>    0.8216   -0.0000 </r>
       <r>    0.8350   -0.0000 </r>
       <r>    0.8743   -0.0000 </r>
       <r>    0.8943   -0.0000 </r>
       <r>    0.8995   -0.0000 </r>
       <r>    0.9066   -0.0000 </r>
       <r>    2.7792    0.0000 </r>
       <r>    3.1236    0.0000 </r>
       <r>    3.1676    0.0000 </r>
       <r>    3.1917    0.0000 </r>
       <r>    3.2207    0.0000 </r>
       <r>    3.2276    0.0000 </r>
       <r>    4.5307    0.0000 </r>
       <r>    4.7199    0.0000 </r>
       <r>    4.7892    0.0000 </r>
       <r>    4.8108    0.0000 </r>
       <r>    4.8136    0.0000 </r>
       <r>    4.8262    0.0000 </r>
       <r>    4.9036    0.0000 </r>
       <r>    5.0920    0.0000 </r>
       <r>    5.1640    0.0000 </r>
       <r>    5.4352    0.0000 </r>
       <r>    5.5415    0.0000 </r>
       <r>    5.7879    0.0000 </r>
       <r>    5.8221    0.0000 </r>
       <r>    5.8407    0.0000 </r>
       <r>    5.8538    0.0000 </r>
       <r>    5.8730    0.0000 </r>
       <r>    6.1694    0.0000 </r>
       <r>    6.3736    0.0000 </r>
       <r>    6.6090    0.0000 </r>
       <r>    6.6213    0.0000 </r>
       <r>    6.6217    0.0000 </r>
       <r>    6.8403    0.0000 </r>
       <r>    6.9985    0.0000 </r>
       <r>    7.1199    0.0000 </r>
       <r>    7.1480    0.0000 </r>
       <r>    7.1540    0.0000 </r>
       <r>    7.1582    0.0000 </r>
       <r>    7.1649    0.0000 </r>
       <r>    7.2167    0.0000 </r>
       <r>    7.2530    0.0000 </r>
       <r>    7.6469    0.0000 </r>
      </set>
      <set comment="kpoint 2">
       <r>   -8.7515    1.0000 </r>
       <r>   -7.6266    1.0000 </r>
       <r>   -6.9960    1.0000 </r>
       <r>   -6.9034    1.0000 </r>
       <r>   -6.5608    1.0000 </r>
       <r>   -6.5514    1.0000 </r>
       <r>   -6.3607    1.0000 </r>
       <r>   -6.2629    1.0000 </r>
       <r>   -6.2340    1.0000 </r>
       <r>   -6.2120    1.0000 </r>
       <r>   -6.1132    1.0000 </r>
       <r>   -6.0091    1.0000 </r>
       <r>   -5.9851    1.0000 </r>
       <r>   -5.8499    1.0000 </r>
       <r>   -5.8333    1.0000 </r>
       <r>   -5.8272    1.0000 </r>
       <r>   -5.7372    1.0000 </r>
       <r>   -5.5402    1.0000 </r>
       <r>   -5.4270    1.0000 </r>
       <r>   -5.4199    1.0000 </r>
       <r>   -5.4063    1.0000 </r>
       <r>   -5.3912    1.0000 </r>
       <r>   -5.3335    1.0000 </r>
       <r>   -5.3052    1.0000 </r>
       <r>   -5.2761    1.0000 </r>
       <r>   -5.2277    1.0000 </r>
       <r>   -5.2218    1.0000 </r>
       <r>   -5.2068    1.0000 </r>
       <r>   -5.1698    1.0000 </r>
       <r>   -5.1220    1.0000 </r>
       <r>   -5.1128    1.0000 </r>
       <r>   -5.0351    1.0000 </r>
       <r>   -5.0172    1.0000 </r>
       <r>   -5.0126    1.0000 </r>
       <r>   -5.0089    1.0000 </r>
       <r>   -4.8768    1.0000 </r>
       <r>   -4.8112    1.0000 </r>
       <r>   -4.7874    1.0000 </r>
       <r>   -4.7666    1.0000 </r>
       <r>   -4.7528    1.0000 </r>
       <r>   -4.5915    1.0000 </r>
       <r>   -4.5030    1.0000 </r>
       <r>   -4.4959    1.0000 </r>
       <r>   -4.4525    1.0000 </r>
       <r>   -4.4189    1.0000 </r>
       <r>   -4.3980    1.0000 </r>
       <r>   -4.3906    1.0000 </r>
       <r>   -4.3101    1.0000 </r>
       <r>   -4.2137    1.0000 </r>
       <r>   -4.1675    1.0000 </r>
       <r>   -4.1314    1.0000 </r>
       <r>   -4.1079    1.0000 </r>
       <r>   -4.0811    1.0000 </r>
       <r>   -4.0545    1.0000 </r>
       <r>   -4.0387    1.0000 </r>
       <r>   -3.8380    1.0000 </r>
       <r>   -3.7406    1.0000 </r>
       <r>   -3.7338    1.0000 </r>
       <r>   -3.6892    1.0000 </r>
       <r>   -3.6638    1.0000 </r>
       <r>   -3.6263    1.0000 </r>
       <r>   -3.5918    1.0000 </r>
       <r>   -3.5602    1.0000 </r>
       <r>   -3.5551    1.0000 </r>
       <r>   -3.5352    1.0000 </r>
       <r>   -3.5238    1.0000 </r>
       <r>   -3.4735    1.0000 </r>
       <r>   -3.4507    1.0000 </r>
       <r>   -3.4139    1.0000 </r>
       <r>   -3.3788    1.0000 </r>
       <r>   -3.3631    1.0000 </r>
       <r>   -3.3461    1.0000 </r>
       <r>   -3.2683    1.0000 </r>
       <r>   -3.2592    1.0000 </r>
       <r>   -3.2390    1.0000 </r>
       <r>   -3.1862    1.0000 </r>
       <r>   -3.1800    1.0000 </r>
       <r>   -3.1580    1.0000 </r>
       <r>   -3.1319    1.0000 </r>
       <r>   -3.1091    1.0000 </r>
       <r>   -3.0989    1.0000 </r>
       <r>   -3.0654    1.0000 </r>
       <r>   -3.0247    1.0000 </r>
       <r>   -2.9979    1.0000 </r>
       <r>   -2.9670    1.0000 </r>
       <r>   -2.9541    1.0000 </r>
       <r>   -2.9459    1.0000 </r>
       <r>   -2.9355    1.0000 </r>
       <r>   -2.9151    1.0000 </r>
       <r>   -2.8969    1.0000 </r>
       <r>   -2.8718    1.0000 </r>
       <r>   -2.8177    1.0000 </r>
       <r>   -2.8119    1.0000 </r>
       <r>   -2.7817    1.0000 </r>
       <r>   -2.7749    1.0000 </r>
       <r>   -2.7592    1.0000 </r>
       <r>   -2.7389    1.0000 </r>
       <r>   -2.7215    1.0000 </r>
       <r>   -2.6908    1.0000 </r>
       <r>   -2.6854    1.0000 </r>
       <r>   -2.6119    1.0000 </r>
       <r>   -2.5694    1.0000 </r>
       <r>   -2.5417    1.0000 </r>
       <r>   -2.5292    1.0000 </r>
       <r>   -2.5104    1.0000 </r>
       <r>   -2.5026    1.0000 </r>
       <r>   -2.4949    1.0000 </r>
       <r>   -2.4821    1.0000 </r>
       <r>   -2.4469    1.0000 </r>
       <r>   -2.4384    1.0000 </r>
       <r>   -2.4268    1.0000 </r>
       <r>   -2.4130    1.0000 </r>
       <r>   -2.2048    1.0000 </r>
       <r>   -2.0803    1.0000 </r>
       <r>   -2.0425    1.0000 </r>
       <r>   -2.0089    1.0000 </r>
       <r>   -2.0011    1.0000 </r>
       <r>   -1.9941    1.0000 </r>
       <r>   -1.9832    1.0000 </r>
       <r>   -1.9561    1.0000 </r>
       <r>   -1.9426    1.0000 </r>
       <r>   -1.8574    1.0000 </r>
       <r>   -1.8020    1.0000 </r>
       <r>   -1.7805    1.0000 </r>
       <r>   -1.7126    1.0000 </r>
       <r>   -1.6614    1.0000 </r>
       <r>   -1.6470    1.0000 </r>
       <r>   -1.6226    1.0000 </r>
       <r>   -1.5940    1.0000 </r>
       <r>   -1.5635    1.0000 </r>
       <r>   -1.5499    1.0000 </r>
       <r>   -1.5321    1.0000 </r>
       <r>   -1.5202    1.0000 </r>
       <r>   -1.4486    1.0000 </r>
       <r>   -1.4168    1.0000 </r>
       <r>   -1.4025    1.0000 </r>
       <r>   -1.3871    1.0000 </r>
       <r>   -1.3762    1.0000 </r>
       <r>   -1.2969    1.0000 </r>
       <r>   -1.1967    1.0000 </r>
       <r>   -1.1845    1.0000 </r>
       <r>   -1.1595    1.0000 </r>
       <r>   -1.1544    1.0000 </r>
       <r>   -1.1402    1.0000 </r>
       <r>   -1.1228    1.0000 </r>
       <r>   -1.0710    1.0000 </r>
       <r>   -1.0365    1.0000 </r>
       <r>   -1.0050    1.0000 </r>
       <r>   -0.9929    1.0000 </r>
       <r>   -0.9840    1.0000 </r>
       <r>   -0.9424    1.0000 </r>
       <r>   -0.9239    1.0000 </r>
       <r>   -0.9050    1.0000 </r>
       <r>   -0.8917    1.0000 </r>
       <r>   -0.8221    1.0000 </r>
       <r>   -0.7960    1.0000 </r>
       <r>   -0.7810    1.0000 </r>
       <r>   -0.7614    1.0000 </r>
       <r>   -0.7275    1.0000 </r>
       <r>   -0.6601    1.0000 </r>
       <r>   -0.6416    1.0000 </r>
       <r>   -0.6307    1.0000 </r>
       <r>   -0.6030    1.0000 </r>
       <r>   -0.5910    1.0000 </r>
       <r>   -0.5632    1.0000 </r>
       <r>   -0.5492    1.0000 </r>
       <r>   -0.4855    1.0000 </r>
       <r>   -0.4734    1.0000 </r>
       <r>   -0.4223    1.0000 </r>
       <r>   -0.4052    1.0000 </r>
       <r>   -0.4030    1.0000 </r>
       <r>   -0.3828    1.0001 </r>
       <r>   -0.3660    1.0002 </r>
       <r>   -0.3535    1.0003 </r>
       <r>   -0.3438    1.0005 </r>
       <r>   -0.3397    1.0006 </r>
       <r>   -0.3315    1.0009 </r>
       <r>   -0.2715    1.0092 </r>
       <r>   -0.2671    1.0106 </r>
       <r>   -0.1347    0.9140 </r>
       <r>   -0.1180    0.8226 </r>
       <r>   -0.1049    0.7333 </r>
       <r>   -0.0937    0.6470 </r>
       <r>   -0.0782    0.5182 </r>
       <r>   -0.0698    0.4475 </r>
       <r>   -0.0381    0.2032 </r>
       <r>   -0.0293    0.1484 </r>
       <r>   -0.0089    0.0506 </r>
       <r>    0.0023    0.0143 </r>
       <r>    0.0696   -0.0295 </r>
       <r>    0.1076   -0.0131 </r>
       <r>    0.1306   -0.0064 </r>
       <r>    0.1896   -0.0006 </r>
       <r>    0.2900   -0.0000 </r>
       <r>    0.2986   -0.0000 </r>
       <r>    0.3129   -0.0000 </r>
       <r>    0.3559   -0.0000 </r>
       <r>    0.6821   -0.0000 </r>
       <r>    0.7479   -0.0000 </r>
       <r>    1.2400   -0.0000 </r>
       <r>    1.4670   -0.0000 </r>
       <r>    1.4846   -0.0000 </r>
       <r>    1.6000   -0.0000 </r>
       <r>    2.3928   -0.0000 </r>
       <r>    2.7752    0.0000 </r>
       <r>    2.9055    0.0000 </r>
       <r>    3.5356    0.0000 </r>
       <r>    3.6440    0.0000 </r>
       <r>    3.6592    0.0000 </r>
       <r>    3.7450    0.0000 </r>
       <r>    3.9885    0.0000 </r>
       <r>    4.4075    0.0000 </r>
       <r>    4.6042    0.0000 </r>
       <r>    4.7476    0.0000 </r>
       <r>    4.9328    0.0000 </r>
       <r>    4.9951    0.0000 </r>
       <r>    5.0012    0.0000 </r>
       <r>    5.1946    0.0000 </r>
       <r>    5.2578    0.0000 </r>
       <r>    5.4670    0.0000 </r>
       <r>    5.6606    0.0000 </r>
       <r>    5.6840    0.0000 </r>
       <r>    5.7898    0.0000 </r>
       <r>    5.9076    0.0000 </r>
       <r>    6.1236    0.0000 </r>
       <r>    6.2093    0.0000 </r>
       <r>    6.2831    0.0000 </r>
       <r>    6.3227    0.0000 </r>
       <r>    6.3508    0.0000 </r>
       <r>    6.5649    0.0000 </r>
       <r>    6.7074    0.0000 </r>
       <r>    6.7483    0.0000 </r>
       <r>    6.7893    0.0000 </r>
       <r>    6.8828    0.0000 </r>
       <r>    6.9389    0.0000 </r>
       <r>    7.0662    0.0000 </r>
       <r>    7.2887    0.0000 </r>
       <r>    7.4613    0.0000 </r>
       <r>    7.5271    0.0000 </r>
       <r>    7.5957    0.0000 </r>
      </set>
      <set comment="kpoint 3">
       <r>   -8.7528    1.0000 </r>
       <r>   -7.6381    1.0000 </r>
       <r>   -7.0545    1.0000 </r>
       <r>   -6.8481    1.0000 </r>
       <r>   -6.5621    1.0000 </r>
       <r>   -6.5543    1.0000 </r>
       <r>   -6.3618    1.0000 </r>
       <r>   -6.2789    1.0000 </r>
       <r>   -6.2132    1.0000 </r>
       <r>   -6.2107    1.0000 </r>
       <r>   -6.1596    1.0000 </r>
       <r>   -6.0030    1.0000 </r>
       <r>   -5.8926    1.0000 </r>
       <r>   -5.8547    1.0000 </r>
       <r>   -5.8321    1.0000 </r>
       <r>   -5.8302    1.0000 </r>
       <r>   -5.8048    1.0000 </r>
       <r>   -5.5315    1.0000 </r>
       <r>   -5.4208    1.0000 </r>
       <r>   -5.4151    1.0000 </r>
       <r>   -5.4120    1.0000 </r>
       <r>   -5.3459    1.0000 </r>
       <r>   -5.3324    1.0000 </r>
       <r>   -5.2924    1.0000 </r>
       <r>   -5.2743    1.0000 </r>
       <r>   -5.2710    1.0000 </r>
       <r>   -5.2275    1.0000 </r>
       <r>   -5.2177    1.0000 </r>
       <r>   -5.1216    1.0000 </r>
       <r>   -5.1109    1.0000 </r>
       <r>   -5.1037    1.0000 </r>
       <r>   -5.0290    1.0000 </r>
       <r>   -5.0185    1.0000 </r>
       <r>   -5.0103    1.0000 </r>
       <r>   -5.0049    1.0000 </r>
       <r>   -4.8397    1.0000 </r>
       <r>   -4.8102    1.0000 </r>
       <r>   -4.7837    1.0000 </r>
       <r>   -4.7747    1.0000 </r>
       <r>   -4.7665    1.0000 </r>
       <r>   -4.5654    1.0000 </r>
       <r>   -4.4958    1.0000 </r>
       <r>   -4.4899    1.0000 </r>
       <r>   -4.4608    1.0000 </r>
       <r>   -4.4222    1.0000 </r>
       <r>   -4.4168    1.0000 </r>
       <r>   -4.3922    1.0000 </r>
       <r>   -4.3326    1.0000 </r>
       <r>   -4.2126    1.0000 </r>
       <r>   -4.1767    1.0000 </r>
       <r>   -4.1280    1.0000 </r>
       <r>   -4.1198    1.0000 </r>
       <r>   -4.0713    1.0000 </r>
       <r>   -4.0482    1.0000 </r>
       <r>   -4.0266    1.0000 </r>
       <r>   -3.8244    1.0000 </r>
       <r>   -3.7372    1.0000 </r>
       <r>   -3.7350    1.0000 </r>
       <r>   -3.6720    1.0000 </r>
       <r>   -3.6572    1.0000 </r>
       <r>   -3.6259    1.0000 </r>
       <r>   -3.5869    1.0000 </r>
       <r>   -3.5803    1.0000 </r>
       <r>   -3.5541    1.0000 </r>
       <r>   -3.5346    1.0000 </r>
       <r>   -3.5267    1.0000 </r>
       <r>   -3.5038    1.0000 </r>
       <r>   -3.4447    1.0000 </r>
       <r>   -3.3925    1.0000 </r>
       <r>   -3.3705    1.0000 </r>
       <r>   -3.3631    1.0000 </r>
       <r>   -3.3551    1.0000 </r>
       <r>   -3.3005    1.0000 </r>
       <r>   -3.2784    1.0000 </r>
       <r>   -3.2692    1.0000 </r>
       <r>   -3.1859    1.0000 </r>
       <r>   -3.1645    1.0000 </r>
       <r>   -3.1579    1.0000 </r>
       <r>   -3.1347    1.0000 </r>
       <r>   -3.0834    1.0000 </r>
       <r>   -3.0662    1.0000 </r>
       <r>   -3.0659    1.0000 </r>
       <r>   -3.0526    1.0000 </r>
       <r>   -2.9811    1.0000 </r>
       <r>   -2.9650    1.0000 </r>
       <r>   -2.9645    1.0000 </r>
       <r>   -2.9347    1.0000 </r>
       <r>   -2.9294    1.0000 </r>
       <r>   -2.9061    1.0000 </r>
       <r>   -2.9022    1.0000 </r>
       <r>   -2.8678    1.0000 </r>
       <r>   -2.8318    1.0000 </r>
       <r>   -2.8052    1.0000 </r>
       <r>   -2.7848    1.0000 </r>
       <r>   -2.7775    1.0000 </r>
       <r>   -2.7604    1.0000 </r>
       <r>   -2.7496    1.0000 </r>
       <r>   -2.7248    1.0000 </r>
       <r>   -2.7100    1.0000 </r>
       <r>   -2.6938    1.0000 </r>
       <r>   -2.6117    1.0000 </r>
       <r>   -2.5614    1.0000 </r>
       <r>   -2.5503    1.0000 </r>
       <r>   -2.5476    1.0000 </r>
       <r>   -2.5226    1.0000 </r>
       <r>   -2.5105    1.0000 </r>
       <r>   -2.5023    1.0000 </r>
       <r>   -2.4929    1.0000 </r>
       <r>   -2.4503    1.0000 </r>
       <r>   -2.4378    1.0000 </r>
       <r>   -2.4318    1.0000 </r>
       <r>   -2.4194    1.0000 </r>
       <r>   -2.1625    1.0000 </r>
       <r>   -2.0774    1.0000 </r>
       <r>   -2.0484    1.0000 </r>
       <r>   -2.0347    1.0000 </r>
       <r>   -2.0077    1.0000 </r>
       <r>   -1.9921    1.0000 </r>
       <r>   -1.9812    1.0000 </r>
       <r>   -1.9514    1.0000 </r>
       <r>   -1.9348    1.0000 </r>
       <r>   -1.9105    1.0000 </r>
       <r>   -1.8228    1.0000 </r>
       <r>   -1.7912    1.0000 </r>
       <r>   -1.7163    1.0000 </r>
       <r>   -1.6641    1.0000 </r>
       <r>   -1.6539    1.0000 </r>
       <r>   -1.6139    1.0000 </r>
       <r>   -1.6125    1.0000 </r>
       <r>   -1.5660    1.0000 </r>
       <r>   -1.5573    1.0000 </r>
       <r>   -1.5371    1.0000 </r>
       <r>   -1.5328    1.0000 </r>
       <r>   -1.4396    1.0000 </r>
       <r>   -1.4044    1.0000 </r>
       <r>   -1.3977    1.0000 </r>
       <r>   -1.3800    1.0000 </r>
       <r>   -1.3746    1.0000 </r>
       <r>   -1.2108    1.0000 </r>
       <r>   -1.2040    1.0000 </r>
       <r>   -1.1916    1.0000 </r>
       <r>   -1.1752    1.0000 </r>
       <r>   -1.1583    1.0000 </r>
       <r>   -1.1420    1.0000 </r>
       <r>   -1.1153    1.0000 </r>
       <r>   -1.0564    1.0000 </r>
       <r>   -1.0483    1.0000 </r>
       <r>   -1.0254    1.0000 </r>
       <r>   -0.9936    1.0000 </r>
       <r>   -0.9805    1.0000 </r>
       <r>   -0.9329    1.0000 </r>
       <r>   -0.9226    1.0000 </r>
       <r>   -0.9074    1.0000 </r>
       <r>   -0.9048    1.0000 </r>
       <r>   -0.8200    1.0000 </r>
       <r>   -0.8046    1.0000 </r>
       <r>   -0.7710    1.0000 </r>
       <r>   -0.7567    1.0000 </r>
       <r>   -0.7115    1.0000 </r>
       <r>   -0.6768    1.0000 </r>
       <r>   -0.6701    1.0000 </r>
       <r>   -0.6239    1.0000 </r>
       <r>   -0.6145    1.0000 </r>
       <r>   -0.6101    1.0000 </r>
       <r>   -0.5693    1.0000 </r>
       <r>   -0.5478    1.0000 </r>
       <r>   -0.4870    1.0000 </r>
       <r>   -0.4752    1.0000 </r>
       <r>   -0.4128    1.0000 </r>
       <r>   -0.4074    1.0000 </r>
       <r>   -0.3925    1.0000 </r>
       <r>   -0.3731    1.0001 </r>
       <r>   -0.3644    1.0002 </r>
       <r>   -0.3498    1.0004 </r>
       <r>   -0.3467    1.0004 </r>
       <r>   -0.3398    1.0006 </r>
       <r>   -0.3257    1.0012 </r>
       <r>   -0.2795    1.0071 </r>
       <r>   -0.2767    1.0078 </r>
       <r>   -0.1352    0.9162 </r>
       <r>   -0.1292    0.8869 </r>
       <r>   -0.1015    0.7075 </r>
       <r>   -0.0805    0.5376 </r>
       <r>   -0.0618    0.3811 </r>
       <r>   -0.0592    0.3597 </r>
       <r>   -0.0289    0.1460 </r>
       <r>   -0.0104    0.0563 </r>
       <r>    0.0053    0.0065 </r>
       <r>    0.0119   -0.0077 </r>
       <r>    0.0863   -0.0220 </r>
       <r>    0.1038   -0.0145 </r>
       <r>    0.1275   -0.0071 </r>
       <r>    0.1931   -0.0005 </r>
       <r>    0.2948   -0.0000 </r>
       <r>    0.3011   -0.0000 </r>
       <r>    0.3097   -0.0000 </r>
       <r>    0.3488   -0.0000 </r>
       <r>    0.7122   -0.0000 </r>
       <r>    0.7471   -0.0000 </r>
       <r>    1.2484   -0.0000 </r>
       <r>    1.4488   -0.0000 </r>
       <r>    1.4797   -0.0000 </r>
       <r>    1.6047   -0.0000 </r>
       <r>    2.3431   -0.0000 </r>
       <r>    2.8609    0.0000 </r>
       <r>    2.9084    0.0000 </r>
       <r>    3.4962    0.0000 </r>
       <r>    3.6494    0.0000 </r>
       <r>    3.6865    0.0000 </r>
       <r>    3.7338    0.0000 </r>
       <r>    3.9304    0.0000 </r>
       <r>    4.3876    0.0000 </r>
       <r>    4.6058    0.0000 </r>
       <r>    4.7206    0.0000 </r>
       <r>    4.9763    0.0000 </r>
       <r>    4.9992    0.0000 </r>
       <r>    5.0043    0.0000 </r>
       <r>    5.2300    0.0000 </r>
       <r>    5.3264    0.0000 </r>
       <r>    5.4529    0.0000 </r>
       <r>    5.5850    0.0000 </r>
       <r>    5.6995    0.0000 </r>
       <r>    5.8911    0.0000 </r>
       <r>    5.8913    0.0000 </r>
       <r>    6.0861    0.0000 </r>
       <r>    6.2592    0.0000 </r>
       <r>    6.2850    0.0000 </r>
       <r>    6.3398    0.0000 </r>
       <r>    6.3518    0.0000 </r>
       <r>    6.6203    0.0000 </r>
       <r>    6.6790    0.0000 </r>
       <r>    6.7357    0.0000 </r>
       <r>    6.7795    0.0000 </r>
       <r>    6.7946    0.0000 </r>
       <r>    6.9452    0.0000 </r>
       <r>    7.0482    0.0000 </r>
       <r>    7.2287    0.0000 </r>
       <r>    7.4561    0.0000 </r>
       <r>    7.5886    0.0000 </r>
       <r>    7.6038    0.0000 </r>
      </set>
      <set comment="kpoint 4">
       <r>   -8.7515    1.0000 </r>
       <r>   -7.6266    1.0000 </r>
       <r>   -6.9959    1.0000 </r>
       <r>   -6.9033    1.0000 </r>
       <r>   -6.5611    1.0000 </r>
       <r>   -6.5514    1.0000 </r>
       <r>   -6.3607    1.0000 </r>
       <r>   -6.2624    1.0000 </r>
       <r>   -6.2341    1.0000 </r>
       <r>   -6.2125    1.0000 </r>
       <r>   -6.1134    1.0000 </r>
       <r>   -6.0090    1.0000 </r>
       <r>   -5.9852    1.0000 </r>
       <r>   -5.8497    1.0000 </r>
       <r>   -5.8332    1.0000 </r>
       <r>   -5.8270    1.0000 </r>
       <r>   -5.7372    1.0000 </r>
       <r>   -5.5404    1.0000 </r>
       <r>   -5.4268    1.0000 </r>
       <r>   -5.4198    1.0000 </r>
       <r>   -5.4061    1.0000 </r>
       <r>   -5.3912    1.0000 </r>
       <r>   -5.3336    1.0000 </r>
       <r>   -5.3053    1.0000 </r>
       <r>   -5.2763    1.0000 </r>
       <r>   -5.2275    1.0000 </r>
       <r>   -5.2217    1.0000 </r>
       <r>   -5.2070    1.0000 </r>
       <r>   -5.1698    1.0000 </r>
       <r>   -5.1222    1.0000 </r>
       <r>   -5.1129    1.0000 </r>
       <r>   -5.0346    1.0000 </r>
       <r>   -5.0172    1.0000 </r>
       <r>   -5.0126    1.0000 </r>
       <r>   -5.0090    1.0000 </r>
       <r>   -4.8767    1.0000 </r>
       <r>   -4.8112    1.0000 </r>
       <r>   -4.7870    1.0000 </r>
       <r>   -4.7669    1.0000 </r>
       <r>   -4.7532    1.0000 </r>
       <r>   -4.5916    1.0000 </r>
       <r>   -4.5031    1.0000 </r>
       <r>   -4.4961    1.0000 </r>
       <r>   -4.4525    1.0000 </r>
       <r>   -4.4188    1.0000 </r>
       <r>   -4.3979    1.0000 </r>
       <r>   -4.3905    1.0000 </r>
       <r>   -4.3101    1.0000 </r>
       <r>   -4.2138    1.0000 </r>
       <r>   -4.1676    1.0000 </r>
       <r>   -4.1311    1.0000 </r>
       <r>   -4.1081    1.0000 </r>
       <r>   -4.0811    1.0000 </r>
       <r>   -4.0544    1.0000 </r>
       <r>   -4.0387    1.0000 </r>
       <r>   -3.8385    1.0000 </r>
       <r>   -3.7404    1.0000 </r>
       <r>   -3.7338    1.0000 </r>
       <r>   -3.6898    1.0000 </r>
       <r>   -3.6642    1.0000 </r>
       <r>   -3.6264    1.0000 </r>
       <r>   -3.5924    1.0000 </r>
       <r>   -3.5600    1.0000 </r>
       <r>   -3.5546    1.0000 </r>
       <r>   -3.5350    1.0000 </r>
       <r>   -3.5235    1.0000 </r>
       <r>   -3.4734    1.0000 </r>
       <r>   -3.4505    1.0000 </r>
       <r>   -3.4140    1.0000 </r>
       <r>   -3.3787    1.0000 </r>
       <r>   -3.3630    1.0000 </r>
       <r>   -3.3463    1.0000 </r>
       <r>   -3.2682    1.0000 </r>
       <r>   -3.2580    1.0000 </r>
       <r>   -3.2381    1.0000 </r>
       <r>   -3.1866    1.0000 </r>
       <r>   -3.1802    1.0000 </r>
       <r>   -3.1580    1.0000 </r>
       <r>   -3.1317    1.0000 </r>
       <r>   -3.1093    1.0000 </r>
       <r>   -3.0993    1.0000 </r>
       <r>   -3.0668    1.0000 </r>
       <r>   -3.0243    1.0000 </r>
       <r>   -2.9979    1.0000 </r>
       <r>   -2.9668    1.0000 </r>
       <r>   -2.9541    1.0000 </r>
       <r>   -2.9458    1.0000 </r>
       <r>   -2.9355    1.0000 </r>
       <r>   -2.9150    1.0000 </r>
       <r>   -2.8969    1.0000 </r>
       <r>   -2.8716    1.0000 </r>
       <r>   -2.8178    1.0000 </r>
       <r>   -2.8121    1.0000 </r>
       <r>   -2.7815    1.0000 </r>
       <r>   -2.7752    1.0000 </r>
       <r>   -2.7592    1.0000 </r>
       <r>   -2.7388    1.0000 </r>
       <r>   -2.7215    1.0000 </r>
       <r>   -2.6907    1.0000 </r>
       <r>   -2.6851    1.0000 </r>
       <r>   -2.6118    1.0000 </r>
       <r>   -2.5695    1.0000 </r>
       <r>   -2.5419    1.0000 </r>
       <r>   -2.5291    1.0000 </r>
       <r>   -2.5105    1.0000 </r>
       <r>   -2.5024    1.0000 </r>
       <r>   -2.4949    1.0000 </r>
       <r>   -2.4822    1.0000 </r>
       <r>   -2.4470    1.0000 </r>
       <r>   -2.4383    1.0000 </r>
       <r>   -2.4268    1.0000 </r>
       <r>   -2.4130    1.0000 </r>
       <r>   -2.2049    1.0000 </r>
       <r>   -2.0809    1.0000 </r>
       <r>   -2.0425    1.0000 </r>
       <r>   -2.0089    1.0000 </r>
       <r>   -2.0010    1.0000 </r>
       <r>   -1.9938    1.0000 </r>
       <r>   -1.9832    1.0000 </r>
       <r>   -1.9559    1.0000 </r>
       <r>   -1.9426    1.0000 </r>
       <r>   -1.8574    1.0000 </r>
       <r>   -1.8020    1.0000 </r>
       <r>   -1.7803    1.0000 </r>
       <r>   -1.7123    1.0000 </r>
       <r>   -1.6613    1.0000 </r>
       <r>   -1.6470    1.0000 </r>
       <r>   -1.6229    1.0000 </r>
       <r>   -1.5938    1.0000 </r>
       <r>   -1.5630    1.0000 </r>
       <r>   -1.5498    1.0000 </r>
       <r>   -1.5320    1.0000 </r>
       <r>   -1.5200    1.0000 </r>
       <r>   -1.4485    1.0000 </r>
       <r>   -1.4167    1.0000 </r>
       <r>   -1.4026    1.0000 </r>
       <r>   -1.3869    1.0000 </r>
       <r>   -1.3766    1.0000 </r>
       <r>   -1.2968    1.0000 </r>
       <r>   -1.1967    1.0000 </r>
       <r>   -1.1847    1.0000 </r>
       <r>   -1.1596    1.0000 </r>
       <r>   -1.1546    1.0000 </r>
       <r>   -1.1404    1.0000 </r>
       <r>   -1.1231    1.0000 </r>
       <r>   -1.0710    1.0000 </r>
       <r>   -1.0366    1.0000 </r>
       <r>   -1.0050    1.0000 </r>
       <r>   -0.9929    1.0000 </r>
       <r>   -0.9843    1.0000 </r>
       <r>   -0.9425    1.0000 </r>
       <r>   -0.9240    1.0000 </r>
       <r>   -0.9047    1.0000 </r>
       <r>   -0.8918    1.0000 </r>
       <r>   -0.8219    1.0000 </r>
       <r>   -0.7959    1.0000 </r>
       <r>   -0.7812    1.0000 </r>
       <r>   -0.7616    1.0000 </r>
       <r>   -0.7271    1.0000 </r>
       <r>   -0.6600    1.0000 </r>
       <r>   -0.6417    1.0000 </r>
       <r>   -0.6307    1.0000 </r>
       <r>   -0.6028    1.0000 </r>
       <r>   -0.5907    1.0000 </r>
       <r>   -0.5629    1.0000 </r>
       <r>   -0.5490    1.0000 </r>
       <r>   -0.4855    1.0000 </r>
       <r>   -0.4733    1.0000 </r>
       <r>   -0.4222    1.0000 </r>
       <r>   -0.4055    1.0000 </r>
       <r>   -0.4032    1.0000 </r>
       <r>   -0.3827    1.0001 </r>
       <r>   -0.3658    1.0002 </r>
       <r>   -0.3535    1.0003 </r>
       <r>   -0.3440    1.0005 </r>
       <r>   -0.3396    1.0006 </r>
       <r>   -0.3316    1.0009 </r>
       <r>   -0.2712    1.0093 </r>
       <r>   -0.2667    1.0107 </r>
       <r>   -0.1347    0.9137 </r>
       <r>   -0.1180    0.8226 </r>
       <r>   -0.1049    0.7332 </r>
       <r>   -0.0938    0.6475 </r>
       <r>   -0.0783    0.5190 </r>
       <r>   -0.0700    0.4491 </r>
       <r>   -0.0385    0.2058 </r>
       <r>   -0.0295    0.1495 </r>
       <r>   -0.0092    0.0517 </r>
       <r>    0.0018    0.0156 </r>
       <r>    0.0697   -0.0295 </r>
       <r>    0.1077   -0.0130 </r>
       <r>    0.1306   -0.0064 </r>
       <r>    0.1896   -0.0006 </r>
       <r>    0.2899   -0.0000 </r>
       <r>    0.2983   -0.0000 </r>
       <r>    0.3129   -0.0000 </r>
       <r>    0.3563   -0.0000 </r>
       <r>    0.6817   -0.0000 </r>
       <r>    0.7474   -0.0000 </r>
       <r>    1.2402   -0.0000 </r>
       <r>    1.4670   -0.0000 </r>
       <r>    1.4847   -0.0000 </r>
       <r>    1.6002   -0.0000 </r>
       <r>    2.3930   -0.0000 </r>
       <r>    2.7750    0.0000 </r>
       <r>    2.9051    0.0000 </r>
       <r>    3.5357    0.0000 </r>
       <r>    3.6441    0.0000 </r>
       <r>    3.6592    0.0000 </r>
       <r>    3.7449    0.0000 </r>
       <r>    3.9885    0.0000 </r>
       <r>    4.4076    0.0000 </r>
       <r>    4.6042    0.0000 </r>
       <r>    4.7480    0.0000 </r>
       <r>    4.9327    0.0000 </r>
       <r>    4.9951    0.0000 </r>
       <r>    5.0013    0.0000 </r>
       <r>    5.1943    0.0000 </r>
       <r>    5.2579    0.0000 </r>
       <r>    5.4664    0.0000 </r>
       <r>    5.6606    0.0000 </r>
       <r>    5.6846    0.0000 </r>
       <r>    5.7898    0.0000 </r>
       <r>    5.9074    0.0000 </r>
       <r>    6.1238    0.0000 </r>
       <r>    6.2095    0.0000 </r>
       <r>    6.2831    0.0000 </r>
       <r>    6.3227    0.0000 </r>
       <r>    6.3500    0.0000 </r>
       <r>    6.5647    0.0000 </r>
       <r>    6.7069    0.0000 </r>
       <r>    6.7481    0.0000 </r>
       <r>    6.7895    0.0000 </r>
       <r>    6.8829    0.0000 </r>
       <r>    6.9389    0.0000 </r>
       <r>    7.0667    0.0000 </r>
       <r>    7.2886    0.0000 </r>
       <r>    7.4617    0.0000 </r>
       <r>    7.5274    0.0000 </r>
       <r>    7.5961    0.0000 </r>
      </set>
      <set comment="kpoint 5">
       <r>   -8.3248    1.0000 </r>
       <r>   -7.6877    1.0000 </r>
       <r>   -7.2842    1.0000 </r>
       <r>   -6.8040    1.0000 </r>
       <r>   -6.5929    1.0000 </r>
       <r>   -6.5729    1.0000 </r>
       <r>   -6.3844    1.0000 </r>
       <r>   -6.2374    1.0000 </r>
       <r>   -6.0907    1.0000 </r>
       <r>   -5.9742    1.0000 </r>
       <r>   -5.8892    1.0000 </r>
       <r>   -5.8736    1.0000 </r>
       <r>   -5.8408    1.0000 </r>
       <r>   -5.7168    1.0000 </r>
       <r>   -5.6703    1.0000 </r>
       <r>   -5.6564    1.0000 </r>
       <r>   -5.6510    1.0000 </r>
       <r>   -5.6308    1.0000 </r>
       <r>   -5.5097    1.0000 </r>
       <r>   -5.4871    1.0000 </r>
       <r>   -5.4796    1.0000 </r>
       <r>   -5.4463    1.0000 </r>
       <r>   -5.4343    1.0000 </r>
       <r>   -5.4263    1.0000 </r>
       <r>   -5.3448    1.0000 </r>
       <r>   -5.3256    1.0000 </r>
       <r>   -5.3128    1.0000 </r>
       <r>   -5.2901    1.0000 </r>
       <r>   -5.0623    1.0000 </r>
       <r>   -5.0548    1.0000 </r>
       <r>   -5.0465    1.0000 </r>
       <r>   -5.0375    1.0000 </r>
       <r>   -5.0232    1.0000 </r>
       <r>   -4.9459    1.0000 </r>
       <r>   -4.7994    1.0000 </r>
       <r>   -4.7947    1.0000 </r>
       <r>   -4.7881    1.0000 </r>
       <r>   -4.7610    1.0000 </r>
       <r>   -4.7390    1.0000 </r>
       <r>   -4.6617    1.0000 </r>
       <r>   -4.5505    1.0000 </r>
       <r>   -4.4809    1.0000 </r>
       <r>   -4.4717    1.0000 </r>
       <r>   -4.4554    1.0000 </r>
       <r>   -4.4143    1.0000 </r>
       <r>   -4.3978    1.0000 </r>
       <r>   -4.3503    1.0000 </r>
       <r>   -4.3304    1.0000 </r>
       <r>   -4.3115    1.0000 </r>
       <r>   -4.2818    1.0000 </r>
       <r>   -4.2555    1.0000 </r>
       <r>   -4.2059    1.0000 </r>
       <r>   -4.0952    1.0000 </r>
       <r>   -4.0912    1.0000 </r>
       <r>   -4.0719    1.0000 </r>
       <r>   -4.0044    1.0000 </r>
       <r>   -3.9489    1.0000 </r>
       <r>   -3.9202    1.0000 </r>
       <r>   -3.8812    1.0000 </r>
       <r>   -3.8666    1.0000 </r>
       <r>   -3.8192    1.0000 </r>
       <r>   -3.7214    1.0000 </r>
       <r>   -3.6685    1.0000 </r>
       <r>   -3.6589    1.0000 </r>
       <r>   -3.6484    1.0000 </r>
       <r>   -3.6131    1.0000 </r>
       <r>   -3.5515    1.0000 </r>
       <r>   -3.5478    1.0000 </r>
       <r>   -3.4991    1.0000 </r>
       <r>   -3.4238    1.0000 </r>
       <r>   -3.4110    1.0000 </r>
       <r>   -3.3825    1.0000 </r>
       <r>   -3.3580    1.0000 </r>
       <r>   -3.3016    1.0000 </r>
       <r>   -3.2912    1.0000 </r>
       <r>   -3.2646    1.0000 </r>
       <r>   -3.2482    1.0000 </r>
       <r>   -3.2383    1.0000 </r>
       <r>   -3.1997    1.0000 </r>
       <r>   -3.1807    1.0000 </r>
       <r>   -3.1582    1.0000 </r>
       <r>   -3.1490    1.0000 </r>
       <r>   -3.1393    1.0000 </r>
       <r>   -3.1244    1.0000 </r>
       <r>   -3.1046    1.0000 </r>
       <r>   -3.0937    1.0000 </r>
       <r>   -3.0516    1.0000 </r>
       <r>   -2.9960    1.0000 </r>
       <r>   -2.9859    1.0000 </r>
       <r>   -2.9716    1.0000 </r>
       <r>   -2.9636    1.0000 </r>
       <r>   -2.9567    1.0000 </r>
       <r>   -2.9181    1.0000 </r>
       <r>   -2.8453    1.0000 </r>
       <r>   -2.7978    1.0000 </r>
       <r>   -2.7809    1.0000 </r>
       <r>   -2.7424    1.0000 </r>
       <r>   -2.7334    1.0000 </r>
       <r>   -2.7129    1.0000 </r>
       <r>   -2.6916    1.0000 </r>
       <r>   -2.6495    1.0000 </r>
       <r>   -2.6388    1.0000 </r>
       <r>   -2.5696    1.0000 </r>
       <r>   -2.5275    1.0000 </r>
       <r>   -2.4997    1.0000 </r>
       <r>   -2.4830    1.0000 </r>
       <r>   -2.4510    1.0000 </r>
       <r>   -2.4302    1.0000 </r>
       <r>   -2.3772    1.0000 </r>
       <r>   -2.2869    1.0000 </r>
       <r>   -2.2638    1.0000 </r>
       <r>   -2.1875    1.0000 </r>
       <r>   -2.1679    1.0000 </r>
       <r>   -2.1267    1.0000 </r>
       <r>   -2.1145    1.0000 </r>
       <r>   -2.0699    1.0000 </r>
       <r>   -2.0627    1.0000 </r>
       <r>   -2.0550    1.0000 </r>
       <r>   -2.0485    1.0000 </r>
       <r>   -2.0021    1.0000 </r>
       <r>   -1.9849    1.0000 </r>
       <r>   -1.9516    1.0000 </r>
       <r>   -1.9440    1.0000 </r>
       <r>   -1.9357    1.0000 </r>
       <r>   -1.9150    1.0000 </r>
       <r>   -1.8927    1.0000 </r>
       <r>   -1.8741    1.0000 </r>
       <r>   -1.8526    1.0000 </r>
       <r>   -1.8425    1.0000 </r>
       <r>   -1.7271    1.0000 </r>
       <r>   -1.7059    1.0000 </r>
       <r>   -1.6936    1.0000 </r>
       <r>   -1.6422    1.0000 </r>
       <r>   -1.6145    1.0000 </r>
       <r>   -1.5130    1.0000 </r>
       <r>   -1.4989    1.0000 </r>
       <r>   -1.4298    1.0000 </r>
       <r>   -1.4024    1.0000 </r>
       <r>   -1.3599    1.0000 </r>
       <r>   -1.3039    1.0000 </r>
       <r>   -1.2428    1.0000 </r>
       <r>   -1.2259    1.0000 </r>
       <r>   -1.1733    1.0000 </r>
       <r>   -1.1628    1.0000 </r>
       <r>   -1.1393    1.0000 </r>
       <r>   -1.1196    1.0000 </r>
       <r>   -1.0940    1.0000 </r>
       <r>   -1.0709    1.0000 </r>
       <r>   -1.0336    1.0000 </r>
       <r>   -1.0263    1.0000 </r>
       <r>   -0.9679    1.0000 </r>
       <r>   -0.9340    1.0000 </r>
       <r>   -0.9143    1.0000 </r>
       <r>   -0.8722    1.0000 </r>
       <r>   -0.8516    1.0000 </r>
       <r>   -0.8478    1.0000 </r>
       <r>   -0.8400    1.0000 </r>
       <r>   -0.7913    1.0000 </r>
       <r>   -0.6999    1.0000 </r>
       <r>   -0.6552    1.0000 </r>
       <r>   -0.5944    1.0000 </r>
       <r>   -0.5892    1.0000 </r>
       <r>   -0.5631    1.0000 </r>
       <r>   -0.5527    1.0000 </r>
       <r>   -0.5025    1.0000 </r>
       <r>   -0.4605    1.0000 </r>
       <r>   -0.4483    1.0000 </r>
       <r>   -0.3837    1.0001 </r>
       <r>   -0.3655    1.0002 </r>
       <r>   -0.3448    1.0005 </r>
       <r>   -0.3381    1.0007 </r>
       <r>   -0.2883    1.0053 </r>
       <r>   -0.2642    1.0115 </r>
       <r>   -0.2469    1.0182 </r>
       <r>   -0.2276    1.0269 </r>
       <r>   -0.1297    0.8896 </r>
       <r>   -0.1143    0.7991 </r>
       <r>   -0.1055    0.7373 </r>
       <r>   -0.0879    0.5997 </r>
       <r>   -0.0854    0.5788 </r>
       <r>   -0.0795    0.5289 </r>
       <r>   -0.0564    0.3371 </r>
       <r>   -0.0458    0.2565 </r>
       <r>    0.1277   -0.0071 </r>
       <r>    0.1393   -0.0047 </r>
       <r>    0.1581   -0.0023 </r>
       <r>    0.1622   -0.0019 </r>
       <r>    0.1741   -0.0012 </r>
       <r>    0.3154   -0.0000 </r>
       <r>    0.3679   -0.0000 </r>
       <r>    0.5773   -0.0000 </r>
       <r>    0.7550   -0.0000 </r>
       <r>    0.7955   -0.0000 </r>
       <r>    0.9920   -0.0000 </r>
       <r>    1.2084   -0.0000 </r>
       <r>    1.2241   -0.0000 </r>
       <r>    1.4943   -0.0000 </r>
       <r>    1.5975   -0.0000 </r>
       <r>    1.7010   -0.0000 </r>
       <r>    1.8999   -0.0000 </r>
       <r>    2.1752   -0.0000 </r>
       <r>    2.4372   -0.0000 </r>
       <r>    2.4485   -0.0000 </r>
       <r>    2.4968   -0.0000 </r>
       <r>    2.6284   -0.0000 </r>
       <r>    2.6787    0.0000 </r>
       <r>    2.7596    0.0000 </r>
       <r>    2.8030    0.0000 </r>
       <r>    3.0333    0.0000 </r>
       <r>    3.0887    0.0000 </r>
       <r>    3.5987    0.0000 </r>
       <r>    3.6993    0.0000 </r>
       <r>    4.1154    0.0000 </r>
       <r>    4.2539    0.0000 </r>
       <r>    4.5606    0.0000 </r>
       <r>    4.7133    0.0000 </r>
       <r>    5.1082    0.0000 </r>
       <r>    5.2748    0.0000 </r>
       <r>    5.3038    0.0000 </r>
       <r>    5.5045    0.0000 </r>
       <r>    5.5507    0.0000 </r>
       <r>    5.6109    0.0000 </r>
       <r>    5.6365    0.0000 </r>
       <r>    5.7108    0.0000 </r>
       <r>    5.8293    0.0000 </r>
       <r>    5.9008    0.0000 </r>
       <r>    6.0399    0.0000 </r>
       <r>    6.2224    0.0000 </r>
[...]
       <r>    6.9669    0.0000 </r>
       <r>    6.9777    0.0000 </r>
       <r>    7.1177    0.0000 </r>
       <r>    7.2194    0.0000 </r>
       <r>    7.3235    0.0000 </r>
      </set>
     </set>
    </set>
   </array>
  </eigenvalues>
  <separator name="orbital magnetization" >
   <v name="MAGDIPOLOUT">      0.00000000      0.00000000      0.00000000</v>
  </separator>
  <dos>
   <i name="efermi">     -0.07605192 </i>
   <total>
    <array>
     <dimension dim="1">gridpoints</dimension>
     <dimension dim="2">spin</dimension>
     <field>energy</field>
     <field>total</field>
     <field>integrated</field>
     <set>
      <set comment="spin 1">
       <r>    -9.9000     0.0000     0.0000 </r>
       <r>    -9.8381     0.0000     0.0000 </r>
       <r>    -9.7763     0.0000     0.0000 </r>
       <r>    -9.7145    -0.0000    -0.0000 </r>
       <r>    -9.6527    -0.0000    -0.0000 </r>
       <r>    -9.5908    -0.0000    -0.0000 </r>
       <r>    -9.5290    -0.0000    -0.0000 </r>
       <r>    -9.4672    -0.0000    -0.0000 </r>
       <r>    -9.4054    -0.0000    -0.0000 </r>
       <r>    -9.3436    -0.0000    -0.0000 </r>
       <r>    -9.2817    -0.0000    -0.0000 </r>
       <r>    -9.2199    -0.0000    -0.0000 </r>
       <r>    -9.1581    -0.0010    -0.0001 </r>
       <r>    -9.0963    -0.0107    -0.0007 </r>
       <r>    -9.0344    -0.0336    -0.0028 </r>
       <r>    -8.9726     0.0555     0.0006 </r>
       <r>    -8.9108     0.3356     0.0214 </r>
       <r>    -8.8490     0.6185     0.0596 </r>
       <r>    -8.7871     2.0950     0.1891 </r>
       <r>    -8.7253     3.8163     0.4251 </r>
       <r>    -8.6635     2.1877     0.5603 </r>
       <r>    -8.6017    -0.0487     0.5573 </r>
       <r>    -8.5399     0.2275     0.5714 </r>
       <r>    -8.4780     2.6233     0.7335 </r>
       <r>    -8.4162     3.8069     0.9689 </r>
       <r>    -8.3544     3.5608     1.1890 </r>
       <r>    -8.2926     3.7251     1.4193 </r>
       <r>    -8.2307     1.8031     1.5308 </r>
       <r>    -8.1689    -0.0222     1.5294 </r>
       <r>    -8.1071    -0.3682     1.5067 </r>
       <r>    -8.0453    -0.2320     1.4923 </r>
       <r>    -7.9835     2.3103     1.6352 </r>
       <r>    -7.9216     6.7457     2.0522 </r>
       <r>    -7.8598     5.8030     2.4110 </r>
       <r>    -7.7980     1.5274     2.5054 </r>
       <r>    -7.7362     1.9391     2.6253 </r>
       <r>    -7.6743     5.4872     2.9645 </r>
       <r>    -7.6125     6.1143     3.3425 </r>
       <r>    -7.5507     2.7218     3.5108 </r>
       <r>    -7.4889     1.0393     3.5750 </r>
       <r>    -7.4270     3.1754     3.7713 </r>
       <r>    -7.3652     5.6302     4.1194 </r>
       <r>    -7.3034     7.4505     4.5800 </r>
       <r>    -7.2416     9.0020     5.1365 </r>
       <r>    -7.1798     9.3808     5.7165 </r>
       <r>    -7.1179     6.8202     6.1381 </r>
       <r>    -7.0561     5.1719     6.4579 </r>
       <r>    -6.9943     4.9615     6.7646 </r>
       <r>    -6.9325     3.9695     7.0100 </r>
       <r>    -6.8706     4.3518     7.2790 </r>
       <r>    -6.8088     7.1851     7.7232 </r>
       <r>    -6.7470     8.3063     8.2368 </r>
       <r>    -6.6852     6.1320     8.6159 </r>
       <r>    -6.6234     7.8270     9.0997 </r>
       <r>    -6.5615    14.1448     9.9742 </r>
       <r>    -6.4997    13.9453    10.8363 </r>
       <r>    -6.4379    10.8349    11.5062 </r>
       <r>    -6.3761    10.9793    12.1850 </r>
       <r>    -6.3142     9.0885    12.7468 </r>
       <r>    -6.2524    10.6842    13.4074 </r>
       <r>    -6.1906    20.3241    14.6639 </r>
       <r>    -6.1288    33.0113    16.7047 </r>
       <r>    -6.0669    36.5727    18.9657 </r>
       <r>    -6.0051    30.8287    20.8716 </r>
       <r>    -5.9433    29.1919    22.6764 </r>
       <r>    -5.8815    32.7633    24.7019 </r>
       <r>    -5.8197    36.3815    26.9511 </r>
       <r>    -5.7578    29.6274    28.7827 </r>
       <r>    -5.6960    26.0068    30.3906 </r>
       <r>    -5.6342    33.7346    32.4761 </r>
       <r>    -5.5724    40.5606    34.9837 </r>
       <r>    -5.5105    43.3589    37.6643 </r>
       <r>    -5.4487    52.7881    40.9278 </r>
       <r>    -5.3869    63.1220    44.8301 </r>
       <r>    -5.3251    63.7044    48.7685 </r>
       <r>    -5.2633    55.3832    52.1925 </r>
       <r>    -5.2014    44.6471    54.9527 </r>
       <r>    -5.1396    40.6725    57.4672 </r>
       <r>    -5.0778    51.1482    60.6293 </r>
       <r>    -5.0160    70.5582    64.9914 </r>
       <r>    -4.9541    59.4887    68.6691 </r>
       <r>    -4.8923    29.9249    70.5192 </r>
       <r>    -4.8305    25.6153    72.1028 </r>
       <r>    -4.7687    41.4205    74.6635 </r>
       <r>    -4.7068    37.7301    76.9961 </r>
       <r>    -4.6450    21.6396    78.3339 </r>
       <r>    -4.5832    27.0341    80.0052 </r>
       <r>    -4.5214    45.6041    82.8246 </r>
       <r>    -4.4596    59.6536    86.5126 </r>
       <r>    -4.3977    62.0426    90.3482 </r>
       <r>    -4.3359    52.3254    93.5831 </r>
       <r>    -4.2741    44.8662    96.3569 </r>
       <r>    -4.2123    43.5356    99.0484 </r>
       <r>    -4.1504    48.2620   102.0320 </r>
       <r>    -4.0886    58.9323   105.6754 </r>
       <r>    -4.0268    57.4143   109.2249 </r>
       <r>    -3.9650    46.0849   112.0740 </r>
       <r>    -3.9032    41.1401   114.6174 </r>
       <r>    -3.8413    39.3480   117.0500 </r>
       <r>    -3.7795    36.6243   119.3142 </r>
       <r>    -3.7177    44.2043   122.0470 </r>
       <r>    -3.6559    61.0996   125.8244 </r>
       <r>    -3.5940    63.2828   129.7367 </r>
       <r>    -3.5322    56.6507   133.2390 </r>
       <r>    -3.4704    57.7240   136.8077 </r>
       <r>    -3.4086    69.1367   141.0819 </r>
       <r>    -3.3467    76.6788   145.8224 </r>
       <r>    -3.2849    72.1808   150.2848 </r>
       <r>    -3.2231    66.7878   154.4138 </r>
       <r>    -3.1613    75.7635   159.0977 </r>
       <r>    -3.0995    88.6378   164.5775 </r>
       <r>    -3.0376    81.3217   169.6051 </r>
       <r>    -2.9758    75.2109   174.2548 </r>
       <r>    -2.9140    77.8737   179.0692 </r>
       <r>    -2.8522    76.5806   183.8036 </r>
       <r>    -2.7903    87.1867   189.1937 </r>
       <r>    -2.7285   102.9979   195.5613 </r>
       <r>    -2.6667   101.8548   201.8583 </r>
       <r>    -2.6049    78.8138   206.7308 </r>
       <r>    -2.5431    61.7074   210.5457 </r>
       <r>    -2.4812    63.6950   214.4835 </r>
       <r>    -2.4194    57.8669   218.0610 </r>
       <r>    -2.3576    41.5976   220.6326 </r>
       <r>    -2.2958    28.4653   222.3924 </r>
       <r>    -2.2339    25.2494   223.9534 </r>
       <r>    -2.1721    32.8192   225.9824 </r>
       <r>    -2.1103    47.5932   228.9248 </r>
       <r>    -2.0485    69.4909   233.2209 </r>
       <r>    -1.9866    90.0521   238.7881 </r>
       <r>    -1.9248    90.6506   244.3924 </r>
       <r>    -1.8630    76.0660   249.0950 </r>
       <r>    -1.8012    56.3031   252.5758 </r>
       <r>    -1.7394    43.3016   255.2529 </r>
       <r>    -1.6775    43.4048   257.9363 </r>
       <r>    -1.6157    49.2348   260.9801 </r>
       <r>    -1.5539    57.4075   264.5292 </r>
       <r>    -1.4921    57.9625   268.1126 </r>
       <r>    -1.4302    55.2678   271.5294 </r>
       <r>    -1.3684    60.0513   275.2419 </r>
       <r>    -1.3066    58.1774   278.8386 </r>
       <r>    -1.2448    50.8294   281.9810 </r>
       <r>    -1.1830    59.0112   285.6292 </r>
       <r>    -1.1211    77.1945   290.4016 </r>
       <r>    -1.0593    85.9336   295.7143 </r>
       <r>    -0.9975    82.9892   300.8449 </r>
       <r>    -0.9357    65.8173   304.9139 </r>
       <r>    -0.8738    56.4577   308.4043 </r>
       <r>    -0.8120    57.4681   311.9571 </r>
       <r>    -0.7502    48.7398   314.9703 </r>
       <r>    -0.6884    42.6678   317.6082 </r>
       <r>    -0.6265    55.1424   321.0172 </r>
       <r>    -0.5647    62.8778   324.9045 </r>
       <r>    -0.5029    58.8304   328.5416 </r>
       <r>    -0.4411    61.0937   332.3185 </r>
       <r>    -0.3793    73.3562   336.8536 </r>
       <r>    -0.3174    91.1080   342.4862 </r>
       <r>    -0.2556    90.9544   348.1092 </r>
       <r>    -0.1938    64.9560   352.1250 </r>
       <r>    -0.1320    60.8463   355.8867 </r>
       <r>    -0.0701    92.4138   361.5999 </r>
       <r>    -0.0083    88.6358   367.0796 </r>
       <r>     0.0535    45.6992   369.9049 </r>
       <r>     0.1153    35.1618   372.0787 </r>
       <r>     0.1772    55.4283   375.5054 </r>
       <r>     0.2390    53.4980   378.8128 </r>
       <r>     0.3008    42.3182   381.4291 </r>
       <r>     0.3626    36.0723   383.6591 </r>
       <r>     0.4244    22.8762   385.0734 </r>
       <r>     0.4863    10.2386   385.7064 </r>
       <r>     0.5481     3.6506   385.9321 </r>
       <r>     0.6099     2.6341   386.0949 </r>
       <r>     0.6717     5.9001   386.4597 </r>
       <r>     0.7336    13.2147   387.2767 </r>
       <r>     0.7954    16.0447   388.2686 </r>
       <r>     0.8572     9.9582   388.8842 </r>
       <r>     0.9190     7.8329   389.3685 </r>
       <r>     0.9808    11.3410   390.0696 </r>
       <r>     1.0427     7.8825   390.5569 </r>
       <r>     1.1045     1.9425   390.6770 </r>
       <r>     1.1663     5.2492   391.0015 </r>
       <r>     1.2281    12.6285   391.7823 </r>
       <r>     1.2900    13.4461   392.6136 </r>
       <r>     1.3518    11.2592   393.3096 </r>
       <r>     1.4136    10.2862   393.9455 </r>
       <r>     1.4754    17.5472   395.0304 </r>
       <r>     1.5373    27.8165   396.7501 </r>
       <r>     1.5991    23.9677   398.2318 </r>
       <r>     1.6609    17.2625   399.2990 </r>
       <r>     1.7227    15.0411   400.2289 </r>
       <r>     1.7845     7.8356   400.7133 </r>
       <r>     1.8464     1.1609   400.7851 </r>
       <r>     1.9082     2.3978   400.9333 </r>
       <r>     1.9700     6.0257   401.3059 </r>
       <r>     2.0318     7.1734   401.7493 </r>
       <r>     2.0937     4.9073   402.0527 </r>
       <r>     2.1555     4.7223   402.3447 </r>
       <r>     2.2173     9.7584   402.9480 </r>
       <r>     2.2791    11.6253   403.6667 </r>
       <r>     2.3409    11.4648   404.3754 </r>
       <r>     2.4028    16.5607   405.3993 </r>
       <r>     2.4646    22.5586   406.7939 </r>
       <r>     2.5264    18.1861   407.9182 </r>
       <r>     2.5882     8.8293   408.4641 </r>
       <r>     2.6501     6.3409   408.8561 </r>
       <r>     2.7119     7.8305   409.3402 </r>
       <r>     2.7737    14.3145   410.2252 </r>
       <r>     2.8355    19.5598   411.4344 </r>
       <r>     2.8974    16.0607   412.4273 </r>
       <r>     2.9592    10.4840   413.0755 </r>
       <r>     3.0210     8.4799   413.5997 </r>
       <r>     3.0828    12.6471   414.3816 </r>
       <r>     3.1446    13.7814   415.2336 </r>
       <r>     3.2065    11.0252   415.9152 </r>
       <r>     3.2683     9.7414   416.5175 </r>
       <r>     3.3301     6.6437   416.9282 </r>
       <r>     3.3919     1.7917   417.0389 </r>
       <r>     3.4538     1.9085   417.1569 </r>
       <r>     3.5156     7.5402   417.6231 </r>
       <r>     3.5774    14.0034   418.4888 </r>
       <r>     3.6392    20.5998   419.7624 </r>
       <r>     3.7010    23.8023   421.2339 </r>
       <r>     3.7629    18.6263   422.3854 </r>
       <r>     3.8247     9.5184   422.9739 </r>
       <r>     3.8865     4.0205   423.2224 </r>
       <r>     3.9483     3.2687   423.4245 </r>
       <r>     4.0102     4.4994   423.7027 </r>
       <r>     4.0720     6.6600   424.1144 </r>
       <r>     4.1338     8.1064   424.6156 </r>
       <r>     4.1956     7.3266   425.0685 </r>
       <r>     4.2575     5.3336   425.3982 </r>
       <r>     4.3193     6.3409   425.7903 </r>
       <r>     4.3811    17.4764   426.8707 </r>
       <r>     4.4429    25.8008   428.4658 </r>
       <r>     4.5047    16.4163   429.4807 </r>
       <r>     4.5666     7.1405   429.9221 </r>
       <r>     4.6284     8.7204   430.4612 </r>
       <r>     4.6902    12.9228   431.2602 </r>
       <r>     4.7520    14.6871   432.1682 </r>
       <r>     4.8139    11.4530   432.8762 </r>
       <r>     4.8757     7.0414   433.3115 </r>
       <r>     4.9375     6.6076   433.7200 </r>
       <r>     4.9993     9.7509   434.3229 </r>
       <r>     5.0611     8.4913   434.8478 </r>
       <r>     5.1230     6.2005   435.2311 </r>
       <r>     5.1848     9.6181   435.8258 </r>
       <r>     5.2466    13.5287   436.6621 </r>
       <r>     5.3084    13.0801   437.4708 </r>
       <r>     5.3703     8.2825   437.9828 </r>
       <r>     5.4321     9.0922   438.5449 </r>
       <r>     5.4939    18.0326   439.6598 </r>
       <r>     5.5557    24.0460   441.1464 </r>
       <r>     5.6176    25.3071   442.7109 </r>
       <r>     5.6794    25.4957   444.2871 </r>
       <r>     5.7412    23.4695   445.7381 </r>
       <r>     5.8030    19.4722   446.9419 </r>
       <r>     5.8648    17.2240   448.0067 </r>
       <r>     5.9267    18.4344   449.1464 </r>
       <r>     5.9885    25.5240   450.7244 </r>
       <r>     6.0503    30.5122   452.6107 </r>
       <r>     6.1121    21.0402   453.9115 </r>
       <r>     6.1740    11.0501   454.5946 </r>
       <r>     6.2358    16.1249   455.5915 </r>
       <r>     6.2976    28.2635   457.3388 </r>
       <r>     6.3594    32.5039   459.3483 </r>
       <r>     6.4212    21.1578   460.6563 </r>
       <r>     6.4831    10.8987   461.3301 </r>
       <r>     6.5449    18.2681   462.4595 </r>
       <r>     6.6067    29.5543   464.2866 </r>
       <r>     6.6685    29.3227   466.0995 </r>
       <r>     6.7304    25.6493   467.6852 </r>
       <r>     6.7922    21.4842   469.0134 </r>
       <r>     6.8540    13.7687   469.8646 </r>
       <r>     6.9158    12.6436   470.6463 </r>
       <r>     6.9777    16.4642   471.6641 </r>
       <r>     7.0395    15.4738   472.6208 </r>
       <r>     7.1013    17.2547   473.6875 </r>
       <r>     7.1631    23.1853   475.1209 </r>
       <r>     7.2249    24.8010   476.6541 </r>
       <r>     7.2868    18.6431   477.8067 </r>
       <r>     7.3486     9.0890   478.3686 </r>
       <r>     7.4104     3.2510   478.5696 </r>
       <r>     7.4722     3.7456   478.8012 </r>
       <r>     7.5341     6.0126   479.1729 </r>
       <r>     7.5959     7.0818   479.6107 </r>
       <r>     7.6577     5.2455   479.9350 </r>
       <r>     7.7195     1.4322   480.0235 </r>
       <r>     7.7813    -0.2017   480.0111 </r>
       <r>     7.8432    -0.1530   480.0016 </r>
       <r>     7.9050    -0.0241   480.0001 </r>
       <r>     7.9668    -0.0016   480.0000 </r>
       <r>     8.0286    -0.0000   480.0000 </r>
       <r>     8.0905    -0.0000   480.0000 </r>
       <r>     8.1523    -0.0000   480.0000 </r>
       <r>     8.2141    -0.0000   480.0000 </r>
       <r>     8.2759    -0.0000   480.0000 </r>
       <r>     8.3378     0.0000   480.0000 </r>
       <r>     8.3996     0.0000   480.0000 </r>
       <r>     8.4614     0.0000   480.0000 </r>
       <r>     8.5232     0.0000   480.0000 </r>
       <r>     8.5850     0.0000   480.0000 </r>
       <r>     8.6469     0.0000   480.0000 </r>
      </set>
     </set>
    </array>
   </total>
  </dos>
 </calculation>
 <structure name="finalpos" >
  <crystal>
   <varray name="basis" >
    <v>       8.46831000       0.00000000       0.00000000 </v>
    <v>       4.23415500       7.33377159       0.00000000 </v>
    <v>       0.00000000       0.00000000      24.96566199 </v>
   </varray>
   <i name="volume">   1550.48373159 </i>
   <varray name="rec_basis" >
    <v>       0.11808732      -0.06817774       0.00000000 </v>
    <v>       0.00000000       0.13635549       0.00000000 </v>
    <v>       0.00000000       0.00000000       0.04005502 </v>
   </varray>
  </crystal>
  <varray name="positions" >
   <v>       0.00000000       0.00000000       0.34046764 </v>
   <v>       0.33400137       0.00000000       0.34046764 </v>
   <v>       0.66800274       0.00000000       0.34046764 </v>
   <v>       0.00000000       0.33400137       0.34046764 </v>
   <v>       0.33400137       0.33400137       0.34046764 </v>
   <v>       0.66800274       0.33400137       0.34046764 </v>
   <v>       0.00000000       0.66800274       0.34046764 </v>
   <v>       0.33400137       0.66800274       0.34046764 </v>
   <v>       0.66800274       0.66800274       0.34046764 </v>
   <v>       0.11133379       0.11133379       0.43297074 </v>
   <v>       0.44533516       0.11133379       0.43297074 </v>
   <v>       0.77933653       0.11133379       0.43297074 </v>
   <v>       0.11133379       0.44533516       0.43297074 </v>
   <v>       0.44533516       0.44533516       0.43297074 </v>
   <v>       0.77933653       0.44533516       0.43297074 </v>
   <v>       0.11133379       0.77933653       0.43297074 </v>
   <v>       0.44533516       0.77933653       0.43297074 </v>
   <v>       0.77933653       0.77933653       0.43297074 </v>
   <v>       0.89164623       0.22527828       0.52490160 </v>
   <v>       0.22439019       0.22458112       0.52563311 </v>
   <v>       0.55822361       0.22448952       0.52422904 </v>
   <v>       0.89177967       0.55656881       0.52515179 </v>
   <v>       0.22442470       0.55831263       0.52421591 </v>
   <v>       0.55786191       0.55813604       0.52438005 </v>
   <v>       0.89096318       0.89106405       0.52407725 </v>
   <v>       0.22489309       0.89200231       0.52489904 </v>
   <v>       0.55636264       0.89193896       0.52514937 </v>
   <v>       0.00152597       0.00188955       0.61713181 </v>
   <v>       0.33983941       0.00224762       0.62090310 </v>
   <v>       0.67088651       0.00368000       0.61762731 </v>
   <v>       0.00203561       0.34001382       0.62090282 </v>
   <v>       0.34001002       0.34036341       0.61766499 </v>
   <v>       0.67044364       0.33715573       0.61764418 </v>
   <v>       0.00352372       0.67110657       0.61761954 </v>
   <v>       0.33689353       0.67082149       0.61762551 </v>
   <v>       0.67034519       0.67043465       0.61785150 </v>
   <v>       0.18220730       0.18241486       0.66127678 </v>
  </varray>
  <varray name="selective"  type="logical" >
   <v type="logical" >  F  F  F </v>
   <v type="logical" >  F  F  F </v>
   <v type="logical" >  F  F  F </v>
   <v type="logical" >  F  F  F </v>
   <v type="logical" >  F  F  F </v>
   <v type="logical" >  F  F  F </v>
   <v type="logical" >  F  F  F </v>
   <v type="logical" >  F  F  F </v>
   <v type="logical" >  F  F  F </v>
   <v type="logical" >  F  F  F </v>
   <v type="logical" >  F  F  F </v>
   <v type="logical" >  F  F  F </v>
   <v type="logical" >  F  F  F </v>
   <v type="logical" >  F  F  F </v>
   <v type="logical" >  F  F  F </v>
   <v type="logical" >  F  F  F </v>
   <v type="logical" >  F  F  F </v>
   <v type="logical" >  F  F  F </v>
   <v type="logical" >  T  T  T </v>
   <v type="logical" >  T  T  T </v>
   <v type="logical" >  T  T  T </v>
   <v type="logical" >  T  T  T </v>
   <v type="logical" >  T  T  T </v>
   <v type="logical" >  T  T  T </v>
   <v type="logical" >  T  T  T </v>
   <v type="logical" >  T  T  T </v>
   <v type="logical" >  T  T  T </v>
   <v type="logical" >  T  T  T </v>
   <v type="logical" >  T  T  T </v>
   <v type="logical" >  T  T  T </v>
   <v type="logical" >  T  T  T </v>
   <v type="logical" >  T  T  T </v>
   <v type="logical" >  T  T  T </v>
   <v type="logical" >  T  T  T </v>
   <v type="logical" >  T  T  T </v>
   <v type="logical" >  T  T  T </v>
   <v type="logical" >  T  T  T </v>
  </varray>
  <nose>
   <v>      -3.00000000       0.00000000       0.00010000       0.00010000 </v>
  </nose>
 </structure>
</modeling>
