unknown system                          
           1
     8.468310    0.000000    0.000000
     4.234155    7.333772    0.000000
     0.000000    0.000000   24.965662
   Pt   H 
    36     1
Direct configuration=     1
   0.00000000  0.00000000  0.34046764
   0.33400137  0.00000000  0.34046764
   0.66800274  0.00000000  0.34046764
   0.00000000  0.33400137  0.34046764
   0.33400137  0.33400137  0.34046764
   0.66800274  0.33400137  0.34046764
   0.00000000  0.66800274  0.34046764
   0.33400137  0.66800274  0.34046764
   0.66800274  0.66800274  0.34046764
   0.11133379  0.11133379  0.43297074
   0.44533516  0.11133379  0.43297074
   0.77933653  0.11133379  0.43297074
   0.11133379  0.44533516  0.43297074
   0.44533516  0.44533516  0.43297074
   0.77933653  0.44533516  0.43297074
   0.11133379  0.77933653  0.43297074
   0.44533516  0.77933653  0.43297074
   0.77933653  0.77933653  0.43297074
   0.89164623  0.22527828  0.52490160
   0.22439019  0.22458112  0.52563311
   0.55822361  0.22448952  0.52422904
   0.89177967  0.55656881  0.52515179
   0.22442470  0.55831263  0.52421591
   0.55786191  0.55813604  0.52438005
   0.89096318  0.89106405  0.52407725
   0.22489309  0.89200231  0.52489904
   0.55636264  0.89193896  0.52514937
   0.00152597  0.00188955  0.61713181
   0.33983941  0.00224762  0.62090310
   0.67088651  0.00368000  0.61762731
   0.00203561  0.34001382  0.62090282
   0.34001002  0.34036341  0.61766499
   0.67044364  0.33715573  0.61764418
   0.00352372  0.67110657  0.61761954
   0.33689353  0.67082149  0.61762551
   0.67034519  0.67043465  0.61785150
   0.18220730  0.18241486  0.66127678
