  37  37   0   0
  0.4190497E+02  0.8468310E-09  0.8468310E-09  0.2496566E-08  0.5000000E-15
  1.000000000000000E-004
  CAR 
 unknown system                          
      8.60918113     -9.90171165  301     -0.07563657      1.00000000
     -9.902  0.0000E+00  0.0000E+00
     -9.840  0.0000E+00  0.0000E+00
     -9.778  0.0000E+00  0.0000E+00
     -9.717 -0.4316E-28 -0.2663E-29
     -9.655 -0.6351E-24 -0.3919E-25
     -9.593 -0.4335E-20 -0.2675E-21
     -9.531 -0.1371E-16 -0.8461E-18
     -9.470 -0.1940E-13 -0.1198E-14
     -9.408 -0.1300E-10 -0.8035E-12
     -9.346 -0.3984E-08 -0.2466E-09
     -9.285 -0.5545E-06 -0.3446E-07
     -9.223 -0.3454E-04 -0.2166E-05
     -9.161 -0.9344E-03 -0.5982E-04
     -9.100 -0.1018E-01 -0.6877E-03
     -9.038 -0.3347E-01 -0.2753E-02
     -8.976  0.4940E-01  0.2952E-03
     -8.914  0.3277E+00  0.2051E-01
     -8.853  0.6015E+00  0.5763E-01
     -8.791  0.2022E+01  0.1824E+00
     -8.729  0.3807E+01  0.4173E+00
     -8.668  0.2288E+01  0.5584E+00
     -8.606 -0.4443E-02  0.5582E+00
     -8.544  0.1701E+00  0.5687E+00
     -8.483  0.2531E+01  0.7248E+00
     -8.421  0.3816E+01  0.9603E+00
     -8.359  0.3566E+01  0.1180E+01
     -8.297  0.3754E+01  0.1412E+01
     -8.236  0.1903E+01  0.1529E+01
     -8.174  0.8116E-02  0.1530E+01
     -8.112 -0.3711E+00  0.1507E+01
     -8.051 -0.1696E+00  0.1496E+01
     -7.989  0.2278E+01  0.1637E+01
     -7.927  0.6393E+01  0.2031E+01
     -7.866  0.5825E+01  0.2391E+01
     -7.804  0.1943E+01  0.2511E+01
     -7.742  0.2502E+01  0.2665E+01
     -7.680  0.6551E+01  0.3069E+01
     -7.619  0.5917E+01  0.3434E+01
     -7.557  0.1991E+01  0.3557E+01
     -7.495  0.2148E+01  0.3690E+01
     -7.434  0.4051E+01  0.3940E+01
     -7.372  0.6159E+01  0.4320E+01
     -7.310  0.7095E+01  0.4758E+01
     -7.248  0.6639E+01  0.5167E+01
     -7.187  0.9454E+01  0.5750E+01
     -7.125  0.8720E+01  0.6289E+01
     -7.063  0.5203E+01  0.6610E+01
     -7.002  0.3880E+01  0.6849E+01
     -6.940  0.3243E+01  0.7049E+01
     -6.878  0.5207E+01  0.7370E+01
     -6.817  0.8448E+01  0.7892E+01
     -6.755  0.7132E+01  0.8332E+01
     -6.693  0.4068E+01  0.8583E+01
     -6.631  0.6680E+01  0.8995E+01
     -6.570  0.1359E+02  0.9834E+01
     -6.508  0.1477E+02  0.1075E+02
     -6.446  0.1173E+02  0.1147E+02
     -6.385  0.1112E+02  0.1216E+02
     -6.323  0.8645E+01  0.1269E+02
     -6.261  0.9165E+01  0.1325E+02
     -6.200  0.1781E+02  0.1435E+02
     -6.138  0.3079E+02  0.1625E+02
     -6.076  0.3731E+02  0.1855E+02
     -6.014  0.3211E+02  0.2054E+02
     -5.953  0.2933E+02  0.2235E+02
     -5.891  0.3205E+02  0.2432E+02
     -5.829  0.3620E+02  0.2656E+02
     -5.768  0.3136E+02  0.2849E+02
     -5.706  0.2611E+02  0.3010E+02
     -5.644  0.3222E+02  0.3209E+02
     -5.583  0.3954E+02  0.3453E+02
     -5.521  0.4238E+02  0.3715E+02
     -5.459  0.5036E+02  0.4025E+02
     -5.397  0.6269E+02  0.4412E+02
     -5.336  0.6440E+02  0.4810E+02
     -5.274  0.5583E+02  0.5154E+02
     -5.212  0.4613E+02  0.5439E+02
     -5.151  0.4177E+02  0.5696E+02
     -5.089  0.4900E+02  0.5999E+02
     -5.027  0.6907E+02  0.6425E+02
     -4.965  0.6436E+02  0.6822E+02
     -4.904  0.3391E+02  0.7031E+02
     -4.842  0.2320E+02  0.7174E+02
     -4.780  0.3816E+02  0.7410E+02
     -4.719  0.4071E+02  0.7661E+02
     -4.657  0.2457E+02  0.7813E+02
     -4.595  0.2378E+02  0.7959E+02
     -4.534  0.4008E+02  0.8207E+02
     -4.472  0.5619E+02  0.8553E+02
     -4.410  0.6258E+02  0.8940E+02
     -4.348  0.5489E+02  0.9278E+02
     -4.287  0.4444E+02  0.9552E+02
     -4.225  0.3920E+02  0.9794E+02
     -4.163  0.4571E+02  0.1008E+03
     -4.102  0.6091E+02  0.1045E+03
     -4.040  0.6032E+02  0.1082E+03
     -3.978  0.4963E+02  0.1113E+03
     -3.917  0.4463E+02  0.1141E+03
     -3.855  0.4195E+02  0.1166E+03
     -3.793  0.3684E+02  0.1189E+03
     -3.731  0.4139E+02  0.1215E+03
     -3.670  0.5917E+02  0.1251E+03
     -3.608  0.6263E+02  0.1290E+03
     -3.546  0.5517E+02  0.1324E+03
     -3.485  0.5558E+02  0.1358E+03
     -3.423  0.6737E+02  0.1400E+03
     -3.361  0.7653E+02  0.1447E+03
     -3.299  0.7193E+02  0.1491E+03
     -3.238  0.6508E+02  0.1532E+03
     -3.176  0.7073E+02  0.1575E+03
     -3.114  0.8715E+02  0.1629E+03
     -3.053  0.8633E+02  0.1682E+03
     -2.991  0.7811E+02  0.1730E+03
     -2.929  0.7923E+02  0.1779E+03
     -2.868  0.7507E+02  0.1826E+03
     -2.806  0.8321E+02  0.1877E+03
     -2.744  0.1020E+03  0.1940E+03
     -2.682  0.1043E+03  0.2004E+03
     -2.621  0.8519E+02  0.2057E+03
     -2.559  0.6320E+02  0.2096E+03
     -2.497  0.6266E+02  0.2135E+03
     -2.436  0.6191E+02  0.2173E+03
     -2.374  0.4582E+02  0.2201E+03
     -2.312  0.3004E+02  0.2220E+03
     -2.251  0.2416E+02  0.2234E+03
     -2.189  0.2959E+02  0.2253E+03
     -2.127  0.4290E+02  0.2279E+03
     -2.065  0.6269E+02  0.2318E+03
     -2.004  0.8587E+02  0.2371E+03
     -1.942  0.9286E+02  0.2428E+03
     -1.880  0.8217E+02  0.2479E+03
     -1.819  0.6244E+02  0.2517E+03
     -1.757  0.4458E+02  0.2545E+03
     -1.695  0.4154E+02  0.2571E+03
     -1.634  0.4723E+02  0.2600E+03
     -1.572  0.5704E+02  0.2635E+03
     -1.510  0.5845E+02  0.2671E+03
     -1.448  0.5257E+02  0.2703E+03
     -1.387  0.5755E+02  0.2739E+03
     -1.325  0.6130E+02  0.2777E+03
     -1.263  0.5214E+02  0.2809E+03
     -1.202  0.5345E+02  0.2842E+03
     -1.140  0.7270E+02  0.2887E+03
     -1.078  0.8495E+02  0.2939E+03
     -1.016  0.8595E+02  0.2992E+03
     -0.955  0.7265E+02  0.3037E+03
     -0.893  0.5780E+02  0.3073E+03
     -0.831  0.5676E+02  0.3108E+03
     -0.770  0.5249E+02  0.3140E+03
     -0.708  0.4307E+02  0.3167E+03
     -0.646  0.4954E+02  0.3197E+03
     -0.585  0.6230E+02  0.3236E+03
     -0.523  0.6051E+02  0.3273E+03
     -0.461  0.5880E+02  0.3309E+03
     -0.399  0.6798E+02  0.3351E+03
     -0.338  0.8706E+02  0.3405E+03
     -0.276  0.9585E+02  0.3464E+03
     -0.214  0.7409E+02  0.3510E+03
     -0.153  0.5552E+02  0.3544E+03
     -0.091  0.8177E+02  0.3595E+03
     -0.029  0.9792E+02  0.3655E+03
      0.032  0.5997E+02  0.3692E+03
      0.094  0.3244E+02  0.3712E+03
      0.156  0.4947E+02  0.3742E+03
      0.218  0.5697E+02  0.3778E+03
      0.279  0.4444E+02  0.3805E+03
      0.341  0.3919E+02  0.3829E+03
      0.403  0.2874E+02  0.3847E+03
      0.464  0.1405E+02  0.3856E+03
      0.526  0.4240E+01  0.3858E+03
      0.588  0.1215E+01  0.3859E+03
      0.649  0.4083E+01  0.3862E+03
      0.711  0.1106E+02  0.3868E+03
      0.773  0.1694E+02  0.3879E+03
      0.835  0.1315E+02  0.3887E+03
      0.896  0.7632E+01  0.3892E+03
      0.958  0.1020E+02  0.3898E+03
      1.020  0.1039E+02  0.3904E+03
      1.081  0.3151E+01  0.3906E+03
      1.143  0.1370E+01  0.3907E+03
      1.205  0.9463E+01  0.3913E+03
      1.267  0.1503E+02  0.3922E+03
      1.328  0.1332E+02  0.3930E+03
      1.390  0.1079E+02  0.3937E+03
      1.452  0.1353E+02  0.3945E+03
      1.513  0.2515E+02  0.3961E+03
      1.575  0.2696E+02  0.3978E+03
      1.637  0.1880E+02  0.3989E+03
      1.698  0.1558E+02  0.3999E+03
      1.760  0.1133E+02  0.4006E+03
      1.822  0.3127E+01  0.4008E+03
      1.884  0.1328E+01  0.4009E+03
      1.945  0.3971E+01  0.4011E+03
      2.007  0.6158E+01  0.4015E+03
      2.069  0.6543E+01  0.4019E+03
      2.130  0.5034E+01  0.4022E+03
      2.192  0.8019E+01  0.4027E+03
      2.254  0.1138E+02  0.4034E+03
      2.315  0.1068E+02  0.4041E+03
      2.377  0.1376E+02  0.4049E+03
      2.439  0.2057E+02  0.4062E+03
      2.501  0.2155E+02  0.4075E+03
      2.562  0.1286E+02  0.4083E+03
      2.624  0.6722E+01  0.4087E+03
      2.686  0.6321E+01  0.4091E+03
      2.747  0.9750E+01  0.4097E+03
      2.809  0.1812E+02  0.4108E+03
      2.871  0.1965E+02  0.4120E+03
      2.933  0.1367E+02  0.4129E+03
      2.994  0.8201E+01  0.4134E+03
      3.056  0.1042E+02  0.4140E+03
      3.118  0.1427E+02  0.4149E+03
      3.179  0.1169E+02  0.4156E+03
      3.241  0.9949E+01  0.4162E+03
      3.303  0.8748E+01  0.4168E+03
      3.364  0.3924E+01  0.4170E+03
      3.426  0.1253E+00  0.4170E+03
      3.488  0.2661E+01  0.4172E+03
      3.550  0.1063E+02  0.4178E+03
      3.611  0.1941E+02  0.4190E+03
      3.673  0.2499E+02  0.4206E+03
      3.735  0.2250E+02  0.4220E+03
      3.796  0.1319E+02  0.4228E+03
      3.858  0.5602E+01  0.4231E+03
      3.920  0.3236E+01  0.4233E+03
      3.981  0.3401E+01  0.4235E+03
      4.043  0.4064E+01  0.4238E+03
      4.105  0.6536E+01  0.4242E+03
      4.167  0.8917E+01  0.4247E+03
      4.228  0.7929E+01  0.4252E+03
      4.290  0.5523E+01  0.4256E+03
      4.352  0.1034E+02  0.4262E+03
      4.413  0.2309E+02  0.4276E+03
      4.475  0.2282E+02  0.4290E+03
      4.537  0.9724E+01  0.4297E+03
      4.598  0.6887E+01  0.4301E+03
      4.660  0.1196E+02  0.4308E+03
      4.722  0.1495E+02  0.4317E+03
      4.784  0.1325E+02  0.4326E+03
      4.845  0.8602E+01  0.4331E+03
      4.907  0.6165E+01  0.4335E+03
      4.969  0.8712E+01  0.4340E+03
      5.030  0.9956E+01  0.4346E+03
      5.092  0.5726E+01  0.4350E+03
      5.154  0.6758E+01  0.4354E+03
      5.216  0.1247E+02  0.4362E+03
      5.277  0.1445E+02  0.4370E+03
      5.339  0.1168E+02  0.4378E+03
      5.401  0.9519E+01  0.4384E+03
      5.462  0.1414E+02  0.4392E+03
      5.524  0.2140E+02  0.4405E+03
      5.586  0.2523E+02  0.4421E+03
      5.647  0.2442E+02  0.4436E+03
      5.709  0.2269E+02  0.4450E+03
      5.771  0.2033E+02  0.4463E+03
      5.833  0.1770E+02  0.4474E+03
      5.894  0.1631E+02  0.4484E+03
      5.956  0.2213E+02  0.4497E+03
      6.018  0.3237E+02  0.4517E+03
      6.079  0.2940E+02  0.4535E+03
      6.141  0.1367E+02  0.4544E+03
      6.203  0.9344E+01  0.4550E+03
      6.264  0.2014E+02  0.4562E+03
      6.326  0.3213E+02  0.4582E+03
      6.388  0.2851E+02  0.4599E+03
      6.450  0.1533E+02  0.4609E+03
      6.511  0.1458E+02  0.4618E+03
      6.573  0.2324E+02  0.4632E+03
      6.635  0.2769E+02  0.4649E+03
      6.696  0.2809E+02  0.4667E+03
      6.758  0.2721E+02  0.4683E+03
      6.820  0.1921E+02  0.4695E+03
      6.881  0.1073E+02  0.4702E+03
      6.943  0.1164E+02  0.4709E+03
      7.005  0.1570E+02  0.4719E+03
      7.067  0.1821E+02  0.4730E+03
      7.128  0.2182E+02  0.4743E+03
      7.190  0.2416E+02  0.4758E+03
      7.252  0.2253E+02  0.4772E+03
      7.313  0.1440E+02  0.4781E+03
      7.375  0.5534E+01  0.4785E+03
      7.437  0.2455E+01  0.4786E+03
      7.499  0.4445E+01  0.4789E+03
      7.560  0.6904E+01  0.4793E+03
      7.622  0.7448E+01  0.4798E+03
      7.684  0.3840E+01  0.4800E+03
      7.745  0.2669E+00  0.4800E+03
      7.807 -0.3080E+00  0.4800E+03
      7.869 -0.7552E-01  0.4800E+03
      7.930 -0.6188E-02  0.4800E+03
      7.992 -0.2105E-03  0.4800E+03
      8.054 -0.3153E-05  0.4800E+03
      8.116 -0.2131E-07  0.4800E+03
      8.177 -0.6576E-10  0.4800E+03
      8.239 -0.9328E-13  0.4800E+03
      8.301  0.0000E+00  0.4800E+03
      8.362  0.0000E+00  0.4800E+03
      8.424  0.0000E+00  0.4800E+03
      8.486  0.0000E+00  0.4800E+03
      8.547  0.0000E+00  0.4800E+03
      8.609  0.0000E+00  0.4800E+03
