   37   37    1    1
  0.4190497E+02  0.8468310E-09  0.8468310E-09  0.2496566E-08  0.5000000E-15
  1.000000000000000E-004
  CAR 
 unknown system                          
    361     13    240
 
  0.1276756E-14  0.1276756E-14  0.1276756E-14  0.4000000E-01
      1         -8.901712   1.000000
      2         -7.789775   1.000000
      3         -7.064424   1.000000
      4         -6.502816   1.000000
      5         -6.473127   1.000000
      6         -6.457666   1.000000
      7         -6.455859   1.000000
      8         -6.438665   1.000000
      9         -6.438638   1.000000
     10         -6.427238   1.000000
     11         -6.131662   1.000000
     12         -5.917247   1.000000
     13         -5.913875   1.000000
     14         -5.910864   1.000000
     15         -5.907008   1.000000
     16         -5.899312   1.000000
     17         -5.824809   1.000000
     18         -5.472618   1.000000
     19         -5.465216   1.000000
     20         -5.454580   1.000000
     21         -5.449479   1.000000
     22         -5.441611   1.000000
     23         -5.348333   1.000000
     24         -5.234102   1.000000
     25         -5.226957   1.000000
     26         -5.225674   1.000000
     27         -5.220201   1.000000
     28         -5.219341   1.000000
     29         -5.122939   1.000000
     30         -5.035346   1.000000
     31         -5.032015   1.000000
     32         -5.025755   1.000000
     33         -5.021162   1.000000
     34         -5.010893   1.000000
     35         -4.973069   1.000000
     36         -4.958904   1.000000
     37         -4.954011   1.000000
     38         -4.950119   1.000000
     39         -4.918955   1.000000
     40         -4.911942   1.000000
     41         -4.589176   1.000000
     42         -4.381637   1.000000
     43         -4.381333   1.000000
     44         -4.353951   1.000000
     45         -4.339818   1.000000
     46         -4.327896   1.000000
     47         -4.316643   1.000000
     48         -4.295109   1.000000
     49         -4.293179   1.000000
     50         -4.288469   1.000000
     51         -4.137143   1.000000
     52         -4.134148   1.000000
     53         -4.077184   1.000000
     54         -4.036654   1.000000
     55         -4.032352   1.000000
     56         -3.587740   1.000000
     57         -3.581049   1.000000
     58         -3.573011   1.000000
     59         -3.563332   1.000000
     60         -3.554232   1.000000
     61         -3.501479   1.000000
     62         -3.480469   1.000000
     63         -3.393678   1.000000
     64         -3.374573   1.000000
     65         -3.373075   1.000000
     66         -3.371960   1.000000
     67         -3.364914   1.000000
     68         -3.360032   1.000000
     69         -3.354112   1.000000
     70         -3.319003   1.000000
     71         -3.309812   1.000000
     72         -3.304344   1.000000
     73         -3.303701   1.000000
     74         -3.298798   1.000000
     75         -3.267076   1.000000
     76         -3.261289   1.000000
     77         -3.255505   1.000000
     78         -3.155867   1.000000
     79         -3.149815   1.000000
     80         -3.145801   1.000000
     81         -3.144642   1.000000
     82         -3.136805   1.000000
     83         -3.132617   1.000000
     84         -2.946972   1.000000
     85         -2.929798   1.000000
     86         -2.926906   1.000000
     87         -2.921073   1.000000
     88         -2.916962   1.000000
     89         -2.906579   1.000000
     90         -2.896177   1.000000
     91         -2.889548   1.000000
     92         -2.839725   1.000000
     93         -2.829357   1.000000
     94         -2.782070   1.000000
     95         -2.773529   1.000000
     96         -2.744143   1.000000
     97         -2.734729   1.000000
     98         -2.708238   1.000000
     99         -2.694340   1.000000
    100         -2.688687   1.000000
    101         -2.627030   1.000000
    102         -2.526258   1.000000
    103         -2.519219   1.000000
    104         -2.515693   1.000000
    105         -2.507014   1.000000
    106         -2.502894   1.000000
    107         -2.494094   1.000000
    108         -2.264470   1.000000
    109         -2.028734   1.000000
    110         -2.007228   1.000000
    111         -2.001962   1.000000
    112         -1.993194   1.000000
    113         -1.990282   1.000000
    114         -1.984720   1.000000
    115         -1.978939   1.000000
    116         -1.974171   1.000000
    117         -1.957325   1.000000
    118         -1.953240   1.000000
    119         -1.944520   1.000000
    120         -1.873444   1.000000
    121         -1.862583   1.000000
    122         -1.809621   1.000000
    123         -1.738007   1.000000
    124         -1.734291   1.000000
    125         -1.724140   1.000000
    126         -1.716554   1.000000
    127         -1.708623   1.000000
    128         -1.601565   1.000000
    129         -1.588935   1.000000
    130         -1.540045   1.000000
    131         -1.536785   1.000000
    132         -1.520364   1.000000
    133         -1.494493   1.000000
    134         -1.296868   1.000000
    135         -1.280986   1.000000
    136         -1.277322   1.000000
    137         -1.257064   1.000000
    138         -1.251430   1.000000
    139         -1.248985   1.000000
    140         -1.187982   1.000000
    141         -1.176899   1.000000
    142         -1.054637   1.000000
    143         -1.048846   1.000000
    144         -1.029038   1.000000
    145         -1.025046   1.000000
    146         -1.024931   1.000000
    147         -1.021561   1.000000
    148         -0.912844   1.000000
    149         -0.887170   1.000000
    150         -0.865255   1.000000
    151         -0.845054   1.000000
    152         -0.831251   1.000000
    153         -0.827208   1.000000
    154         -0.823801   1.000000
    155         -0.818212   1.000000
    156         -0.807635   1.000000
    157         -0.807329   1.000000
    158         -0.800989   1.000000
    159         -0.795474   1.000000
    160         -0.734811   1.000000
    161         -0.722269   1.000000
    162         -0.694486   1.000000
    163         -0.683790   1.000000
    164         -0.667594   1.000000
    165         -0.658907   1.000000
    166         -0.644895   1.000000
    167         -0.643936   1.000000
    168         -0.605707   1.000000
    169         -0.592229   1.000000
    170         -0.583247   1.000000
    171         -0.558442   1.000000
    172         -0.553496   1.000000
    173         -0.544623   1.000000
    174         -0.538446   1.000000
    175         -0.538063   1.000000
    176         -0.458818   1.000000
    177         -0.447453   1.000001
    178         -0.443775   1.000001
    179         -0.440372   1.000002
    180         -0.430774   1.000003
    181         -0.430248   1.000003
    182         -0.388323   1.000045
    183         -0.347737   1.000408
    184         -0.336720   1.000696
    185         -0.323283   1.001286
    186         -0.322058   1.001357
    187         -0.311642   1.002115
    188         -0.306366   1.002622
    189         -0.115045   0.806526
    190         -0.109810   0.771330
    191         -0.019774   0.099417
    192         -0.016116   0.082147
    193         -0.010376   0.057774
    194          0.005177   0.007901
    195          0.008448   0.000229
    196          0.010356  -0.003830
    197          0.531758  -0.000000
    198          0.820644  -0.000000
    199          0.840718  -0.000000
    200          0.873434  -0.000000
    201          0.891270  -0.000000
    202          0.901564  -0.000000
    203          0.902014  -0.000000
    204          2.844249   0.000000
    205          3.124306   0.000000
    206          3.158636   0.000000
    207          3.197457   0.000000
    208          3.217925   0.000000
    209          3.219271   0.000000
    210          4.601924   0.000000
    211          4.715019   0.000000
    212          4.791024   0.000000
    213          4.815648   0.000000
    214          4.815973   0.000000
    215          4.820514   0.000000
    216          4.903044   0.000000
    217          5.083086   0.000000
    218          5.185784   0.000000
    219          5.434195   0.000000
    220          5.517847   0.000000
    221          5.786301   0.000000
    222          5.810385   0.000000
    223          5.846031   0.000000
    224          5.855839   0.000000
    225          5.866211   0.000000
    226          6.168019   0.000000
    227          6.384969   0.000000
    228          6.600887   0.000000
    229          6.611605   0.000000
    230          6.623151   0.000000
    231          6.842309   0.000000
    232          7.018650   0.000000
    233          7.124100   0.000000
    234          7.135770   0.000000
    235          7.153786   0.000000
    236          7.157756   0.000000
    237          7.163018   0.000000
    238          7.213073   0.000000
    239          7.257628   0.000000
    240          7.501717   0.000000
 
  0.2000000E+00  0.1278043E-14  0.1276756E-14  0.8000000E-01
      1         -8.753485   1.000000
      2         -7.663453   1.000000
      3         -7.026220   1.000000
      4         -6.917007   1.000000
      5         -6.561926   1.000000
      6         -6.547729   1.000000
      7         -6.360244   1.000000
      8         -6.266396   1.000000
      9         -6.226916   1.000000
     10         -6.213586   1.000000
     11         -6.102190   1.000000
     12         -6.000973   1.000000
     13         -5.978917   1.000000
     14         -5.846090   1.000000
     15         -5.839534   1.000000
     16         -5.828627   1.000000
     17         -5.739294   1.000000
     18         -5.537938   1.000000
     19         -5.425122   1.000000
     20         -5.417464   1.000000
     21         -5.410466   1.000000
     22         -5.386561   1.000000
     23         -5.336587   1.000000
     24         -5.304486   1.000000
     25         -5.278745   1.000000
     26         -5.231297   1.000000
     27         -5.220543   1.000000
     28         -5.211892   1.000000
     29         -5.160299   1.000000
     30         -5.118713   1.000000
     31         -5.109431   1.000000
     32         -5.037726   1.000000
     33         -5.019876   1.000000
     34         -5.011778   1.000000
     35         -5.009364   1.000000
     36         -4.868979   1.000000
     37         -4.813875   1.000000
     38         -4.783416   1.000000
     39         -4.770411   1.000000
     40         -4.752092   1.000000
     41         -4.590728   1.000000
     42         -4.500386   1.000000
     43         -4.494379   1.000000
     44         -4.446542   1.000000
     45         -4.418455   1.000000
     46         -4.402987   1.000000
     47         -4.390092   1.000000
     48         -4.295750   1.000000
     49         -4.213923   1.000000
     50         -4.149223   1.000000
     51         -4.129316   1.000000
     52         -4.114032   1.000000
     53         -4.072210   1.000000
     54         -4.051483   1.000000
     55         -4.005396   1.000000
     56         -3.834250   1.000000
     57         -3.737510   1.000000
     58         -3.730708   1.000000
     59         -3.686711   1.000000
     60         -3.667635   1.000000
     61         -3.638034   1.000000
     62         -3.587132   1.000000
     63         -3.564109   1.000000
     64         -3.558296   1.000000
     65         -3.531047   1.000000
     66         -3.524879   1.000000
     67         -3.452952   1.000000
     68         -3.444808   1.000000
     69         -3.409238   1.000000
     70         -3.373951   1.000000
     71         -3.364456   1.000000
     72         -3.327611   1.000000
     73         -3.268876   1.000000
     74         -3.262023   1.000000
     75         -3.253053   1.000000
     76         -3.182838   1.000000
     77         -3.178835   1.000000
     78         -3.159250   1.000000
     79         -3.131573   1.000000
     80         -3.096594   1.000000
     81         -3.085701   1.000000
     82         -3.067436   1.000000
     83         -3.029714   1.000000
     84         -3.005881   1.000000
     85         -2.965309   1.000000
     86         -2.952259   1.000000
     87         -2.943916   1.000000
     88         -2.938887   1.000000
     89         -2.918709   1.000000
     90         -2.904644   1.000000
     91         -2.866363   1.000000
     92         -2.822843   1.000000
     93         -2.803550   1.000000
     94         -2.784565   1.000000
     95         -2.774682   1.000000
     96         -2.766674   1.000000
     97         -2.753550   1.000000
     98         -2.725578   1.000000
     99         -2.698317   1.000000
    100         -2.690754   1.000000
    101         -2.611553   1.000000
    102         -2.565751   1.000000
    103         -2.550226   1.000000
    104         -2.525428   1.000000
    105         -2.508180   1.000000
    106         -2.504247   1.000000
    107         -2.498117   1.000000
    108         -2.483679   1.000000
    109         -2.446649   1.000000
    110         -2.439548   1.000000
    111         -2.426663   1.000000
    112         -2.413641   1.000000
    113         -2.195562   1.000000
    114         -2.078013   1.000000
    115         -2.032387   1.000000
    116         -2.014796   1.000000
    117         -1.995345   1.000000
    118         -1.988932   1.000000
    119         -1.986546   1.000000
    120         -1.946282   1.000000
    121         -1.942853   1.000000
    122         -1.873347   1.000000
    123         -1.803826   1.000000
    124         -1.780762   1.000000
    125         -1.709201   1.000000
    126         -1.657459   1.000000
    127         -1.650194   1.000000
    128         -1.604451   1.000000
    129         -1.590945   1.000000
    130         -1.572689   1.000000
    131         -1.543467   1.000000
    132         -1.531561   1.000000
    133         -1.524283   1.000000
    134         -1.446699   1.000000
    135         -1.409173   1.000000
    136         -1.397838   1.000000
    137         -1.387461   1.000000
    138         -1.379311   1.000000
    139         -1.276150   1.000000
    140         -1.195512   1.000000
    141         -1.179491   1.000000
    142         -1.162382   1.000000
    143         -1.152827   1.000000
    144         -1.141035   1.000000
    145         -1.123505   1.000000
    146         -1.067617   1.000000
    147         -1.034760   1.000000
    148         -1.003935   1.000000
    149         -0.991080   1.000000
    150         -0.983197   1.000000
    151         -0.934301   1.000000
    152         -0.919577   1.000000
    153         -0.908343   1.000000
    154         -0.895426   1.000000
    155         -0.819026   1.000000
    156         -0.793999   1.000000
    157         -0.776818   1.000000
    158         -0.761040   1.000000
    159         -0.727661   1.000000
    160         -0.670179   1.000000
    161         -0.644768   1.000000
    162         -0.619003   1.000000
    163         -0.602728   1.000000
    164         -0.589285   1.000000
    165         -0.566249   1.000000
    166         -0.546032   1.000000
    167         -0.483019   1.000000
    168         -0.474888   1.000000
    169         -0.420819   1.000006
    170         -0.405934   1.000016
    171         -0.396738   1.000027
    172         -0.384075   1.000058
    173         -0.360171   1.000216
    174         -0.353363   1.000307
    175         -0.345640   1.000452
    176         -0.338058   1.000653
    177         -0.330495   1.000929
    178         -0.272151   1.008933
    179         -0.269348   1.009744
    180         -0.134688   0.915713
    181         -0.121510   0.846597
    182         -0.104357   0.732297
    183         -0.089673   0.617496
    184         -0.073446   0.481463
    185         -0.070389   0.455662
    186         -0.038610   0.209199
    187         -0.024278   0.122530
    188         -0.005872   0.040950
    189          0.003039   0.013418
    190          0.074926  -0.027400
    191          0.105685  -0.013929
    192          0.128891  -0.006888
    193          0.184102  -0.000741
    194          0.291100  -0.000001
    195          0.302135  -0.000001
    196          0.313032  -0.000000
    197          0.355437  -0.000000
    198          0.696007  -0.000000
    199          0.747505  -0.000000
    200          1.250104  -0.000000
    201          1.464364  -0.000000
    202          1.481357  -0.000000
    203          1.598411  -0.000000
    204          2.401895  -0.000000
    205          2.801234   0.000000
    206          2.904130   0.000000
    207          3.553443   0.000000
    208          3.647505   0.000000
    209          3.662648   0.000000
    210          3.741040   0.000000
    211          3.983898   0.000000
    212          4.428011   0.000000
    213          4.605351   0.000000
    214          4.749313   0.000000
    215          4.944683   0.000000
    216          4.994241   0.000000
    217          5.000229   0.000000
    218          5.205657   0.000000
    219          5.271818   0.000000
    220          5.464389   0.000000
    221          5.657552   0.000000
    222          5.694499   0.000000
    223          5.813559   0.000000
    224          5.914496   0.000000
    225          6.075870   0.000000
    226          6.196790   0.000000
    227          6.282512   0.000000
    228          6.321816   0.000000
    229          6.349426   0.000000
    230          6.536942   0.000000
    231          6.702292   0.000000
    232          6.750658   0.000000
    233          6.785797   0.000000
    234          6.861169   0.000000
    235          6.939526   0.000000
    236          7.063514   0.000000
    237          7.276258   0.000000
    238          7.475829   0.000000
    239          7.557959   0.000000
    240          7.601798   0.000000
 
  0.2000000E+00  0.2000000E+00  0.1276756E-14  0.8000000E-01
      1         -8.754504   1.000000
      2         -7.673149   1.000000
      3         -7.065675   1.000000
      4         -6.876718   1.000000
      5         -6.562256   1.000000
      6         -6.551364   1.000000
      7         -6.360923   1.000000
      8         -6.274033   1.000000
      9         -6.214977   1.000000
     10         -6.214009   1.000000
     11         -6.138258   1.000000
     12         -6.001955   1.000000
     13         -5.904766   1.000000
     14         -5.848066   1.000000
     15         -5.840338   1.000000
     16         -5.832021   1.000000
     17         -5.783251   1.000000
     18         -5.532432   1.000000
     19         -5.417107   1.000000
     20         -5.416502   1.000000
     21         -5.412016   1.000000
     22         -5.352888   1.000000
     23         -5.335562   1.000000
     24         -5.309451   1.000000
     25         -5.275088   1.000000
     26         -5.256169   1.000000
     27         -5.224333   1.000000
     28         -5.214803   1.000000
     29         -5.123043   1.000000
     30         -5.113280   1.000000
     31         -5.109864   1.000000
     32         -5.033436   1.000000
     33         -5.019031   1.000000
     34         -5.011273   1.000000
     35         -5.007402   1.000000
     36         -4.848187   1.000000
     37         -4.813140   1.000000
     38         -4.780677   1.000000
     39         -4.778128   1.000000
     40         -4.757565   1.000000
     41         -4.579630   1.000000
     42         -4.495569   1.000000
     43         -4.492850   1.000000
     44         -4.446366   1.000000
     45         -4.418701   1.000000
     46         -4.412480   1.000000
     47         -4.393429   1.000000
     48         -4.308054   1.000000
     49         -4.215779   1.000000
     50         -4.152256   1.000000
     51         -4.127335   1.000000
     52         -4.119758   1.000000
     53         -4.070344   1.000000
     54         -4.048232   1.000000
     55         -3.988224   1.000000
     56         -3.826801   1.000000
     57         -3.736764   1.000000
     58         -3.731381   1.000000
     59         -3.675463   1.000000
     60         -3.668565   1.000000
     61         -3.637615   1.000000
     62         -3.579962   1.000000
     63         -3.576936   1.000000
     64         -3.559168   1.000000
     65         -3.531270   1.000000
     66         -3.526468   1.000000
     67         -3.473796   1.000000
     68         -3.440938   1.000000
     69         -3.389471   1.000000
     70         -3.377637   1.000000
     71         -3.365669   1.000000
     72         -3.336846   1.000000
     73         -3.280929   1.000000
     74         -3.269205   1.000000
     75         -3.267289   1.000000
     76         -3.183529   1.000000
     77         -3.170332   1.000000
     78         -3.160783   1.000000
     79         -3.133325   1.000000
     80         -3.087117   1.000000
     81         -3.070976   1.000000
     82         -3.066044   1.000000
     83         -3.041205   1.000000
     84         -2.999501   1.000000
     85         -2.968235   1.000000
     86         -2.959829   1.000000
     87         -2.937183   1.000000
     88         -2.932057   1.000000
     89         -2.911827   1.000000
     90         -2.911752   1.000000
     91         -2.860015   1.000000
     92         -2.829455   1.000000
     93         -2.799758   1.000000
     94         -2.794432   1.000000
     95         -2.778177   1.000000
     96         -2.764045   1.000000
     97         -2.763998   1.000000
     98         -2.731018   1.000000
     99         -2.704934   1.000000
    100         -2.686990   1.000000
    101         -2.615535   1.000000
    102         -2.561110   1.000000
    103         -2.547555   1.000000
    104         -2.540259   1.000000
    105         -2.518956   1.000000
    106         -2.503052   1.000000
    107         -2.500346   1.000000
    108         -2.493501   1.000000
    109         -2.449768   1.000000
    110         -2.436153   1.000000
    111         -2.430829   1.000000
    112         -2.421838   1.000000
    113         -2.176075   1.000000
    114         -2.077803   1.000000
    115         -2.041736   1.000000
    116         -2.013976   1.000000
    117         -2.002847   1.000000
    118         -1.991668   1.000000
    119         -1.983275   1.000000
    120         -1.950558   1.000000
    121         -1.934662   1.000000
    122         -1.913102   1.000000
    123         -1.819123   1.000000
    124         -1.786755   1.000000
    125         -1.709992   1.000000
    126         -1.662064   1.000000
    127         -1.653741   1.000000
    128         -1.605470   1.000000
    129         -1.593735   1.000000
    130         -1.580071   1.000000
    131         -1.550172   1.000000
    132         -1.534758   1.000000
    133         -1.530984   1.000000
    134         -1.446105   1.000000
    135         -1.399321   1.000000
    136         -1.395614   1.000000
    137         -1.380139   1.000000
    138         -1.376983   1.000000
    139         -1.207102   1.000000
    140         -1.200736   1.000000
    141         -1.184284   1.000000
    142         -1.158781   1.000000
    143         -1.156417   1.000000
    144         -1.139498   1.000000
    145         -1.125760   1.000000
    146         -1.053754   1.000000
    147         -1.040703   1.000000
    148         -1.018776   1.000000
    149         -0.992693   1.000000
    150         -0.980694   1.000000
    151         -0.936481   1.000000
    152         -0.923153   1.000000
    153         -0.907143   1.000000
    154         -0.905985   1.000000
    155         -0.822628   1.000000
    156         -0.801946   1.000000
    157         -0.769586   1.000000
    158         -0.759631   1.000000
    159         -0.714489   1.000000
    160         -0.671150   1.000000
    161         -0.669283   1.000000
    162         -0.622311   1.000000
    163         -0.608634   1.000000
    164         -0.606903   1.000000
    165         -0.564873   1.000000
    166         -0.545318   1.000000
    167         -0.486060   1.000000
    168         -0.474081   1.000000
    169         -0.409631   1.000012
    170         -0.405390   1.000016
    171         -0.391613   1.000037
    172         -0.373514   1.000105
    173         -0.360920   1.000208
    174         -0.348902   1.000385
    175         -0.347310   1.000417
    176         -0.338133   1.000651
    177         -0.327770   1.001052
    178         -0.277393   1.007550
    179         -0.272348   1.008878
    180         -0.131131   0.898772
    181         -0.124242   0.862340
    182         -0.103958   0.729347
    183         -0.082606   0.558824
    184         -0.066885   0.426249
    185         -0.064146   0.403470
    186         -0.036735   0.196779
    187         -0.011095   0.060646
    188         -0.005027   0.038017
    189          0.007113   0.003248
    190          0.094870  -0.018327
    191          0.102146  -0.015299
    192          0.126950  -0.007347
    193          0.187766  -0.000623
    194          0.293945  -0.000001
    195          0.302757  -0.000001
    196          0.310700  -0.000000
    197          0.353406  -0.000000
    198          0.707954  -0.000000
    199          0.742453  -0.000000
    200          1.261808  -0.000000
    201          1.452520  -0.000000
    202          1.479773  -0.000000
    203          1.602124  -0.000000
    204          2.369894  -0.000000
    205          2.861561   0.000000
    206          2.903853   0.000000
    207          3.523300   0.000000
    208          3.649659   0.000000
    209          3.686434   0.000000
    210          3.732508   0.000000
    211          3.945267   0.000000
    212          4.412847   0.000000
    213          4.606780   0.000000
    214          4.732098   0.000000
    215          4.971296   0.000000
    216          4.996315   0.000000
    217          5.003583   0.000000
    218          5.222461   0.000000
    219          5.333016   0.000000
    220          5.451861   0.000000
    221          5.593008   0.000000
    222          5.701475   0.000000
    223          5.868315   0.000000
    224          5.893091   0.000000
    225          6.075257   0.000000
    226          6.251955   0.000000
    227          6.283759   0.000000
    228          6.329314   0.000000
    229          6.349015   0.000000
    230          6.611713   0.000000
    231          6.694667   0.000000
    232          6.730922   0.000000
    233          6.777895   0.000000
    234          6.780475   0.000000
    235          6.942120   0.000000
    236          7.050287   0.000000
    237          7.233919   0.000000
    238          7.459169   0.000000
    239          7.603313   0.000000
    240          7.609181   0.000000
 
  0.1276756E-14  0.2000000E+00  0.1276756E-14  0.8000000E-01
      1         -8.753484   1.000000
      2         -7.663455   1.000000
      3         -7.026211   1.000000
      4         -6.916962   1.000000
      5         -6.561907   1.000000
      6         -6.547822   1.000000
      7         -6.360240   1.000000
      8         -6.266313   1.000000
      9         -6.226927   1.000000
     10         -6.213660   1.000000
     11         -6.102192   1.000000
     12         -6.000989   1.000000
     13         -5.978923   1.000000
     14         -5.846052   1.000000
     15         -5.839507   1.000000
     16         -5.828574   1.000000
     17         -5.739311   1.000000
     18         -5.537983   1.000000
     19         -5.425105   1.000000
     20         -5.417454   1.000000
     21         -5.410458   1.000000
     22         -5.386538   1.000000
     23         -5.336594   1.000000
     24         -5.304506   1.000000
     25         -5.278748   1.000000
     26         -5.231296   1.000000
     27         -5.220441   1.000000
     28         -5.211967   1.000000
     29         -5.160278   1.000000
     30         -5.118760   1.000000
     31         -5.109476   1.000000
     32         -5.037625   1.000000
     33         -5.019847   1.000000
     34         -5.011762   1.000000
     35         -5.009415   1.000000
     36         -4.868993   1.000000
     37         -4.813865   1.000000
     38         -4.783409   1.000000
     39         -4.770422   1.000000
     40         -4.752188   1.000000
     41         -4.590719   1.000000
     42         -4.500392   1.000000
     43         -4.494433   1.000000
     44         -4.446568   1.000000
     45         -4.418404   1.000000
     46         -4.402999   1.000000
     47         -4.390072   1.000000
     48         -4.295796   1.000000
     49         -4.213917   1.000000
     50         -4.149258   1.000000
     51         -4.129250   1.000000
     52         -4.114051   1.000000
     53         -4.072205   1.000000
     54         -4.051444   1.000000
     55         -4.005437   1.000000
     56         -3.834359   1.000000
     57         -3.737440   1.000000
     58         -3.730759   1.000000
     59         -3.686802   1.000000
     60         -3.667740   1.000000
     61         -3.638105   1.000000
     62         -3.587271   1.000000
     63         -3.563935   1.000000
     64         -3.558244   1.000000
     65         -3.530985   1.000000
     66         -3.524848   1.000000
     67         -3.452930   1.000000
     68         -3.444809   1.000000
     69         -3.409265   1.000000
     70         -3.374006   1.000000
     71         -3.364463   1.000000
     72         -3.327623   1.000000
     73         -3.268795   1.000000
     74         -3.261813   1.000000
     75         -3.252874   1.000000
     76         -3.182849   1.000000
     77         -3.178882   1.000000
     78         -3.159276   1.000000