 vasp.6.4.2 20Jul23 (build Mar 01 2024 16:46:03) complex                        
  
 executed on             LinuxIFC date 2025.01.15  11:02:33
 running   48 mpi-ranks, on    1 nodes
 distrk:  each k-point on   48 cores,    1 groups
 distr:  one band on NCORE=   1 cores,   48 groups


--------------------------------------------------------------------------------------------------------


 INCAR:
   ENCUT = 680.290000
   SIGMA = 0.100000
   ZAB_VDW = -1.886700
   EDIFF = 1.00e-05
   ALGO = Fast
   GGA = BF
   IBRION = -1
   ISMEAR = 1
   ISPIN = 1
   ISYM = 0
   LUSE_VDW = .TRUE.
   LREAL = Auto

 POTCAR:    PAW_PBE Pt 04Feb2005                  
 POTCAR:    PAW_PBE H 15Jun2001                   
 -----------------------------------------------------------------------------
|                                                                             |
|           W    W    AA    RRRRR   N    N  II  N    N   GGGG   !!!           |
|           W    W   A  A   R    R  NN   N  II  NN   N  G    G  !!!           |
|           W    W  A    A  R    R  N N  N  II  N N  N  G       !!!           |
|           W WW W  AAAAAA  RRRRR   N  N N  II  N  N N  G  GGG   !            |
|           WW  WW  A    A  R   R   N   NN  II  N   NN  G    G                |
|           W    W  A    A  R    R  N    N  II  N    N   GGGG   !!!           |
|                                                                             |
|     For optimal performance we recommend to set                             |
|       NCORE = 2 up to number-of-cores-per-socket                            |
|     NCORE specifies how many cores store one orbital (NPAR=cpu/NCORE).      |
|     This setting can greatly improve the performance of VASP for DFT.       |
|     The default, NCORE=1 might be grossly inefficient on modern             |
|     multi-core architectures or massively parallel machines. Do your        |
|     own testing! More info at https://www.vasp.at/wiki/index.php/NCORE      |
|     Unfortunately you need to use the default for GW and RPA                |
|     calculations (for HF NCORE is supported but not extensively tested      |
|     yet).                                                                   |
|                                                                             |
 -----------------------------------------------------------------------------

 -----------------------------------------------------------------------------
|                                                                             |
|               ----> ADVICE to this user running VASP <----                  |
|                                                                             |
|     You have switched on vdW-DFT.                                           |
|     This routine was written and supplied by Jiri Klimes. We recommend      |
|     that you carefully read and cite the following publications:            |
|       J. Klimes, D.R. Bowler, A. Michelides                                 |
|          J. Phys.: Cond Matt. 22 022201 (2010)                              |
|       J. Klimes, D.R. Bowler, A. Michelides                                 |
|          Phys. Rev. B. 83, 195131 (2011)                                    |
|     and references therein.                                                 |
|                                                                             |
 -----------------------------------------------------------------------------

 POTCAR:    PAW_PBE Pt 04Feb2005                  
   SHA256 =  3ed90460adef76debcff1cfb73ee1349b515b1a3db03439735b44de3a8db7dc8 Pt/POTCAR             
   COPYR  = (c) Copyright 04Feb2005 Georg Kresse                                                    
   COPYR  = This file is part of the software VASP. Any use, copying, and all other rights are regul
   COPYR  = If you do not have a valid VASP license, you may not use, copy or distribute this file. 
   VRHFIN =Pt: s1d9                                                                                 
   LEXCH  = PE                                                                                      
   EATOM  =   729.1176 eV,   53.5886 Ry                                                             
                                                                                                    
   TITEL  = PAW_PBE Pt 04Feb2005                                                                    
   LULTRA =        F    use ultrasoft PP ?                                                          
   IUNSCR =        1    unscreen: 0-lin 1-nonlin 2-no                                               
   RPACOR =    2.330    partial core radius                                                         
   POMASS =  195.080; ZVAL   =   10.000    mass and valenz                                          
   RCORE  =    2.600    outmost cutoff radius                                                       
   RWIGS  =    2.750; RWIGS  =    1.455    wigner-seitz radius (au A)                               
   ENMAX  =  230.283; ENMIN  =  172.712 eV                                                          
   ICORE  =        3    local potential                                                             
   LCOR   =        T    correct aug charges                                                         
   LPAW   =        T    paw PP                                                                      
   EAUG   =  358.966                                                                                
   DEXC   =    0.000                                                                                
   RMAX   =    2.658    core radius for proj-oper                                                   
   RAUG   =    1.300    factor for augmentation sphere                                              
   RDEP   =    2.761    radius for radial grids                                                     
   RDEPT  =    2.203    core radius for aug-charge                                                  
                                                                                                    
   Atomic configuration                                                                             
   16 entries                                                                                       
     n  l   j            E        occ.                                                              
     1  0  0.50    -78401.1885   2.0000                                                             
     2  0  0.50    -13770.7750   2.0000                                                             
     2  1  1.50    -11931.0468   6.0000                                                             
     3  0  0.50     -3234.7234   2.0000                                                             
     3  1  1.50     -2699.2216   6.0000                                                             
     3  2  2.50     -2119.5714  10.0000                                                             
     4  0  0.50      -695.1528   2.0000                                                             
     4  1  1.50      -519.6034   6.0000                                                             
     4  2  2.50      -306.6786  10.0000                                                             
     4  3  3.50       -70.1041  14.0000                                                             
     5  0  0.50      -101.7747   2.0000                                                             
     5  1  1.50       -55.9873   6.0000                                                             
     5  2  2.50        -6.1423   9.0000                                                             
     6  0  0.50        -5.6573   1.0000                                                             
     6  1  1.50        -6.8029   0.0000                                                             
     5  3  2.50        -1.3606   0.0000                                                             
   Description                                                                                      
     l       E           TYP  RCUT    TYP  RCUT                                                     
     2     -6.1423404     23  2.500                                                                 
     2     -7.5029230     23  2.500                                                                 
     0     -5.6573207     23  2.500                                                                 
     0      0.7416693     23  2.500                                                                 
     1     -2.7211652     23  2.600                                                                 
     1     20.4087390     23  2.600                                                                 
     3     -1.3605826     23  2.500                                                                 
  local pseudopotential read in
  partial core-charges read in
  partial kinetic energy density read in
  atomic valenz-charges read in
  non local Contribution for L=           2  read in
    real space projection operators read in
  non local Contribution for L=           2  read in
    real space projection operators read in
  non local Contribution for L=           0  read in
    real space projection operators read in
  non local Contribution for L=           0  read in
    real space projection operators read in
  non local Contribution for L=           1  read in
    real space projection operators read in
  non local Contribution for L=           1  read in
    real space projection operators read in
    PAW grid and wavefunctions read in
 
   number of l-projection  operators is LMAX  =           6
   number of lm-projection operators is LMMAX =          18
 
 POTCAR:    PAW_PBE H 15Jun2001                   
   SHA256 =  030f79b5d3ab3cf0e668861823c8fb652ff669f3e15e46930bd03bfd63a607b6 H/POTCAR              
   COPYR  = (c) Copyright 15Jun2001 Georg Kresse                                                    
   COPYR  = This file is part of the software VASP. Any use, copying, and all other rights are regul
   COPYR  = If you do not have a valid VASP license, you may not use, copy or distribute this file. 
   VRHFIN =H: ultrasoft test                                                                        
   LEXCH  = PE                                                                                      
   EATOM  =    12.4884 eV,    0.9179 Ry                                                             
                                                                                                    
   TITEL  = PAW_PBE H 15Jun2001                                                                     
   LULTRA =        F    use ultrasoft PP ?                                                          
   IUNSCR =        0    unscreen: 0-lin 1-nonlin 2-no                                               
   RPACOR =    0.000    partial core radius                                                         
   POMASS =    1.000; ZVAL   =    1.000    mass and valenz                                          
   RCORE  =    1.100    outmost cutoff radius                                                       
   RWIGS  =    0.700; RWIGS  =    0.370    wigner-seitz radius (au A)                               
   ENMAX  =  250.000; ENMIN  =  200.000 eV                                                          
   RCLOC  =    0.701    cutoff for local pot                                                        
   LCOR   =        T    correct aug charges                                                         
   LPAW   =        T    paw PP                                                                      
   EAUG   =  400.000                                                                                
   RMAX   =    1.123    core radius for proj-oper                                                   
   RAUG   =    1.200    factor for augmentation sphere                                              
   RDEP   =    1.112    radius for radial grids                                                     
   RDEPT  =    0.926    core radius for aug-charge                                                  
                                                                                                    
   Atomic configuration                                                                             
    2 entries                                                                                       
     n  l   j            E        occ.                                                              
     1  0  0.50        -6.4927   1.0000                                                             
     2  1  0.50        -3.4015   0.0000                                                             
   Description                                                                                      
     l       E           TYP  RCUT    TYP  RCUT                                                     
     0     -6.4927494     23  1.100                                                                 
     0      6.8029130     23  1.100                                                                 
     1     -4.0817478     23  1.100                                                                 
  local pseudopotential read in
  atomic valenz-charges read in
  non local Contribution for L=           0  read in
    real space projection operators read in
  non local Contribution for L=           0  read in
    real space projection operators read in
  non local Contribution for L=           1  read in
    real space projection operators read in
    PAW grid and wavefunctions read in
 
   number of l-projection  operators is LMAX  =           3
   number of lm-projection operators is LMMAX =           5
 
 Optimization of the real space projectors (new method)

 maximal supplied QI-value         = 14.36
 optimisation between [QCUT,QGAM] = [ 13.36, 26.71] = [ 49.96,199.83] Ry 
 Optimized for a Real-space Cutoff    1.42 Angstroem

   l    n(q)    QCUT    max X(q) W(low)/X(q) W(high)/X(q)  e(spline) 
   2     11    13.357    66.195    0.16E-03    0.81E-04    0.36E-06
   2     11    13.357    64.643    0.16E-03    0.82E-04    0.36E-06
   0     11    13.357    95.520    0.60E-04    0.72E-05    0.55E-06
   0     11    13.357    63.403    0.58E-04    0.70E-05    0.53E-06
   1     11    13.357    19.961    0.21E-03    0.56E-03    0.21E-05
   1     11    13.357    13.289    0.17E-03    0.46E-03    0.17E-05
 Optimization of the real space projectors (new method)

 maximal supplied QI-value         = 34.20
 optimisation between [QCUT,QGAM] = [ 13.34, 26.68] = [ 49.83,199.32] Ry 
 Optimized for a Real-space Cutoff    0.91 Angstroem

   l    n(q)    QCUT    max X(q) W(low)/X(q) W(high)/X(q)  e(spline) 
   0      7    13.340    19.460    0.48E-03    0.16E-03    0.16E-06
   0      7    13.340    12.209    0.46E-03    0.14E-03    0.15E-06
   1      7    13.340     4.655    0.46E-03    0.87E-03    0.11E-06
 -----------------------------------------------------------------------------
|                                                                             |
|               ----> ADVICE to this user running VASP <----                  |
|                                                                             |
|     You enforced a specific xc type in the INCAR file but a different       |
|     type was found in the POTCAR file.                                      |
|     I HOPE YOU KNOW WHAT YOU ARE DOING!                                     |
|                                                                             |
 -----------------------------------------------------------------------------

  PAW_PBE Pt 04Feb2005                  :
 energy of atom  1       EATOM= -729.1176
 kinetic energy error for atom=    0.0010 (will be added to EATOM!!)
  PAW_PBE H 15Jun2001                   :
 energy of atom  2       EATOM=  -12.4884
 kinetic energy error for atom=    0.0002 (will be added to EATOM!!)
 
 
 POSCAR: Pt H
  positions in cartesian coordinates
  No initial velocities read in
 exchange correlation table for  LEXCH =       17
   RHO(1)=    0.500       N(1)  =     2000
   RHO(2)=  100.500       N(2)  =     4000
 


--------------------------------------------------------------------------------------------------------


 ion  position               nearest neighbor table
   1  0.000  0.000  0.340-   3 2.81   7 2.81   6 2.82   8 2.82  12 2.82  16 2.82   2 2.83   4 2.83
                            10 2.83
   2  0.334  0.000  0.340-   8 2.81   9 2.82  17 2.82   1 2.83   3 2.83   4 2.83   5 2.83  10 2.83
                            11 2.83
   3  0.668  0.000  0.340-   7 2.81   1 2.81   9 2.81  18 2.82   5 2.83   2 2.83   6 2.83  11 2.83
                            12 2.83
   4  0.000  0.334  0.340-   6 2.81   9 2.82  15 2.82   5 2.83   2 2.83   1 2.83   7 2.83  10 2.83
                            13 2.83
   5  0.334  0.334  0.340-   3 2.83   4 2.83   6 2.83   7 2.83   2 2.83   8 2.83  11 2.83  13 2.83
                            14 2.83
   6  0.668  0.334  0.340-   4 2.81   1 2.82   5 2.83   8 2.83   3 2.83   9 2.83  12 2.83  14 2.83
                            15 2.83
   7  0.000  0.668  0.340-   3 2.81   1 2.81   9 2.81  18 2.82   5 2.83   8 2.83   4 2.83  13 2.83
                            16 2.83
   8  0.334  0.668  0.340-   2 2.81   1 2.82   6 2.83   7 2.83   9 2.83   5 2.83  14 2.83  16 2.83
                            17 2.83
   9  0.668  0.668  0.340-   3 2.81   7 2.81   4 2.82   2 2.82   8 2.83   6 2.83  15 2.83  17 2.83
                            18 2.83
  10  0.111  0.111  0.433-  26 2.81  19 2.81  12 2.81  16 2.81  15 2.82  17 2.82  11 2.83  13 2.83
                             2 2.83   4 2.83   1 2.83  20 2.83
  11  0.445  0.111  0.433-  21 2.81  27 2.81  17 2.81  18 2.82  20 2.83  13 2.83  10 2.83  12 2.83
                            14 2.83   5 2.83   3 2.83   2 2.83
  12  0.779  0.111  0.433-  21 2.80  25 2.80  16 2.81  10 2.81  18 2.81   1 2.82  19 2.83  14 2.83
                            11 2.83  15 2.83   6 2.83   3 2.83
  13  0.111  0.445  0.433-  23 2.81  22 2.81  15 2.81  18 2.82  20 2.83  14 2.83  11 2.83  10 2.83
                            16 2.83   7 2.83   5 2.83   4 2.83
  14  0.445  0.445  0.433-  21 2.80  23 2.80  24 2.81  16 2.83  12 2.83  13 2.83  15 2.83  17 2.83
                            11 2.83   8 2.83   6 2.83   5 2.83
  15  0.779  0.445  0.433-  24 2.80  13 2.81  19 2.81  22 2.82  10 2.82   4 2.82  17 2.83  14 2.83
                            18 2.83  12 2.83   9 2.83   6 2.83
  16  0.111  0.779  0.433-  23 2.80  25 2.80  12 2.81  10 2.81  18 2.81   1 2.82  26 2.83  14 2.83
                            17 2.83  13 2.83   8 2.83   7 2.83
  17  0.445  0.779  0.433-  24 2.80  11 2.81  26 2.81  27 2.82  10 2.82   2 2.82  15 2.83  16 2.83
                            18 2.83  14 2.83   9 2.83   8 2.83
  18  0.779  0.779  0.433-  25 2.81  16 2.81  12 2.81  11 2.82  13 2.82   7 2.82   3 2.82  22 2.82
                            27 2.82  17 2.83  15 2.83   9 2.83
  19  0.891  0.224  0.525-  22 2.81  10 2.81  20 2.81  15 2.81  26 2.82  24 2.82  12 2.83  21 2.83
                            25 2.83  33 2.83  28 2.85  31 2.90
  20  0.223  0.223  0.525-  19 2.81  26 2.81  22 2.81  27 2.81  13 2.83  11 2.83  23 2.83  21 2.83
                            10 2.83  32 2.84  29 2.88  31 2.88
  21  0.557  0.224  0.524-  14 2.80  12 2.80  11 2.81  25 2.82  27 2.82  24 2.83  23 2.83  19 2.83
                            20 2.83  32 2.83  30 2.85  33 2.85
  22  0.891  0.556  0.525-  19 2.81  13 2.81  20 2.81  15 2.82  24 2.82  23 2.82  18 2.82  25 2.83
                            36 2.83  27 2.84  34 2.84  31 2.86
  23  0.224  0.557  0.524-  14 2.80  16 2.80  13 2.81  25 2.82  22 2.82  24 2.82  21 2.83  26 2.83
                            20 2.83  32 2.83  34 2.85  35 2.85
  24  0.557  0.557  0.524-  17 2.80  15 2.80  14 2.81  27 2.82  22 2.82  26 2.82  19 2.82  23 2.82
                            21 2.83  33 2.84  35 2.84  36 2.85
  25  0.890  0.890  0.524-  12 2.80  16 2.80  18 2.81  21 2.82  23 2.82  26 2.83  19 2.83  27 2.83
                            22 2.83  28 2.83  34 2.84  30 2.84
  26  0.224  0.891  0.525-  27 2.81  10 2.81  20 2.81  17 2.81  19 2.82  24 2.82  16 2.83  23 2.83
                            25 2.83  35 2.83  28 2.85  29 2.90
  27  0.556  0.891  0.525-  26 2.81  11 2.81  20 2.81  17 2.82  24 2.82  21 2.82  18 2.82  25 2.83
                            36 2.83  22 2.84  30 2.84  29 2.86
  28  0.999  0.999  0.618-  30 2.79  34 2.79  35 2.83  33 2.83  25 2.83  26 2.85  19 2.85  31 2.89
                            29 2.89
  29  0.340  1.000  0.620-  37 1.78  36 2.80  30 2.80  35 2.83  32 2.85  27 2.86  31 2.88  20 2.88
                            28 2.89  26 2.90
  30  0.669  0.003  0.618-  28 2.79  29 2.80  33 2.82  32 2.82  34 2.83  36 2.83  27 2.84  25 2.84
                            21 2.85
  31  1.000  0.340  0.620-  37 1.78  36 2.80  34 2.80  33 2.83  32 2.85  22 2.86  29 2.88  20 2.88
                            28 2.89  19 2.90
  32  0.337  0.337  0.617-  33 2.79  35 2.79  34 2.82  30 2.82  23 2.83  21 2.83  20 2.84  31 2.85
                            29 2.85
  33  0.668  0.336  0.618-  32 2.79  35 2.81  30 2.82  36 2.82  31 2.83  28 2.83  19 2.83  24 2.84
                            21 2.85
  34  0.002  0.669  0.618-  28 2.79  31 2.80  35 2.82  32 2.82  30 2.83  36 2.83  22 2.84  25 2.84
                            23 2.85
  35  0.336  0.668  0.618-  32 2.79  33 2.81  34 2.82  36 2.82  29 2.83  28 2.83  26 2.83  24 2.84
                            23 2.85
  36  0.669  0.669  0.618-  29 2.80  31 2.80  35 2.82  33 2.82  34 2.83  30 2.83  27 2.83  22 2.83
                            24 2.85
  37  0.140  0.140  0.658-  29 1.78  31 1.78
 

IMPORTANT INFORMATION: All symmetrisations will be switched off!
NOSYMM: (Re-)initialisation of all symmetry stuff for point group C_1.


----------------------------------------------------------------------------------------

                                     Primitive cell                                     

  volume of cell :    1550.4837

  direct lattice vectors                    reciprocal lattice vectors
     8.468310000  0.000000000  0.000000000     0.118087316 -0.068177744  0.000000000
     4.234155000  7.333771587  0.000000000     0.000000000  0.136355488  0.000000000
     0.000000000  0.000000000 24.965661990     0.000000000  0.000000000  0.040055016

  length of vectors
     8.468310000  8.468310000 24.965661990     0.136355488  0.136355488  0.040055016

  position of ions in fractional coordinates (direct lattice)
     0.000000000  0.000000000  0.340467639
     0.334001368  0.000000000  0.340467639
     0.668002736  0.000000000  0.340467639
     1.000000000  0.334001368  0.340467639
     0.334001368  0.334001368  0.340467639
     0.668002736  0.334001368  0.340467639
     1.000000000  0.668002736  0.340467639
     0.334001368  0.668002736  0.340467639
     0.668002736  0.668002736  0.340467639
     0.111333789  0.111333789  0.432970737
     0.445335157  0.111333789  0.432970737
     0.779336525  0.111333789  0.432970737
     0.111333789  0.445335157  0.432970737
     0.445335157  0.445335157  0.432970737
     0.779336525  0.445335157  0.432970737
     0.111333789  0.779336525  0.432970737
     0.445335157  0.779336525  0.432970737
     0.779336525  0.779336525  0.432970737
     0.890976983  0.223989579  0.525075256
     0.223400700  0.223459133  0.525473115
     0.557311037  0.223578627  0.524138243
     0.891082751  0.555729000  0.525101280
     0.223561676  0.557316723  0.524144319
     0.557186132  0.557247801  0.524264844
     0.890343612  0.890383745  0.524475053
     0.223931784  0.891004396  0.525077099
     0.555693116  0.891126193  0.525099444
     0.999272433  0.999331078  0.618095589
     0.339682524  0.999891636  0.620494448
     0.668765889  0.002530045  0.617846555
     0.999835956  0.339720966  0.620497013
     0.337266357  0.337357758  0.617410881
     0.667631083  0.336055640  0.617534095
     0.002461687  0.668828801  0.617848457
     0.335994027  0.667712955  0.617543300
     0.668742658  0.668802593  0.617806119
     0.139810233  0.139830355  0.658371061

  ion indices of the primitive-cell ions
   primitive index   ion index
                 1           1
                 2           2
                 3           3
                 4           4
                 5           5
                 6           6
                 7           7
                 8           8
                 9           9
                10          10
                11          11
                12          12
                13          13
                14          14
                15          15
                16          16
                17          17
                18          18
                19          19
                20          20
                21          21
                22          22
                23          23
                24          24
                25          25
                26          26
                27          27
                28          28
                29          29
                30          30
                31          31
                32          32
                33          33
                34          34
                35          35
                36          36
                37          37

----------------------------------------------------------------------------------------

 
 
 KPOINTS: KPOINTS created by Atomic Simulation Env

Automatic generation of k-mesh.
 Grid dimensions read from file:
 generate k-points for:    5    5    1

 Generating k-lattice:

  Cartesian coordinates                     Fractional coordinates (reciprocal lattice)
     0.023617463 -0.013635549  0.000000000     0.200000000 -0.000000000  0.000000000
     0.000000000  0.027271098  0.000000000     0.000000000  0.200000000  0.000000000
     0.000000000  0.000000000  0.040055016     0.000000000  0.000000000  1.000000000

  Length of vectors
     0.027271098  0.027271098  0.040055016

  Shift w.r.t. Gamma in fractional coordinates (k-lattice)
     0.000000000  0.000000000  0.000000000

 
 Subroutine IBZKPT returns following result:
 ===========================================
 
 Found     13 irreducible k-points:
 
 Following reciprocal coordinates:
            Coordinates               Weight
  0.000000  0.000000  0.000000      1.000000
  0.200000  0.000000  0.000000      2.000000
  0.200000  0.200000  0.000000      2.000000
  0.000000  0.200000  0.000000      2.000000
  0.400000  0.000000  0.000000      2.000000
  0.400000  0.400000  0.000000      2.000000
  0.000000  0.400000  0.000000      2.000000
  0.400000  0.200000  0.000000      2.000000
  0.200000  0.400000  0.000000      2.000000
 -0.200000  0.200000  0.000000      2.000000
 -0.400000  0.200000  0.000000      2.000000
  0.400000 -0.400000  0.000000      2.000000
 -0.200000  0.400000  0.000000      2.000000
 
 Following cartesian coordinates:
            Coordinates               Weight
  0.000000  0.000000  0.000000      1.000000
  0.023617 -0.013636  0.000000      2.000000
  0.023617  0.013636  0.000000      2.000000
  0.000000  0.027271  0.000000      2.000000
  0.047235 -0.027271  0.000000      2.000000
  0.047235  0.027271  0.000000      2.000000
  0.000000  0.054542  0.000000      2.000000
  0.047235  0.000000  0.000000      2.000000
  0.023617  0.040907  0.000000      2.000000
 -0.023617  0.040907  0.000000      2.000000
 -0.047235  0.054542  0.000000      2.000000
  0.047235 -0.081813  0.000000      2.000000
 -0.023617  0.068178  0.000000      2.000000
 


--------------------------------------------------------------------------------------------------------




 Dimension of arrays:
   k-points           NKPTS =     13   k-points in BZ     NKDIM =     13   number of bands    NBANDS=    240
   number of dos      NEDOS =    301   number of ions     NIONS =     37
   non local maximal  LDIM  =      6   non local SUM 2l+1 LMDIM =     18
   total plane-waves  NPLWV = 466560
   max r-space proj   IRMAX =   3679   max aug-charges    IRDMAX=  18423
   dimension x,y,z NGX =    54 NGY =   54 NGZ =  160
   dimension x,y,z NGXF=   108 NGYF=  108 NGZF=  320
   support grid    NGXF=   108 NGYF=  108 NGZF=  320
   ions per type =              36   1
   NGX,Y,Z   is equivalent  to a cutoff of  10.60, 10.60, 10.65 a.u.
   NGXF,Y,Z  is equivalent  to a cutoff of  21.20, 21.20, 21.31 a.u.

 SYSTEM =  unknown system                          
 POSCAR =  Pt H                                    

 Startparameter for this run:
   NWRITE =      2    write-flag & timer
   PREC   = normal    normal or accurate (medium, high low for compatibility)
   ISTART =      1    job   : 0-new  1-cont  2-samecut
   ICHARG =      0    charge: 1-file 2-atom 10-const
   ISPIN  =      1    spin polarized calculation?
   LNONCOLLINEAR =      F non collinear calculations
   LSORBIT =      F    spin-orbit coupling
   INIWAV =      1    electr: 0-lowe 1-rand  2-diag
   LASPH  =      F    aspherical Exc in radial PAW
 Electronic Relaxation 1
   ENCUT  =  680.3 eV  50.00 Ry    7.07 a.u.  18.01 18.01 53.09*2*pi/ulx,y,z
   ENINI  =  680.3     initial cutoff
   ENAUG  =  400.0 eV  augmentation charge cutoff
   NELM   =     60;   NELMIN=  2; NELMDL=  0     # of ELM steps 
   EDIFF  = 0.1E-04   stopping-criterion for ELM
   LREAL  =      T    real-space projection
   NLSPLINE    = F    spline interpolate recip. space projectors
   LCOMPAT=      F    compatible to vasp.4.4
   GGA_COMPAT  = T    GGA compatible to vasp.4.4-vasp.4.6
   LMAXPAW     = -100 max onsite density
   LMAXMIX     =    2 max onsite mixed and CHGCAR
   VOSKOWN=      0    Vosko Wilk Nusair interpolation
   ROPT   =   -0.00050  -0.00050
 Ionic relaxation
   EDIFFG = 0.1E-03   stopping-criterion for IOM
   NSW    =      0    number of steps for IOM
   NBLOCK =      1;   KBLOCK =      1    inner block; outer block 
   IBRION =     -1    ionic relax: 0-MD 1-quasi-New 2-CG
   NFREE  =      0    steps in history (QN), initial steepest desc. (CG)
   ISIF   =      2    stress and relaxation
   IWAVPR =     10    prediction:  0-non 1-charg 2-wave 3-comb
   ISYM   =      0    0-nonsym 1-usesym 2-fastsym
   LCORR  =      T    Harris-Foulkes like correction to forces

   POTIM  = 0.5000    time-step for ionic-motion
   TEIN   =    0.0    initial temperature
   TEBEG  =    0.0;   TEEND  =   0.0 temperature during run
   SMASS  =  -3.00    Nose mass-parameter (am)
   estimated Nose-frequenzy (Omega)   =  0.10E-29 period in steps = 0.13E+47 mass=  -0.164E-26a.u.
   SCALEE = 1.0000    scale energy and forces
   NPACO  =    256;   APACO  = 10.0  distance and # of slots for P.C.
   PSTRESS=    0.0 pullay stress

  Mass of Ions in am
   POMASS = 195.08  1.00
  Ionic Valenz
   ZVAL   =  10.00  1.00
  Atomic Wigner-Seitz radii
   RWIGS  =  -1.00 -1.00
  virtual crystal weights 
   VCA    =   1.00  1.00
   NELECT =     361.0000    total number of electrons
   NUPDOWN=      -1.0000    fix difference up-down

 DOS related values:
   EMIN   =  10.00;   EMAX   =-10.00  energy-range for DOS
   EFERMI =   0.00;   METHOD = LEGACY      
   ISMEAR =     1;   SIGMA  =   0.10  broadening in eV -4-tet -1-fermi 0-gaus

 Electronic relaxation 2 (details)
   IALGO  =     68    algorithm
   LDIAG  =      T    sub-space diagonalisation (order eigenvalues)
   LSUBROT=      F    optimize rotation matrix (better conditioning)
   TURBO    =      0    0=normal 1=particle mesh
   IRESTART =      0    0=no restart 2=restart with 2 vectors
   NREBOOT  =      0    no. of reboots
   NMIN     =      0    reboot dimension
   EREF     =   0.00    reference energy to select bands
   IMIX   =      4    mixing-type and parameters
     AMIX     =   0.40;   BMIX     =  1.00
     AMIX_MAG =   1.60;   BMIX_MAG =  1.00
     AMIN     =   0.10
     WC   =   100.;   INIMIX=   1;  MIXPRE=   1;  MAXMIX= -45

 Intra band minimization:
   WEIMIN = 0.0000     energy-eigenvalue tresh-hold
   EBREAK =  0.10E-07  absolut break condition
   DEPER  =   0.30     relativ break condition  

   TIME   =   0.40     timestep for ELM

  volume/ion in A,a.u.               =      41.90       282.79
  Fermi-wavevector in a.u.,A,eV,Ry     =   1.007136  1.903211 13.800704  1.014323
  Thomas-Fermi vector in A             =   2.139922
 
 Write flags
   LWAVE        =      T    write WAVECAR
   LDOWNSAMPLE  =      F    k-point downsampling of WAVECAR
   LCHARG       =      T    write CHGCAR
   LVTOT        =      F    write LOCPOT, total local potential
   LVHAR        =      F    write LOCPOT, Hartree potential only
   LELF         =      F    write electronic localiz. function (ELF)
   LORBIT       =      0    0 simple, 1 ext, 2 COOP (PROOUT), +10 PAW based schemes


 Dipole corrections
   LMONO  =      F    monopole corrections only (constant potential shift)
   LDIPOL =      F    correct potential (dipole corrections)
   IDIPOL =      0    1-x, 2-y, 3-z, 4-all directions 
   EPSILON=  1.0000000 bulk dielectric constant

 Exchange correlation treatment:
   GGA     =    BF    GGA type
   LEXCH   =    17    internal setting for exchange type
   LIBXC   =     F    Libxc                    
   VOSKOWN =     0    Vosko Wilk Nusair interpolation
   LHFCALC =     F    Hartree Fock is set to
   LHFONE  =     F    Hartree Fock one center treatment
   AEXX    =    0.0000 exact exchange contribution

 vdW DFT:
   LUSE_VDW   =     T    switch on vdW DFT
   IVDW_NL    =     1    kernel type
   LSPIN_VDW  =     F    use spin-polarized vdW DFT
   Zab_VDW    =******    correlation parameter
   PARAM1     =0.1234
   PARAM2     =1.0000
   PARAM3     =0.0000
   -- rVV10 --
   BPARAM     = 6.3000
   CPARAM     = 0.0093

 Linear response parameters
   LEPSILON=     F    determine dielectric tensor
   LRPA    =     F    only Hartree local field effects (RPA)
   LNABLA  =     F    use nabla operator in PAW spheres
   LVEL    =     F    velocity operator in full k-point grid
   CSHIFT  =0.1000    complex shift for real part using Kramers Kronig
   OMEGAMAX=  -1.0    maximum frequency
   DEG_THRESHOLD= 0.2000000E-02 threshold for treating states as degnerate
   RTIME   =   -0.100 relaxation time in fs
  (WPLASMAI=    0.000 imaginary part of plasma frequency in eV, 0.658/RTIME)
   DFIELD  = 0.0000000 0.0000000 0.0000000 field for delta impulse in time
 
  Optional k-point grid parameters
   LKPOINTS_OPT  =     F    use optional k-point grid
   KPOINTS_OPT_MODE=     1    mode for optional k-point grid
 
 Orbital magnetization related:
   ORBITALMAG=     F  switch on orbital magnetization
   LCHIMAG   =     F  perturbation theory with respect to B field
   DQ        =  0.001000  dq finite difference perturbation B field
   LLRAUG    =     F  two centre corrections for induced B field
   LBONE     =     F  B-component reconstruction in AE one-centre
   LVGVCALC  =     T  calculate vGv susceptibility
   LVGVAPPL  =     F  apply vGv susceptibility instead of pGv for G=0

 Random number generation:
   RANDOM_GENERATOR = DEFAULT
   PCG_SEED         = not used


--------------------------------------------------------------------------------------------------------


 Static calculation
 charge density and potential will be updated during run
 non-spin polarized calculation
 RMM-DIIS sequential band-by-band and
  variant of blocked Davidson during initial phase
 perform sub-space diagonalisation
    before iterative eigenvector-optimisation
 modified Broyden-mixing scheme, WC =      100.0
 initial mixing is a Kerker type mixing with AMIX =  0.4000 and BMIX =      1.0000
 Hartree-type preconditioning will be used
 using additional bands           59
 real space projection scheme for non local part
 use partial core corrections
 calculate Harris-corrections to forces 
   (improved forces if not selfconsistent)
 use gradient corrections 
 use of overlap-Matrix (Vanderbilt PP)
 Methfessel and Paxton  Order N= 1 SIGMA  =   0.10


--------------------------------------------------------------------------------------------------------


  energy-cutoff  :      680.29
  volume of cell :     1550.48
      direct lattice vectors                 reciprocal lattice vectors
     8.468310000  0.000000000  0.000000000     0.118087316 -0.068177744  0.000000000
     4.234155000  7.333771587  0.000000000     0.000000000  0.136355488  0.000000000
     0.000000000  0.000000000 24.965661990     0.000000000  0.000000000  0.040055016

  length of vectors
     8.468310000  8.468310000 24.965661990     0.136355488  0.136355488  0.040055016


 
 old parameters found on file WAVECAR:
  energy-cutoff  :      680.29
  volume of cell :     1550.48
      direct lattice vectors                 reciprocal lattice vectors
     8.468310000  0.000000000  0.000000000     0.118087316 -0.068177744  0.000000000
     4.234155000  7.333771587  0.000000000     0.000000000  0.136355488  0.000000000
     0.000000000  0.000000000 24.965661990     0.000000000  0.000000000  0.040055016

  length of vectors

 
 k-points in units of 2pi/SCALE and weight: KPOINTS created by Atomic Simulation Env
   0.00000000  0.00000000  0.00000000       0.040
   0.02361746 -0.01363555  0.00000000       0.080
   0.02361746  0.01363555  0.00000000       0.080
   0.00000000  0.02727110  0.00000000       0.080
   0.04723493 -0.02727110  0.00000000       0.080
   0.04723493  0.02727110  0.00000000       0.080
   0.00000000  0.05454220  0.00000000       0.080
   0.04723493  0.00000000  0.00000000       0.080
   0.02361746  0.04090665  0.00000000       0.080
  -0.02361746  0.04090665  0.00000000       0.080
  -0.04723493  0.05454220  0.00000000       0.080
   0.04723493 -0.08181329  0.00000000       0.080
  -0.02361746  0.06817774  0.00000000       0.080
 
 k-points in reciprocal lattice and weights: KPOINTS created by Atomic Simulation Env
   0.00000000  0.00000000  0.00000000       0.040
   0.20000000  0.00000000  0.00000000       0.080
   0.20000000  0.20000000  0.00000000       0.080
   0.00000000  0.20000000  0.00000000       0.080
   0.40000000  0.00000000  0.00000000       0.080
   0.40000000  0.40000000  0.00000000       0.080
   0.00000000  0.40000000  0.00000000       0.080
   0.40000000  0.20000000  0.00000000       0.080
   0.20000000  0.40000000  0.00000000       0.080
  -0.20000000  0.20000000  0.00000000       0.080
  -0.40000000  0.20000000  0.00000000       0.080
   0.40000000 -0.40000000  0.00000000       0.080
  -0.20000000  0.40000000  0.00000000       0.080
 
 position of ions in fractional coordinates (direct lattice) 
   0.00000000  0.00000000  0.34046764
   0.33400137  0.00000000  0.34046764
   0.66800274  0.00000000  0.34046764
   0.00000000  0.33400137  0.34046764
   0.33400137  0.33400137  0.34046764
   0.66800274  0.33400137  0.34046764
   0.00000000  0.66800274  0.34046764
   0.33400137  0.66800274  0.34046764
   0.66800274  0.66800274  0.34046764
   0.11133379  0.11133379  0.43297074
   0.44533516  0.11133379  0.43297074
   0.77933653  0.11133379  0.43297074
   0.11133379  0.44533516  0.43297074
   0.44533516  0.44533516  0.43297074
   0.77933653  0.44533516  0.43297074
   0.11133379  0.77933653  0.43297074
   0.44533516  0.77933653  0.43297074
   0.77933653  0.77933653  0.43297074
   0.89097698  0.22398958  0.52507526
   0.22340070  0.22345913  0.52547312
   0.55731104  0.22357863  0.52413824
   0.89108275  0.55572900  0.52510128
   0.22356168  0.55731672  0.52414432
   0.55718613  0.55724780  0.52426484
   0.89034361  0.89038375  0.52447505
   0.22393178  0.89100440  0.52507710
   0.55569312  0.89112619  0.52509944
   0.99927243  0.99933108  0.61809559
   0.33968252  0.99989164  0.62049445
   0.66876589  0.00253005  0.61784656
   0.99983596  0.33972097  0.62049701
   0.33726636  0.33735776  0.61741088
   0.66763108  0.33605564  0.61753409
   0.00246169  0.66882880  0.61784846
   0.33599403  0.66771295  0.61754330
   0.66874266  0.66880259  0.61780612
   0.13981023  0.13983035  0.65837106
 
 position of ions in cartesian coordinates  (Angst):
   0.00000000  0.00000000  8.50000000
   2.82842712  0.00000000  8.50000000
   5.65685425  0.00000000  8.50000000
   1.41421356  2.44948974  8.50000000
   4.24264069  2.44948974  8.50000000
   7.07106781  2.44948974  8.50000000
   2.82842712  4.89897949  8.50000000
   5.65685425  4.89897949  8.50000000
   8.48528137  4.89897949  8.50000000
   1.41421356  0.81649658 10.80940108
   4.24264069  0.81649658 10.80940108
   7.07106781  0.81649658 10.80940108
   2.82842712  3.26598632 10.80940108
   5.65685425  3.26598632 10.80940108
   8.48528137  3.26598632 10.80940108
   4.24264069  5.71547607 10.80940108
   7.07106781  5.71547607 10.80940108
   9.89949494  5.71547607 10.80940108
   8.49347589  1.64268841 13.10885137
   2.83798699  1.63879824 13.11878418
   5.66614919  1.63967458 13.08545822
   9.89900769  4.07558955 13.10950107
   4.25295497  4.08723355 13.08560991
   7.07789846  4.08672809 13.08861889
  11.30972850  6.52987101 13.09386689
   5.66897448  6.53442272 13.10889738
   8.47894800  6.53531595 13.10945523
  12.69347142  7.32886587 15.43116554
   7.11023309  7.33297687 15.49105465
   5.67402947  0.01855478 15.42494826
   9.90535205  2.49143597 15.49111869
   4.28450111  2.47410474 15.41407136
   7.07661864  2.46455530 15.41714747
   2.85277114  4.90503766 15.42499574
   5.67250172  4.89685430 15.41737729
   8.49493398  4.90484545 15.42393875
   1.77601979  1.02548388 16.43666938
 


--------------------------------------------------------------------------------------------------------


 k-point   1 :   0.0000 0.0000 0.0000  plane waves:   62399
 k-point   2 :   0.2000 0.0000 0.0000  plane waves:   62407
 k-point   3 :   0.2000 0.2000 0.0000  plane waves:   62407
 k-point   4 :   0.0000 0.2000 0.0000  plane waves:   62407
 k-point   5 :   0.4000 0.0000 0.0000  plane waves:   62451
 k-point   6 :   0.4000 0.4000 0.0000  plane waves:   62451
 k-point   7 :   0.0000 0.4000 0.0000  plane waves:   62451
 k-point   8 :   0.4000 0.2000 0.0000  plane waves:   62510
 k-point   9 :   0.2000 0.4000 0.0000  plane waves:   62510
 k-point  10 :  -0.2000 0.2000 0.0000  plane waves:   62510
 k-point  11 :  -0.4000 0.2000 0.0000  plane waves:   62498
 k-point  12 :   0.4000-0.4000 0.0000  plane waves:   62498
 k-point  13 :  -0.2000 0.4000 0.0000  plane waves:   62498

 maximum and minimum number of plane-waves per node :     62510    62399

 maximum number of plane-waves:     62510
 maximum index in each direction: 
   IXMAX=   18   IYMAX=   18   IZMAX=   53
   IXMIN=  -18   IYMIN=  -18   IZMIN=  -53


 serial   3D FFT for wavefunctions
 parallel 3D FFT for charge:
    minimum data exchange during FFTs selected (reduces bandwidth)


 total amount of memory used by VASP MPI-rank0   148537. kBytes
=======================================================================

   base      :      30000. kBytes
   nonlr-proj:      22464. kBytes
   fftplans  :       5213. kBytes
   grid      :      24541. kBytes
   one-center:        575. kBytes
   wavefun   :      65744. kBytes
 
     INWAV:  cpu time      7.1759: real time     12.7572
 Broyden mixing: mesh for mixing (old mesh)
   NGX = 37   NGY = 37   NGZ =107
  (NGX  =108   NGY  =108   NGZ  =320)
  gives a total of 146483 points

 charge density for first step will be calculated from the start-wavefunctions


--------------------------------------------------------------------------------------------------------


 Maximum index for non-local projection operator         3550
 Maximum index for augmentation-charges         1170 (set IRDMAX)


--------------------------------------------------------------------------------------------------------


 initial charge from wavefunction
 First call to EWALD:  gamma=   0.153
 Maximum number of real-space cells 4x 4x 2
 Maximum number of reciprocal cells 2x 2x 5

    FEWALD:  cpu time      0.0052: real time      0.0052


--------------------------------------- Ionic step        1  -------------------------------------------




--------------------------------------- Iteration      1(   1)  ---------------------------------------


vdW kernel read from vdw_kernel.bindat
  0.0000  0.2424  0.5071  0.7962  1.1119  1.4567  1.8333  2.2446  2.6937  3.1842
  3.7199  4.3049  4.9438  5.6415  6.4036  7.2358  8.1446  9.1372 10.2212 11.4050
 12.6979 14.1099 15.6519 17.3360 19.1751 21.1837 23.3773 25.7729 28.3892 31.2465
 34.3669 37.7748 41.4965 45.5611 50.0000
 
    POTLOK:  cpu time      3.2069: real time      3.2373
    SETDIJ:  cpu time      0.1926: real time      0.1936
     EDDAV:  cpu time     19.5343: real time     19.7857
       DOS:  cpu time      0.0012: real time      0.0012
    CHARGE:  cpu time      0.7634: real time      0.7693
    MIXING:  cpu time      0.0031: real time      0.0031
    --------------------------------------------
      LOOP:  cpu time     23.7015: real time     23.9902

 eigenvalue-minimisations  :  7296
 total energy-change (2. order) :-0.1045791E+03  (-0.3135169E-02)
 number of electron     360.9999949 magnetization 
 augmentation part      114.1929425 magnetization 

 Broyden mixing:
  rms(total) = 0.69927E-01    rms(broyden)= 0.69927E-01
  rms(prec ) = 0.80366E-01
  weight for this iteration     100.00

 Free energy of the ion-electron system (eV)
  ---------------------------------------------------
  alpha Z        PSCENC =       797.33612757
  Ewald energy   TEWEN  =    132223.94368926
  -Hartree energ DENC   =   -159618.25071314
  -exchange      EXHF   =         0.00000000
  -V(xc)+E(xc)   XCENC  =        89.67158581
  PAW double counting   =     32175.62399744   -31177.75461918
  entropy T*S    EENTRO =        -0.09602175
  eigenvalues    EBANDS =     -1091.85628982
  atomic energy  EATOM  =     26496.80315902
  Solvation  Ediel_sol  =         0.00000000
  ---------------------------------------------------
  free energy    TOTEN  =      -104.57908480 eV

  energy without entropy =     -104.48306305  energy(sigma->0) =     -104.54707755


--------------------------------------------------------------------------------------------------------




--------------------------------------- Iteration      1(   2)  ---------------------------------------


    POTLOK:  cpu time      2.3415: real time      2.3788
    SETDIJ:  cpu time      0.0056: real time      0.0057
    EDDIAG:  cpu time      2.8222: real time      2.8420
  RMM-DIIS:  cpu time      7.9294: real time      8.2108
    ORTHCH:  cpu time      0.9900: real time      0.9994
       DOS:  cpu time      0.0014: real time      0.0014
    CHARGE:  cpu time      0.7597: real time      0.7665
    MIXING:  cpu time      0.0027: real time      0.0027
    --------------------------------------------
      LOOP:  cpu time     14.8525: real time     15.2072

 eigenvalue-minimisations  :  6565
 total energy-change (2. order) :-0.5824510E-01  (-0.4858466E-02)
 number of electron     360.9999949 magnetization 
 augmentation part      114.1602887 magnetization 

 Broyden mixing:
  rms(total) = 0.29532E+00    rms(broyden)= 0.29532E+00
  rms(prec ) = 0.33542E+00
  weight for this iteration     100.00

 eigenvalues of (default mixing * dielectric matrix)
  average eigenvalue GAMMA=   0.1895
  0.1895

 Free energy of the ion-electron system (eV)
  ---------------------------------------------------
  alpha Z        PSCENC =       797.33612757
  Ewald energy   TEWEN  =    132223.94368926
  -Hartree energ DENC   =   -159627.03089458
  -exchange      EXHF   =         0.00000000
  -V(xc)+E(xc)   XCENC  =        89.65724694
  PAW double counting   =     32178.78900518   -31180.90397989
  entropy T*S    EENTRO =        -0.09032109
  eigenvalues    EBANDS =     -1083.14136231
  atomic energy  EATOM  =     26496.80315902
  Solvation  Ediel_sol  =         0.00000000
  ---------------------------------------------------
  free energy    TOTEN  =      -104.63732990 eV

  energy without entropy =     -104.54700881  energy(sigma->0) =     -104.60722287


--------------------------------------------------------------------------------------------------------




--------------------------------------- Iteration      1(   3)  ---------------------------------------


    POTLOK:  cpu time      2.4296: real time      2.4872
    SETDIJ:  cpu time      0.0044: real time      0.0044
    EDDIAG:  cpu time      2.6798: real time      2.6989
  RMM-DIIS:  cpu time      8.3695: real time      8.4275
    ORTHCH:  cpu time      0.5848: real time      0.5895
       DOS:  cpu time      0.0010: real time      0.0010
    CHARGE:  cpu time      0.7483: real time      0.7542
    MIXING:  cpu time      0.0031: real time      0.0031
    --------------------------------------------
      LOOP:  cpu time     14.8205: real time     14.9659

 eigenvalue-minimisations  :  6605
 total energy-change (2. order) : 0.5736182E-01  (-0.2403620E-02)
 number of electron     360.9999949 magnetization 
 augmentation part      114.1773347 magnetization 

 Broyden mixing:
  rms(total) = 0.71161E-01    rms(broyden)= 0.71161E-01
  rms(prec ) = 0.10344E+00
  weight for this iteration     100.00

 eigenvalues of (default mixing * dielectric matrix)
  average eigenvalue GAMMA=   0.1334
  0.1884  0.0784

 Free energy of the ion-electron system (eV)
  ---------------------------------------------------
  alpha Z        PSCENC =       797.33612757
  Ewald energy   TEWEN  =    132223.94368926
  -Hartree energ DENC   =   -159622.00294935
  -exchange      EXHF   =         0.00000000
  -V(xc)+E(xc)   XCENC  =        89.67239640
  PAW double counting   =     32177.36381847   -31179.48669573
  entropy T*S    EENTRO =        -0.09574863
  eigenvalues    EBANDS =     -1088.11376508
  atomic energy  EATOM  =     26496.80315902
  Solvation  Ediel_sol  =         0.00000000
  ---------------------------------------------------
  free energy    TOTEN  =      -104.57996807 eV

  energy without entropy =     -104.48421945  energy(sigma->0) =     -104.54805186


--------------------------------------------------------------------------------------------------------




--------------------------------------- Iteration      1(   4)  ---------------------------------------


    POTLOK:  cpu time      2.3794: real time      2.3979
    SETDIJ:  cpu time      0.0043: real time      0.0044
    EDDIAG:  cpu time      2.7512: real time      2.7720
  RMM-DIIS:  cpu time      8.0175: real time      8.0856
    ORTHCH:  cpu time      0.8596: real time      1.0187
       DOS:  cpu time      0.0010: real time      0.0010
    CHARGE:  cpu time      0.7734: real time      0.7791
    MIXING:  cpu time      0.0022: real time      0.0022
    --------------------------------------------
      LOOP:  cpu time     14.7887: real time     15.0610

 eigenvalue-minimisations  :  6516
 total energy-change (2. order) : 0.5028368E-02  (-0.1772132E-03)
 number of electron     360.9999949 magnetization 
 augmentation part      114.1774956 magnetization 

 Broyden mixing:
  rms(total) = 0.13403E-01    rms(broyden)= 0.13403E-01
  rms(prec ) = 0.14474E-01
  weight for this iteration     100.00

 eigenvalues of (default mixing * dielectric matrix)
  average eigenvalue GAMMA=   0.2240
  0.3600  0.2242  0.0877

 Free energy of the ion-electron system (eV)
  ---------------------------------------------------
  alpha Z        PSCENC =       797.33612757
  Ewald energy   TEWEN  =    132223.94368926
  -Hartree energ DENC   =   -159621.79978397
  -exchange      EXHF   =         0.00000000
  -V(xc)+E(xc)   XCENC  =        89.67309525
  PAW double counting   =     32177.25936415   -31179.37907472
  entropy T*S    EENTRO =        -0.09584860
  eigenvalues    EBANDS =     -1088.31566766
  atomic energy  EATOM  =     26496.80315902
  Solvation  Ediel_sol  =         0.00000000
  ---------------------------------------------------
  free energy    TOTEN  =      -104.57493971 eV

  energy without entropy =     -104.47909110  energy(sigma->0) =     -104.54299017


--------------------------------------------------------------------------------------------------------




--------------------------------------- Iteration      1(   5)  ---------------------------------------


    POTLOK:  cpu time      2.4335: real time      2.4876
    SETDIJ:  cpu time      0.0043: real time      0.0043
    EDDIAG:  cpu time      2.7533: real time      2.7745
  RMM-DIIS:  cpu time      8.4481: real time      8.5030
    ORTHCH:  cpu time      0.5620: real time      0.5665
       DOS:  cpu time      0.0011: real time      0.0011
    CHARGE:  cpu time      0.7536: real time      0.7588
    MIXING:  cpu time      0.0023: real time      0.0023
    --------------------------------------------
      LOOP:  cpu time     14.9582: real time     15.0982

 eigenvalue-minimisations  :  6767
 total energy-change (2. order) : 0.5151328E-04  (-0.3565993E-04)
 number of electron     360.9999949 magnetization 
 augmentation part      114.1780183 magnetization 

 Broyden mixing:
  rms(total) = 0.11165E-01    rms(broyden)= 0.11165E-01
  rms(prec ) = 0.12064E-01
  weight for this iteration     100.00

 eigenvalues of (default mixing * dielectric matrix)
  average eigenvalue GAMMA=   0.3011
  0.5917  0.0867  0.1953  0.3305

 Free energy of the ion-electron system (eV)
  ---------------------------------------------------
  alpha Z        PSCENC =       797.33612757
  Ewald energy   TEWEN  =    132223.94368926
  -Hartree energ DENC   =   -159621.85241478
  -exchange      EXHF   =         0.00000000
  -V(xc)+E(xc)   XCENC  =        89.67301292
  PAW double counting   =     32177.01812554   -31179.14198583
  entropy T*S    EENTRO =        -0.09573129
  eigenvalues    EBANDS =     -1088.25887060
  atomic energy  EATOM  =     26496.80315902
  Solvation  Ediel_sol  =         0.00000000
  ---------------------------------------------------
  free energy    TOTEN  =      -104.57488819 eV

  energy without entropy =     -104.47915690  energy(sigma->0) =     -104.54297776


--------------------------------------------------------------------------------------------------------




--------------------------------------- Iteration      1(   6)  ---------------------------------------


    POTLOK:  cpu time      2.4725: real time      2.4920
    SETDIJ:  cpu time      0.0053: real time      0.0053
    EDDIAG:  cpu time      2.6966: real time      2.7167
  RMM-DIIS:  cpu time      8.5263: real time      8.6931
    ORTHCH:  cpu time      0.6301: real time      0.6353
       DOS:  cpu time      0.0011: real time      0.0011
    CHARGE:  cpu time      0.7571: real time      0.7636
    MIXING:  cpu time      0.0043: real time      0.0043
    --------------------------------------------
      LOOP:  cpu time     15.0932: real time     15.3114

 eigenvalue-minimisations  :  6638
 total energy-change (2. order) : 0.6003712E-04  (-0.7771242E-05)
 number of electron     360.9999949 magnetization 
 augmentation part      114.1787227 magnetization 

 Broyden mixing:
  rms(total) = 0.62693E-02    rms(broyden)= 0.62693E-02
  rms(prec ) = 0.68438E-02
  weight for this iteration     100.00

 eigenvalues of (default mixing * dielectric matrix)
  average eigenvalue GAMMA=   0.3575
  0.6262  0.6262  0.0867  0.2158  0.2328

 Free energy of the ion-electron system (eV)
  ---------------------------------------------------
  alpha Z        PSCENC =       797.33612757
  Ewald energy   TEWEN  =    132223.94368926
  -Hartree energ DENC   =   -159621.87753368
  -exchange      EXHF   =         0.00000000
  -V(xc)+E(xc)   XCENC  =        89.67309082
  PAW double counting   =     32176.77211665   -31178.89958093
  entropy T*S    EENTRO =        -0.09582499
  eigenvalues    EBANDS =     -1088.23007186
  atomic energy  EATOM  =     26496.80315902
  Solvation  Ediel_sol  =         0.00000000
  ---------------------------------------------------
  free energy    TOTEN  =      -104.57482816 eV

  energy without entropy =     -104.47900316  energy(sigma->0) =     -104.54288649


--------------------------------------------------------------------------------------------------------




--------------------------------------- Iteration      1(   7)  ---------------------------------------


    POTLOK:  cpu time      2.3663: real time      2.4160
    SETDIJ:  cpu time      0.0043: real time      0.0043
    EDDIAG:  cpu time      2.5817: real time      2.6010
  RMM-DIIS:  cpu time      7.1261: real time      7.1691
    ORTHCH:  cpu time      0.5618: real time      0.5662
       DOS:  cpu time      0.0010: real time      0.0010
    CHARGE:  cpu time      0.7545: real time      0.7606
    MIXING:  cpu time      0.0053: real time      0.0053
    --------------------------------------------
      LOOP:  cpu time     13.4011: real time     13.5236

 eigenvalue-minimisations  :  5087
 total energy-change (2. order) : 0.1100528E-04  (-0.2833741E-05)
 number of electron     360.9999949 magnetization 
 augmentation part      114.1791681 magnetization 

 Broyden mixing:
  rms(total) = 0.52768E-02    rms(broyden)= 0.52768E-02
  rms(prec ) = 0.57844E-02
  weight for this iteration     100.00

 eigenvalues of (default mixing * dielectric matrix)
  average eigenvalue GAMMA=   0.5214
  1.1667  1.1667  0.0868  0.2838  0.2015  0.2231

 Free energy of the ion-electron system (eV)
  ---------------------------------------------------
  alpha Z        PSCENC =       797.33612757
  Ewald energy   TEWEN  =    132223.94368926
  -Hartree energ DENC   =   -159621.85690400
  -exchange      EXHF   =         0.00000000
  -V(xc)+E(xc)   XCENC  =        89.67347461
  PAW double counting   =     32176.62598023   -31178.75497832
  entropy T*S    EENTRO =        -0.09585769
  eigenvalues    EBANDS =     -1088.24950782
  atomic energy  EATOM  =     26496.80315902
  Solvation  Ediel_sol  =         0.00000000
  ---------------------------------------------------
  free energy    TOTEN  =      -104.57481715 eV

  energy without entropy =     -104.47895946  energy(sigma->0) =     -104.54286459


--------------------------------------------------------------------------------------------------------




--------------------------------------- Iteration      1(   8)  ---------------------------------------


    POTLOK:  cpu time      2.5037: real time      2.5195
    SETDIJ:  cpu time      0.0045: real time      0.0045
    EDDIAG:  cpu time      2.7018: real time      2.7222
  RMM-DIIS:  cpu time      6.7699: real time      6.9671
    ORTHCH:  cpu time      2.2049: real time      2.2183
       DOS:  cpu time      0.0010: real time      0.0010
    CHARGE:  cpu time      0.7486: real time      0.7576
    MIXING:  cpu time      0.0040: real time      0.0040
    --------------------------------------------
      LOOP:  cpu time     14.9383: real time     15.1942

 eigenvalue-minimisations  :  4699
 total energy-change (2. order) : 0.2053188E-04  (-0.1940485E-05)
 number of electron     360.9999949 magnetization 
 augmentation part      114.1794778 magnetization 

 Broyden mixing:
  rms(total) = 0.26161E-02    rms(broyden)= 0.26161E-02
  rms(prec ) = 0.29431E-02
  weight for this iteration     100.00

 eigenvalues of (default mixing * dielectric matrix)
  average eigenvalue GAMMA=   0.5570
  1.7590  1.0150  0.0868  0.3581  0.2771  0.2052  0.1978

 Free energy of the ion-electron system (eV)
  ---------------------------------------------------
  alpha Z        PSCENC =       797.33612757
  Ewald energy   TEWEN  =    132223.94368926
  -Hartree energ DENC   =   -159621.96218975
  -exchange      EXHF   =         0.00000000
  -V(xc)+E(xc)   XCENC  =        89.67395151
  PAW double counting   =     32176.37141963   -31178.50302001
  entropy T*S    EENTRO =        -0.09584599
  eigenvalues    EBANDS =     -1088.14208784
  atomic energy  EATOM  =     26496.80315902
  Solvation  Ediel_sol  =         0.00000000
  ---------------------------------------------------
  free energy    TOTEN  =      -104.57479662 eV

  energy without entropy =     -104.47895063  energy(sigma->0) =     -104.54284796


--------------------------------------------------------------------------------------------------------




--------------------------------------- Iteration      1(   9)  ---------------------------------------


    POTLOK:  cpu time      2.3848: real time      2.4150
    SETDIJ:  cpu time      0.0043: real time      0.0043
    EDDIAG:  cpu time      2.6666: real time      2.6896
  RMM-DIIS:  cpu time      6.3903: real time      6.4403
    ORTHCH:  cpu time      0.7475: real time      0.7537
       DOS:  cpu time      0.0011: real time      0.0011
    CHARGE:  cpu time      0.7636: real time      0.7701
    MIXING:  cpu time      0.0029: real time      0.0029
    --------------------------------------------
      LOOP:  cpu time     12.9610: real time     13.0771

 eigenvalue-minimisations  :  4136
 total energy-change (2. order) : 0.1018193E-04  (-0.7992135E-06)
 number of electron     360.9999949 magnetization 
 augmentation part      114.1795957 magnetization 

 Broyden mixing:
  rms(total) = 0.74962E-03    rms(broyden)= 0.74962E-03
  rms(prec ) = 0.81947E-03
  weight for this iteration     100.00

 eigenvalues of (default mixing * dielectric matrix)
  average eigenvalue GAMMA=   0.6459
  2.1627  0.9689  0.9689  0.0868  0.3156  0.2644  0.2046  0.1955

 Free energy of the ion-electron system (eV)
  ---------------------------------------------------
  alpha Z        PSCENC =       797.33612757
  Ewald energy   TEWEN  =    132223.94368926
  -Hartree energ DENC   =   -159621.97943949
  -exchange      EXHF   =         0.00000000
  -V(xc)+E(xc)   XCENC  =        89.67431751
  PAW double counting   =     32176.25722649   -31178.38968677
  entropy T*S    EENTRO =        -0.09587271
  eigenvalues    EBANDS =     -1088.12430731
  atomic energy  EATOM  =     26496.80315902
  Solvation  Ediel_sol  =         0.00000000
  ---------------------------------------------------
  free energy    TOTEN  =      -104.57478644 eV

  energy without entropy =     -104.47891373  energy(sigma->0) =     -104.54282887


--------------------------------------------------------------------------------------------------------




--------------------------------------- Iteration      1(  10)  ---------------------------------------


    POTLOK:  cpu time      2.4047: real time      2.4654
    SETDIJ:  cpu time      0.0044: real time      0.0044
    EDDIAG:  cpu time      2.7999: real time      2.8258
  RMM-DIIS:  cpu time      6.1225: real time      6.1700
    ORTHCH:  cpu time      4.1223: real time      4.2760
       DOS:  cpu time      0.0011: real time      0.0011
    --------------------------------------------
      LOOP:  cpu time     15.4549: real time     15.7428

 eigenvalue-minimisations  :  3845
 total energy-change (2. order) : 0.6272970E-05  (-0.2308250E-06)
 number of electron     360.9999949 magnetization 
 augmentation part      114.1795957 magnetization 

 Free energy of the ion-electron system (eV)
  ---------------------------------------------------
  alpha Z        PSCENC =       797.33612757
  Ewald energy   TEWEN  =    132223.94368926
  -Hartree energ DENC   =   -159622.03930084
  -exchange      EXHF   =         0.00000000
  -V(xc)+E(xc)   XCENC  =        89.67468383
  PAW double counting   =     32176.14034399   -31178.27318393
  entropy T*S    EENTRO =        -0.09587188
  eigenvalues    EBANDS =     -1088.06442717
  atomic energy  EATOM  =     26496.80315902
  Solvation  Ediel_sol  =         0.00000000
  ---------------------------------------------------
  free energy    TOTEN  =      -104.57478016 eV

  energy without entropy =     -104.47890828  energy(sigma->0) =     -104.54282287


--------------------------------------------------------------------------------------------------------




 average (electrostatic) potential at core
  the test charge radii are     1.2059  0.5201
  (the norm of the test charge is              1.0000)
       1 -73.5483       2 -73.5388       3 -73.5370       4 -73.5388       5 -73.5234
       6 -73.5328       7 -73.5370       8 -73.5329       9 -73.5439      10 -73.9774
      11 -73.9731      12 -73.9892      13 -73.9730      14 -73.9914      15 -73.9880
      16 -73.9891      17 -73.9880      18 -73.9322      19 -73.9390      20 -73.9240
      21 -73.9745      22 -73.9444      23 -73.9745      24 -73.9753      25 -73.9835
      26 -73.9389      27 -73.9444      28 -73.5329      29 -73.6305      30 -73.5544
      31 -73.6302      32 -73.5262      33 -73.5400      34 -73.5545      35 -73.5398
      36 -73.5598      37 -38.3918
 
 
 
 E-fermi :  -0.0756     XC(G=0):  -5.8750     alpha+bet : -5.8354

 Fermi energy:        -0.0756365745

 k-point     1 :       0.0000    0.0000    0.0000
  band No.  band energies     occupation 
      1      -8.9017      2.00000
      2      -7.7898      2.00000
      3      -7.0644      2.00000
      4      -6.5028      2.00000
      5      -6.4731      2.00000
      6      -6.4577      2.00000
      7      -6.4559      2.00000
      8      -6.4387      2.00000
      9      -6.4386      2.00000
     10      -6.4272      2.00000
     11      -6.1317      2.00000
     12      -5.9172      2.00000
     13      -5.9139      2.00000
     14      -5.9109      2.00000
     15      -5.9070      2.00000
     16      -5.8993      2.00000
     17      -5.8248      2.00000
     18      -5.4726      2.00000
     19      -5.4652      2.00000
     20      -5.4546      2.00000
     21      -5.4495      2.00000
     22      -5.4416      2.00000
     23      -5.3483      2.00000
     24      -5.2341      2.00000
     25      -5.2270      2.00000
     26      -5.2257      2.00000
     27      -5.2202      2.00000
     28      -5.2193      2.00000
     29      -5.1229      2.00000
     30      -5.0353      2.00000
     31      -5.0320      2.00000
     32      -5.0258      2.00000
     33      -5.0212      2.00000
     34      -5.0109      2.00000
     35      -4.9731      2.00000
     36      -4.9589      2.00000
     37      -4.9540      2.00000
     38      -4.9501      2.00000
     39      -4.9190      2.00000
     40      -4.9119      2.00000
     41      -4.5892      2.00000
     42      -4.3816      2.00000
     43      -4.3813      2.00000
     44      -4.3540      2.00000
     45      -4.3398      2.00000
     46      -4.3279      2.00000
     47      -4.3166      2.00000
     48      -4.2951      2.00000
     49      -4.2932      2.00000
     50      -4.2885      2.00000
     51      -4.1371      2.00000
     52      -4.1341      2.00000
     53      -4.0772      2.00000
     54      -4.0367      2.00000
     55      -4.0324      2.00000
     56      -3.5877      2.00000
     57      -3.5810      2.00000
     58      -3.5730      2.00000
     59      -3.5633      2.00000
     60      -3.5542      2.00000
     61      -3.5015      2.00000
     62      -3.4805      2.00000
     63      -3.3937      2.00000
     64      -3.3746      2.00000
     65      -3.3731      2.00000
     66      -3.3720      2.00000
     67      -3.3649      2.00000
     68      -3.3600      2.00000
     69      -3.3541      2.00000
     70      -3.3190      2.00000
     71      -3.3098      2.00000
     72      -3.3043      2.00000
     73      -3.3037      2.00000
     74      -3.2988      2.00000
     75      -3.2671      2.00000
     76      -3.2613      2.00000
     77      -3.2555      2.00000
     78      -3.1559      2.00000
     79      -3.1498      2.00000
     80      -3.1458      2.00000
     81      -3.1446      2.00000
     82      -3.1368      2.00000
     83      -3.1326      2.00000
     84      -2.9470      2.00000
     85      -2.9298      2.00000
     86      -2.9269      2.00000
     87      -2.9211      2.00000
     88      -2.9170      2.00000
     89      -2.9066      2.00000
     90      -2.8962      2.00000
     91      -2.8895      2.00000
     92      -2.8397      2.00000
     93      -2.8294      2.00000
     94      -2.7821      2.00000
     95      -2.7735      2.00000
     96      -2.7441      2.00000
     97      -2.7347      2.00000
     98      -2.7082      2.00000
     99      -2.6943      2.00000
    100      -2.6887      2.00000
    101      -2.6270      2.00000
    102      -2.5263      2.00000
    103      -2.5192      2.00000
    104      -2.5157      2.00000
    105      -2.5070      2.00000
    106      -2.5029      2.00000
    107      -2.4941      2.00000
    108      -2.2645      2.00000
    109      -2.0287      2.00000
    110      -2.0072      2.00000
    111      -2.0020      2.00000
    112      -1.9932      2.00000
    113      -1.9903      2.00000
    114      -1.9847      2.00000
    115      -1.9789      2.00000
    116      -1.9742      2.00000
    117      -1.9573      2.00000
    118      -1.9532      2.00000
    119      -1.9445      2.00000
    120      -1.8734      2.00000
    121      -1.8626      2.00000
    122      -1.8096      2.00000
    123      -1.7380      2.00000
    124      -1.7343      2.00000
    125      -1.7241      2.00000
    126      -1.7166      2.00000
    127      -1.7086      2.00000
    128      -1.6016      2.00000
    129      -1.5889      2.00000
    130      -1.5400      2.00000
    131      -1.5368      2.00000
    132      -1.5204      2.00000
    133      -1.4945      2.00000
    134      -1.2969      2.00000
    135      -1.2810      2.00000
    136      -1.2773      2.00000
    137      -1.2571      2.00000
    138      -1.2514      2.00000
    139      -1.2490      2.00000
    140      -1.1880      2.00000
    141      -1.1769      2.00000
    142      -1.0546      2.00000
    143      -1.0488      2.00000
    144      -1.0290      2.00000
    145      -1.0250      2.00000
    146      -1.0249      2.00000
    147      -1.0216      2.00000
    148      -0.9128      2.00000
    149      -0.8872      2.00000
    150      -0.8653      2.00000
    151      -0.8451      2.00000
    152      -0.8313      2.00000
    153      -0.8272      2.00000
    154      -0.8238      2.00000
    155      -0.8182      2.00000
    156      -0.8076      2.00000
    157      -0.8073      2.00000
    158      -0.8010      2.00000
    159      -0.7955      2.00000
    160      -0.7348      2.00000
    161      -0.7223      2.00000
    162      -0.6945      2.00000
    163      -0.6838      2.00000
    164      -0.6676      2.00000
    165      -0.6589      2.00000
    166      -0.6449      2.00000
    167      -0.6439      2.00000
    168      -0.6057      2.00000
    169      -0.5922      2.00000
    170      -0.5832      2.00000
    171      -0.5584      2.00000
    172      -0.5535      2.00000
    173      -0.5446      2.00000
    174      -0.5384      2.00000
    175      -0.5381      2.00000
    176      -0.4588      2.00000
    177      -0.4475      2.00000
    178      -0.4438      2.00000
    179      -0.4404      2.00000
    180      -0.4308      2.00001
    181      -0.4302      2.00001
    182      -0.3883      2.00009
    183      -0.3477      2.00082
    184      -0.3367      2.00139
    185      -0.3233      2.00257
    186      -0.3221      2.00271
    187      -0.3116      2.00423
    188      -0.3064      2.00524
    189      -0.1150      1.61305
    190      -0.1098      1.54266
    191      -0.0198      0.19883
    192      -0.0161      0.16429
    193      -0.0104      0.11555
    194       0.0052      0.01580
    195       0.0084      0.00046
    196       0.0104     -0.00766
    197       0.5318     -0.00000
    198       0.8206     -0.00000
    199       0.8407     -0.00000
    200       0.8734     -0.00000
    201       0.8913     -0.00000
    202       0.9016     -0.00000
    203       0.9020     -0.00000
    204       2.8442      0.00000
    205       3.1243      0.00000
    206       3.1586      0.00000
    207       3.1975      0.00000
    208       3.2179      0.00000
    209       3.2193      0.00000
    210       4.6019      0.00000
    211       4.7150      0.00000
    212       4.7910      0.00000
    213       4.8156      0.00000
    214       4.8160      0.00000
    215       4.8205      0.00000
    216       4.9030      0.00000
    217       5.0831      0.00000
    218       5.1858      0.00000
    219       5.4342      0.00000
    220       5.5178      0.00000
    221       5.7863      0.00000
    222       5.8104      0.00000
    223       5.8460      0.00000
    224       5.8558      0.00000
    225       5.8662      0.00000
    226       6.1680      0.00000
    227       6.3850      0.00000
    228       6.6009      0.00000
    229       6.6116      0.00000
    230       6.6232      0.00000
    231       6.8423      0.00000
    232       7.0187      0.00000
    233       7.1241      0.00000
    234       7.1358      0.00000
    235       7.1538      0.00000
    236       7.1578      0.00000
    237       7.1630      0.00000
    238       7.2131      0.00000
    239       7.2576      0.00000
    240       7.5017      0.00000

 k-point     2 :       0.2000    0.0000    0.0000
  band No.  band energies     occupation 
      1      -8.7535      2.00000
      2      -7.6635      2.00000
      3      -7.0262      2.00000
      4      -6.9170      2.00000
      5      -6.5619      2.00000
      6      -6.5477      2.00000
      7      -6.3602      2.00000
      8      -6.2664      2.00000
      9      -6.2269      2.00000
     10      -6.2136      2.00000
     11      -6.1022      2.00000
     12      -6.0010      2.00000
     13      -5.9789      2.00000
     14      -5.8461      2.00000
     15      -5.8395      2.00000
     16      -5.8286      2.00000
     17      -5.7393      2.00000
     18      -5.5379      2.00000
     19      -5.4251      2.00000
     20      -5.4175      2.00000
     21      -5.4105      2.00000
     22      -5.3866      2.00000
     23      -5.3366      2.00000
     24      -5.3045      2.00000
     25      -5.2787      2.00000
     26      -5.2313      2.00000
     27      -5.2205      2.00000
     28      -5.2119      2.00000
     29      -5.1603      2.00000
     30      -5.1187      2.00000
     31      -5.1094      2.00000
     32      -5.0377      2.00000
     33      -5.0199      2.00000
     34      -5.0118      2.00000
     35      -5.0094      2.00000
     36      -4.8690      2.00000
     37      -4.8139      2.00000
     38      -4.7834      2.00000
     39      -4.7704      2.00000
     40      -4.7521      2.00000
     41      -4.5907      2.00000
     42      -4.5004      2.00000
     43      -4.4944      2.00000
     44      -4.4465      2.00000
     45      -4.4185      2.00000
     46      -4.4030      2.00000
     47      -4.3901      2.00000
     48      -4.2957      2.00000
     49      -4.2139      2.00000
     50      -4.1492      2.00000
     51      -4.1293      2.00000
     52      -4.1140      2.00000
     53      -4.0722      2.00000
     54      -4.0515      2.00000
     55      -4.0054      2.00000
     56      -3.8342      2.00000
     57      -3.7375      2.00000
     58      -3.7307      2.00000
     59      -3.6867      2.00000
     60      -3.6676      2.00000
     61      -3.6380      2.00000
     62      -3.5871      2.00000
     63      -3.5641      2.00000
     64      -3.5583      2.00000
     65      -3.5310      2.00000
     66      -3.5249      2.00000
     67      -3.4530      2.00000
     68      -3.4448      2.00000
     69      -3.4092      2.00000
     70      -3.3740      2.00000
     71      -3.3645      2.00000
     72      -3.3276      2.00000
     73      -3.2689      2.00000
     74      -3.2620      2.00000
     75      -3.2531      2.00000
     76      -3.1828      2.00000
     77      -3.1788      2.00000
     78      -3.1593      2.00000
     79      -3.1316      2.00000
     80      -3.0966      2.00000
     81      -3.0857      2.00000
     82      -3.0674      2.00000
     83      -3.0297      2.00000
     84      -3.0059      2.00000
     85      -2.9653      2.00000
     86      -2.9523      2.00000
     87      -2.9439      2.00000
     88      -2.9389      2.00000
     89      -2.9187      2.00000
     90      -2.9046      2.00000
     91      -2.8664      2.00000
     92      -2.8228      2.00000
     93      -2.8035      2.00000
     94      -2.7846      2.00000
     95      -2.7747      2.00000
     96      -2.7667      2.00000
     97      -2.7535      2.00000
     98      -2.7256      2.00000
     99      -2.6983      2.00000
    100      -2.6908      2.00000
    101      -2.6116      2.00000
    102      -2.5658      2.00000
    103      -2.5502      2.00000
    104      -2.5254      2.00000
    105      -2.5082      2.00000
    106      -2.5042      2.00000
    107      -2.4981      2.00000
    108      -2.4837      2.00000
    109      -2.4466      2.00000
    110      -2.4395      2.00000
    111      -2.4267      2.00000
    112      -2.4136      2.00000
    113      -2.1956      2.00000
    114      -2.0780      2.00000
    115      -2.0324      2.00000
    116      -2.0148      2.00000
    117      -1.9953      2.00000
    118      -1.9889      2.00000
    119      -1.9865      2.00000
    120      -1.9463      2.00000
    121      -1.9429      2.00000
    122      -1.8733      2.00000
    123      -1.8038      2.00000
    124      -1.7808      2.00000
    125      -1.7092      2.00000
    126      -1.6575      2.00000
    127      -1.6502      2.00000
    128      -1.6045      2.00000
    129      -1.5909      2.00000
    130      -1.5727      2.00000
    131      -1.5435      2.00000
    132      -1.5316      2.00000
    133      -1.5243      2.00000
    134      -1.4467      2.00000
    135      -1.4092      2.00000
    136      -1.3978      2.00000
    137      -1.3875      2.00000
    138      -1.3793      2.00000
    139      -1.2761      2.00000
    140      -1.1955      2.00000
    141      -1.1795      2.00000
    142      -1.1624      2.00000
    143      -1.1528      2.00000
    144      -1.1410      2.00000
    145      -1.1235      2.00000
    146      -1.0676      2.00000
    147      -1.0348      2.00000
    148      -1.0039      2.00000
    149      -0.9911      2.00000
    150      -0.9832      2.00000
    151      -0.9343      2.00000
    152      -0.9196      2.00000
    153      -0.9083      2.00000
    154      -0.8954      2.00000
    155      -0.8190      2.00000
    156      -0.7940      2.00000
    157      -0.7768      2.00000
    158      -0.7610      2.00000
    159      -0.7277      2.00000
    160      -0.6702      2.00000
    161      -0.6448      2.00000
    162      -0.6190      2.00000
    163      -0.6027      2.00000
    164      -0.5893      2.00000
    165      -0.5662      2.00000
    166      -0.5460      2.00000
    167      -0.4830      2.00000
    168      -0.4749      2.00000
    169      -0.4208      2.00001
    170      -0.4059      2.00003
    171      -0.3967      2.00005
    172      -0.3841      2.00012
    173      -0.3602      2.00043
    174      -0.3534      2.00061
    175      -0.3456      2.00090
    176      -0.3381      2.00131
    177      -0.3305      2.00186
    178      -0.2722      2.01787
    179      -0.2693      2.01949
    180      -0.1347      1.83143
    181      -0.1215      1.69319
    182      -0.1044      1.46459
    183      -0.0897      1.23499
    184      -0.0734      0.96293
    185      -0.0704      0.91132
    186      -0.0386      0.41840
    187      -0.0243      0.24506
    188      -0.0059      0.08190
    189       0.0030      0.02684
    190       0.0749     -0.05480
    191       0.1057     -0.02786
    192       0.1289     -0.01378
    193       0.1841     -0.00148
    194       0.2911     -0.00000
    195       0.3021     -0.00000
    196       0.3130     -0.00000
    197       0.3554     -0.00000
[...]
    148      -1.1155      2.00000
    149      -1.0970      2.00000
    150      -1.0778      2.00000
    151      -1.0592      2.00000
    152      -1.0362      2.00000
    153      -1.0281      2.00000
    154      -0.8990      2.00000
    155      -0.8573      2.00000
    156      -0.8010      2.00000
    157      -0.7381      2.00000
    158      -0.7144      2.00000
    159      -0.6306      2.00000
    160      -0.6200      2.00000
    161      -0.5877      2.00000
    162      -0.5150      2.00000
    163      -0.5055      2.00000
    164      -0.4951      2.00000
    165      -0.4015      2.00004
    166      -0.4008      2.00004
    167      -0.3168      2.00341
    168      -0.3020      2.00623
    169      -0.2810      2.01341
    170      -0.2733      2.01722
    171      -0.2666      2.02118
    172      -0.2351      2.04661
    173      -0.2196      2.06049
    174      -0.1777      2.05436
    175      -0.1151      1.61323
    176      -0.1098      1.54241
    177      -0.0855      1.16602
    178      -0.0675      0.86332
    179      -0.0562      0.67844
    180      -0.0518      0.60951
    181      -0.0420      0.46481
    182       0.0237     -0.04886
    183       0.1123     -0.02316
    184       0.1532     -0.00564
    185       0.1591     -0.00446
    186       0.1673     -0.00316
    187       0.1744     -0.00231
    188       0.2268     -0.00016
    189       0.2741     -0.00001
    190       0.3589     -0.00000
    191       0.4582     -0.00000
    192       1.1910     -0.00000
    193       1.3366     -0.00000
    194       1.3546     -0.00000
    195       1.5055     -0.00000
    196       1.5705     -0.00000
    197       1.6455     -0.00000
    198       1.6990     -0.00000
    199       1.7183     -0.00000
    200       2.0530     -0.00000
    201       2.3068     -0.00000
    202       2.3383     -0.00000
    203       2.5209     -0.00000
    204       2.7794      0.00000
    205       2.7998      0.00000
    206       2.8912      0.00000
    207       2.9253      0.00000
    208       3.0699      0.00000
    209       3.1906      0.00000
    210       3.2584      0.00000
    211       3.2956      0.00000
    212       3.5738      0.00000
    213       3.7066      0.00000
    214       3.7544      0.00000
    215       4.1854      0.00000
    216       4.3981      0.00000
    217       4.4294      0.00000
    218       4.6733      0.00000
    219       4.7205      0.00000
    220       5.4086      0.00000
    221       5.5109      0.00000
    222       5.5564      0.00000
    223       5.6119      0.00000
    224       5.7233      0.00000
    225       5.7933      0.00000
    226       5.9133      0.00000
    227       5.9637      0.00000
    228       5.9936      0.00000
    229       6.0032      0.00000
    230       6.0257      0.00000
    231       6.2958      0.00000
    232       6.4598      0.00000
    233       6.5872      0.00000
    234       6.7049      0.00000
    235       6.8014      0.00000
    236       6.9658      0.00000
    237       6.9779      0.00000
    238       7.1102      0.00000
    239       7.2211      0.00000
    240       7.3293      0.00000


--------------------------------------------------------------------------------------------------------


 soft charge-density along one line, spin component           1
         0         1         2         3         4         5         6         7         8         9
 total charge-density along one line
 
 pseudopotential strength for first ion, spin component:           1
 -6.581   0.001   0.000  -0.009  -0.000  -6.676   0.001   0.000
  0.001  -6.467   0.001   0.000  -0.011   0.001  -6.565   0.001
  0.000   0.001  -6.455   0.001   0.000   0.000   0.001  -6.553
 -0.009   0.000   0.001  -6.467   0.001  -0.009   0.000   0.001
 -0.000  -0.011   0.000   0.001  -6.580  -0.000  -0.011   0.000
 -6.676   0.001   0.000  -0.009  -0.000  -6.754   0.001   0.000
  0.001  -6.565   0.001   0.000  -0.011   0.001  -6.646   0.001
  0.000   0.001  -6.553   0.001   0.000   0.000   0.001  -6.636
 -0.009   0.000   0.001  -6.564   0.001  -0.009   0.000   0.001
 -0.000  -0.011   0.000   0.001  -6.675  -0.000  -0.010   0.000
 -0.000  -0.000  -0.035  -0.001  -0.000  -0.000  -0.000  -0.035
 -0.000  -0.001  -0.052  -0.001  -0.000  -0.000  -0.001  -0.051
  0.000  -0.004  -0.000   0.000   0.000   0.000  -0.004  -0.000
  0.000   0.000  -0.008   0.000   0.000   0.000   0.000  -0.008
  0.000   0.000  -0.000  -0.004   0.000   0.000   0.000  -0.000
  0.000  -0.003   0.000   0.000   0.000   0.000  -0.003   0.000
  0.000   0.000  -0.008   0.000   0.000   0.000   0.000  -0.008
  0.001   0.000   0.000  -0.003   0.000   0.001   0.000   0.000
 total augmentation occupancy for first ion, spin component:           1
  3.232   0.006   0.010  -0.261  -0.020  -1.901  -0.004  -0.006   0.081   0.013   0.003  -0.000   0.005  -0.000  -0.041  -0.000
  0.006   4.217   0.013   0.010  -0.268  -0.003  -2.168  -0.008  -0.004   0.094   0.007  -0.003  -0.244   0.000   0.001   0.014
  0.010   0.013   4.384   0.022   0.006  -0.006  -0.008  -2.565  -0.013  -0.003   0.848  -0.184  -0.003  -0.281  -0.005   0.000
 -0.261   0.010   0.022   4.229   0.006   0.090  -0.004  -0.013  -2.173  -0.003   0.013  -0.005   0.001   0.001  -0.243  -0.000
 -0.020  -0.268   0.006   0.006   3.255   0.013   0.086  -0.003  -0.004  -1.915   0.002  -0.000  -0.048  -0.000   0.005   0.004
 -1.901  -0.003  -0.006   0.090   0.013   2.217   0.002   0.003   0.039  -0.008  -0.003   0.001  -0.007  -0.000   0.041   0.000
 -0.004  -2.168  -0.008  -0.004   0.086   0.002   1.967   0.004  -0.000   0.036  -0.005   0.001   0.236  -0.001  -0.001  -0.019
 -0.006  -0.008  -2.565  -0.013  -0.003   0.003   0.004   2.533   0.007   0.002  -0.711   0.126   0.003   0.337   0.006  -0.000
  0.081  -0.004  -0.013  -2.173  -0.004   0.039  -0.000   0.007   1.967   0.002  -0.008   0.002  -0.001  -0.003   0.234   0.000
  0.013   0.094  -0.003  -0.003  -1.915  -0.008   0.036   0.002   0.002   2.226  -0.002   0.000   0.048  -0.000  -0.007  -0.004
  0.003   0.007   0.848   0.013   0.002  -0.003  -0.005  -0.711  -0.008  -0.002   2.507  -0.574  -0.003   0.191  -0.006   0.000
 -0.000  -0.003  -0.184  -0.005  -0.000   0.001   0.001   0.126   0.002   0.000  -0.574   0.148   0.001  -0.068   0.001  -0.000
  0.005  -0.244  -0.003   0.001  -0.048  -0.007   0.236   0.003  -0.001   0.048  -0.003   0.001   0.254  -0.000  -0.000  -0.018
 -0.000   0.000  -0.281   0.001  -0.000  -0.000  -0.001   0.337  -0.003  -0.000   0.191  -0.068  -0.000   0.142  -0.000   0.000
 -0.041   0.001  -0.005  -0.243   0.005   0.041  -0.001   0.006   0.234  -0.007  -0.006   0.001  -0.000  -0.000   0.254   0.000
 -0.000   0.014   0.000  -0.000   0.004   0.000  -0.019  -0.000   0.000  -0.004   0.000  -0.000  -0.018   0.000   0.000   0.001
 -0.000   0.000   0.008   0.000  -0.000   0.000   0.000  -0.023   0.000   0.000  -0.021   0.007   0.000  -0.011   0.000  -0.000
  0.003  -0.000   0.000   0.014  -0.000  -0.003   0.000  -0.000  -0.019   0.000   0.000  -0.000   0.000   0.000  -0.018  -0.000


------------------------ aborting loop because EDIFF is reached ----------------------------------------


    CHARGE:  cpu time      0.7533: real time      0.7611
    FORLOC:  cpu time      0.0174: real time      0.0174
    FORNL :  cpu time      2.5788: real time      2.6123
    STRESS:  cpu time      7.7135: real time      7.7912
    FORCOR:  cpu time      2.3565: real time      2.3734
    FORHAR:  cpu time      0.0156: real time      0.0157
    MIXING:  cpu time      0.0042: real time      0.0043
    OFIELD:  cpu time      0.0000: real time      0.0000

  FORCE on cell =-STRESS in cart. coord.  units (eV):
  Direction    XX          YY          ZZ          XY          YZ          ZX
  --------------------------------------------------------------------------------------
  Alpha Z   797.33613   797.33613   797.33613
  Ewald  151943.73915151968.66657************   -21.44566    -5.93833   -10.14896
  Hartree157905.43969157912.60031************    -6.15410    -1.44802    -2.47754
  E(xc)   -1657.84600 -1657.55083 -1666.85151    -0.25403    -0.05747    -0.09749
  Local  ************************321344.44438    23.46525     6.09149    10.43035
  n-local   108.68760   109.31008    86.46897    -0.53044    -0.55382    -0.95230
  augment  1891.96629  1890.58659  1954.51690     1.18050     0.53835     0.91503
  Kinetic  5212.21056  5207.66727  5370.29633     3.90646     1.28629     2.18777
  Fock        0.00000     0.00000     0.00000     0.00000     0.00000     0.00000
  -------------------------------------------------------------------------------------
  Total     -32.88874   -33.08561     2.16855     0.16798    -0.08150    -0.14314
  in kB     -33.98526   -34.18869     2.24085     0.17358    -0.08422    -0.14791
  external pressure =      -21.98 kB  Pullay stress =        0.00 kB


 VOLUME and BASIS-vectors are now :
 -----------------------------------------------------------------------------
  energy-cutoff  :      680.29
  volume of cell :     1550.48
      direct lattice vectors                 reciprocal lattice vectors
     8.468310000  0.000000000  0.000000000     0.118087316 -0.068177744  0.000000000
     4.234155000  7.333771587  0.000000000     0.000000000  0.136355488  0.000000000
     0.000000000  0.000000000 24.965661990     0.000000000  0.000000000  0.040055016

  length of vectors
     8.468310000  8.468310000 24.965661990     0.136355488  0.136355488  0.040055016


 FORCES acting on ions
    electron-ion (+dipol)            ewald-force                    non-local-force                 convergence-correction
 -----------------------------------------------------------------------------------------------
   -.382E+01 -.221E+01 0.248E+04   0.376E+01 0.217E+01 -.248E+04   0.114E+00 0.657E-01 -.129E+01   -.290E-03 -.334E-03 0.301E-03
   -.401E+00 -.384E+01 0.248E+04   0.398E+00 0.380E+01 -.247E+04   0.217E-01 0.976E-01 -.128E+01   -.301E-03 -.802E-02 0.236E-02
   0.363E+01 -.553E+01 0.248E+04   -.363E+01 0.552E+01 -.247E+04   -.369E-01 0.963E-01 -.129E+01   0.586E-03 0.275E-02 -.420E-03
   -.353E+01 0.157E+01 0.248E+04   0.349E+01 -.155E+01 -.247E+04   0.953E-01 -.299E-01 -.128E+01   -.688E-02 0.381E-02 0.199E-02
   0.295E-01 0.154E-01 0.247E+04   -.430E-01 -.236E-01 -.247E+04   0.139E-02 0.858E-03 -.132E+01   0.960E-02 0.573E-02 0.227E-02
   0.328E+01 -.217E+01 0.247E+04   -.326E+01 0.215E+01 -.247E+04   -.695E-01 0.202E-01 -.130E+01   -.285E-02 0.907E-02 -.364E-03
   -.298E+01 0.591E+01 0.248E+04   0.297E+01 -.591E+01 -.247E+04   0.649E-01 -.799E-01 -.129E+01   0.281E-02 -.973E-03 0.254E-03
   -.235E+00 0.393E+01 0.247E+04   0.228E+00 -.390E+01 -.247E+04   -.173E-01 -.702E-01 -.130E+01   0.634E-02 -.689E-02 0.794E-03
   0.364E+01 0.210E+01 0.247E+04   -.359E+01 -.207E+01 -.247E+04   -.102E+00 -.586E-01 -.129E+01   -.924E-02 -.528E-02 -.449E-03
   -.494E+01 -.284E+01 0.833E+03   0.492E+01 0.283E+01 -.833E+03   0.110E+00 0.636E-01 -.284E+00   0.667E-03 -.936E-03 0.157E-01
   0.293E+01 -.349E+01 0.835E+03   -.291E+01 0.342E+01 -.835E+03   -.233E-01 0.107E+00 -.284E+00   -.212E-03 0.237E-02 0.163E-01
   0.102E+01 -.567E+01 0.835E+03   -.106E+01 0.561E+01 -.835E+03   0.187E-02 0.141E+00 -.310E+00   -.440E-03 0.520E-02 0.141E-01
   -.157E+01 0.426E+01 0.835E+03   0.152E+01 -.421E+01 -.835E+03   0.803E-01 -.727E-01 -.283E+00   0.299E-02 -.861E-03 0.151E-01
   0.287E+00 0.150E+00 0.839E+03   -.309E+00 -.165E+00 -.839E+03   0.246E-01 0.146E-01 -.396E+00   0.372E-02 0.313E-02 0.110E-01
   0.109E+01 -.890E+00 0.835E+03   -.105E+01 0.904E+00 -.834E+03   -.775E-01 0.434E-02 -.297E+00   -.676E-02 0.232E-02 0.119E-01
   -.440E+01 0.373E+01 0.835E+03   0.433E+01 -.374E+01 -.835E+03   0.122E+00 -.687E-01 -.310E+00   0.534E-02 -.340E-02 0.141E-01
   -.213E+00 0.137E+01 0.835E+03   0.247E+00 -.134E+01 -.834E+03   -.354E-01 -.683E-01 -.297E+00   -.234E-02 -.624E-02 0.129E-01
   0.511E+01 0.296E+01 0.831E+03   -.504E+01 -.291E+01 -.831E+03   -.139E+00 -.802E-01 -.253E+00   -.302E-02 -.164E-02 0.151E-01
   -.347E+01 0.103E-02 -.829E+03   0.355E+01 0.210E-01 0.829E+03   -.798E-01 -.256E-01 0.445E+00   -.241E-02 0.368E-02 0.229E-01
   0.234E+01 0.141E+01 -.835E+03   -.237E+01 -.143E+01 0.834E+03   0.284E-01 0.154E-01 0.520E+00   0.132E-02 -.115E-02 0.232E-01
   0.126E+01 0.615E+00 -.810E+03   -.127E+01 -.637E+00 0.809E+03   0.110E-01 0.191E-01 0.508E+00   0.118E-02 0.360E-02 0.208E-01
   0.300E+00 -.283E+00 -.825E+03   -.322E+00 0.767E-01 0.825E+03   0.281E-01 0.208E+00 0.223E+00   -.488E-02 0.158E-03 0.237E-01
   0.117E+01 0.730E+00 -.810E+03   -.119E+01 -.731E+00 0.809E+03   0.226E-01 0.227E-02 0.507E+00   0.558E-02 -.508E-03 0.190E-01
   -.119E+01 -.678E+00 -.812E+03   0.122E+01 0.698E+00 0.811E+03   -.314E-01 -.194E-01 0.516E+00   -.445E-03 0.666E-03 0.219E-01
   0.136E+01 0.816E+00 -.817E+03   -.135E+01 -.807E+00 0.816E+03   -.162E-01 -.948E-02 0.466E+00   -.283E-03 0.727E-03 0.206E-01
   -.178E+01 -.302E+01 -.829E+03   0.184E+01 0.308E+01 0.829E+03   -.597E-01 -.544E-01 0.445E+00   0.341E-02 -.423E-02 0.218E-01
   -.484E-01 0.389E+00 -.825E+03   -.141E+00 -.306E+00 0.825E+03   0.193E+00 -.800E-01 0.224E+00   -.282E-02 -.287E-02 0.245E-01
   0.217E+00 0.108E+00 -.245E+04   -.145E+01 -.817E+00 0.245E+04   0.123E+01 0.708E+00 0.147E+01   0.560E-02 0.369E-02 0.143E-01
   -.114E+02 0.141E+02 -.246E+04   0.114E+02 -.140E+02 0.246E+04   0.568E-01 -.872E-01 -.123E+00   0.512E-04 -.244E-05 0.145E-01
   -.350E+00 -.129E+00 -.246E+04   0.346E+00 0.170E+00 0.245E+04   0.117E-01 -.407E-01 0.115E+01   -.532E-02 0.987E-03 0.133E-01
   0.650E+01 -.170E+02 -.246E+04   -.645E+01 0.169E+02 0.246E+04   -.469E-01 0.934E-01 -.122E+00   -.639E-03 -.134E-02 0.155E-01
   0.895E+00 0.563E+00 -.245E+04   -.487E+00 -.325E+00 0.245E+04   -.405E+00 -.235E+00 0.131E+01   -.117E-02 -.241E-02 0.154E-01
   -.144E+01 0.446E+00 -.245E+04   0.133E+01 -.391E+00 0.245E+04   0.100E+00 -.608E-01 0.120E+01   0.262E-02 0.518E-02 0.129E-01
   -.274E+00 -.253E+00 -.246E+04   0.307E+00 0.227E+00 0.245E+04   -.297E-01 0.310E-01 0.115E+01   -.203E-02 -.356E-02 0.141E-01
   -.324E+00 -.144E+01 -.245E+04   0.320E+00 0.133E+01 0.245E+04   -.140E-02 0.116E+00 0.120E+01   0.701E-02 -.789E-04 0.128E-01
   0.872E+00 0.524E+00 -.245E+04   -.845E+00 -.509E+00 0.245E+04   -.233E-01 -.150E-01 0.120E+01   -.487E-02 -.173E-02 0.125E-01
   0.494E+01 0.285E+01 -.311E+03   -.538E+01 -.310E+01 0.312E+03   0.417E+00 0.240E+00 -.157E+01   0.437E-03 0.335E-03 0.130E-04
 -----------------------------------------------------------------------------------------------
   -.153E+01 -.883E+00 0.323E+01   0.163E-12 0.100E-12 0.341E-12   0.154E+01 0.887E+00 -.365E+01   0.206E-02 0.950E-03 0.456E+00
 
 
 POSITION                                       TOTAL-FORCE (eV/Angst)
 -----------------------------------------------------------------------------------
      0.00000      0.00000      8.50000         0.045042      0.025928     -0.124578
      2.82843      0.00000      8.50000         0.018465      0.048309     -0.080177
      5.65685      0.00000      8.50000        -0.038599      0.089075     -0.145441
      1.41421      2.44949      8.50000         0.051181     -0.008420     -0.080296
      4.24264      2.44949      8.50000        -0.002673     -0.001737     -0.075363
      7.07107      2.44949      8.50000        -0.053264      0.009381     -0.087276
      2.82843      4.89898      8.50000         0.057994     -0.078156     -0.145297
      5.65685      4.89898      8.50000        -0.018369     -0.051066     -0.087243
      8.48528      4.89898      8.50000        -0.066376     -0.038503     -0.084983
      1.41421      0.81650     10.80940         0.089299      0.051535      0.196858
      4.24264      0.81650     10.80940        -0.009302      0.038919      0.111724
      7.07107      0.81650     10.80940        -0.043644      0.089963      0.075583
      2.82843      3.26599     10.80940         0.028897     -0.027119      0.111744
      5.65685      3.26599     10.80940         0.005442      0.003353      0.025486
      8.48528      3.26599     10.80940        -0.041305      0.019933      0.139575
      4.24264      5.71548     10.80940         0.055853     -0.083174      0.076186
      7.07107      5.71548     10.80940        -0.003697     -0.045257      0.139740
      9.89949      5.71548     10.80940        -0.068510     -0.039473      0.057376
      8.49348      1.64269     13.10885        -0.000491      0.000050     -0.000114
      2.83799      1.63880     13.11878         0.001195      0.000208      0.000039
      5.66615      1.63967     13.08546         0.000053      0.000484     -0.000014
      9.89901      4.07559     13.10950         0.000844      0.001028     -0.001192
      4.25295      4.08723     13.08561         0.001217      0.001327     -0.000480
      7.07790      4.08673     13.08862         0.002039      0.000382     -0.001572
     11.30973      6.52987     13.09387         0.001046      0.000558     -0.000857
      5.66897      6.53442     13.10890         0.001218      0.001004     -0.000996
      8.47895      6.53532     13.10946         0.001078     -0.000144     -0.000175
     12.69347      7.32887     15.43117         0.002646      0.001726     -0.000649
      7.11023      7.33298     15.49105         0.001977     -0.001885     -0.003242
      5.67403      0.01855     15.42495         0.001536      0.001052     -0.001109
      9.90535      2.49144     15.49112        -0.000487      0.003376     -0.003143
      4.28450      2.47410     15.41407         0.001110      0.000981      0.000327
      7.07662      2.46456     15.41715         0.001762     -0.000301      0.000438
      2.85277      4.90504     15.42500         0.000962      0.001706     -0.000812
      5.67250      4.89685     15.41738         0.001948      0.000929     -0.001255
      8.49493      4.90485     15.42394        -0.002030     -0.002242     -0.000470
      1.77602      1.02548     16.43667        -0.024058     -0.013728     -0.008344
 -----------------------------------------------------------------------------------
    total drift:                                0.006039      0.005216      0.039929


--------------------------------------------------------------------------------------------------------



  FREE ENERGIE OF THE ION-ELECTRON SYSTEM (eV)
  ---------------------------------------------------
  free  energy   TOTEN  =      -104.57478016 eV

  energy  without entropy=     -104.47890828  energy(sigma->0) =     -104.54282287
 


--------------------------------------------------------------------------------------------------------


    POTLOK:  cpu time      2.3543: real time      2.3725


--------------------------------------------------------------------------------------------------------


 writing wavefunctions
     LOOP+:  cpu time    186.4188: real time    189.7143
    4ORBIT:  cpu time      0.0000: real time      0.0000

 total amount of memory used by VASP MPI-rank0   148537. kBytes
=======================================================================

   base      :      30000. kBytes
   nonlr-proj:      22464. kBytes
   fftplans  :       5213. kBytes
   grid      :      24541. kBytes
   one-center:        575. kBytes
   wavefun   :      65744. kBytes
 
  
  
 General timing and accounting informations for this job:
 ========================================================
  
                  Total CPU time used (sec):      199.117
                            User time (sec):      196.015
                          System time (sec):        3.103
                         Elapsed time (sec):      208.846
  
                   Maximum memory used (kb):      631600.
                   Average memory used (kb):          N/A
  
                          Minor page faults:       173186
                          Major page faults:          701
                 Voluntary context switches:         5074
