 running   48 mpi-ranks, on    1 nodes
 distrk:  each k-point on   48 cores,    1 groups
 distr:  one band on    1 cores,   48 groups
 vasp.6.4.2 20Jul23 (build Mar 01 2024 16:46:03) complex                        
  
 POSCAR found type information on POSCAR PtH 
 POSCAR found :  2 types and      37 ions
 Reading from existing POTCAR
 scaLAPACK will be used
 -----------------------------------------------------------------------------
|                                                                             |
|           W    W    AA    RRRRR   N    N  II  N    N   GGGG   !!!           |
|           W    W   A  A   R    R  NN   N  II  NN   N  G    G  !!!           |
|           W    W  A    A  R    R  N N  N  II  N N  N  G       !!!           |
|           W WW W  AAAAAA  RRRRR   N  N N  II  N  N N  G  GGG   !            |
|           WW  WW  A    A  R   R   N   NN  II  N   NN  G    G                |
|           W    W  A    A  R    R  N    N  II  N    N   GGGG   !!!           |
|                                                                             |
|     For optimal performance we recommend to set                             |
|       NCORE = 2 up to number-of-cores-per-socket                            |
|     NCORE specifies how many cores store one orbital (NPAR=cpu/NCORE).      |
|     This setting can greatly improve the performance of VASP for DFT.       |
|     The default, NCORE=1 might be grossly inefficient on modern             |
|     multi-core architectures or massively parallel machines. Do your        |
|     own testing! More info at https://www.vasp.at/wiki/index.php/NCORE      |
|     Unfortunately you need to use the default for GW and RPA                |
|     calculations (for HF NCORE is supported but not extensively tested      |
|     yet).                                                                   |
|                                                                             |
 -----------------------------------------------------------------------------


     **************************************************************************
     Initializing libbeef V0.1.3 with the BEEF-vdW functional.
     Citation: Wellendorff et al., PRB 85, 235149 (2012).
     **************************************************************************

 -----------------------------------------------------------------------------
|                                                                             |
|               ----> ADVICE to this user running VASP <----                  |
|                                                                             |
|     You have switched on vdW-DFT.                                           |
|     This routine was written and supplied by Jiri Klimes. We recommend      |
|     that you carefully read and cite the following publications:            |
|       J. Klimes, D.R. Bowler, A. Michelides                                 |
|          J. Phys.: Cond Matt. 22 022201 (2010)                              |
|       J. Klimes, D.R. Bowler, A. Michelides                                 |
|          Phys. Rev. B. 83, 195131 (2011)                                    |
|     and references therein.                                                 |
|                                                                             |
 -----------------------------------------------------------------------------

 Reading from existing POTCAR
 -----------------------------------------------------------------------------
|                                                                             |
|               ----> ADVICE to this user running VASP <----                  |
|                                                                             |
|     You enforced a specific xc type in the INCAR file but a different       |
|     type was found in the POTCAR file.                                      |
|     I HOPE YOU KNOW WHAT YOU ARE DOING!                                     |
|                                                                             |
 -----------------------------------------------------------------------------

 LDA part: xc-table for Pade appr. of Perdew
 found WAVECAR, reading the header
 POSCAR, INCAR and KPOINTS ok, starting setup
 FFT: planning ... GRIDC
 FFT: planning ... GRID_SOFT
 FFT: planning ... GRID
 reading WAVECAR
 the WAVECAR file was read successfully
 initial charge from wavefunction
 entering main loop
       N       E                     dE             d eps       ncg     rms          rms(c)
Total vdW correction in eV:     52.0061768
DAV:   1    -0.104579084802E+03   -0.10458E+03   -0.31352E-02  7296   0.329E-01    0.699E-01
Total vdW correction in eV:     52.0053499
RMM:   2    -0.104637329898E+03   -0.58245E-01   -0.48585E-02  6565   0.350E-01    0.295E+00
Total vdW correction in eV:     52.0055701
RMM:   3    -0.104579968074E+03    0.57362E-01   -0.24036E-02  6605   0.290E-01    0.712E-01
Total vdW correction in eV:     52.0055546
RMM:   4    -0.104574939706E+03    0.50284E-02   -0.17721E-03  6516   0.674E-02    0.134E-01
Total vdW correction in eV:     52.0053824
RMM:   5    -0.104574888192E+03    0.51513E-04   -0.35660E-04  6767   0.310E-02    0.112E-01
Total vdW correction in eV:     52.0052462
RMM:   6    -0.104574828155E+03    0.60037E-04   -0.77712E-05  6638   0.146E-02    0.627E-02
Total vdW correction in eV:     52.0052247
RMM:   7    -0.104574817150E+03    0.11005E-04   -0.28337E-05  5087   0.824E-03    0.528E-02
Total vdW correction in eV:     52.0052194
RMM:   8    -0.104574796618E+03    0.20532E-04   -0.19405E-05  4699   0.728E-03    0.262E-02
Total vdW correction in eV:     52.0052501
RMM:   9    -0.104574786436E+03    0.10182E-04   -0.79921E-06  4136   0.468E-03    0.750E-03
Total vdW correction in eV:     52.0053351
RMM:  10    -0.104574780163E+03    0.62730E-05   -0.23082E-06  3845   0.245E-03
Total vdW correction in eV:     52.0056333
Total vdW correction in eV:     52.0053830
   1 F= -.10457478E+03 E0= -.10454282E+03  d E =-.958719E-01
 writing wavefunctions
