<?xml version="1.0" encoding="ISO-8859-1"?>
<modeling>
 <generator>
  <i name="program" type="string">vasp </i>
  <i name="version" type="string">6.4.2  </i>
  <i name="subversion" type="string">20Jul23 (build Mar 01 2024 16:46:03) complex                          parallel </i>
  <i name="platform" type="string">LinuxIFC </i>
  <i name="date" type="string">2025 01 15 </i>
  <i name="time" type="string">11:02:33 </i>
 </generator>
 <incar>
  <i type="string" name="ALGO">Fast</i>
  <i type="int" name="ISPIN">     1</i>
  <i type="int" name="IBRION">    -1</i>
  <i name="EDIFF">      0.00001000</i>
  <i type="int" name="ISYM">     0</i>
  <i name="ENCUT">    680.29000000</i>
  <i type="string" name="LREAL">Auto</i>
  <i type="int" name="ISMEAR">     1</i>
  <i name="SIGMA">      0.10000000</i>
  <i type="string" name="GGA">BF</i>
  <i type="logical" name="LUSE_VDW"> T  </i>
  <i name="Zab_VDW">     -1.88670000</i>
 </incar>
 <primitive_cell>
  <structure name="primitive_cell" >
   <crystal>
    <varray name="basis" >
     <v>       8.46831000       0.00000000       0.00000000 </v>
     <v>       4.23415500       7.33377159       0.00000000 </v>
     <v>       0.00000000       0.00000000      24.96566199 </v>
    </varray>
    <i name="volume">   1550.48373159 </i>
    <varray name="rec_basis" >
     <v>       0.11808732      -0.06817774       0.00000000 </v>
     <v>       0.00000000       0.13635549       0.00000000 </v>
     <v>       0.00000000       0.00000000       0.04005502 </v>
    </varray>
   </crystal>
   <varray name="positions" >
    <v>       0.00000000       0.00000000       0.34046764 </v>
    <v>       0.33400137       0.00000000       0.34046764 </v>
    <v>       0.66800274       0.00000000       0.34046764 </v>
    <v>       1.00000000       0.33400137       0.34046764 </v>
    <v>       0.33400137       0.33400137       0.34046764 </v>
    <v>       0.66800274       0.33400137       0.34046764 </v>
    <v>       1.00000000       0.66800274       0.34046764 </v>
    <v>       0.33400137       0.66800274       0.34046764 </v>
    <v>       0.66800274       0.66800274       0.34046764 </v>
    <v>       0.11133379       0.11133379       0.43297074 </v>
    <v>       0.44533516       0.11133379       0.43297074 </v>
    <v>       0.77933653       0.11133379       0.43297074 </v>
    <v>       0.11133379       0.44533516       0.43297074 </v>
    <v>       0.44533516       0.44533516       0.43297074 </v>
    <v>       0.77933653       0.44533516       0.43297074 </v>
    <v>       0.11133379       0.77933653       0.43297074 </v>
    <v>       0.44533516       0.77933653       0.43297074 </v>
    <v>       0.77933653       0.77933653       0.43297074 </v>
    <v>       0.89097698       0.22398958       0.52507526 </v>
    <v>       0.22340070       0.22345913       0.52547312 </v>
    <v>       0.55731104       0.22357863       0.52413824 </v>
    <v>       0.89108275       0.55572900       0.52510128 </v>
    <v>       0.22356168       0.55731672       0.52414432 </v>
    <v>       0.55718613       0.55724780       0.52426484 </v>
    <v>       0.89034361       0.89038375       0.52447505 </v>
    <v>       0.22393178       0.89100440       0.52507710 </v>
    <v>       0.55569312       0.89112619       0.52509944 </v>
    <v>       0.99927243       0.99933108       0.61809559 </v>
    <v>       0.33968252       0.99989164       0.62049445 </v>
    <v>       0.66876589       0.00253005       0.61784656 </v>
    <v>       0.99983596       0.33972097       0.62049701 </v>
    <v>       0.33726636       0.33735776       0.61741088 </v>
    <v>       0.66763108       0.33605564       0.61753409 </v>
    <v>       0.00246169       0.66882880       0.61784846 </v>
    <v>       0.33599403       0.66771295       0.61754330 </v>
    <v>       0.66874266       0.66880259       0.61780612 </v>
    <v>       0.13981023       0.13983035       0.65837106 </v>
   </varray>
  </structure>
  <varray name="primitive_index" >
   <v type="int" >        1 </v>
   <v type="int" >        2 </v>
   <v type="int" >        3 </v>
   <v type="int" >        4 </v>
   <v type="int" >        5 </v>
   <v type="int" >        6 </v>
   <v type="int" >        7 </v>
   <v type="int" >        8 </v>
   <v type="int" >        9 </v>
   <v type="int" >       10 </v>
   <v type="int" >       11 </v>
   <v type="int" >       12 </v>
   <v type="int" >       13 </v>
   <v type="int" >       14 </v>
   <v type="int" >       15 </v>
   <v type="int" >       16 </v>
   <v type="int" >       17 </v>
   <v type="int" >       18 </v>
   <v type="int" >       19 </v>
   <v type="int" >       20 </v>
   <v type="int" >       21 </v>
   <v type="int" >       22 </v>
   <v type="int" >       23 </v>
   <v type="int" >       24 </v>
   <v type="int" >       25 </v>
   <v type="int" >       26 </v>
   <v type="int" >       27 </v>
   <v type="int" >       28 </v>
   <v type="int" >       29 </v>
   <v type="int" >       30 </v>
   <v type="int" >       31 </v>
   <v type="int" >       32 </v>
   <v type="int" >       33 </v>
   <v type="int" >       34 </v>
   <v type="int" >       35 </v>
   <v type="int" >       36 </v>
   <v type="int" >       37 </v>
  </varray>
 </primitive_cell>
 <kpoints>
  <generation param="Monkhorst-Pack">
   <v type="int" name="divisions">       5        5        1 </v>
   <v name="usershift">      0.00000000       0.00000000       0.00000000 </v>
   <v name="genvec1">      0.20000000      -0.00000000       0.00000000 </v>
   <v name="genvec2">      0.00000000       0.20000000       0.00000000 </v>
   <v name="genvec3">      0.00000000       0.00000000       1.00000000 </v>
   <v name="shift">      0.00000000       0.00000000       0.00000000 </v>
  </generation>
  <varray name="kpointlist" >
   <v>       0.00000000       0.00000000       0.00000000 </v>
   <v>       0.20000000       0.00000000       0.00000000 </v>
   <v>       0.20000000       0.20000000       0.00000000 </v>
   <v>       0.00000000       0.20000000       0.00000000 </v>
   <v>       0.40000000       0.00000000       0.00000000 </v>
   <v>       0.40000000       0.40000000       0.00000000 </v>
   <v>       0.00000000       0.40000000       0.00000000 </v>
   <v>       0.40000000       0.20000000       0.00000000 </v>
   <v>       0.20000000       0.40000000       0.00000000 </v>
   <v>      -0.20000000       0.20000000       0.00000000 </v>
   <v>      -0.40000000       0.20000000       0.00000000 </v>
   <v>       0.40000000      -0.40000000       0.00000000 </v>
   <v>      -0.20000000       0.40000000       0.00000000 </v>
  </varray>
  <varray name="weights" >
   <v>       0.04000000 </v>
   <v>       0.08000000 </v>
   <v>       0.08000000 </v>
   <v>       0.08000000 </v>
   <v>       0.08000000 </v>
   <v>       0.08000000 </v>
   <v>       0.08000000 </v>
   <v>       0.08000000 </v>
   <v>       0.08000000 </v>
   <v>       0.08000000 </v>
   <v>       0.08000000 </v>
   <v>       0.08000000 </v>
   <v>       0.08000000 </v>
  </varray>
 </kpoints>
 <parameters>
  <separator name="general" >
   <i type="string" name="SYSTEM">unknown system</i>
   <i type="logical" name="LCOMPAT"> F  </i>
  </separator>
  <separator name="electronic" >
   <i type="string" name="PREC">normal</i>
   <i name="ENMAX">    680.29000000</i>
   <i name="ENAUG">    400.00000000</i>
   <i name="EDIFF">      0.00001000</i>
   <i type="int" name="IALGO">    68</i>
   <i type="int" name="IWAVPR">    10</i>
   <i type="int" name="NBANDS">   240</i>
   <i type="int" name="NBANDSLOW">    -1</i>
   <i type="int" name="NBANDSHIGH">    -1</i>
   <i name="NELECT">    361.00000000</i>
   <i type="int" name="TURBO">     0</i>
   <i type="int" name="IRESTART">     0</i>
   <i type="int" name="NREBOOT">     0</i>
   <i type="int" name="NMIN">     0</i>
   <i name="EREF">      0.00000000</i>
   <separator name="electronic smearing" >
    <i type="int" name="ISMEAR">     1</i>
    <i name="SIGMA">      0.10000000</i>
    <i name="KSPACING">      0.50000000</i>
    <i type="logical" name="KGAMMA"> T  </i>
    <i type="logical" name="KBLOWUP"> T  </i>
   </separator>
   <separator name="electronic projectors" >
    <i type="logical" name="LREAL"> T  </i>
    <v name="ROPT">     -0.00050000     -0.00050000</v>
    <i type="int" name="LMAXPAW">  -100</i>
    <i type="int" name="LMAXMIX">     2</i>
    <i type="logical" name="NLSPLINE"> F  </i>
   </separator>
   <separator name="electronic startup" >
    <i type="int" name="ISTART">     1</i>
    <i type="int" name="ICHARG">     0</i>
    <i type="int" name="INIWAV">     1</i>
   </separator>
   <separator name="electronic spin" >
    <i type="int" name="ISPIN">     1</i>
    <i type="logical" name="LNONCOLLINEAR"> F  </i>
    <v name="MAGMOM">      1.00000000      1.00000000      1.00000000      1.00000000      1.00000000      1.00000000      1.00000000      1.00000000      1.00000000      1.00000000      1.00000000      1.00000000      1.00000000      1.00000000      1.00000000      1.00000000      1.00000000      1.00000000      1.00000000      1.00000000
      1.00000000      1.00000000      1.00000000      1.00000000      1.00000000      1.00000000      1.00000000      1.00000000      1.00000000      1.00000000      1.00000000      1.00000000      1.00000000      1.00000000      1.00000000      1.00000000      1.00000000</v>
    <i name="NUPDOWN">     -1.00000000</i>
    <i type="logical" name="LSORBIT"> F  </i>
    <v name="SAXIS">      0.00000000      0.00000000      1.00000000</v>
    <i type="logical" name="LSPIRAL"> F  </i>
    <v name="QSPIRAL">      0.00000000      0.00000000      0.00000000</v>
    <i type="logical" name="LZEROZ"> F  </i>
   </separator>
   <separator name="electronic exchange-correlation" >
    <i type="logical" name="LASPH"> F  </i>
    <i type="logical" name="LMETAGGA"> F  </i>
   </separator>
   <separator name="electronic convergence" >
    <i type="int" name="NELM">    60</i>
    <i type="int" name="NELMDL">     0</i>
    <i type="int" name="NELMIN">     2</i>
    <i name="ENINI">    680.29000000</i>
    <separator name="electronic convergence detail" >
     <i type="logical" name="LDIAG"> T  </i>
     <i type="logical" name="LSUBROT"> F  </i>
     <i name="WEIMIN">      0.00000000</i>
     <i name="EBREAK">      0.00000001</i>
     <i name="DEPER">      0.30000000</i>
     <i type="int" name="NRMM">     4</i>
     <i name="TIME">      0.40000000</i>
    </separator>
   </separator>
   <separator name="electronic mixer" >
    <i name="AMIX">      0.40000000</i>
    <i name="BMIX">      1.00000000</i>
    <i name="AMIN">      0.10000000</i>
    <i name="AMIX_MAG">      1.60000000</i>
    <i name="BMIX_MAG">      1.00000000</i>
    <separator name="electronic mixer details" >
     <i type="int" name="IMIX">     4</i>
     <i type="logical" name="MIXFIRST"> F  </i>
     <i type="int" name="MAXMIX">   -45</i>
     <i name="WC">    100.00000000</i>
     <i type="int" name="INIMIX">     1</i>
     <i type="int" name="MIXPRE">     1</i>
     <i type="int" name="MREMOVE">     5</i>
    </separator>
   </separator>
   <separator name="electronic dipolcorrection" >
    <i type="logical" name="LDIPOL"> F  </i>
    <i type="logical" name="LMONO"> F  </i>
    <i type="int" name="IDIPOL">     0</i>
    <i name="EPSILON">      1.00000000</i>
    <v name="DIPOL">   -100.00000000   -100.00000000   -100.00000000</v>
    <i name="EFIELD">      0.00000000</i>
   </separator>
  </separator>
  <separator name="grids" >
   <i type="int" name="NGX">    54</i>
   <i type="int" name="NGY">    54</i>
   <i type="int" name="NGZ">   160</i>
   <i type="int" name="NGXF">   108</i>
   <i type="int" name="NGYF">   108</i>
   <i type="int" name="NGZF">   320</i>
   <i type="logical" name="ADDGRID"> F  </i>
  </separator>
  <separator name="ionic" >
   <i type="int" name="NSW">     0</i>
   <i type="int" name="IBRION">    -1</i>
   <i type="int" name="MDALGO">     0</i>
   <i type="int" name="ISIF">     2</i>
   <i name="PSTRESS">      0.00000000</i>
   <i name="EDIFFG">      0.00010000</i>
   <i type="int" name="NFREE">     0</i>
   <i name="POTIM">      0.50000000</i>
   <i name="SMASS">     -3.00000000</i>
   <i name="SCALEE">      1.00000000</i>
  </separator>
  <separator name="ionic md" >
   <i name="TEBEG">      0.00010000</i>
   <i name="TEEND">      0.00010000</i>
   <i type="int" name="NBLOCK">     1</i>
   <i type="int" name="KBLOCK">     1</i>
   <i type="int" name="NPACO">   256</i>
   <i name="APACO">     10.00000000</i>
  </separator>
  <separator name="symmetry" >
   <i type="int" name="ISYM">     0</i>
   <i name="SYMPREC">      0.00001000</i>
  </separator>
  <separator name="dos" >
   <i type="int" name="LORBIT">     0</i>
   <v name="RWIGS">     -1.00000000     -1.00000000</v>
   <i type="int" name="NEDOS">   301</i>
   <i name="EMIN">     10.00000000</i>
   <i name="EMAX">    -10.00000000</i>
   <i name="EFERMI">      0.00000000</i>
  </separator>
  <separator name="writing" >
   <i type="int" name="NWRITE">     2</i>
   <i type="logical" name="LWAVE"> T  </i>
   <i type="logical" name="LDOWNSAMPLE"> F  </i>
   <i type="logical" name="LCHARG"> T  </i>
   <i type="logical" name="LPARD"> F  </i>
   <i type="logical" name="LVTOT"> F  </i>
   <i type="logical" name="LVHAR"> F  </i>
   <i type="logical" name="LELF"> F  </i>
   <i type="logical" name="LOPTICS"> F  </i>
   <v name="STM">      0.00000000      0.00000000      0.00000000      0.00000000      0.00000000      0.00000000      0.00000000</v>
  </separator>
  <separator name="performance" >
   <i type="int" name="NPAR">    48</i>
   <i type="int" name="NSIM">     4</i>
   <i type="int" name="NBLK">    -1</i>
   <i type="logical" name="LPLANE"> T  </i>
   <i type="logical" name="LSCALAPACK"> T  </i>
   <i type="logical" name="LSCAAWARE"> F  </i>
   <i type="logical" name="LSCALU"> F  </i>
   <i type="logical" name="LASYNC"> F  </i>
   <i type="logical" name="LORBITALREAL"> F  </i>
  </separator>
  <separator name="miscellaneous" >
   <i type="int" name="IDIOT">     3</i>
   <i type="int" name="PHON_NSTRUCT">    -1</i>
   <i type="logical" name="LMUSIC"> F  </i>
   <v name="POMASS">    195.08000000      1.00000000</v>
   <v name="DARWINR">      0.00000000      0.00000000</v>
   <v name="DARWINV">      1.00000000      1.00000000</v>
   <i type="logical" name="LCORR"> T  </i>
  </separator>
  <i type="logical" name="GGA_COMPAT"> T  </i>
  <i type="logical" name="LBERRY"> F  </i>
  <i type="int" name="ICORELEVEL">     0</i>
  <i type="logical" name="LDAU"> F  </i>
  <i type="int" name="I_CONSTRAINED_M">     0</i>
  <separator name="electronic exchange-correlation" >
   <i type="string" name="GGA">BF</i>
   <i type="int" name="VOSKOWN">     0</i>
   <i type="logical" name="LHFCALC"> F  </i>
   <i type="string" name="PRECFOCK"></i>
   <i type="logical" name="LSYMGRAD"> F  </i>
   <i type="logical" name="LHFONE"> F  </i>
   <i type="logical" name="LRHFCALC"> F  </i>
   <i type="logical" name="LTHOMAS"> F  </i>
   <i type="logical" name="LMODELHF"> F  </i>
   <i type="logical" name="LFOCKACE"> F  </i>
   <i name="ENCUT4O">     -1.00000000</i>
   <i type="int" name="EXXOEP">     0</i>
   <i type="int" name="FOURORBIT">     0</i>
   <i name="AEXX">      0.00000000</i>
   <i name="HFALPHA">      0.00000000</i>
   <i name="MCALPHA">      0.00000000</i>
   <i name="ALDAX">      1.00000000</i>
   <i name="AGGAX">      1.00000000</i>
   <i name="ALDAC">      1.00000000</i>
   <i name="AGGAC">      1.00000000</i>
   <i type="int" name="NKREDX">     1</i>
   <i type="int" name="NKREDY">     1</i>
   <i type="int" name="NKREDZ">     1</i>
   <i type="logical" name="SHIFTRED"> F  </i>
   <i type="logical" name="ODDONLY"> F  </i>
   <i type="logical" name="EVENONLY"> F  </i>
   <i type="int" name="LMAXFOCK">     0</i>
   <i type="int" name="NMAXFOCKAE">     0</i>
   <i type="logical" name="LFOCKAEDFT"> F  </i>
   <i name="HFSCREEN">      0.00000000</i>
   <i name="HFSCREENC">      0.00000000</i>
   <i type="int" name="NBANDSGWLOW">     0</i>
  </separator>
  <separator name="vdW DFT" >
   <i type="logical" name="LUSE_VDW"> T  </i>
   <i type="int" name="IVDW_NL">     1</i>
   <i type="logical" name="LSPIN_VDW"> F  </i>
   <i name="Zab_VDW">     -1.88670000</i>
   <i name="PARAM1">      0.12340000</i>
   <i name="PARAM2">      1.00000000</i>
   <i name="PARAM3">      0.00000000</i>
  </separator>
  <separator name="model GW" >
   <i type="int" name="MODEL_GW">     0</i>
   <i name="MODEL_EPS0">     25.14297943</i>
   <i name="MODEL_ALPHA">      1.00000000</i>
  </separator>
  <separator name="linear response parameters" >
   <i type="logical" name="LEPSILON"> F  </i>
   <i type="logical" name="LRPA"> F  </i>
   <i type="logical" name="LNABLA"> F  </i>
   <i type="logical" name="LVEL"> F  </i>
   <i name="CSHIFT">      0.10000000</i>
   <i name="OMEGAMAX">     -1.00000000</i>
   <i name="DEG_THRESHOLD">      0.00200000</i>
   <i name="RTIME">     -0.10000000</i>
   <i name="WPLASMAI">      0.00000000</i>
   <v name="DFIELD">      0.00000000      0.00000000      0.00000000</v>
   <v name="WPLASMA">      0.00000000      0.00000000      0.00000000      0.00000000      0.00000000      0.00000000      0.00000000      0.00000000      0.00000000</v>
  </separator>
  <separator name="orbital magnetization" >
   <i type="logical" name="NUCIND"> F  </i>
   <v name="MAGPOS">      0.00000000      0.00000000      0.00000000</v>
   <i type="logical" name="LNICSALL"> T  </i>
   <i type="logical" name="ORBITALMAG"> F  </i>
   <i type="logical" name="LMAGBLOCH"> F  </i>
   <i type="logical" name="LCHIMAG"> F  </i>
   <i type="logical" name="LGAUGE"> T  </i>
   <i type="int" name="MAGATOM">     0</i>
   <v name="MAGDIPOL">      0.00000000      0.00000000      0.00000000</v>
   <v name="AVECCONST">      0.00000000      0.00000000      0.00000000</v>
  </separator>
  <separator name="response functions" >
   <i type="logical" name="LALL_IN_ONE"> F  </i>
   <i type="int" name="IALL_IN_ONE">    -1</i>
   <i type="int" name="NBANDS_WAVE">    -1</i>
   <i type="logical" name="LFINITE_TEMPERATURE"> F  </i>
   <i type="logical" name="LADDER"> F  </i>
   <i type="logical" name="LRPAFORCE"> F  </i>
   <i type="logical" name="LFXC"> F  </i>
   <i type="logical" name="LHARTREE"> T  </i>
   <i type="int" name="IBSE">     0</i>
   <v type="int" name="KPOINT">    -1     0     0     0</v>
   <i type="logical" name="LTCTC"> F  </i>
   <i type="logical" name="LTCTE"> F  </i>
   <i type="logical" name="LTETE"> F  </i>
   <i type="logical" name="LTRIPLET"> F  </i>
   <i type="logical" name="LFXCEPS"> F  </i>
   <i type="logical" name="LFXHEG"> F  </i>
   <i type="int" name="NATURALO">     2</i>
   <i type="logical" name="LHOLEGF"> F  </i>
   <i type="logical" name="L2ORDER"> F  </i>
   <i type="logical" name="LDMP1"> F  </i>
   <i type="logical" name="LMP2LT"> F  </i>
   <i type="logical" name="LSMP2LT"> F  </i>
   <i type="logical" name="LGWLF"> F  </i>
   <i name="ENCUTGW">     -1.60000002</i>
   <i name="ENCUTGWSOFT">     -1.60000002</i>
   <i name="ENCUTLF">     -1.00000000</i>
   <i type="logical" name="LESF_SPLINES"> F  </i>
   <i type="int" name="LMAXMP2">    -1</i>
   <i name="SCISSOR">      0.00000000</i>
   <i type="int" name="NOMEGA">     0</i>
   <i type="int" name="NOMEGAR">     0</i>
   <i type="int" name="NBANDSGW">    -1</i>
   <i type="int" name="NBANDSO">    -1</i>
   <i type="int" name="NBANDSV">    -1</i>
   <i type="int" name="NELMGW">     1</i>
   <i type="int" name="NELMHF">     1</i>
   <i type="int" name="DIM">     3</i>
   <i type="int" name="IESPILON">     4</i>
   <i type="int" name="ANTIRES">     0</i>
   <i name="OMEGAMAX">    -30.00000000</i>
   <i name="OMEGAMIN">    -30.00000000</i>
   <i name="OMEGATL">   -200.00000000</i>
   <i type="int" name="OMEGAGRID">     0</i>
   <i name="CSHIFT">     -0.10000000</i>
   <i type="logical" name="LSELFENERGY"> F  </i>
   <i type="logical" name="LSPECTRAL"> F  </i>
   <i type="logical" name="LSPECTRALGW"> F  </i>
   <i type="logical" name="LSINGLES"> F  </i>
   <i type="logical" name="LFERMIGW"> F  </i>
   <i type="logical" name="ODDONLYGW"> F  </i>
   <i type="logical" name="EVENONLYGW"> F  </i>
   <i type="int" name="NKREDLFX">     1</i>
   <i type="int" name="NKREDLFY">     1</i>
   <i type="int" name="NKREDLFZ">     1</i>
   <i type="int" name="MAXMEM">  2800</i>
   <i type="int" name="TELESCOPE">     0</i>
   <i type="int" name="NTAUPAR">    -1</i>
   <i type="int" name="NOMEGAPAR">    -1</i>
   <i name="DAMP_NEWTON">      0.80000001</i>
   <i name="LAMBDA">      1.00000000</i>
  </separator>
  <separator name="External order field" >
   <i name="OFIELD_KAPPA">      0.00000000</i>
   <v name="OFIELD_K">      0.00000000      0.00000000      0.00000000</v>
   <i name="OFIELD_Q6_NEAR">      0.00000000</i>
   <i name="OFIELD_Q6_FAR">      0.00000000</i>
   <i name="OFIELD_A">      0.00000000</i>
  </separator>
  <separator name="optional k-points parameters" >
   <i type="int" name="KPOINTS_OPT_MODE">     1</i>
   <i type="logical" name="LKPOINTS_OPT"> F  </i>
  </separator>
 </parameters>
 <atominfo>
  <atoms>      37 </atoms>
  <types>       2 </types>
  <array name="atoms" >
   <dimension dim="1">ion</dimension>
   <field type="string">element</field>
   <field type="int">atomtype</field>
   <set>
    <rc><c>Pt</c><c>   1</c></rc>
    <rc><c>Pt</c><c>   1</c></rc>
    <rc><c>Pt</c><c>   1</c></rc>
    <rc><c>Pt</c><c>   1</c></rc>
    <rc><c>Pt</c><c>   1</c></rc>
    <rc><c>Pt</c><c>   1</c></rc>
    <rc><c>Pt</c><c>   1</c></rc>
    <rc><c>Pt</c><c>   1</c></rc>
    <rc><c>Pt</c><c>   1</c></rc>
    <rc><c>Pt</c><c>   1</c></rc>
    <rc><c>Pt</c><c>   1</c></rc>
    <rc><c>Pt</c><c>   1</c></rc>
    <rc><c>Pt</c><c>   1</c></rc>
    <rc><c>Pt</c><c>   1</c></rc>
    <rc><c>Pt</c><c>   1</c></rc>
    <rc><c>Pt</c><c>   1</c></rc>
    <rc><c>Pt</c><c>   1</c></rc>
    <rc><c>Pt</c><c>   1</c></rc>
    <rc><c>Pt</c><c>   1</c></rc>
    <rc><c>Pt</c><c>   1</c></rc>
    <rc><c>Pt</c><c>   1</c></rc>
    <rc><c>Pt</c><c>   1</c></rc>
    <rc><c>Pt</c><c>   1</c></rc>
    <rc><c>Pt</c><c>   1</c></rc>
    <rc><c>Pt</c><c>   1</c></rc>
    <rc><c>Pt</c><c>   1</c></rc>
    <rc><c>Pt</c><c>   1</c></rc>
    <rc><c>Pt</c><c>   1</c></rc>
    <rc><c>Pt</c><c>   1</c></rc>
    <rc><c>Pt</c><c>   1</c></rc>
    <rc><c>Pt</c><c>   1</c></rc>
    <rc><c>Pt</c><c>   1</c></rc>
    <rc><c>Pt</c><c>   1</c></rc>
    <rc><c>Pt</c><c>   1</c></rc>
    <rc><c>Pt</c><c>   1</c></rc>
    <rc><c>Pt</c><c>   1</c></rc>
    <rc><c>H </c><c>   2</c></rc>
   </set>
  </array>
  <array name="atomtypes" >
   <dimension dim="1">type</dimension>
   <field type="int">atomspertype</field>
   <field type="string">element</field>
   <field>mass</field>
   <field>valence</field>
   <field type="string">pseudopotential</field>
   <set>
    <rc><c>  36</c><c>Pt</c><c>    195.08000000</c><c>     10.00000000</c><c>  PAW_PBE Pt 04Feb2005                  </c></rc>
    <rc><c>   1</c><c>H </c><c>      1.00000000</c><c>      1.00000000</c><c>  PAW_PBE H 15Jun2001                   </c></rc>
   </set>
  </array>
 </atominfo>
 <structure name="initialpos" >
  <crystal>
   <varray name="basis" >
    <v>       8.46831000       0.00000000       0.00000000 </v>
    <v>       4.23415500       7.33377159       0.00000000 </v>
    <v>       0.00000000       0.00000000      24.96566199 </v>
   </varray>
   <i name="volume">   1550.48373159 </i>
   <varray name="rec_basis" >
    <v>       0.11808732      -0.06817774       0.00000000 </v>
    <v>       0.00000000       0.13635549       0.00000000 </v>
    <v>       0.00000000       0.00000000       0.04005502 </v>
   </varray>
  </crystal>
  <varray name="positions" >
   <v>       0.00000000       0.00000000       0.34046764 </v>
   <v>       0.33400137       0.00000000       0.34046764 </v>
   <v>       0.66800274       0.00000000       0.34046764 </v>
   <v>       0.00000000       0.33400137       0.34046764 </v>
   <v>       0.33400137       0.33400137       0.34046764 </v>
   <v>       0.66800274       0.33400137       0.34046764 </v>
   <v>       0.00000000       0.66800274       0.34046764 </v>
   <v>       0.33400137       0.66800274       0.34046764 </v>
   <v>       0.66800274       0.66800274       0.34046764 </v>
   <v>       0.11133379       0.11133379       0.43297074 </v>
   <v>       0.44533516       0.11133379       0.43297074 </v>
   <v>       0.77933653       0.11133379       0.43297074 </v>
   <v>       0.11133379       0.44533516       0.43297074 </v>
   <v>       0.44533516       0.44533516       0.43297074 </v>
   <v>       0.77933653       0.44533516       0.43297074 </v>
   <v>       0.11133379       0.77933653       0.43297074 </v>
   <v>       0.44533516       0.77933653       0.43297074 </v>
   <v>       0.77933653       0.77933653       0.43297074 </v>
   <v>       0.89097698       0.22398958       0.52507526 </v>
   <v>       0.22340070       0.22345913       0.52547312 </v>
   <v>       0.55731104       0.22357863       0.52413824 </v>
   <v>       0.89108275       0.55572900       0.52510128 </v>
   <v>       0.22356168       0.55731672       0.52414432 </v>
   <v>       0.55718613       0.55724780       0.52426484 </v>
   <v>       0.89034361       0.89038375       0.52447505 </v>
   <v>       0.22393178       0.89100440       0.52507710 </v>
   <v>       0.55569312       0.89112619       0.52509944 </v>
   <v>       0.99927243       0.99933108       0.61809559 </v>
   <v>       0.33968252       0.99989164       0.62049445 </v>
   <v>       0.66876589       0.00253005       0.61784656 </v>
   <v>       0.99983596       0.33972097       0.62049701 </v>
   <v>       0.33726636       0.33735776       0.61741088 </v>
   <v>       0.66763108       0.33605564       0.61753409 </v>
   <v>       0.00246169       0.66882880       0.61784846 </v>
   <v>       0.33599403       0.66771295       0.61754330 </v>
   <v>       0.66874266       0.66880259       0.61780612 </v>
   <v>       0.13981023       0.13983035       0.65837106 </v>
  </varray>
  <varray name="selective"  type="logical" >
   <v type="logical" >  F  F  F </v>
   <v type="logical" >  F  F  F </v>
   <v type="logical" >  F  F  F </v>
   <v type="logical" >  F  F  F </v>
   <v type="logical" >  F  F  F </v>
   <v type="logical" >  F  F  F </v>
   <v type="logical" >  F  F  F </v>
   <v type="logical" >  F  F  F </v>
   <v type="logical" >  F  F  F </v>
   <v type="logical" >  F  F  F </v>
   <v type="logical" >  F  F  F </v>
   <v type="logical" >  F  F  F </v>
   <v type="logical" >  F  F  F </v>
   <v type="logical" >  F  F  F </v>
   <v type="logical" >  F  F  F </v>
   <v type="logical" >  F  F  F </v>
   <v type="logical" >  F  F  F </v>
   <v type="logical" >  F  F  F </v>
   <v type="logical" >  T  T  T </v>
   <v type="logical" >  T  T  T </v>
   <v type="logical" >  T  T  T </v>
   <v type="logical" >  T  T  T </v>
   <v type="logical" >  T  T  T </v>
   <v type="logical" >  T  T  T </v>
   <v type="logical" >  T  T  T </v>
   <v type="logical" >  T  T  T </v>
   <v type="logical" >  T  T  T </v>
   <v type="logical" >  T  T  T </v>
   <v type="logical" >  T  T  T </v>
   <v type="logical" >  T  T  T </v>
   <v type="logical" >  T  T  T </v>
   <v type="logical" >  T  T  T </v>
   <v type="logical" >  T  T  T </v>
   <v type="logical" >  T  T  T </v>
   <v type="logical" >  T  T  T </v>
   <v type="logical" >  T  T  T </v>
   <v type="logical" >  T  T  T </v>
  </varray>
  <nose>
   <v>      -3.00000000       0.00000000       0.00010000       0.00010000 </v>
  </nose>
 </structure>
 <calculation>
  <scstep>
   <time name="dav">   19.53   19.79</time>
   <time name="total">   23.70   23.99</time>
   <energy>
    <i name="alphaZ">    797.33612757 </i>
    <i name="ewald"> 132223.94368926 </i>
    <i name="hartreedc">-159618.25071314 </i>
    <i name="XCdc">     89.67158581 </i>
    <i name="pawpsdc">  32175.62399744 </i>
    <i name="pawaedc"> -31177.75461918 </i>
    <i name="eentropy">     -0.09602175 </i>
    <i name="bandstr">  -1091.85628982 </i>
    <i name="atom">  26496.80315902 </i>
    <i name="e_fr_energy">   -104.57908480 </i>
    <i name="e_wo_entrp">   -104.48306305 </i>
    <i name="e_0_energy">   -104.54707755 </i>
   </energy>
  </scstep>
  <scstep>
   <time name="diag">    2.82    2.84</time>
   <time name="diis">    7.93    8.21</time>
   <time name="orth">    0.99    1.00</time>
   <time name="total">   14.85   15.21</time>
   <energy>
    <i name="e_fr_energy">   -104.63732990 </i>
    <i name="e_wo_entrp">   -104.54700881 </i>
    <i name="e_0_energy">   -104.60722287 </i>
   </energy>
  </scstep>
  <scstep>
   <time name="diag">    2.68    2.70</time>
   <time name="diis">    8.37    8.43</time>
   <time name="orth">    0.58    0.59</time>
   <time name="total">   14.82   14.97</time>
   <energy>
    <i name="e_fr_energy">   -104.57996807 </i>
    <i name="e_wo_entrp">   -104.48421945 </i>
    <i name="e_0_energy">   -104.54805186 </i>
   </energy>
  </scstep>
  <scstep>
   <time name="diag">    2.75    2.77</time>
   <time name="diis">    8.02    8.09</time>
   <time name="orth">    0.86    1.02</time>
   <time name="total">   14.79   15.06</time>
   <energy>
    <i name="e_fr_energy">   -104.57493971 </i>
    <i name="e_wo_entrp">   -104.47909110 </i>
    <i name="e_0_energy">   -104.54299017 </i>
   </energy>
  </scstep>
  <scstep>
   <time name="diag">    2.75    2.77</time>
   <time name="diis">    8.45    8.50</time>
   <time name="orth">    0.56    0.57</time>
   <time name="total">   14.96   15.10</time>
   <energy>
    <i name="e_fr_energy">   -104.57488819 </i>
    <i name="e_wo_entrp">   -104.47915690 </i>
    <i name="e_0_energy">   -104.54297776 </i>
   </energy>
  </scstep>
  <scstep>
   <time name="diag">    2.70    2.72</time>
   <time name="diis">    8.53    8.69</time>
   <time name="orth">    0.63    0.64</time>
   <time name="total">   15.09   15.31</time>
   <energy>
    <i name="e_fr_energy">   -104.57482816 </i>
    <i name="e_wo_entrp">   -104.47900316 </i>
    <i name="e_0_energy">   -104.54288649 </i>
   </energy>
  </scstep>
  <scstep>
   <time name="diag">    2.58    2.60</time>
   <time name="diis">    7.13    7.17</time>
   <time name="orth">    0.56    0.57</time>
   <time name="total">   13.40   13.52</time>
   <energy>
    <i name="e_fr_energy">   -104.57481715 </i>
    <i name="e_wo_entrp">   -104.47895946 </i>
    <i name="e_0_energy">   -104.54286459 </i>
   </energy>
  </scstep>
  <scstep>
   <time name="diag">    2.70    2.72</time>
   <time name="diis">    6.77    6.97</time>
   <time name="orth">    2.20    2.22</time>
   <time name="total">   14.94   15.19</time>
   <energy>
    <i name="e_fr_energy">   -104.57479662 </i>
    <i name="e_wo_entrp">   -104.47895063 </i>
    <i name="e_0_energy">   -104.54284796 </i>
   </energy>
  </scstep>
  <scstep>
   <time name="diag">    2.67    2.69</time>
   <time name="diis">    6.39    6.44</time>
   <time name="orth">    0.75    0.75</time>
   <time name="total">   12.96   13.08</time>
   <energy>
    <i name="e_fr_energy">   -104.57478644 </i>
    <i name="e_wo_entrp">   -104.47891373 </i>
    <i name="e_0_energy">   -104.54282887 </i>
   </energy>
  </scstep>
  <scstep>
   <time name="diag">    2.80    2.83</time>
   <time name="diis">    6.12    6.17</time>
   <time name="orth">    4.12    4.28</time>
   <time name="total">   15.45   15.74</time>
   <energy>
    <i name="alphaZ">    797.33612757 </i>
    <i name="ewald"> 132223.94368926 </i>
    <i name="hartreedc">-159622.03930084 </i>
    <i name="XCdc">     89.67468383 </i>
    <i name="pawpsdc">  32176.14034399 </i>
    <i name="pawaedc"> -31178.27318393 </i>
    <i name="eentropy">     -0.09587188 </i>
    <i name="bandstr">  -1088.06442717 </i>
    <i name="atom">  26496.80315902 </i>
    <i name="e_fr_energy">   -104.57478016 </i>
    <i name="e_wo_entrp">   -104.47890828 </i>
    <i name="e_0_energy">   -104.54282287 </i>
   </energy>
  </scstep>
  <structure>
   <crystal>
    <varray name="basis" >
     <v>       8.46831000       0.00000000       0.00000000 </v>
     <v>       4.23415500       7.33377159       0.00000000 </v>
     <v>       0.00000000       0.00000000      24.96566199 </v>
    </varray>
    <i name="volume">   1550.48373159 </i>
    <varray name="rec_basis" >
     <v>       0.11808732      -0.06817774       0.00000000 </v>
     <v>       0.00000000       0.13635549       0.00000000 </v>
     <v>       0.00000000       0.00000000       0.04005502 </v>
    </varray>
   </crystal>
   <varray name="positions" >
    <v>       0.00000000       0.00000000       0.34046764 </v>
    <v>       0.33400137       0.00000000       0.34046764 </v>
    <v>       0.66800274       0.00000000       0.34046764 </v>
    <v>       0.00000000       0.33400137       0.34046764 </v>
    <v>       0.33400137       0.33400137       0.34046764 </v>
    <v>       0.66800274       0.33400137       0.34046764 </v>
    <v>       0.00000000       0.66800274       0.34046764 </v>
    <v>       0.33400137       0.66800274       0.34046764 </v>
    <v>       0.66800274       0.66800274       0.34046764 </v>
    <v>       0.11133379       0.11133379       0.43297074 </v>
    <v>       0.44533516       0.11133379       0.43297074 </v>
    <v>       0.77933653       0.11133379       0.43297074 </v>
    <v>       0.11133379       0.44533516       0.43297074 </v>
    <v>       0.44533516       0.44533516       0.43297074 </v>
    <v>       0.77933653       0.44533516       0.43297074 </v>
    <v>       0.11133379       0.77933653       0.43297074 </v>
    <v>       0.44533516       0.77933653       0.43297074 </v>
    <v>       0.77933653       0.77933653       0.43297074 </v>
    <v>       0.89097698       0.22398958       0.52507526 </v>
    <v>       0.22340070       0.22345913       0.52547312 </v>
    <v>       0.55731104       0.22357863       0.52413824 </v>
    <v>       0.89108275       0.55572900       0.52510128 </v>
    <v>       0.22356168       0.55731672       0.52414432 </v>
    <v>       0.55718613       0.55724780       0.52426484 </v>
    <v>       0.89034361       0.89038375       0.52447505 </v>
    <v>       0.22393178       0.89100440       0.52507710 </v>
    <v>       0.55569312       0.89112619       0.52509944 </v>
    <v>       0.99927243       0.99933108       0.61809559 </v>
    <v>       0.33968252       0.99989164       0.62049445 </v>
    <v>       0.66876589       0.00253005       0.61784656 </v>
    <v>       0.99983596       0.33972097       0.62049701 </v>
    <v>       0.33726636       0.33735776       0.61741088 </v>
    <v>       0.66763108       0.33605564       0.61753409 </v>
    <v>       0.00246169       0.66882880       0.61784846 </v>
    <v>       0.33599403       0.66771295       0.61754330 </v>
    <v>       0.66874266       0.66880259       0.61780612 </v>
    <v>       0.13981023       0.13983035       0.65837106 </v>
   </varray>
  </structure>
  <varray name="forces" >
   <v>       0.04504243       0.02592814      -0.12457780 </v>
   <v>       0.01846544       0.04830902      -0.08017676 </v>
   <v>      -0.03859886       0.08907506      -0.14544095 </v>
   <v>       0.05118122      -0.00842019      -0.08029579 </v>
   <v>      -0.00267294      -0.00173704      -0.07536335 </v>
   <v>      -0.05326436       0.00938111      -0.08727574 </v>
   <v>       0.05799351      -0.07815586      -0.14529653 </v>
   <v>      -0.01836876      -0.05106571      -0.08724329 </v>
   <v>      -0.06637624      -0.03850311      -0.08498311 </v>
   <v>       0.08929937       0.05153494       0.19685842 </v>
   <v>      -0.00930224       0.03891932       0.11172389 </v>
   <v>      -0.04364384       0.08996290       0.07558328 </v>
   <v>       0.02889703      -0.02711925       0.11174363 </v>
   <v>       0.00544196       0.00335299       0.02548561 </v>
   <v>      -0.04130520       0.01993304       0.13957535 </v>
   <v>       0.05585294      -0.08317379       0.07618571 </v>
   <v>      -0.00369662      -0.04525750       0.13973952 </v>
   <v>      -0.06851020      -0.03947319       0.05737608 </v>
   <v>      -0.00049065       0.00004989      -0.00011354 </v>
   <v>       0.00119494       0.00020828       0.00003867 </v>
   <v>       0.00005261       0.00048399      -0.00001380 </v>
   <v>       0.00084410       0.00102753      -0.00119162 </v>
   <v>       0.00121700       0.00132659      -0.00047990 </v>
   <v>       0.00203895       0.00038155      -0.00157211 </v>
   <v>       0.00104599       0.00055781      -0.00085678 </v>
   <v>       0.00121782       0.00100361      -0.00099589 </v>
   <v>       0.00107801      -0.00014364      -0.00017473 </v>
   <v>       0.00264643       0.00172586      -0.00064872 </v>
   <v>       0.00197660      -0.00188511      -0.00324163 </v>
   <v>       0.00153589       0.00105184      -0.00110882 </v>
   <v>      -0.00048703       0.00337626      -0.00314307 </v>
   <v>       0.00110982       0.00098108       0.00032732 </v>
   <v>       0.00176177      -0.00030121       0.00043770 </v>
   <v>       0.00096248       0.00170565      -0.00081243 </v>
   <v>       0.00194803       0.00092921      -0.00125454 </v>
   <v>      -0.00202984      -0.00224163      -0.00047008 </v>
   <v>      -0.02405758      -0.01372842      -0.00834421 </v>
  </varray>
  <varray name="stress" >
   <v>     -33.98526484       0.17357612      -0.14790821 </v>
   <v>       0.17357648     -34.18869297      -0.08422174 </v>
   <v>      -0.14790829      -0.08422195       2.24085331 </v>
  </varray>
  <energy>
   <i name="e_fr_energy">   -104.57478016 </i>
   <i name="e_wo_entrp">   -104.47890828 </i>
   <i name="e_0_energy">   -104.54282287 </i>
  </energy>
  <time name="totalsc">  186.42  189.71</time>
  <eigenvalues>
   <array>
    <dimension dim="1">band</dimension>
    <dimension dim="2">kpoint</dimension>
    <dimension dim="3">spin</dimension>
    <field>eigene</field>
    <field>occ</field>
    <set>
     <set comment="spin 1">
      <set comment="kpoint 1">
       <r>   -8.9017    1.0000 </r>
       <r>   -7.7898    1.0000 </r>
       <r>   -7.0644    1.0000 </r>
       <r>   -6.5028    1.0000 </r>
       <r>   -6.4731    1.0000 </r>
       <r>   -6.4577    1.0000 </r>
       <r>   -6.4559    1.0000 </r>
       <r>   -6.4387    1.0000 </r>
       <r>   -6.4386    1.0000 </r>
       <r>   -6.4272    1.0000 </r>
       <r>   -6.1317    1.0000 </r>
       <r>   -5.9172    1.0000 </r>
       <r>   -5.9139    1.0000 </r>
       <r>   -5.9109    1.0000 </r>
       <r>   -5.9070    1.0000 </r>
       <r>   -5.8993    1.0000 </r>
       <r>   -5.8248    1.0000 </r>
       <r>   -5.4726    1.0000 </r>
       <r>   -5.4652    1.0000 </r>
       <r>   -5.4546    1.0000 </r>
       <r>   -5.4495    1.0000 </r>
       <r>   -5.4416    1.0000 </r>
       <r>   -5.3483    1.0000 </r>
       <r>   -5.2341    1.0000 </r>
       <r>   -5.2270    1.0000 </r>
       <r>   -5.2257    1.0000 </r>
       <r>   -5.2202    1.0000 </r>
       <r>   -5.2193    1.0000 </r>
       <r>   -5.1229    1.0000 </r>
       <r>   -5.0353    1.0000 </r>
       <r>   -5.0320    1.0000 </r>
       <r>   -5.0258    1.0000 </r>
       <r>   -5.0212    1.0000 </r>
       <r>   -5.0109    1.0000 </r>
       <r>   -4.9731    1.0000 </r>
       <r>   -4.9589    1.0000 </r>
       <r>   -4.9540    1.0000 </r>
       <r>   -4.9501    1.0000 </r>
       <r>   -4.9190    1.0000 </r>
       <r>   -4.9119    1.0000 </r>
       <r>   -4.5892    1.0000 </r>
       <r>   -4.3816    1.0000 </r>
       <r>   -4.3813    1.0000 </r>
       <r>   -4.3540    1.0000 </r>
       <r>   -4.3398    1.0000 </r>
       <r>   -4.3279    1.0000 </r>
       <r>   -4.3166    1.0000 </r>
       <r>   -4.2951    1.0000 </r>
       <r>   -4.2932    1.0000 </r>
       <r>   -4.2885    1.0000 </r>
       <r>   -4.1371    1.0000 </r>
       <r>   -4.1341    1.0000 </r>
       <r>   -4.0772    1.0000 </r>
       <r>   -4.0367    1.0000 </r>
       <r>   -4.0324    1.0000 </r>
       <r>   -3.5877    1.0000 </r>
       <r>   -3.5810    1.0000 </r>
       <r>   -3.5730    1.0000 </r>
       <r>   -3.5633    1.0000 </r>
       <r>   -3.5542    1.0000 </r>
       <r>   -3.5015    1.0000 </r>
       <r>   -3.4805    1.0000 </r>
       <r>   -3.3937    1.0000 </r>
       <r>   -3.3746    1.0000 </r>
       <r>   -3.3731    1.0000 </r>
       <r>   -3.3720    1.0000 </r>
       <r>   -3.3649    1.0000 </r>
       <r>   -3.3600    1.0000 </r>
       <r>   -3.3541    1.0000 </r>
       <r>   -3.3190    1.0000 </r>
       <r>   -3.3098    1.0000 </r>
       <r>   -3.3043    1.0000 </r>
       <r>   -3.3037    1.0000 </r>
       <r>   -3.2988    1.0000 </r>
       <r>   -3.2671    1.0000 </r>
       <r>   -3.2613    1.0000 </r>
       <r>   -3.2555    1.0000 </r>
       <r>   -3.1559    1.0000 </r>
       <r>   -3.1498    1.0000 </r>
       <r>   -3.1458    1.0000 </r>
       <r>   -3.1446    1.0000 </r>
       <r>   -3.1368    1.0000 </r>
       <r>   -3.1326    1.0000 </r>
       <r>   -2.9470    1.0000 </r>
       <r>   -2.9298    1.0000 </r>
       <r>   -2.9269    1.0000 </r>
       <r>   -2.9211    1.0000 </r>
       <r>   -2.9170    1.0000 </r>
       <r>   -2.9066    1.0000 </r>
       <r>   -2.8962    1.0000 </r>
       <r>   -2.8895    1.0000 </r>
       <r>   -2.8397    1.0000 </r>
       <r>   -2.8294    1.0000 </r>
       <r>   -2.7821    1.0000 </r>
       <r>   -2.7735    1.0000 </r>
       <r>   -2.7441    1.0000 </r>
       <r>   -2.7347    1.0000 </r>
       <r>   -2.7082    1.0000 </r>
       <r>   -2.6943    1.0000 </r>
       <r>   -2.6887    1.0000 </r>
       <r>   -2.6270    1.0000 </r>
       <r>   -2.5263    1.0000 </r>
       <r>   -2.5192    1.0000 </r>
       <r>   -2.5157    1.0000 </r>
       <r>   -2.5070    1.0000 </r>
       <r>   -2.5029    1.0000 </r>
       <r>   -2.4941    1.0000 </r>
       <r>   -2.2645    1.0000 </r>
       <r>   -2.0287    1.0000 </r>
       <r>   -2.0072    1.0000 </r>
       <r>   -2.0020    1.0000 </r>
       <r>   -1.9932    1.0000 </r>
       <r>   -1.9903    1.0000 </r>
       <r>   -1.9847    1.0000 </r>
       <r>   -1.9789    1.0000 </r>
       <r>   -1.9742    1.0000 </r>
       <r>   -1.9573    1.0000 </r>
       <r>   -1.9532    1.0000 </r>
       <r>   -1.9445    1.0000 </r>
       <r>   -1.8734    1.0000 </r>
       <r>   -1.8626    1.0000 </r>
       <r>   -1.8096    1.0000 </r>
       <r>   -1.7380    1.0000 </r>
       <r>   -1.7343    1.0000 </r>
       <r>   -1.7241    1.0000 </r>
       <r>   -1.7166    1.0000 </r>
       <r>   -1.7086    1.0000 </r>
       <r>   -1.6016    1.0000 </r>
       <r>   -1.5889    1.0000 </r>
       <r>   -1.5400    1.0000 </r>
       <r>   -1.5368    1.0000 </r>
       <r>   -1.5204    1.0000 </r>
       <r>   -1.4945    1.0000 </r>
       <r>   -1.2969    1.0000 </r>
       <r>   -1.2810    1.0000 </r>
       <r>   -1.2773    1.0000 </r>
       <r>   -1.2571    1.0000 </r>
       <r>   -1.2514    1.0000 </r>
       <r>   -1.2490    1.0000 </r>
       <r>   -1.1880    1.0000 </r>
       <r>   -1.1769    1.0000 </r>
       <r>   -1.0546    1.0000 </r>
       <r>   -1.0488    1.0000 </r>
       <r>   -1.0290    1.0000 </r>
       <r>   -1.0250    1.0000 </r>
       <r>   -1.0249    1.0000 </r>
       <r>   -1.0216    1.0000 </r>
       <r>   -0.9128    1.0000 </r>
       <r>   -0.8872    1.0000 </r>
       <r>   -0.8653    1.0000 </r>
       <r>   -0.8451    1.0000 </r>
       <r>   -0.8313    1.0000 </r>
       <r>   -0.8272    1.0000 </r>
       <r>   -0.8238    1.0000 </r>
       <r>   -0.8182    1.0000 </r>
       <r>   -0.8076    1.0000 </r>
       <r>   -0.8073    1.0000 </r>
       <r>   -0.8010    1.0000 </r>
       <r>   -0.7955    1.0000 </r>
       <r>   -0.7348    1.0000 </r>
       <r>   -0.7223    1.0000 </r>
       <r>   -0.6945    1.0000 </r>
       <r>   -0.6838    1.0000 </r>
       <r>   -0.6676    1.0000 </r>
       <r>   -0.6589    1.0000 </r>
       <r>   -0.6449    1.0000 </r>
       <r>   -0.6439    1.0000 </r>
       <r>   -0.6057    1.0000 </r>
       <r>   -0.5922    1.0000 </r>
       <r>   -0.5832    1.0000 </r>
       <r>   -0.5584    1.0000 </r>
       <r>   -0.5535    1.0000 </r>
       <r>   -0.5446    1.0000 </r>
       <r>   -0.5384    1.0000 </r>
       <r>   -0.5381    1.0000 </r>
       <r>   -0.4588    1.0000 </r>
       <r>   -0.4475    1.0000 </r>
       <r>   -0.4438    1.0000 </r>
       <r>   -0.4404    1.0000 </r>
       <r>   -0.4308    1.0000 </r>
       <r>   -0.4302    1.0000 </r>
       <r>   -0.3883    1.0000 </r>
       <r>   -0.3477    1.0004 </r>
       <r>   -0.3367    1.0007 </r>
       <r>   -0.3233    1.0013 </r>
       <r>   -0.3221    1.0014 </r>
       <r>   -0.3116    1.0021 </r>
       <r>   -0.3064    1.0026 </r>
       <r>   -0.1150    0.8065 </r>
       <r>   -0.1098    0.7713 </r>
       <r>   -0.0198    0.0994 </r>
       <r>   -0.0161    0.0821 </r>
       <r>   -0.0104    0.0578 </r>
       <r>    0.0052    0.0079 </r>
       <r>    0.0084    0.0002 </r>
       <r>    0.0104   -0.0038 </r>
       <r>    0.5318   -0.0000 </r>
       <r>    0.8206   -0.0000 </r>
       <r>    0.8407   -0.0000 </r>
       <r>    0.8734   -0.0000 </r>
       <r>    0.8913   -0.0000 </r>
       <r>    0.9016   -0.0000 </r>
       <r>    0.9020   -0.0000 </r>
       <r>    2.8442    0.0000 </r>
       <r>    3.1243    0.0000 </r>
       <r>    3.1586    0.0000 </r>
       <r>    3.1975    0.0000 </r>
       <r>    3.2179    0.0000 </r>
       <r>    3.2193    0.0000 </r>
       <r>    4.6019    0.0000 </r>
       <r>    4.7150    0.0000 </r>
       <r>    4.7910    0.0000 </r>
       <r>    4.8156    0.0000 </r>
       <r>    4.8160    0.0000 </r>
       <r>    4.8205    0.0000 </r>
       <r>    4.9030    0.0000 </r>
       <r>    5.0831    0.0000 </r>
       <r>    5.1858    0.0000 </r>
       <r>    5.4342    0.0000 </r>
       <r>    5.5178    0.0000 </r>
       <r>    5.7863    0.0000 </r>
       <r>    5.8104    0.0000 </r>
       <r>    5.8460    0.0000 </r>
       <r>    5.8558    0.0000 </r>
       <r>    5.8662    0.0000 </r>
       <r>    6.1680    0.0000 </r>
       <r>    6.3850    0.0000 </r>
       <r>    6.6009    0.0000 </r>
       <r>    6.6116    0.0000 </r>
       <r>    6.6232    0.0000 </r>
       <r>    6.8423    0.0000 </r>
       <r>    7.0187    0.0000 </r>
       <r>    7.1241    0.0000 </r>
       <r>    7.1358    0.0000 </r>
       <r>    7.1538    0.0000 </r>
       <r>    7.1578    0.0000 </r>
       <r>    7.1630    0.0000 </r>
       <r>    7.2131    0.0000 </r>
       <r>    7.2576    0.0000 </r>
       <r>    7.5017    0.0000 </r>
      </set>
      <set comment="kpoint 2">
       <r>   -8.7535    1.0000 </r>
       <r>   -7.6635    1.0000 </r>
       <r>   -7.0262    1.0000 </r>
       <r>   -6.9170    1.0000 </r>
       <r>   -6.5619    1.0000 </r>
       <r>   -6.5477    1.0000 </r>
       <r>   -6.3602    1.0000 </r>
       <r>   -6.2664    1.0000 </r>
       <r>   -6.2269    1.0000 </r>
       <r>   -6.2136    1.0000 </r>
       <r>   -6.1022    1.0000 </r>
       <r>   -6.0010    1.0000 </r>
       <r>   -5.9789    1.0000 </r>
       <r>   -5.8461    1.0000 </r>
       <r>   -5.8395    1.0000 </r>
       <r>   -5.8286    1.0000 </r>
       <r>   -5.7393    1.0000 </r>
       <r>   -5.5379    1.0000 </r>
       <r>   -5.4251    1.0000 </r>
       <r>   -5.4175    1.0000 </r>
       <r>   -5.4105    1.0000 </r>
       <r>   -5.3866    1.0000 </r>
       <r>   -5.3366    1.0000 </r>
       <r>   -5.3045    1.0000 </r>
       <r>   -5.2787    1.0000 </r>
       <r>   -5.2313    1.0000 </r>
       <r>   -5.2205    1.0000 </r>
       <r>   -5.2119    1.0000 </r>
       <r>   -5.1603    1.0000 </r>
       <r>   -5.1187    1.0000 </r>
       <r>   -5.1094    1.0000 </r>
       <r>   -5.0377    1.0000 </r>
       <r>   -5.0199    1.0000 </r>
       <r>   -5.0118    1.0000 </r>
       <r>   -5.0094    1.0000 </r>
       <r>   -4.8690    1.0000 </r>
       <r>   -4.8139    1.0000 </r>
       <r>   -4.7834    1.0000 </r>
       <r>   -4.7704    1.0000 </r>
       <r>   -4.7521    1.0000 </r>
       <r>   -4.5907    1.0000 </r>
       <r>   -4.5004    1.0000 </r>
       <r>   -4.4944    1.0000 </r>
       <r>   -4.4465    1.0000 </r>
       <r>   -4.4185    1.0000 </r>
       <r>   -4.4030    1.0000 </r>
       <r>   -4.3901    1.0000 </r>
       <r>   -4.2957    1.0000 </r>
       <r>   -4.2139    1.0000 </r>
       <r>   -4.1492    1.0000 </r>
       <r>   -4.1293    1.0000 </r>
       <r>   -4.1140    1.0000 </r>
       <r>   -4.0722    1.0000 </r>
       <r>   -4.0515    1.0000 </r>
       <r>   -4.0054    1.0000 </r>
       <r>   -3.8342    1.0000 </r>
       <r>   -3.7375    1.0000 </r>
       <r>   -3.7307    1.0000 </r>
       <r>   -3.6867    1.0000 </r>
       <r>   -3.6676    1.0000 </r>
       <r>   -3.6380    1.0000 </r>
       <r>   -3.5871    1.0000 </r>
       <r>   -3.5641    1.0000 </r>
       <r>   -3.5583    1.0000 </r>
       <r>   -3.5310    1.0000 </r>
       <r>   -3.5249    1.0000 </r>
       <r>   -3.4530    1.0000 </r>
       <r>   -3.4448    1.0000 </r>
       <r>   -3.4092    1.0000 </r>
       <r>   -3.3740    1.0000 </r>
       <r>   -3.3645    1.0000 </r>
       <r>   -3.3276    1.0000 </r>
       <r>   -3.2689    1.0000 </r>
       <r>   -3.2620    1.0000 </r>
       <r>   -3.2531    1.0000 </r>
       <r>   -3.1828    1.0000 </r>
       <r>   -3.1788    1.0000 </r>
       <r>   -3.1593    1.0000 </r>
       <r>   -3.1316    1.0000 </r>
       <r>   -3.0966    1.0000 </r>
       <r>   -3.0857    1.0000 </r>
       <r>   -3.0674    1.0000 </r>
       <r>   -3.0297    1.0000 </r>
       <r>   -3.0059    1.0000 </r>
       <r>   -2.9653    1.0000 </r>
       <r>   -2.9523    1.0000 </r>
       <r>   -2.9439    1.0000 </r>
       <r>   -2.9389    1.0000 </r>
       <r>   -2.9187    1.0000 </r>
       <r>   -2.9046    1.0000 </r>
       <r>   -2.8664    1.0000 </r>
       <r>   -2.8228    1.0000 </r>
       <r>   -2.8035    1.0000 </r>
       <r>   -2.7846    1.0000 </r>
       <r>   -2.7747    1.0000 </r>
       <r>   -2.7667    1.0000 </r>
       <r>   -2.7535    1.0000 </r>
       <r>   -2.7256    1.0000 </r>
       <r>   -2.6983    1.0000 </r>
       <r>   -2.6908    1.0000 </r>
       <r>   -2.6116    1.0000 </r>
       <r>   -2.5658    1.0000 </r>
       <r>   -2.5502    1.0000 </r>
       <r>   -2.5254    1.0000 </r>
       <r>   -2.5082    1.0000 </r>
       <r>   -2.5042    1.0000 </r>
       <r>   -2.4981    1.0000 </r>
       <r>   -2.4837    1.0000 </r>
       <r>   -2.4466    1.0000 </r>
       <r>   -2.4395    1.0000 </r>
       <r>   -2.4267    1.0000 </r>
       <r>   -2.4136    1.0000 </r>
       <r>   -2.1956    1.0000 </r>
       <r>   -2.0780    1.0000 </r>
       <r>   -2.0324    1.0000 </r>
       <r>   -2.0148    1.0000 </r>
       <r>   -1.9953    1.0000 </r>
       <r>   -1.9889    1.0000 </r>
       <r>   -1.9865    1.0000 </r>
       <r>   -1.9463    1.0000 </r>
       <r>   -1.9429    1.0000 </r>
       <r>   -1.8733    1.0000 </r>
       <r>   -1.8038    1.0000 </r>
       <r>   -1.7808    1.0000 </r>
       <r>   -1.7092    1.0000 </r>
       <r>   -1.6575    1.0000 </r>
       <r>   -1.6502    1.0000 </r>
       <r>   -1.6045    1.0000 </r>
       <r>   -1.5909    1.0000 </r>
       <r>   -1.5727    1.0000 </r>
       <r>   -1.5435    1.0000 </r>
       <r>   -1.5316    1.0000 </r>
       <r>   -1.5243    1.0000 </r>
       <r>   -1.4467    1.0000 </r>
       <r>   -1.4092    1.0000 </r>
       <r>   -1.3978    1.0000 </r>
       <r>   -1.3875    1.0000 </r>
       <r>   -1.3793    1.0000 </r>
       <r>   -1.2761    1.0000 </r>
       <r>   -1.1955    1.0000 </r>
       <r>   -1.1795    1.0000 </r>
       <r>   -1.1624    1.0000 </r>
       <r>   -1.1528    1.0000 </r>
       <r>   -1.1410    1.0000 </r>
       <r>   -1.1235    1.0000 </r>
       <r>   -1.0676    1.0000 </r>
       <r>   -1.0348    1.0000 </r>
       <r>   -1.0039    1.0000 </r>
       <r>   -0.9911    1.0000 </r>
       <r>   -0.9832    1.0000 </r>
       <r>   -0.9343    1.0000 </r>
       <r>   -0.9196    1.0000 </r>
       <r>   -0.9083    1.0000 </r>
       <r>   -0.8954    1.0000 </r>
       <r>   -0.8190    1.0000 </r>
       <r>   -0.7940    1.0000 </r>
       <r>   -0.7768    1.0000 </r>
       <r>   -0.7610    1.0000 </r>
       <r>   -0.7277    1.0000 </r>
       <r>   -0.6702    1.0000 </r>
       <r>   -0.6448    1.0000 </r>
       <r>   -0.6190    1.0000 </r>
       <r>   -0.6027    1.0000 </r>
       <r>   -0.5893    1.0000 </r>
       <r>   -0.5662    1.0000 </r>
       <r>   -0.5460    1.0000 </r>
       <r>   -0.4830    1.0000 </r>
       <r>   -0.4749    1.0000 </r>
       <r>   -0.4208    1.0000 </r>
       <r>   -0.4059    1.0000 </r>
       <r>   -0.3967    1.0000 </r>
       <r>   -0.3841    1.0001 </r>
       <r>   -0.3602    1.0002 </r>
       <r>   -0.3534    1.0003 </r>
       <r>   -0.3456    1.0005 </r>
       <r>   -0.3381    1.0007 </r>
       <r>   -0.3305    1.0009 </r>
       <r>   -0.2722    1.0089 </r>
       <r>   -0.2693    1.0097 </r>
       <r>   -0.1347    0.9157 </r>
       <r>   -0.1215    0.8466 </r>
       <r>   -0.1044    0.7323 </r>
       <r>   -0.0897    0.6175 </r>
       <r>   -0.0734    0.4815 </r>
       <r>   -0.0704    0.4557 </r>
       <r>   -0.0386    0.2092 </r>
       <r>   -0.0243    0.1225 </r>
       <r>   -0.0059    0.0409 </r>
       <r>    0.0030    0.0134 </r>
       <r>    0.0749   -0.0274 </r>
       <r>    0.1057   -0.0139 </r>
       <r>    0.1289   -0.0069 </r>
       <r>    0.1841   -0.0007 </r>
       <r>    0.2911   -0.0000 </r>
       <r>    0.3021   -0.0000 </r>
       <r>    0.3130   -0.0000 </r>
       <r>    0.3554   -0.0000 </r>
       <r>    0.6960   -0.0000 </r>
       <r>    0.7475   -0.0000 </r>
       <r>    1.2501   -0.0000 </r>
       <r>    1.4644   -0.0000 </r>
       <r>    1.4814   -0.0000 </r>
       <r>    1.5984   -0.0000 </r>
       <r>    2.4019   -0.0000 </r>
       <r>    2.8012    0.0000 </r>
       <r>    2.9041    0.0000 </r>
       <r>    3.5534    0.0000 </r>
       <r>    3.6475    0.0000 </r>
       <r>    3.6626    0.0000 </r>
       <r>    3.7410    0.0000 </r>
       <r>    3.9839    0.0000 </r>
       <r>    4.4280    0.0000 </r>
       <r>    4.6054    0.0000 </r>
       <r>    4.7493    0.0000 </r>
       <r>    4.9447    0.0000 </r>
       <r>    4.9942    0.0000 </r>
       <r>    5.0002    0.0000 </r>
       <r>    5.2057    0.0000 </r>
       <r>    5.2718    0.0000 </r>
       <r>    5.4644    0.0000 </r>
       <r>    5.6576    0.0000 </r>
       <r>    5.6945    0.0000 </r>
       <r>    5.8136    0.0000 </r>
       <r>    5.9145    0.0000 </r>
       <r>    6.0759    0.0000 </r>
       <r>    6.1968    0.0000 </r>
       <r>    6.2825    0.0000 </r>
       <r>    6.3218    0.0000 </r>
       <r>    6.3494    0.0000 </r>
       <r>    6.5369    0.0000 </r>
       <r>    6.7023    0.0000 </r>
       <r>    6.7507    0.0000 </r>
       <r>    6.7858    0.0000 </r>
       <r>    6.8612    0.0000 </r>
       <r>    6.9395    0.0000 </r>
       <r>    7.0635    0.0000 </r>
       <r>    7.2763    0.0000 </r>
       <r>    7.4758    0.0000 </r>
       <r>    7.5580    0.0000 </r>
       <r>    7.6018    0.0000 </r>
      </set>
      <set comment="kpoint 3">
       <r>   -8.7545    1.0000 </r>
       <r>   -7.6731    1.0000 </r>
       <r>   -7.0657    1.0000 </r>
       <r>   -6.8767    1.0000 </r>
       <r>   -6.5623    1.0000 </r>
       <r>   -6.5514    1.0000 </r>
       <r>   -6.3609    1.0000 </r>
       <r>   -6.2740    1.0000 </r>
       <r>   -6.2150    1.0000 </r>
       <r>   -6.2140    1.0000 </r>
       <r>   -6.1383    1.0000 </r>
       <r>   -6.0020    1.0000 </r>
       <r>   -5.9048    1.0000 </r>
       <r>   -5.8481    1.0000 </r>
       <r>   -5.8403    1.0000 </r>
       <r>   -5.8320    1.0000 </r>
       <r>   -5.7833    1.0000 </r>
       <r>   -5.5324    1.0000 </r>
       <r>   -5.4171    1.0000 </r>
       <r>   -5.4165    1.0000 </r>
       <r>   -5.4120    1.0000 </r>
       <r>   -5.3529    1.0000 </r>
       <r>   -5.3356    1.0000 </r>
       <r>   -5.3095    1.0000 </r>
       <r>   -5.2751    1.0000 </r>
       <r>   -5.2562    1.0000 </r>
       <r>   -5.2243    1.0000 </r>
       <r>   -5.2148    1.0000 </r>
       <r>   -5.1230    1.0000 </r>
       <r>   -5.1133    1.0000 </r>
       <r>   -5.1099    1.0000 </r>
       <r>   -5.0334    1.0000 </r>
       <r>   -5.0190    1.0000 </r>
       <r>   -5.0113    1.0000 </r>
       <r>   -5.0074    1.0000 </r>
       <r>   -4.8482    1.0000 </r>
       <r>   -4.8131    1.0000 </r>
       <r>   -4.7807    1.0000 </r>
       <r>   -4.7781    1.0000 </r>
       <r>   -4.7576    1.0000 </r>
       <r>   -4.5796    1.0000 </r>
       <r>   -4.4956    1.0000 </r>
       <r>   -4.4929    1.0000 </r>
       <r>   -4.4464    1.0000 </r>
       <r>   -4.4187    1.0000 </r>
       <r>   -4.4125    1.0000 </r>
       <r>   -4.3934    1.0000 </r>
       <r>   -4.3081    1.0000 </r>
       <r>   -4.2158    1.0000 </r>
       <r>   -4.1523    1.0000 </r>
       <r>   -4.1273    1.0000 </r>
       <r>   -4.1198    1.0000 </r>
       <r>   -4.0703    1.0000 </r>
       <r>   -4.0482    1.0000 </r>
       <r>   -3.9882    1.0000 </r>
       <r>   -3.8268    1.0000 </r>
       <r>   -3.7368    1.0000 </r>
       <r>   -3.7314    1.0000 </r>
       <r>   -3.6755    1.0000 </r>
       <r>   -3.6686    1.0000 </r>
       <r>   -3.6376    1.0000 </r>
       <r>   -3.5800    1.0000 </r>
       <r>   -3.5769    1.0000 </r>
       <r>   -3.5592    1.0000 </r>
       <r>   -3.5313    1.0000 </r>
       <r>   -3.5265    1.0000 </r>
       <r>   -3.4738    1.0000 </r>
       <r>   -3.4409    1.0000 </r>
       <r>   -3.3895    1.0000 </r>
       <r>   -3.3776    1.0000 </r>
       <r>   -3.3657    1.0000 </r>
       <r>   -3.3368    1.0000 </r>
       <r>   -3.2809    1.0000 </r>
       <r>   -3.2692    1.0000 </r>
       <r>   -3.2673    1.0000 </r>
       <r>   -3.1835    1.0000 </r>
       <r>   -3.1703    1.0000 </r>
       <r>   -3.1608    1.0000 </r>
       <r>   -3.1333    1.0000 </r>
       <r>   -3.0871    1.0000 </r>
       <r>   -3.0710    1.0000 </r>
       <r>   -3.0660    1.0000 </r>
       <r>   -3.0412    1.0000 </r>
       <r>   -2.9995    1.0000 </r>
       <r>   -2.9682    1.0000 </r>
       <r>   -2.9598    1.0000 </r>
       <r>   -2.9372    1.0000 </r>
       <r>   -2.9321    1.0000 </r>
       <r>   -2.9118    1.0000 </r>
       <r>   -2.9118    1.0000 </r>
       <r>   -2.8600    1.0000 </r>
       <r>   -2.8295    1.0000 </r>
       <r>   -2.7998    1.0000 </r>
       <r>   -2.7944    1.0000 </r>
       <r>   -2.7782    1.0000 </r>
       <r>   -2.7640    1.0000 </r>
       <r>   -2.7640    1.0000 </r>
       <r>   -2.7310    1.0000 </r>
       <r>   -2.7049    1.0000 </r>
       <r>   -2.6870    1.0000 </r>
       <r>   -2.6155    1.0000 </r>
       <r>   -2.5611    1.0000 </r>
       <r>   -2.5476    1.0000 </r>
       <r>   -2.5403    1.0000 </r>
       <r>   -2.5190    1.0000 </r>
       <r>   -2.5031    1.0000 </r>
       <r>   -2.5003    1.0000 </r>
       <r>   -2.4935    1.0000 </r>
       <r>   -2.4498    1.0000 </r>
       <r>   -2.4362    1.0000 </r>
       <r>   -2.4308    1.0000 </r>
       <r>   -2.4218    1.0000 </r>
       <r>   -2.1761    1.0000 </r>
       <r>   -2.0778    1.0000 </r>
       <r>   -2.0417    1.0000 </r>
       <r>   -2.0140    1.0000 </r>
       <r>   -2.0028    1.0000 </r>
       <r>   -1.9917    1.0000 </r>
       <r>   -1.9833    1.0000 </r>
       <r>   -1.9506    1.0000 </r>
       <r>   -1.9347    1.0000 </r>
       <r>   -1.9131    1.0000 </r>
       <r>   -1.8191    1.0000 </r>
       <r>   -1.7868    1.0000 </r>
       <r>   -1.7100    1.0000 </r>
       <r>   -1.6621    1.0000 </r>
       <r>   -1.6537    1.0000 </r>
       <r>   -1.6055    1.0000 </r>
       <r>   -1.5937    1.0000 </r>
       <r>   -1.5801    1.0000 </r>
       <r>   -1.5502    1.0000 </r>
       <r>   -1.5348    1.0000 </r>
       <r>   -1.5310    1.0000 </r>
       <r>   -1.4461    1.0000 </r>
       <r>   -1.3993    1.0000 </r>
       <r>   -1.3956    1.0000 </r>
       <r>   -1.3801    1.0000 </r>
       <r>   -1.3770    1.0000 </r>
       <r>   -1.2071    1.0000 </r>
       <r>   -1.2007    1.0000 </r>
       <r>   -1.1843    1.0000 </r>
       <r>   -1.1588    1.0000 </r>
       <r>   -1.1564    1.0000 </r>
       <r>   -1.1395    1.0000 </r>
       <r>   -1.1258    1.0000 </r>
       <r>   -1.0538    1.0000 </r>
       <r>   -1.0407    1.0000 </r>
       <r>   -1.0188    1.0000 </r>
       <r>   -0.9927    1.0000 </r>
       <r>   -0.9807    1.0000 </r>
       <r>   -0.9365    1.0000 </r>
       <r>   -0.9232    1.0000 </r>
       <r>   -0.9071    1.0000 </r>
       <r>   -0.9060    1.0000 </r>
       <r>   -0.8226    1.0000 </r>
       <r>   -0.8019    1.0000 </r>
       <r>   -0.7696    1.0000 </r>
       <r>   -0.7596    1.0000 </r>
       <r>   -0.7145    1.0000 </r>
       <r>   -0.6712    1.0000 </r>
       <r>   -0.6693    1.0000 </r>
       <r>   -0.6223    1.0000 </r>
       <r>   -0.6086    1.0000 </r>
       <r>   -0.6069    1.0000 </r>
       <r>   -0.5649    1.0000 </r>
       <r>   -0.5453    1.0000 </r>
       <r>   -0.4861    1.0000 </r>
       <r>   -0.4741    1.0000 </r>
       <r>   -0.4096    1.0000 </r>
       <r>   -0.4054    1.0000 </r>
       <r>   -0.3916    1.0000 </r>
       <r>   -0.3735    1.0001 </r>
       <r>   -0.3609    1.0002 </r>
       <r>   -0.3489    1.0004 </r>
       <r>   -0.3473    1.0004 </r>
       <r>   -0.3381    1.0007 </r>
       <r>   -0.3278    1.0011 </r>
       <r>   -0.2774    1.0076 </r>
       <r>   -0.2723    1.0089 </r>
       <r>   -0.1311    0.8988 </r>
       <r>   -0.1242    0.8623 </r>
       <r>   -0.1040    0.7293 </r>
       <r>   -0.0826    0.5588 </r>
       <r>   -0.0669    0.4262 </r>
       <r>   -0.0641    0.4035 </r>
       <r>   -0.0367    0.1968 </r>
       <r>   -0.0111    0.0606 </r>
       <r>   -0.0050    0.0380 </r>
       <r>    0.0071    0.0032 </r>
       <r>    0.0949   -0.0183 </r>
       <r>    0.1021   -0.0153 </r>
       <r>    0.1270   -0.0073 </r>
       <r>    0.1878   -0.0006 </r>
       <r>    0.2939   -0.0000 </r>
       <r>    0.3028   -0.0000 </r>
       <r>    0.3107   -0.0000 </r>
       <r>    0.3534   -0.0000 </r>
       <r>    0.7080   -0.0000 </r>
       <r>    0.7425   -0.0000 </r>
       <r>    1.2618   -0.0000 </r>
       <r>    1.4525   -0.0000 </r>
       <r>    1.4798   -0.0000 </r>
       <r>    1.6021   -0.0000 </r>
       <r>    2.3699   -0.0000 </r>
       <r>    2.8616    0.0000 </r>
       <r>    2.9039    0.0000 </r>
       <r>    3.5233    0.0000 </r>
       <r>    3.6497    0.0000 </r>
       <r>    3.6864    0.0000 </r>
       <r>    3.7325    0.0000 </r>
       <r>    3.9453    0.0000 </r>
       <r>    4.4128    0.0000 </r>
       <r>    4.6068    0.0000 </r>
       <r>    4.7321    0.0000 </r>
       <r>    4.9713    0.0000 </r>
       <r>    4.9963    0.0000 </r>
       <r>    5.0036    0.0000 </r>
       <r>    5.2225    0.0000 </r>
       <r>    5.3330    0.0000 </r>
       <r>    5.4519    0.0000 </r>
       <r>    5.5930    0.0000 </r>
       <r>    5.7015    0.0000 </r>
       <r>    5.8683    0.0000 </r>
       <r>    5.8931    0.0000 </r>
       <r>    6.0753    0.0000 </r>
       <r>    6.2520    0.0000 </r>
       <r>    6.2838    0.0000 </r>
       <r>    6.3293    0.0000 </r>
       <r>    6.3490    0.0000 </r>
       <r>    6.6117    0.0000 </r>
       <r>    6.6947    0.0000 </r>
       <r>    6.7309    0.0000 </r>
       <r>    6.7779    0.0000 </r>
       <r>    6.7805    0.0000 </r>
       <r>    6.9421    0.0000 </r>
       <r>    7.0503    0.0000 </r>
       <r>    7.2339    0.0000 </r>
       <r>    7.4592    0.0000 </r>
       <r>    7.6033    0.0000 </r>
       <r>    7.6092    0.0000 </r>
      </set>
      <set comment="kpoint 4">
       <r>   -8.7535    1.0000 </r>
       <r>   -7.6635    1.0000 </r>
       <r>   -7.0262    1.0000 </r>
       <r>   -6.9170    1.0000 </r>
       <r>   -6.5619    1.0000 </r>
       <r>   -6.5478    1.0000 </r>
       <r>   -6.3602    1.0000 </r>
       <r>   -6.2663    1.0000 </r>
       <r>   -6.2269    1.0000 </r>
       <r>   -6.2137    1.0000 </r>
       <r>   -6.1022    1.0000 </r>
       <r>   -6.0010    1.0000 </r>
       <r>   -5.9789    1.0000 </r>
       <r>   -5.8461    1.0000 </r>
       <r>   -5.8395    1.0000 </r>
       <r>   -5.8286    1.0000 </r>
       <r>   -5.7393    1.0000 </r>
       <r>   -5.5380    1.0000 </r>
       <r>   -5.4251    1.0000 </r>
       <r>   -5.4175    1.0000 </r>
       <r>   -5.4105    1.0000 </r>
       <r>   -5.3865    1.0000 </r>
       <r>   -5.3366    1.0000 </r>
       <r>   -5.3045    1.0000 </r>
       <r>   -5.2787    1.0000 </r>
       <r>   -5.2313    1.0000 </r>
       <r>   -5.2204    1.0000 </r>
       <r>   -5.2120    1.0000 </r>
       <r>   -5.1603    1.0000 </r>
       <r>   -5.1188    1.0000 </r>
       <r>   -5.1095    1.0000 </r>
       <r>   -5.0376    1.0000 </r>
       <r>   -5.0198    1.0000 </r>
       <r>   -5.0118    1.0000 </r>
       <r>   -5.0094    1.0000 </r>
       <r>   -4.8690    1.0000 </r>
       <r>   -4.8139    1.0000 </r>
       <r>   -4.7834    1.0000 </r>
       <r>   -4.7704    1.0000 </r>
       <r>   -4.7522    1.0000 </r>
       <r>   -4.5907    1.0000 </r>
       <r>   -4.5004    1.0000 </r>
       <r>   -4.4944    1.0000 </r>
       <r>   -4.4466    1.0000 </r>
       <r>   -4.4184    1.0000 </r>
       <r>   -4.4030    1.0000 </r>
       <r>   -4.3901    1.0000 </r>
       <r>   -4.2958    1.0000 </r>
       <r>   -4.2139    1.0000 </r>
       <r>   -4.1493    1.0000 </r>
       <r>   -4.1293    1.0000 </r>
       <r>   -4.1141    1.0000 </r>
       <r>   -4.0722    1.0000 </r>
       <r>   -4.0514    1.0000 </r>
       <r>   -4.0054    1.0000 </r>
       <r>   -3.8344    1.0000 </r>
       <r>   -3.7374    1.0000 </r>
       <r>   -3.7308    1.0000 </r>
       <r>   -3.6868    1.0000 </r>
       <r>   -3.6677    1.0000 </r>
       <r>   -3.6381    1.0000 </r>
       <r>   -3.5873    1.0000 </r>
       <r>   -3.5639    1.0000 </r>
       <r>   -3.5582    1.0000 </r>
       <r>   -3.5310    1.0000 </r>
       <r>   -3.5248    1.0000 </r>
       <r>   -3.4529    1.0000 </r>
       <r>   -3.4448    1.0000 </r>
       <r>   -3.4093    1.0000 </r>
       <r>   -3.3740    1.0000 </r>
       <r>   -3.3645    1.0000 </r>
       <r>   -3.3276    1.0000 </r>
       <r>   -3.2688    1.0000 </r>
       <r>   -3.2618    1.0000 </r>
       <r>   -3.2529    1.0000 </r>
       <r>   -3.1828    1.0000 </r>
       <r>   -3.1789    1.0000 </r>
       <r>   -3.1593    1.0000 </r>
       <r>   -3.1315    1.0000 </r>
       <r>   -3.0966    1.0000 </r>
       <r>   -3.0858    1.0000 </r>
       <r>   -3.0677    1.0000 </r>
       <r>   -3.0296    1.0000 </r>
       <r>   -3.0059    1.0000 </r>
       <r>   -2.9652    1.0000 </r>
       <r>   -2.9523    1.0000 </r>
       <r>   -2.9439    1.0000 </r>
       <r>   -2.9389    1.0000 </r>
       <r>   -2.9187    1.0000 </r>
       <r>   -2.9046    1.0000 </r>
       <r>   -2.8664    1.0000 </r>
       <r>   -2.8229    1.0000 </r>
       <r>   -2.8036    1.0000 </r>
       <r>   -2.7846    1.0000 </r>
       <r>   -2.7747    1.0000 </r>
       <r>   -2.7666    1.0000 </r>
       <r>   -2.7536    1.0000 </r>
       <r>   -2.7256    1.0000 </r>
       <r>   -2.6982    1.0000 </r>
       <r>   -2.6907    1.0000 </r>
       <r>   -2.6115    1.0000 </r>
       <r>   -2.5658    1.0000 </r>
       <r>   -2.5502    1.0000 </r>
       <r>   -2.5254    1.0000 </r>
       <r>   -2.5082    1.0000 </r>
       <r>   -2.5042    1.0000 </r>
       <r>   -2.4981    1.0000 </r>
       <r>   -2.4836    1.0000 </r>
       <r>   -2.4467    1.0000 </r>
       <r>   -2.4396    1.0000 </r>
       <r>   -2.4266    1.0000 </r>
       <r>   -2.4136    1.0000 </r>
       <r>   -2.1957    1.0000 </r>
       <r>   -2.0781    1.0000 </r>
       <r>   -2.0324    1.0000 </r>
       <r>   -2.0148    1.0000 </r>
       <r>   -1.9953    1.0000 </r>
       <r>   -1.9889    1.0000 </r>
       <r>   -1.9866    1.0000 </r>
       <r>   -1.9462    1.0000 </r>
       <r>   -1.9428    1.0000 </r>
       <r>   -1.8734    1.0000 </r>
       <r>   -1.8038    1.0000 </r>
       <r>   -1.7807    1.0000 </r>
       <r>   -1.7091    1.0000 </r>
       <r>   -1.6574    1.0000 </r>
       <r>   -1.6502    1.0000 </r>
       <r>   -1.6046    1.0000 </r>
       <r>   -1.5908    1.0000 </r>
       <r>   -1.5726    1.0000 </r>
       <r>   -1.5434    1.0000 </r>
       <r>   -1.5315    1.0000 </r>
       <r>   -1.5243    1.0000 </r>
       <r>   -1.4467    1.0000 </r>
       <r>   -1.4092    1.0000 </r>
       <r>   -1.3978    1.0000 </r>
       <r>   -1.3874    1.0000 </r>
       <r>   -1.3794    1.0000 </r>
       <r>   -1.2761    1.0000 </r>
       <r>   -1.1955    1.0000 </r>
       <r>   -1.1795    1.0000 </r>
       <r>   -1.1624    1.0000 </r>
       <r>   -1.1529    1.0000 </r>
       <r>   -1.1410    1.0000 </r>
       <r>   -1.1236    1.0000 </r>
       <r>   -1.0676    1.0000 </r>
       <r>   -1.0348    1.0000 </r>
       <r>   -1.0040    1.0000 </r>
       <r>   -0.9911    1.0000 </r>
       <r>   -0.9832    1.0000 </r>
       <r>   -0.9343    1.0000 </r>
       <r>   -0.9196    1.0000 </r>
       <r>   -0.9083    1.0000 </r>
       <r>   -0.8954    1.0000 </r>
       <r>   -0.8190    1.0000 </r>
       <r>   -0.7940    1.0000 </r>
       <r>   -0.7769    1.0000 </r>
       <r>   -0.7610    1.0000 </r>
       <r>   -0.7276    1.0000 </r>
       <r>   -0.6702    1.0000 </r>
       <r>   -0.6447    1.0000 </r>
       <r>   -0.6190    1.0000 </r>
       <r>   -0.6027    1.0000 </r>
       <r>   -0.5892    1.0000 </r>
       <r>   -0.5662    1.0000 </r>
       <r>   -0.5460    1.0000 </r>
       <r>   -0.4830    1.0000 </r>
       <r>   -0.4749    1.0000 </r>
       <r>   -0.4208    1.0000 </r>
       <r>   -0.4059    1.0000 </r>
       <r>   -0.3968    1.0000 </r>
       <r>   -0.3841    1.0001 </r>
       <r>   -0.3601    1.0002 </r>
       <r>   -0.3534    1.0003 </r>
       <r>   -0.3456    1.0005 </r>
       <r>   -0.3380    1.0007 </r>
       <r>   -0.3305    1.0009 </r>
       <r>   -0.2721    1.0090 </r>
       <r>   -0.2693    1.0098 </r>
       <r>   -0.1346    0.9154 </r>
       <r>   -0.1215    0.8465 </r>
       <r>   -0.1044    0.7326 </r>
       <r>   -0.0897    0.6177 </r>
       <r>   -0.0735    0.4818 </r>
       <r>   -0.0705    0.4564 </r>
       <r>   -0.0387    0.2097 </r>
       <r>   -0.0243    0.1228 </r>
       <r>   -0.0060    0.0413 </r>
       <r>    0.0030    0.0136 </r>
       <r>    0.0749   -0.0274 </r>
       <r>    0.1057   -0.0139 </r>
       <r>    0.1289   -0.0069 </r>
       <r>    0.1841   -0.0007 </r>
       <r>    0.2911   -0.0000 </r>
       <r>    0.3020   -0.0000 </r>
       <r>    0.3130   -0.0000 </r>
       <r>    0.3555   -0.0000 </r>
       <r>    0.6959   -0.0000 </r>
       <r>    0.7474   -0.0000 </r>
       <r>    1.2501   -0.0000 </r>
       <r>    1.4644   -0.0000 </r>
       <r>    1.4814   -0.0000 </r>
       <r>    1.5984   -0.0000 </r>
       <r>    2.4020   -0.0000 </r>
       <r>    2.8012    0.0000 </r>
       <r>    2.9040    0.0000 </r>
       <r>    3.5534    0.0000 </r>
       <r>    3.6475    0.0000 </r>
       <r>    3.6627    0.0000 </r>
       <r>    3.7410    0.0000 </r>
       <r>    3.9839    0.0000 </r>
       <r>    4.4280    0.0000 </r>
       <r>    4.6054    0.0000 </r>
       <r>    4.7495    0.0000 </r>
       <r>    4.9447    0.0000 </r>
       <r>    4.9942    0.0000 </r>
       <r>    5.0002    0.0000 </r>
       <r>    5.2057    0.0000 </r>
       <r>    5.2717    0.0000 </r>
       <r>    5.4643    0.0000 </r>
       <r>    5.6575    0.0000 </r>
       <r>    5.6946    0.0000 </r>
       <r>    5.8136    0.0000 </r>
       <r>    5.9144    0.0000 </r>
       <r>    6.0759    0.0000 </r>
       <r>    6.1969    0.0000 </r>
       <r>    6.2825    0.0000 </r>
       <r>    6.3218    0.0000 </r>
       <r>    6.3493    0.0000 </r>
       <r>    6.5369    0.0000 </r>
       <r>    6.7023    0.0000 </r>
       <r>    6.7507    0.0000 </r>
       <r>    6.7858    0.0000 </r>
       <r>    6.8612    0.0000 </r>
       <r>    6.9395    0.0000 </r>
       <r>    7.0635    0.0000 </r>
       <r>    7.2764    0.0000 </r>
       <r>    7.4760    0.0000 </r>
       <r>    7.5580    0.0000 </r>
       <r>    7.6019    0.0000 </r>
      </set>
      <set comment="kpoint 5">
       <r>   -8.3277    1.0000 </r>
       <r>   -7.6946    1.0000 </r>
       <r>   -7.3389    1.0000 </r>
       <r>   -6.8231    1.0000 </r>
       <r>   -6.5924    1.0000 </r>
       <r>   -6.5758    1.0000 </r>
       <r>   -6.3930    1.0000 </r>
       <r>   -6.2293    1.0000 </r>
       <r>   -6.0917    1.0000 </r>
       <r>   -5.9735    1.0000 </r>
       <r>   -5.8868    1.0000 </r>
       <r>   -5.8736    1.0000 </r>
       <r>   -5.8315    1.0000 </r>
       <r>   -5.7152    1.0000 </r>
       <r>   -5.6681    1.0000 </r>
       <r>   -5.6570    1.0000 </r>
       <r>   -5.6516    1.0000 </r>
       <r>   -5.6411    1.0000 </r>
       <r>   -5.5139    1.0000 </r>
       <r>   -5.4843    1.0000 </r>
       <r>   -5.4761    1.0000 </r>
       <r>   -5.4443    1.0000 </r>
       <r>   -5.4318    1.0000 </r>
       <r>   -5.4266    1.0000 </r>
       <r>   -5.3568    1.0000 </r>
       <r>   -5.3149    1.0000 </r>
       <r>   -5.3102    1.0000 </r>
       <r>   -5.2536    1.0000 </r>
       <r>   -5.0644    1.0000 </r>
       <r>   -5.0524    1.0000 </r>
       <r>   -5.0479    1.0000 </r>
       <r>   -5.0323    1.0000 </r>
       <r>   -5.0244    1.0000 </r>
       <r>   -4.9426    1.0000 </r>
       <r>   -4.8012    1.0000 </r>
       <r>   -4.7934    1.0000 </r>
       <r>   -4.7868    1.0000 </r>
       <r>   -4.7524    1.0000 </r>
       <r>   -4.7412    1.0000 </r>
       <r>   -4.6578    1.0000 </r>
       <r>   -4.5440    1.0000 </r>
       <r>   -4.4847    1.0000 </r>
       <r>   -4.4670    1.0000 </r>
       <r>   -4.4528    1.0000 </r>
       <r>   -4.4240    1.0000 </r>
       <r>   -4.3960    1.0000 </r>
       <r>   -4.3450    1.0000 </r>
       <r>   -4.3227    1.0000 </r>
       <r>   -4.3122    1.0000 </r>
       <r>   -4.2840    1.0000 </r>
       <r>   -4.2533    1.0000 </r>
       <r>   -4.1460    1.0000 </r>
       <r>   -4.0955    1.0000 </r>
       <r>   -4.0899    1.0000 </r>
       <r>   -4.0751    1.0000 </r>
       <r>   -4.0060    1.0000 </r>
       <r>   -3.9425    1.0000 </r>
       <r>   -3.9123    1.0000 </r>
       <r>   -3.8783    1.0000 </r>
       <r>   -3.8672    1.0000 </r>
       <r>   -3.8410    1.0000 </r>
       <r>   -3.7188    1.0000 </r>
       <r>   -3.6681    1.0000 </r>
       <r>   -3.6606    1.0000 </r>
       <r>   -3.6519    1.0000 </r>
       <r>   -3.6389    1.0000 </r>
       <r>   -3.5507    1.0000 </r>
       <r>   -3.5429    1.0000 </r>
       <r>   -3.5102    1.0000 </r>
       <r>   -3.4296    1.0000 </r>
       <r>   -3.4065    1.0000 </r>
       <r>   -3.3909    1.0000 </r>
       <r>   -3.3491    1.0000 </r>
       <r>   -3.3025    1.0000 </r>
       <r>   -3.2948    1.0000 </r>
       <r>   -3.2566    1.0000 </r>
       <r>   -3.2494    1.0000 </r>
       <r>   -3.2164    1.0000 </r>
       <r>   -3.1887    1.0000 </r>
       <r>   -3.1781    1.0000 </r>
       <r>   -3.1573    1.0000 </r>
       <r>   -3.1434    1.0000 </r>
       <r>   -3.1384    1.0000 </r>
       <r>   -3.1249    1.0000 </r>
       <r>   -3.1082    1.0000 </r>
       <r>   -3.0964    1.0000 </r>
       <r>   -3.0153    1.0000 </r>
       <r>   -2.9920    1.0000 </r>
       <r>   -2.9835    1.0000 </r>
       <r>   -2.9679    1.0000 </r>
       <r>   -2.9637    1.0000 </r>
       <r>   -2.9539    1.0000 </r>
       <r>   -2.9229    1.0000 </r>
       <r>   -2.8347    1.0000 </r>
       <r>   -2.7918    1.0000 </r>
       <r>   -2.7759    1.0000 </r>
       <r>   -2.7496    1.0000 </r>
       <r>   -2.7423    1.0000 </r>
       <r>   -2.7157    1.0000 </r>
       <r>   -2.6952    1.0000 </r>
       <r>   -2.6545    1.0000 </r>
       <r>   -2.6437    1.0000 </r>
       <r>   -2.5759    1.0000 </r>
       <r>   -2.5349    1.0000 </r>
       <r>   -2.4984    1.0000 </r>
       <r>   -2.4744    1.0000 </r>
       <r>   -2.4543    1.0000 </r>
       <r>   -2.4342    1.0000 </r>
       <r>   -2.4166    1.0000 </r>
       <r>   -2.2841    1.0000 </r>
       <r>   -2.2573    1.0000 </r>
       <r>   -2.1884    1.0000 </r>
       <r>   -2.1697    1.0000 </r>
       <r>   -2.1247    1.0000 </r>
       <r>   -2.1103    1.0000 </r>
       <r>   -2.0694    1.0000 </r>
       <r>   -2.0570    1.0000 </r>
       <r>   -2.0513    1.0000 </r>
       <r>   -2.0498    1.0000 </r>
       <r>   -2.0094    1.0000 </r>
       <r>   -1.9911    1.0000 </r>
       <r>   -1.9478    1.0000 </r>
       <r>   -1.9431    1.0000 </r>
       <r>   -1.9319    1.0000 </r>
       <r>   -1.9081    1.0000 </r>
       <r>   -1.8852    1.0000 </r>
       <r>   -1.8797    1.0000 </r>
       <r>   -1.8564    1.0000 </r>
       <r>   -1.8360    1.0000 </r>
       <r>   -1.7399    1.0000 </r>
       <r>   -1.7027    1.0000 </r>
       <r>   -1.6967    1.0000 </r>
       <r>   -1.6382    1.0000 </r>
       <r>   -1.6086    1.0000 </r>
       <r>   -1.5059    1.0000 </r>
       <r>   -1.5032    1.0000 </r>
       <r>   -1.4145    1.0000 </r>
       <r>   -1.3997    1.0000 </r>
       <r>   -1.3557    1.0000 </r>
       <r>   -1.3010    1.0000 </r>
       <r>   -1.2343    1.0000 </r>
       <r>   -1.2224    1.0000 </r>
       <r>   -1.1708    1.0000 </r>
       <r>   -1.1619    1.0000 </r>
       <r>   -1.1373    1.0000 </r>
       <r>   -1.1230    1.0000 </r>
       <r>   -1.0959    1.0000 </r>
       <r>   -1.0664    1.0000 </r>
       <r>   -1.0311    1.0000 </r>
       <r>   -1.0230    1.0000 </r>
       <r>   -0.9668    1.0000 </r>
       <r>   -0.9270    1.0000 </r>
       <r>   -0.9126    1.0000 </r>
       <r>   -0.8725    1.0000 </r>
       <r>   -0.8544    1.0000 </r>
       <r>   -0.8490    1.0000 </r>
       <r>   -0.8407    1.0000 </r>
       <r>   -0.7822    1.0000 </r>
       <r>   -0.6985    1.0000 </r>
       <r>   -0.6564    1.0000 </r>
       <r>   -0.5933    1.0000 </r>
       <r>   -0.5801    1.0000 </r>
       <r>   -0.5686    1.0000 </r>
       <r>   -0.5499    1.0000 </r>
       <r>   -0.5061    1.0000 </r>
       <r>   -0.4586    1.0000 </r>
       <r>   -0.4488    1.0000 </r>
       <r>   -0.3803    1.0001 </r>
       <r>   -0.3639    1.0002 </r>
       <r>   -0.3500    1.0004 </r>
       <r>   -0.3381    1.0007 </r>
       <r>   -0.2947    1.0041 </r>
       <r>   -0.2653    1.0110 </r>
       <r>   -0.2512    1.0162 </r>
       <r>   -0.2264    1.0273 </r>
       <r>   -0.1240    0.8611 </r>
       <r>   -0.1149    0.8055 </r>
       <r>   -0.1012    0.7085 </r>
       <r>   -0.0880    0.6041 </r>
       <r>   -0.0840    0.5709 </r>
       <r>   -0.0786    0.5253 </r>
       <r>   -0.0563    0.3396 </r>
       <r>   -0.0432    0.2412 </r>
       <r>    0.1291   -0.0068 </r>
       <r>    0.1467   -0.0036 </r>
       <r>    0.1588   -0.0023 </r>
       <r>    0.1652   -0.0017 </r>
       <r>    0.1710   -0.0013 </r>
       <r>    0.3156   -0.0000 </r>
       <r>    0.3678   -0.0000 </r>
       <r>    0.6192   -0.0000 </r>
       <r>    0.7546   -0.0000 </r>
       <r>    0.7982   -0.0000 </r>
       <r>    0.9890   -0.0000 </r>
       <r>    1.2107   -0.0000 </r>
       <r>    1.2229   -0.0000 </r>
       <r>    1.4882   -0.0000 </r>
[...]
       <r>    6.9658    0.0000 </r>
       <r>    6.9779    0.0000 </r>
       <r>    7.1102    0.0000 </r>
       <r>    7.2211    0.0000 </r>
       <r>    7.3293    0.0000 </r>
      </set>
     </set>
    </set>
   </array>
  </eigenvalues>
  <separator name="orbital magnetization" >
   <v name="MAGDIPOLOUT">      0.00000000      0.00000000      0.00000000</v>
  </separator>
  <dos>
   <i name="efermi">     -0.07563657 </i>
   <total>
    <array>
     <dimension dim="1">gridpoints</dimension>
     <dimension dim="2">spin</dimension>
     <field>energy</field>
     <field>total</field>
     <field>integrated</field>
     <set>
      <set comment="spin 1">
       <r>    -9.9017     0.0000     0.0000 </r>
       <r>    -9.8400     0.0000     0.0000 </r>
       <r>    -9.7783     0.0000     0.0000 </r>
       <r>    -9.7166    -0.0000    -0.0000 </r>
       <r>    -9.6549    -0.0000    -0.0000 </r>
       <r>    -9.5932    -0.0000    -0.0000 </r>
       <r>    -9.5315    -0.0000    -0.0000 </r>
       <r>    -9.4698    -0.0000    -0.0000 </r>
       <r>    -9.4081    -0.0000    -0.0000 </r>
       <r>    -9.3464    -0.0000    -0.0000 </r>
       <r>    -9.2847    -0.0000    -0.0000 </r>
       <r>    -9.2230    -0.0000    -0.0000 </r>
       <r>    -9.1613    -0.0009    -0.0001 </r>
       <r>    -9.0996    -0.0102    -0.0007 </r>
       <r>    -9.0379    -0.0335    -0.0028 </r>
       <r>    -8.9762     0.0494     0.0003 </r>
       <r>    -8.9145     0.3277     0.0205 </r>
       <r>    -8.8528     0.6015     0.0576 </r>
       <r>    -8.7911     2.0217     0.1824 </r>
       <r>    -8.7294     3.8066     0.4173 </r>
       <r>    -8.6677     2.2881     0.5584 </r>
       <r>    -8.6059    -0.0044     0.5582 </r>
       <r>    -8.5442     0.1701     0.5687 </r>
       <r>    -8.4825     2.5310     0.7248 </r>
       <r>    -8.4208     3.8163     0.9603 </r>
       <r>    -8.3591     3.5656     1.1803 </r>
       <r>    -8.2974     3.7535     1.4119 </r>
       <r>    -8.2357     1.9026     1.5293 </r>
       <r>    -8.1740     0.0081     1.5298 </r>
       <r>    -8.1123    -0.3711     1.5069 </r>
       <r>    -8.0506    -0.1696     1.4965 </r>
       <r>    -7.9889     2.2776     1.6370 </r>
       <r>    -7.9272     6.3930     2.0315 </r>
       <r>    -7.8655     5.8254     2.3909 </r>
       <r>    -7.8038     1.9427     2.5108 </r>
       <r>    -7.7421     2.5017     2.6651 </r>
       <r>    -7.6804     6.5506     3.0693 </r>
       <r>    -7.6187     5.9175     3.4345 </r>
       <r>    -7.5570     1.9906     3.5573 </r>
       <r>    -7.4953     2.1477     3.6898 </r>
       <r>    -7.4336     4.0507     3.9397 </r>
       <r>    -7.3719     6.1586     4.3197 </r>
       <r>    -7.3102     7.0951     4.7575 </r>
       <r>    -7.2485     6.6385     5.1672 </r>
       <r>    -7.1868     9.4540     5.7505 </r>
       <r>    -7.1251     8.7198     6.2885 </r>
       <r>    -7.0634     5.2030     6.6096 </r>
       <r>    -7.0017     3.8796     6.8490 </r>
       <r>    -6.9400     3.2430     7.0491 </r>
       <r>    -6.8783     5.2066     7.3703 </r>
       <r>    -6.8166     8.4484     7.8916 </r>
       <r>    -6.7549     7.1324     8.3317 </r>
       <r>    -6.6932     4.0683     8.5827 </r>
       <r>    -6.6315     6.6797     8.9949 </r>
       <r>    -6.5698    13.5916     9.8335 </r>
       <r>    -6.5080    14.7731    10.7451 </r>
       <r>    -6.4463    11.7318    11.4690 </r>
       <r>    -6.3846    11.1231    12.1553 </r>
       <r>    -6.3229     8.6452    12.6887 </r>
       <r>    -6.2612     9.1647    13.2542 </r>
       <r>    -6.1995    17.8105    14.3532 </r>
       <r>    -6.1378    30.7864    16.2528 </r>
       <r>    -6.0761    37.3086    18.5548 </r>
       <r>    -6.0144    32.1143    20.5364 </r>
       <r>    -5.9527    29.3314    22.3462 </r>
       <r>    -5.8910    32.0505    24.3238 </r>
       <r>    -5.8293    36.1988    26.5574 </r>
       <r>    -5.7676    31.3644    28.4927 </r>
       <r>    -5.7059    26.1058    30.1035 </r>
       <r>    -5.6442    32.2182    32.0914 </r>
       <r>    -5.5825    39.5380    34.5310 </r>
       <r>    -5.5208    42.3801    37.1460 </r>
       <r>    -5.4591    50.3633    40.2536 </r>
       <r>    -5.3974    62.6871    44.1216 </r>
       <r>    -5.3357    64.3986    48.0952 </r>
       <r>    -5.2740    55.8293    51.5400 </r>
       <r>    -5.2123    46.1339    54.3866 </r>
       <r>    -5.1506    41.7748    56.9642 </r>
       <r>    -5.0889    48.9971    59.9875 </r>
       <r>    -5.0272    69.0738    64.2495 </r>
       <r>    -4.9655    64.3561    68.2205 </r>
       <r>    -4.9038    33.9114    70.3129 </r>
       <r>    -4.8421    23.2035    71.7447 </r>
       <r>    -4.7804    38.1570    74.0991 </r>
       <r>    -4.7187    40.7124    76.6111 </r>
       <r>    -4.6570    24.5665    78.1270 </r>
       <r>    -4.5953    23.7819    79.5944 </r>
       <r>    -4.5336    40.0796    82.0674 </r>
       <r>    -4.4718    56.1914    85.5346 </r>
       <r>    -4.4101    62.5778    89.3958 </r>
       <r>    -4.3484    54.8885    92.7826 </r>
       <r>    -4.2867    44.4416    95.5248 </r>
       <r>    -4.2250    39.1998    97.9435 </r>
       <r>    -4.1633    45.7065   100.7638 </r>
       <r>    -4.1016    60.9133   104.5223 </r>
       <r>    -4.0399    60.3159   108.2440 </r>
       <r>    -3.9782    49.6342   111.3065 </r>
       <r>    -3.9165    44.6332   114.0605 </r>
       <r>    -3.8548    41.9514   116.6491 </r>
       <r>    -3.7931    36.8359   118.9219 </r>
       <r>    -3.7314    41.3889   121.4758 </r>
       <r>    -3.6697    59.1676   125.1266 </r>
       <r>    -3.6080    62.6326   128.9912 </r>
       <r>    -3.5463    55.1669   132.3952 </r>
       <r>    -3.4846    55.5785   135.8245 </r>
       <r>    -3.4229    67.3674   139.9813 </r>
       <r>    -3.3612    76.5328   144.7036 </r>
       <r>    -3.2995    71.9291   149.1418 </r>
       <r>    -3.2378    65.0838   153.1577 </r>
       <r>    -3.1761    70.7265   157.5217 </r>
       <r>    -3.1144    87.1530   162.8993 </r>
       <r>    -3.0527    86.3326   168.2263 </r>
       <r>    -2.9910    78.1087   173.0459 </r>
       <r>    -2.9293    79.2342   177.9348 </r>
       <r>    -2.8676    75.0741   182.5671 </r>
       <r>    -2.8059    83.2053   187.7011 </r>
       <r>    -2.7442   102.0026   193.9950 </r>
       <r>    -2.6825   104.3221   200.4320 </r>
       <r>    -2.6208    85.1915   205.6886 </r>
       <r>    -2.5591    63.2045   209.5885 </r>
       <r>    -2.4974    62.6595   213.4548 </r>
       <r>    -2.4357    61.9057   217.2745 </r>
       <r>    -2.3739    45.8239   220.1020 </r>
       <r>    -2.3122    30.0431   221.9557 </r>
       <r>    -2.2505    24.1633   223.4467 </r>
       <r>    -2.1888    29.5932   225.2727 </r>
       <r>    -2.1271    42.8993   227.9197 </r>
       <r>    -2.0654    62.6939   231.7881 </r>
       <r>    -2.0037    85.8742   237.0868 </r>
       <r>    -1.9420    92.8611   242.8166 </r>
       <r>    -1.8803    82.1665   247.8865 </r>
       <r>    -1.8186    62.4410   251.7393 </r>
       <r>    -1.7569    44.5784   254.4899 </r>
       <r>    -1.6952    41.5439   257.0533 </r>
       <r>    -1.6335    47.2311   259.9676 </r>
       <r>    -1.5718    57.0380   263.4870 </r>
       <r>    -1.5101    58.4525   267.0937 </r>
       <r>    -1.4484    52.5716   270.3375 </r>
       <r>    -1.3867    57.5511   273.8886 </r>
       <r>    -1.3250    61.3047   277.6713 </r>
       <r>    -1.2633    52.1443   280.8887 </r>
       <r>    -1.2016    53.4496   284.1867 </r>
       <r>    -1.1399    72.6955   288.6723 </r>
       <r>    -1.0782    84.9514   293.9140 </r>
       <r>    -1.0165    85.9496   299.2174 </r>
       <r>    -0.9548    72.6527   303.7003 </r>
       <r>    -0.8931    57.7979   307.2666 </r>
       <r>    -0.8314    56.7624   310.7690 </r>
       <r>    -0.7697    52.4890   314.0077 </r>
       <r>    -0.7080    43.0738   316.6655 </r>
       <r>    -0.6463    49.5427   319.7224 </r>
       <r>    -0.5846    62.3000   323.5665 </r>
       <r>    -0.5229    60.5072   327.3000 </r>
       <r>    -0.4612    58.8047   330.9284 </r>
       <r>    -0.3995    67.9844   335.1232 </r>
       <r>    -0.3378    87.0565   340.4949 </r>
       <r>    -0.2760    95.8460   346.4089 </r>
       <r>    -0.2143    74.0892   350.9804 </r>
       <r>    -0.1526    55.5202   354.4062 </r>
       <r>    -0.0909    81.7657   359.4514 </r>
       <r>    -0.0292    97.9221   365.4934 </r>
       <r>     0.0325    59.9683   369.1937 </r>
       <r>     0.0942    32.4370   371.1951 </r>
       <r>     0.1559    49.4719   374.2477 </r>
       <r>     0.2176    56.9699   377.7629 </r>
       <r>     0.2793    44.4441   380.5052 </r>
       <r>     0.3410    39.1906   382.9234 </r>
       <r>     0.4027    28.7426   384.6969 </r>
       <r>     0.4644    14.0470   385.5637 </r>
       <r>     0.5261     4.2402   385.8253 </r>
       <r>     0.5878     1.2151   385.9003 </r>
       <r>     0.6495     4.0829   386.1522 </r>
       <r>     0.7112    11.0638   386.8349 </r>
       <r>     0.7729    16.9420   387.8802 </r>
       <r>     0.8346    13.1537   388.6919 </r>
       <r>     0.8963     7.6321   389.1628 </r>
       <r>     0.9580    10.1972   389.7920 </r>
       <r>     1.0197    10.3857   390.4328 </r>
       <r>     1.0814     3.1512   390.6272 </r>
       <r>     1.1431     1.3699   390.7118 </r>
       <r>     1.2048     9.4632   391.2957 </r>
       <r>     1.2665    15.0318   392.2232 </r>
       <r>     1.3282    13.3171   393.0449 </r>
       <r>     1.3899    10.7948   393.7110 </r>
       <r>     1.4516    13.5321   394.5459 </r>
       <r>     1.5133    25.1508   396.0978 </r>
       <r>     1.5750    26.9630   397.7615 </r>
       <r>     1.6367    18.7972   398.9214 </r>
       <r>     1.6984    15.5797   399.8827 </r>
       <r>     1.7602    11.3301   400.5818 </r>
       <r>     1.8219     3.1267   400.7747 </r>
       <r>     1.8836     1.3284   400.8567 </r>
       <r>     1.9453     3.9705   401.1017 </r>
       <r>     2.0070     6.1580   401.4816 </r>
       <r>     2.0687     6.5428   401.8853 </r>
       <r>     2.1304     5.0336   402.1959 </r>
       <r>     2.1921     8.0186   402.6907 </r>
       <r>     2.2538    11.3770   403.3927 </r>
       <r>     2.3155    10.6776   404.0515 </r>
       <r>     2.3772    13.7568   404.9004 </r>
       <r>     2.4389    20.5730   406.1698 </r>
       <r>     2.5006    21.5466   407.4993 </r>
       <r>     2.5623    12.8621   408.2929 </r>
       <r>     2.6240     6.7221   408.7077 </r>
       <r>     2.6857     6.3212   409.0977 </r>
       <r>     2.7474     9.7498   409.6993 </r>
       <r>     2.8091    18.1163   410.8171 </r>
       <r>     2.8708    19.6538   412.0298 </r>
       <r>     2.9325    13.6731   412.8735 </r>
       <r>     2.9942     8.2007   413.3795 </r>
       <r>     3.0559    10.4174   414.0223 </r>
       <r>     3.1176    14.2705   414.9028 </r>
       <r>     3.1793    11.6851   415.6238 </r>
       <r>     3.2410     9.9488   416.2377 </r>
       <r>     3.3027     8.7483   416.7775 </r>
       <r>     3.3644     3.9242   417.0196 </r>
       <r>     3.4261     0.1253   417.0274 </r>
       <r>     3.4878     2.6607   417.1915 </r>
       <r>     3.5495    10.6338   417.8477 </r>
       <r>     3.6112    19.4127   419.0455 </r>
       <r>     3.6729    24.9890   420.5874 </r>
       <r>     3.7346    22.4998   421.9757 </r>
       <r>     3.7963    13.1946   422.7898 </r>
       <r>     3.8581     5.6024   423.1355 </r>
       <r>     3.9198     3.2360   423.3352 </r>
       <r>     3.9815     3.4010   423.5450 </r>
       <r>     4.0432     4.0638   423.7958 </r>
       <r>     4.1049     6.5360   424.1991 </r>
       <r>     4.1666     8.9166   424.7493 </r>
       <r>     4.2283     7.9287   425.2385 </r>
       <r>     4.2900     5.5226   425.5792 </r>
       <r>     4.3517    10.3411   426.2173 </r>
       <r>     4.4134    23.0922   427.6422 </r>
       <r>     4.4751    22.8157   429.0500 </r>
       <r>     4.5368     9.7245   429.6500 </r>
       <r>     4.5985     6.8874   430.0750 </r>
       <r>     4.6602    11.9553   430.8127 </r>
       <r>     4.7219    14.9546   431.7354 </r>
       <r>     4.7836    13.2464   432.5527 </r>
       <r>     4.8453     8.6016   433.0835 </r>
       <r>     4.9070     6.1645   433.4639 </r>
       <r>     4.9687     8.7117   434.0014 </r>
       <r>     5.0304     9.9556   434.6157 </r>
       <r>     5.0921     5.7259   434.9690 </r>
       <r>     5.1538     6.7578   435.3860 </r>
       <r>     5.2155    12.4713   436.1555 </r>
       <r>     5.2772    14.4459   437.0469 </r>
       <r>     5.3389    11.6802   437.7676 </r>
       <r>     5.4006     9.5189   438.3549 </r>
       <r>     5.4623    14.1394   439.2273 </r>
       <r>     5.5240    21.3966   440.5476 </r>
       <r>     5.5857    25.2265   442.1041 </r>
       <r>     5.6474    24.4162   443.6107 </r>
       <r>     5.7091    22.6872   445.0106 </r>
       <r>     5.7708    20.3319   446.2651 </r>
       <r>     5.8325    17.7029   447.3574 </r>
       <r>     5.8943    16.3137   448.3640 </r>
       <r>     5.9560    22.1324   449.7297 </r>
       <r>     6.0177    32.3688   451.7269 </r>
       <r>     6.0794    29.3969   453.5408 </r>
       <r>     6.1411    13.6712   454.3843 </r>
       <r>     6.2028     9.3436   454.9609 </r>
       <r>     6.2645    20.1373   456.2034 </r>
       <r>     6.3262    32.1315   458.1860 </r>
       <r>     6.3879    28.5062   459.9449 </r>
       <r>     6.4496    15.3278   460.8907 </r>
       <r>     6.5113    14.5844   461.7906 </r>
       <r>     6.5730    23.2365   463.2244 </r>
       <r>     6.6347    27.6904   464.9329 </r>
       <r>     6.6964    28.0858   466.6659 </r>
       <r>     6.7581    27.2065   468.3446 </r>
       <r>     6.8198    19.2077   469.5298 </r>
       <r>     6.8815    10.7261   470.1917 </r>
       <r>     6.9432    11.6373   470.9097 </r>
       <r>     7.0049    15.6957   471.8782 </r>
       <r>     7.0666    18.2089   473.0017 </r>
       <r>     7.1283    21.8226   474.3482 </r>
       <r>     7.1900    24.1611   475.8391 </r>
       <r>     7.2517    22.5290   477.2292 </r>
       <r>     7.3134    14.4020   478.1178 </r>
       <r>     7.3751     5.5345   478.4593 </r>
       <r>     7.4368     2.4553   478.6108 </r>
       <r>     7.4985     4.4452   478.8851 </r>
       <r>     7.5602     6.9043   479.3111 </r>
       <r>     7.6219     7.4478   479.7706 </r>
       <r>     7.6836     3.8402   480.0076 </r>
       <r>     7.7453     0.2669   480.0241 </r>
       <r>     7.8070    -0.3080   480.0051 </r>
       <r>     7.8687    -0.0755   480.0004 </r>
       <r>     7.9304    -0.0062   480.0000 </r>
       <r>     7.9922    -0.0002   480.0000 </r>
       <r>     8.0539    -0.0000   480.0000 </r>
       <r>     8.1156    -0.0000   480.0000 </r>
       <r>     8.1773    -0.0000   480.0000 </r>
       <r>     8.2390    -0.0000   480.0000 </r>
       <r>     8.3007     0.0000   480.0000 </r>
       <r>     8.3624     0.0000   480.0000 </r>
       <r>     8.4241     0.0000   480.0000 </r>
       <r>     8.4858     0.0000   480.0000 </r>
       <r>     8.5475     0.0000   480.0000 </r>
       <r>     8.6092     0.0000   480.0000 </r>
      </set>
     </set>
    </array>
   </total>
  </dos>
 </calculation>
 <structure name="finalpos" >
  <crystal>
   <varray name="basis" >
    <v>       8.46831000       0.00000000       0.00000000 </v>
    <v>       4.23415500       7.33377159       0.00000000 </v>
    <v>       0.00000000       0.00000000      24.96566199 </v>
   </varray>
   <i name="volume">   1550.48373159 </i>
   <varray name="rec_basis" >
    <v>       0.11808732      -0.06817774       0.00000000 </v>
    <v>       0.00000000       0.13635549       0.00000000 </v>
    <v>       0.00000000       0.00000000       0.04005502 </v>
   </varray>
  </crystal>
  <varray name="positions" >
   <v>       0.00000000       0.00000000       0.34046764 </v>
   <v>       0.33400137       0.00000000       0.34046764 </v>
   <v>       0.66800274       0.00000000       0.34046764 </v>
   <v>       0.00000000       0.33400137       0.34046764 </v>
   <v>       0.33400137       0.33400137       0.34046764 </v>
   <v>       0.66800274       0.33400137       0.34046764 </v>
   <v>       0.00000000       0.66800274       0.34046764 </v>
   <v>       0.33400137       0.66800274       0.34046764 </v>
   <v>       0.66800274       0.66800274       0.34046764 </v>
   <v>       0.11133379       0.11133379       0.43297074 </v>
   <v>       0.44533516       0.11133379       0.43297074 </v>
   <v>       0.77933653       0.11133379       0.43297074 </v>
   <v>       0.11133379       0.44533516       0.43297074 </v>
   <v>       0.44533516       0.44533516       0.43297074 </v>
   <v>       0.77933653       0.44533516       0.43297074 </v>
   <v>       0.11133379       0.77933653       0.43297074 </v>
   <v>       0.44533516       0.77933653       0.43297074 </v>
   <v>       0.77933653       0.77933653       0.43297074 </v>
   <v>       0.89097698       0.22398958       0.52507526 </v>
   <v>       0.22340070       0.22345913       0.52547312 </v>
   <v>       0.55731104       0.22357863       0.52413824 </v>
   <v>       0.89108275       0.55572900       0.52510128 </v>
   <v>       0.22356168       0.55731672       0.52414432 </v>
   <v>       0.55718613       0.55724780       0.52426484 </v>
   <v>       0.89034361       0.89038375       0.52447505 </v>
   <v>       0.22393178       0.89100440       0.52507710 </v>
   <v>       0.55569312       0.89112619       0.52509944 </v>
   <v>       0.99927243       0.99933108       0.61809559 </v>
   <v>       0.33968252       0.99989164       0.62049445 </v>
   <v>       0.66876589       0.00253005       0.61784656 </v>
   <v>       0.99983596       0.33972097       0.62049701 </v>
   <v>       0.33726636       0.33735776       0.61741088 </v>
   <v>       0.66763108       0.33605564       0.61753409 </v>
   <v>       0.00246169       0.66882880       0.61784846 </v>
   <v>       0.33599403       0.66771295       0.61754330 </v>
   <v>       0.66874266       0.66880259       0.61780612 </v>
   <v>       0.13981023       0.13983035       0.65837106 </v>
  </varray>
  <varray name="selective"  type="logical" >
   <v type="logical" >  F  F  F </v>
   <v type="logical" >  F  F  F </v>
   <v type="logical" >  F  F  F </v>
   <v type="logical" >  F  F  F </v>
   <v type="logical" >  F  F  F </v>
   <v type="logical" >  F  F  F </v>
   <v type="logical" >  F  F  F </v>
   <v type="logical" >  F  F  F </v>
   <v type="logical" >  F  F  F </v>
   <v type="logical" >  F  F  F </v>
   <v type="logical" >  F  F  F </v>
   <v type="logical" >  F  F  F </v>
   <v type="logical" >  F  F  F </v>
   <v type="logical" >  F  F  F </v>
   <v type="logical" >  F  F  F </v>
   <v type="logical" >  F  F  F </v>
   <v type="logical" >  F  F  F </v>
   <v type="logical" >  F  F  F </v>
   <v type="logical" >  T  T  T </v>
   <v type="logical" >  T  T  T </v>
   <v type="logical" >  T  T  T </v>
   <v type="logical" >  T  T  T </v>
   <v type="logical" >  T  T  T </v>
   <v type="logical" >  T  T  T </v>
   <v type="logical" >  T  T  T </v>
   <v type="logical" >  T  T  T </v>
   <v type="logical" >  T  T  T </v>
   <v type="logical" >  T  T  T </v>
   <v type="logical" >  T  T  T </v>
   <v type="logical" >  T  T  T </v>
   <v type="logical" >  T  T  T </v>
   <v type="logical" >  T  T  T </v>
   <v type="logical" >  T  T  T </v>
   <v type="logical" >  T  T  T </v>
   <v type="logical" >  T  T  T </v>
   <v type="logical" >  T  T  T </v>
   <v type="logical" >  T  T  T </v>
  </varray>
  <nose>
   <v>      -3.00000000       0.00000000       0.00010000       0.00010000 </v>
  </nose>
 </structure>
</modeling>
