unknown system                          
           1
     8.468310    0.000000    0.000000
     4.234155    7.333772    0.000000
     0.000000    0.000000   24.965662
   Pt   H 
    36     1
Direct configuration=     1
   0.00000000  0.00000000  0.34046764
   0.33400137  0.00000000  0.34046764
   0.66800274  0.00000000  0.34046764
   0.00000000  0.33400137  0.34046764
   0.33400137  0.33400137  0.34046764
   0.66800274  0.33400137  0.34046764
   0.00000000  0.66800274  0.34046764
   0.33400137  0.66800274  0.34046764
   0.66800274  0.66800274  0.34046764
   0.11133379  0.11133379  0.43297074
   0.44533516  0.11133379  0.43297074
   0.77933653  0.11133379  0.43297074
   0.11133379  0.44533516  0.43297074
   0.44533516  0.44533516  0.43297074
   0.77933653  0.44533516  0.43297074
   0.11133379  0.77933653  0.43297074
   0.44533516  0.77933653  0.43297074
   0.77933653  0.77933653  0.43297074
   0.89097698  0.22398958  0.52507526
   0.22340070  0.22345913  0.52547312
   0.55731104  0.22357863  0.52413824
   0.89108275  0.55572900  0.52510128
   0.22356168  0.55731672  0.52414432
   0.55718613  0.55724780  0.52426484
   0.89034361  0.89038375  0.52447505
   0.22393178  0.89100440  0.52507710
   0.55569312  0.89112619  0.52509944
   0.99927243  0.99933108  0.61809559
   0.33968252  0.99989164  0.62049445
   0.66876589  0.00253005  0.61784656
   0.99983596  0.33972097  0.62049701
   0.33726636  0.33735776  0.61741088
   0.66763108  0.33605564  0.61753409
   0.00246169  0.66882880  0.61784846
   0.33599403  0.66771295  0.61754330
   0.66874266  0.66880259  0.61780612
   0.13981023  0.13983035  0.65837106
