
     Program PWSCF v.7.1 starts on  9Dec2025 at 15: 8:46 
        Git branch: heads/qe-7.1
        Last git commit: 48ba0178f8fede6d020eb786884699a9f063f55d-dirty
        Last git commit date: Fri Jan 27 14:22:33 2023 +0000
        Last git commit subject: Merge branch 'fix_hubbard' into 'develop'

     This program is part of the open-source Quantum ESPRESSO suite
     for quantum simulation of materials; please cite
         "P. Giannozzi et al., J. Phys.:Condens. Matter 21 395502 (2009);
         "P. Giannozzi et al., J. Phys.:Condens. Matter 29 465901 (2017);
         "P. Giannozzi et al., J. Chem. Phys. 152 154105 (2020);
          URL http://www.quantum-espresso.org", 
     in publications or presentations arising from this work. More details at
     http://www.quantum-espresso.org/quote

     Parallel version (MPI), running on    96 processors

     MPI processes distributed on     2 nodes
     71390 MiB available memory on the printing compute node when the environment starts

     Reading input from espresso.pwi
Warning: card &CELL ignored
Warning: card / ignored
Warning: card &FCP ignored
Warning: card / ignored
Warning: card &RISM ignored
Warning: card / ignored

     Current dimensions of program PWSCF are:
     Max number of different atomic species (ntypx) = 10
     Max number of k-points (npk) =  40000
     Max angular momentum in pseudopotentials (lmaxx) =  4
     file Co.pbe-n-kjpaw_psl.1.0.0.UPF: wavefunction(s)  4S 3D renormalized
     file C.pbe-n-kjpaw_psl.1.0.0.UPF: wavefunction(s)  2S 2P renormalized
     file O.pbe-nl-kjpaw_psl.1.0.0.UPF: wavefunction(s)  2S 2P renormalized
     file H.pbe-kjpaw_psl.1.0.0.UPF: wavefunction(s)  1S renormalized

     **************************************************************************
     Initializing libbeef V0.1.2 with the BEEF-vdW functional.
     Citation: Wellendorff et al., PRB 85, 235149 (2012).
     **************************************************************************


     IMPORTANT: XC functional enforced from input :
     Exchange-correlation= BEEF-VDW
                           (   1   4  43  14   2   0   0)
     Any further DFT definition will be discarded
     Please, verify this is what you really want


     R & G space division:  proc/nbgrp/npool/nimage =      96
     Subspace diagonalization in iterative solution of the eigenvalue problem:
     one sub-group per band group will be used
     custom distributed-memory algorithm (size of sub-group:  2*  2 procs)


     Parallelization info
     --------------------
     sticks:   dense  smooth     PW     G-vecs:    dense   smooth      PW
     Min          43      28      7                 7829     4248     595
     Max          44      29      8                 7845     4281     630
     Sum        4153    2773    757               752179   409445   59217

     Using Slab Decomposition



     bravais-lattice index     =            0
     lattice parameter (alat)  =      14.1729  a.u.
     unit-cell volume          =    8574.3059 (a.u.)^3
     number of atoms/cell      =           39
     number of atomic types    =            4
     number of electrons       =       335.00
     number of Kohn-Sham states=          202
     kinetic-energy cutoff     =      50.0000  Ry
     charge density cutoff     =     300.0000  Ry
     scf convergence threshold =      1.0E-08
     mixing beta               =       0.7000
     number of iterations used =            8  local-TF  mixing
     Exchange-correlation= BEEF-VDW
                           (   1   4  43  14   2   0   0)

     celldm(1)=  14.172946  celldm(2)=   0.000000  celldm(3)=   0.000000
     celldm(4)=   0.000000  celldm(5)=   0.000000  celldm(6)=   0.000000

     crystal axes: (cart. coord. in units of alat)
               a(1) = (   1.000000   0.000000   0.000000 )  
               a(2) = (   0.500000   0.866025   0.000000 )  
               a(3) = (   0.000000   0.000000   3.477667 )  

     reciprocal axes: (cart. coord. in units 2 pi/alat)
               b(1) = (  1.000000 -0.577350  0.000000 )  
               b(2) = (  0.000000  1.154701  0.000000 )  
               b(3) = (  0.000000  0.000000  0.287549 )  


     PseudoPot. # 1 for Co read from file:
     /users/kbadger1/espresso/pseudo/pslibrary.1.0.0/pbe/PSEUDOPOTENTIALS/Co.pbe-n-kjpaw_psl.1.0.0.UPF
     MD5 check sum: 88af6ec42553d4236c267fdfcb472151
     Pseudo is Projector augmented-wave + core cor, Zval =  9.0
     Generated using 'atomic' code by A. Dal Corso  v.7.0
     Shape of augmentation charge: PSQ
     Using radial grid of 1193 points,  6 beta functions with: 
                l(1) =   0
                l(2) =   0
                l(3) =   1
                l(4) =   1
                l(5) =   2
                l(6) =   2
     Q(r) pseudized with 0 coefficients 


     PseudoPot. # 2 for C  read from file:
     /users/kbadger1/espresso/pseudo/pslibrary.1.0.0/pbe/PSEUDOPOTENTIALS/C.pbe-n-kjpaw_psl.1.0.0.UPF
     MD5 check sum: 6408e75cdba28732cea38a4db8498ce4
     Pseudo is Projector augmented-wave + core cor, Zval =  4.0
     Generated using 'atomic' code by A. Dal Corso  v.7.0
     Shape of augmentation charge: PSQ
     Using radial grid of 1073 points,  4 beta functions with: 
                l(1) =   0
                l(2) =   0
                l(3) =   1
                l(4) =   1
     Q(r) pseudized with 0 coefficients 


     PseudoPot. # 3 for O  read from file:
     /users/kbadger1/espresso/pseudo/pslibrary.1.0.0/pbe/PSEUDOPOTENTIALS/O.pbe-nl-kjpaw_psl.1.0.0.UPF
     MD5 check sum: f0439fab3598ca4e468f064226030408
     Pseudo is Projector augmented-wave + core cor, Zval =  6.0
     Generated using 'atomic' code by A. Dal Corso  v.7.0
     Shape of augmentation charge: PSQ
     Using radial grid of 1095 points,  4 beta functions with: 
                l(1) =   0
                l(2) =   0
                l(3) =   1
                l(4) =   1
     Q(r) pseudized with 0 coefficients 


     PseudoPot. # 4 for H  read from file:
     /users/kbadger1/espresso/pseudo/pslibrary.1.0.0/pbe/PSEUDOPOTENTIALS/H.pbe-kjpaw_psl.1.0.0.UPF
     MD5 check sum: fe4c6fa958fa6d3815bf5d2419cbf1df
     Pseudo is Projector augmented-wave, Zval =  1.0
     Generated using 'atomic' code by A. Dal Corso  v.7.0
     Shape of augmentation charge: PSQ
     Using radial grid of  929 points,  2 beta functions with: 
                l(1) =   0
                l(2) =   0
     Q(r) pseudized with 0 coefficients 


     atomic species   valence    mass     pseudopotential
        Co             9.00    58.93319     Co( 1.00)
        C              4.00    12.01100     C ( 1.00)
        O              6.00    15.99900     O ( 1.00)
        H              1.00     1.00800     H ( 1.00)

     Starting magnetic structure 
     atomic species   magnetization
        Co           1.000
        C            1.000
        O            0.000
        H            0.000

     No symmetry found



   Cartesian axes

     site n.     atom                  positions (alat units)
         1           Co  tau(   1) = (   0.0000000   0.1924501   1.3333333  )
         2           Co  tau(   2) = (   0.3333333   0.1924501   1.3333333  )
         3           Co  tau(   3) = (   0.6666667   0.1924501   1.3333333  )
         4           Co  tau(   4) = (   0.1666667   0.4811252   1.3333333  )
         5           Co  tau(   5) = (   0.5000000   0.4811252   1.3333333  )
         6           Co  tau(   6) = (   0.8333333   0.4811252   1.3333333  )
         7           Co  tau(   7) = (   0.3333333   0.7698004   1.3333333  )
         8           Co  tau(   8) = (   0.6666667   0.7698004   1.3333333  )
         9           Co  tau(   9) = (   1.0000000   0.7698004   1.3333333  )
        10           Co  tau(  10) = (   0.0000000   0.0000000   1.6036667  )
        11           Co  tau(  11) = (   0.3333333   0.0000000   1.6036667  )
        12           Co  tau(  12) = (   0.6666667   0.0000000   1.6036667  )
        13           Co  tau(  13) = (   0.1666667   0.2886751   1.6036667  )
        14           Co  tau(  14) = (   0.5000000   0.2886751   1.6036667  )
        15           Co  tau(  15) = (   0.8333333   0.2886751   1.6036667  )
        16           Co  tau(  16) = (   0.3333333   0.5773503   1.6036667  )
        17           Co  tau(  17) = (   0.6666667   0.5773503   1.6036667  )
        18           Co  tau(  18) = (   1.0000000   0.5773503   1.6036667  )
        19           Co  tau(  19) = (   0.0000000   0.1924501   1.8740000  )
        20           Co  tau(  20) = (   0.3333333   0.1924501   1.8740000  )
        21           Co  tau(  21) = (   0.6666667   0.1924501   1.8740000  )
        22           Co  tau(  22) = (   0.1666667   0.4811252   1.8740000  )
        23           Co  tau(  23) = (   0.5000000   0.4811252   1.8740000  )
        24           Co  tau(  24) = (   0.8333333   0.4811252   1.8740000  )
        25           Co  tau(  25) = (   0.3333333   0.7698004   1.8740000  )
        26           Co  tau(  26) = (   0.6666667   0.7698004   1.8740000  )
        27           Co  tau(  27) = (   1.0000000   0.7698004   1.8740000  )
        28           Co  tau(  28) = (   0.0000000   0.0000000   2.1443333  )
        29           Co  tau(  29) = (   0.3333333   0.0000000   2.1443333  )
        30           Co  tau(  30) = (   0.6666667   0.0000000   2.1443333  )
        31           Co  tau(  31) = (   0.1666667   0.2886751   2.1443333  )
        32           Co  tau(  32) = (   0.5000000   0.2886751   2.1443333  )
        33           Co  tau(  33) = (   0.8333333   0.2886751   2.1443333  )
        34           Co  tau(  34) = (   0.3333333   0.5773503   2.1443333  )
        35           Co  tau(  35) = (   0.6666667   0.5773503   2.1443333  )
        36           Co  tau(  36) = (   1.0000000   0.5773503   2.1443333  )
        37           C   tau(  37) = (   0.2362806  -0.0097966   2.3733595  )
        38           O   tau(  38) = (   0.0759244   0.0074967   2.4201595  )
        39           H   tau(  39) = (   0.3360532  -0.0340517   2.4789042  )

     number of k points=    13  Marzari-Vanderbilt smearing, width (Ry)=  0.0010
                       cart. coord. in units 2pi/alat
        k(    1) = (   0.0000000   0.0000000   0.0000000), wk =   0.0400000
        k(    2) = (   0.0000000   0.2309401   0.0000000), wk =   0.0800000
        k(    3) = (   0.0000000   0.4618802   0.0000000), wk =   0.0800000
        k(    4) = (   0.2000000  -0.1154701   0.0000000), wk =   0.0800000
        k(    5) = (   0.2000000   0.1154701   0.0000000), wk =   0.0800000
        k(    6) = (   0.2000000   0.3464102   0.0000000), wk =   0.0800000
        k(    7) = (   0.2000000  -0.5773503   0.0000000), wk =   0.0800000
        k(    8) = (   0.2000000  -0.3464102   0.0000000), wk =   0.0800000
        k(    9) = (   0.4000000  -0.2309401   0.0000000), wk =   0.0800000
        k(   10) = (   0.4000000   0.0000000   0.0000000), wk =   0.0800000
        k(   11) = (   0.4000000   0.2309401   0.0000000), wk =   0.0800000
        k(   12) = (   0.4000000  -0.6928203   0.0000000), wk =   0.0800000
        k(   13) = (   0.4000000  -0.4618802   0.0000000), wk =   0.0800000

     Dense  grid:   752179 G-vectors     FFT dimensions: (  80,  80, 288)

     Smooth grid:   409445 G-vectors     FFT dimensions: (  64,  64, 225)

     Estimated max dynamical RAM per process >      99.02 MB

     Estimated total dynamical RAM >       9.28 GB
     Generating pointlists ...
     new r_m :   0.1027 (alat units)  1.4554 (a.u.) for type    1
     new r_m :   0.0607 (alat units)  0.8609 (a.u.) for type    2
     new r_m :   0.0693 (alat units)  0.9818 (a.u.) for type    3
     new r_m :   0.0607 (alat units)  0.8609 (a.u.) for type    4

     Initial potential from superposition of free atoms

     starting charge     334.9897, renormalised to     335.0000

     negative rho (up, down):  2.989E-03 4.714E-04


     %%%%%%%%%%%%%%%%%%%%%%%%%%%%%%%%%%%%%%%%%%%%%%%%%%%%%%%%%%%%%%%%%%%%%%%%
     %                                                                      %
     % You are using vdW-DF, which was implemented by the Thonhauser group. %
     % Please cite the following two papers that made this development      %
     % possible and the two reviews that describe the various versions:     %
     %                                                                      %
     %   T. Thonhauser et al., PRL 115, 136402 (2015).                      %
     %   T. Thonhauser et al., PRB 76, 125112 (2007).                       %
     %   K. Berland et al., Rep. Prog. Phys. 78, 066501 (2015).             %
     %   D.C. Langreth et al., J. Phys.: Condens. Matter 21, 084203 (2009). %
     %                                                                      %
     % If you are calculating stress with vdW-DF, please also cite:         %
     %                                                                      %
     %   R. Sabatini et al., J. Phys.: Condens. Matter 24, 424209 (2012).   %
     %   C.M. Frostenson et al., Electr. Struct. 4, 014001 (2022).          %
     %                                                                      %
     %%%%%%%%%%%%%%%%%%%%%%%%%%%%%%%%%%%%%%%%%%%%%%%%%%%%%%%%%%%%%%%%%%%%%%%%

     %%%%%%%%%%%%%%%%%%%%%%%%%%%%%%%%%%%%%%%%%%%%%%%%%%%%%%%%%%%%%%%%%%%%%%%%
     %                                                                      %
     %  vdW-DF NEWS:                                                        %
     %                                                                      %
     %  * vdW-DF3 is now available. DOI: 10.1021/acs.jctc.0c00471           %
     %    use with input_dft = 'vdW-DF3-opt1' or 'vdW-DF3-opt2'             %
     %                                                                      %
     %  * Unscreened and range-separated hybrid vdW-DF-cx functionals       %
     %    DOI: 10.1063/1.4986522 and 10.1088/1361-648X/ac2ad2               %
     %    use with input_dft = 'vdW-DF-cx0'    and 'vdW-DF-ahcx'            %
     %  * Unscreened and range-separated hybrid vdW-DF2-b86r functionals    %
     %    DOI: 10.1063/1.4986522 and DOI: 10.1103/PhysRevX.12.041003        %
     %    use with input_dft = 'vdW-DF2-br0' and 'vdW-DF2-ahbr'             %
     %                                                                      %
     %%%%%%%%%%%%%%%%%%%%%%%%%%%%%%%%%%%%%%%%%%%%%%%%%%%%%%%%%%%%%%%%%%%%%%%%


     Starting wfcs are  333 randomized atomic wfcs
     Checking if some PAW data can be deallocated... 

     total cpu time spent up to now is       16.5 secs

     per-process dynamical memory:   231.9 Mb

     Self-consistent Calculation

     iteration #  1     ecut=    50.00 Ry     beta= 0.70
     Davidson diagonalization with overlap
     ethr =  1.00E-02,  avg # of iterations =  2.0

     negative rho (up, down):  2.291E-05 4.105E-08

     total cpu time spent up to now is       34.4 secs

     total energy              =   -6053.05816447 Ry
     estimated scf accuracy    <      39.81534733 Ry

     total magnetization       =    69.00 Bohr mag/cell
     absolute magnetization    =    81.21 Bohr mag/cell

     iteration #  2     ecut=    50.00 Ry     beta= 0.70
     Davidson diagonalization with overlap
     ethr =  1.00E-02,  avg # of iterations =  1.0

     negative rho (up, down):  2.369E-06 2.950E-09

     total cpu time spent up to now is       52.9 secs

     total energy              =   -6052.44940328 Ry
     estimated scf accuracy    <      25.55679737 Ry

     total magnetization       =    68.84 Bohr mag/cell
     absolute magnetization    =    76.73 Bohr mag/cell

     iteration #  3     ecut=    50.00 Ry     beta= 0.70
     Davidson diagonalization with overlap
     ethr =  7.63E-03,  avg # of iterations =  1.0

     total cpu time spent up to now is       66.6 secs

     total energy              =   -6055.15818381 Ry
     estimated scf accuracy    <      84.51962086 Ry

     total magnetization       =    66.13 Bohr mag/cell
     absolute magnetization    =    73.31 Bohr mag/cell

     iteration #  4     ecut=    50.00 Ry     beta= 0.70
     Davidson diagonalization with overlap
     ethr =  7.63E-03,  avg # of iterations =  1.0

     total cpu time spent up to now is       85.5 secs

     total energy              =   -6056.34982666 Ry
     estimated scf accuracy    <       5.72072520 Ry

     total magnetization       =    60.77 Bohr mag/cell
     absolute magnetization    =    70.58 Bohr mag/cell

     iteration #  5     ecut=    50.00 Ry     beta= 0.70
     Davidson diagonalization with overlap
     ethr =  1.71E-03,  avg # of iterations =  1.3

     total cpu time spent up to now is      103.4 secs

     total energy              =   -6056.37190546 Ry
     estimated scf accuracy    <       3.47814254 Ry

     total magnetization       =    60.46 Bohr mag/cell
     absolute magnetization    =    69.88 Bohr mag/cell

     iteration #  6     ecut=    50.00 Ry     beta= 0.70
     Davidson diagonalization with overlap
     ethr =  1.04E-03,  avg # of iterations =  1.4

     total cpu time spent up to now is      117.8 secs

     total energy              =   -6056.48193169 Ry
     estimated scf accuracy    <       0.55057463 Ry

     total magnetization       =    60.44 Bohr mag/cell
     absolute magnetization    =    69.66 Bohr mag/cell

     iteration #  7     ecut=    50.00 Ry     beta= 0.70
     Davidson diagonalization with overlap
     ethr =  1.64E-04,  avg # of iterations =  6.4

     total cpu time spent up to now is      141.9 secs

     total energy              =   -6056.51476301 Ry
     estimated scf accuracy    <       0.80702866 Ry

     total magnetization       =    60.67 Bohr mag/cell
     absolute magnetization    =    69.48 Bohr mag/cell

     iteration #  8     ecut=    50.00 Ry     beta= 0.70
     Davidson diagonalization with overlap
     ethr =  1.64E-04,  avg # of iterations =  2.2

     total cpu time spent up to now is      156.2 secs

     total energy              =   -6056.53242112 Ry
     estimated scf accuracy    <       0.17492250 Ry

     total magnetization       =    60.88 Bohr mag/cell
     absolute magnetization    =    69.45 Bohr mag/cell

     iteration #  9     ecut=    50.00 Ry     beta= 0.70
     Davidson diagonalization with overlap
     c_bands:  1 eigenvalues not converged
     c_bands:  1 eigenvalues not converged
     c_bands:  1 eigenvalues not converged
     c_bands:  1 eigenvalues not converged
     ethr =  5.22E-05,  avg # of iterations = 10.1

     total cpu time spent up to now is      184.3 secs

     total energy              =   -6056.54177698 Ry
     estimated scf accuracy    <       0.15271094 Ry

     total magnetization       =    61.16 Bohr mag/cell
     absolute magnetization    =    69.40 Bohr mag/cell

     iteration # 10     ecut=    50.00 Ry     beta= 0.70
     Davidson diagonalization with overlap
     ethr =  4.56E-05,  avg # of iterations =  2.8

     total cpu time spent up to now is      203.7 secs

     total energy              =   -6056.54247884 Ry
     estimated scf accuracy    <       0.18016656 Ry

     total magnetization       =    61.18 Bohr mag/cell
     absolute magnetization    =    69.23 Bohr mag/cell

     iteration # 11     ecut=    50.00 Ry     beta= 0.70
     Davidson diagonalization with overlap
     c_bands:  2 eigenvalues not converged
     ethr =  4.56E-05,  avg # of iterations =  2.1

     total cpu time spent up to now is      217.7 secs

     total energy              =   -6056.53860026 Ry
     estimated scf accuracy    <       0.09857542 Ry

     total magnetization       =    61.20 Bohr mag/cell
     absolute magnetization    =    69.12 Bohr mag/cell

     iteration # 12     ecut=    50.00 Ry     beta= 0.70
     Davidson diagonalization with overlap
     ethr =  2.94E-05,  avg # of iterations =  2.5

     negative rho (up, down):  2.566E-08 0.000E+00

     total cpu time spent up to now is      238.1 secs

     total energy              =   -6056.54045719 Ry
     estimated scf accuracy    <       0.08786856 Ry

     total magnetization       =    61.18 Bohr mag/cell
     absolute magnetization    =    68.94 Bohr mag/cell

     iteration # 13     ecut=    50.00 Ry     beta= 0.70
     Davidson diagonalization with overlap
     ethr =  2.62E-05,  avg # of iterations =  1.3

     total cpu time spent up to now is      255.5 secs

     total energy              =   -6056.53774681 Ry
     estimated scf accuracy    <       0.09470974 Ry

     total magnetization       =    61.21 Bohr mag/cell
     absolute magnetization    =    68.90 Bohr mag/cell

     iteration # 14     ecut=    50.00 Ry     beta= 0.70
     Davidson diagonalization with overlap
     ethr =  2.62E-05,  avg # of iterations =  1.5

     negative rho (up, down):  1.523E-04 1.446E-05

     total cpu time spent up to now is      269.4 secs

     total energy              =   -6056.53181050 Ry
     estimated scf accuracy    <       0.06361800 Ry

     total magnetization       =    61.23 Bohr mag/cell
     absolute magnetization    =    68.96 Bohr mag/cell

     iteration # 15     ecut=    50.00 Ry     beta= 0.70
     Davidson diagonalization with overlap
     ethr =  1.90E-05,  avg # of iterations =  2.5

     negative rho (up, down):  8.688E-03 7.225E-03

     total cpu time spent up to now is      288.3 secs

     total energy              =   -6056.52841650 Ry
     estimated scf accuracy    <       0.12982580 Ry

     total magnetization       =    61.24 Bohr mag/cell
     absolute magnetization    =    68.91 Bohr mag/cell

     iteration # 16     ecut=    50.00 Ry     beta= 0.70
     Davidson diagonalization with overlap
     ethr =  1.90E-05,  avg # of iterations =  1.6

     negative rho (up, down):  1.599E-02 1.431E-02

     total cpu time spent up to now is      303.6 secs

     total energy              =   -6056.52847276 Ry
     estimated scf accuracy    <       0.02531653 Ry

     total magnetization       =    61.25 Bohr mag/cell
     absolute magnetization    =    68.88 Bohr mag/cell

     iteration # 17     ecut=    50.00 Ry     beta= 0.70
     Davidson diagonalization with overlap
     c_bands:  2 eigenvalues not converged
     c_bands:  2 eigenvalues not converged
     c_bands:  1 eigenvalues not converged
     c_bands:  1 eigenvalues not converged
     c_bands:  2 eigenvalues not converged
     c_bands:  4 eigenvalues not converged
     ethr =  7.56E-06,  avg # of iterations =  9.4

     negative rho (up, down):  2.232E-02 2.051E-02

     total cpu time spent up to now is      329.5 secs

     total energy              =   -6056.52666025 Ry
     estimated scf accuracy    <       0.04694647 Ry

     total magnetization       =    61.27 Bohr mag/cell
     absolute magnetization    =    68.87 Bohr mag/cell

     iteration # 18     ecut=    50.00 Ry     beta= 0.70
     Davidson diagonalization with overlap
     ethr =  7.56E-06,  avg # of iterations =  1.7

     negative rho (up, down):  1.287E-02 1.140E-02

     total cpu time spent up to now is      348.1 secs

     total energy              =   -6056.52745765 Ry
     estimated scf accuracy    <       0.02573035 Ry

     total magnetization       =    61.29 Bohr mag/cell
     absolute magnetization    =    68.86 Bohr mag/cell

     iteration # 19     ecut=    50.00 Ry     beta= 0.70
     Davidson diagonalization with overlap
     ethr =  7.56E-06,  avg # of iterations =  1.3

     negative rho (up, down):  2.165E-02 1.986E-02

     total cpu time spent up to now is      362.8 secs

     total energy              =   -6056.52633770 Ry
     estimated scf accuracy    <       0.01529888 Ry

     total magnetization       =    61.29 Bohr mag/cell
     absolute magnetization    =    68.87 Bohr mag/cell

     iteration # 20     ecut=    50.00 Ry     beta= 0.70
     Davidson diagonalization with overlap
     ethr =  4.57E-06,  avg # of iterations =  2.2

     negative rho (up, down):  2.012E-02 1.889E-02

     total cpu time spent up to now is      381.8 secs

     total energy              =   -6056.52456949 Ry
     estimated scf accuracy    <       0.01137701 Ry

     total magnetization       =    61.29 Bohr mag/cell
     absolute magnetization    =    68.85 Bohr mag/cell

     iteration # 21     ecut=    50.00 Ry     beta= 0.70
     Davidson diagonalization with overlap
     ethr =  3.40E-06,  avg # of iterations =  2.5

     negative rho (up, down):  2.027E-02 1.913E-02

     total cpu time spent up to now is      396.8 secs

     total energy              =   -6056.52461055 Ry
     estimated scf accuracy    <       0.01030399 Ry

     total magnetization       =    61.28 Bohr mag/cell
     absolute magnetization    =    68.84 Bohr mag/cell

     iteration # 22     ecut=    50.00 Ry     beta= 0.70
     Davidson diagonalization with overlap
     ethr =  3.08E-06,  avg # of iterations =  1.4

     negative rho (up, down):  1.735E-02 1.638E-02

     total cpu time spent up to now is      414.8 secs

     total energy              =   -6056.52469880 Ry
     estimated scf accuracy    <       0.00348325 Ry

     total magnetization       =    61.27 Bohr mag/cell
     absolute magnetization    =    68.84 Bohr mag/cell

     iteration # 23     ecut=    50.00 Ry     beta= 0.70
     Davidson diagonalization with overlap
     c_bands:  1 eigenvalues not converged
     ethr =  1.04E-06,  avg # of iterations =  4.0

     negative rho (up, down):  1.287E-02 1.205E-02

     total cpu time spent up to now is      436.2 secs

     total energy              =   -6056.52465142 Ry
     estimated scf accuracy    <       0.00164631 Ry

     total magnetization       =    61.28 Bohr mag/cell
     absolute magnetization    =    68.85 Bohr mag/cell

     iteration # 24     ecut=    50.00 Ry     beta= 0.70
     Davidson diagonalization with overlap
     ethr =  4.91E-07,  avg # of iterations =  3.9

     negative rho (up, down):  9.780E-03 9.033E-03

     total cpu time spent up to now is      452.7 secs

     total energy              =   -6056.52466586 Ry
     estimated scf accuracy    <       0.00236906 Ry

     total magnetization       =    61.30 Bohr mag/cell
     absolute magnetization    =    68.86 Bohr mag/cell

     iteration # 25     ecut=    50.00 Ry     beta= 0.70
     Davidson diagonalization with overlap
     ethr =  4.91E-07,  avg # of iterations =  1.5

     negative rho (up, down):  7.465E-03 6.714E-03

     total cpu time spent up to now is      470.6 secs

     total energy              =   -6056.52473852 Ry
     estimated scf accuracy    <       0.00075501 Ry

     total magnetization       =    61.30 Bohr mag/cell
     absolute magnetization    =    68.86 Bohr mag/cell

     iteration # 26     ecut=    50.00 Ry     beta= 0.70
     Davidson diagonalization with overlap
     ethr =  2.25E-07,  avg # of iterations =  1.8

     negative rho (up, down):  6.213E-03 5.436E-03

     total cpu time spent up to now is      486.2 secs

     total energy              =   -6056.52484535 Ry
     estimated scf accuracy    <       0.00053116 Ry

     total magnetization       =    61.29 Bohr mag/cell
     absolute magnetization    =    68.86 Bohr mag/cell

     iteration # 27     ecut=    50.00 Ry     beta= 0.70
     Davidson diagonalization with overlap
     ethr =  1.59E-07,  avg # of iterations =  2.8

     negative rho (up, down):  5.898E-03 5.085E-03

     total cpu time spent up to now is      505.5 secs

     total energy              =   -6056.52491213 Ry
     estimated scf accuracy    <       0.00039262 Ry

     total magnetization       =    61.30 Bohr mag/cell
     absolute magnetization    =    68.86 Bohr mag/cell

     iteration # 28     ecut=    50.00 Ry     beta= 0.70
     Davidson diagonalization with overlap
     ethr =  1.17E-07,  avg # of iterations =  1.8

     negative rho (up, down):  5.178E-03 4.375E-03

     total cpu time spent up to now is      524.0 secs

     total energy              =   -6056.52485467 Ry
     estimated scf accuracy    <       0.00026717 Ry

     total magnetization       =    61.30 Bohr mag/cell
     absolute magnetization    =    68.86 Bohr mag/cell

     iteration # 29     ecut=    50.00 Ry     beta= 0.70
     Davidson diagonalization with overlap
     ethr =  7.98E-08,  avg # of iterations =  2.4

     negative rho (up, down):  3.641E-03 2.644E-03

     total cpu time spent up to now is      539.0 secs

     total energy              =   -6056.52487778 Ry
     estimated scf accuracy    <       0.00009160 Ry

     total magnetization       =    61.29 Bohr mag/cell
     absolute magnetization    =    68.86 Bohr mag/cell

     iteration # 30     ecut=    50.00 Ry     beta= 0.70
     Davidson diagonalization with overlap
     ethr =  2.73E-08,  avg # of iterations =  4.9

     negative rho (up, down):  3.249E-03 2.185E-03

     total cpu time spent up to now is      562.1 secs

     total energy              =   -6056.52488252 Ry
     estimated scf accuracy    <       0.00017820 Ry

     total magnetization       =    61.29 Bohr mag/cell
     absolute magnetization    =    68.86 Bohr mag/cell

     iteration # 31     ecut=    50.00 Ry     beta= 0.70
     Davidson diagonalization with overlap
     ethr =  2.73E-08,  avg # of iterations =  2.0

     negative rho (up, down):  3.327E-03 2.262E-03

     total cpu time spent up to now is      577.0 secs

     total energy              =   -6056.52488635 Ry
     estimated scf accuracy    <       0.00005919 Ry

     total magnetization       =    61.29 Bohr mag/cell
     absolute magnetization    =    68.85 Bohr mag/cell

     iteration # 32     ecut=    50.00 Ry     beta= 0.70
     Davidson diagonalization with overlap
     ethr =  1.77E-08,  avg # of iterations =  1.5

     negative rho (up, down):  3.345E-03 2.367E-03

     total cpu time spent up to now is      595.6 secs

     total energy              =   -6056.52489388 Ry
     estimated scf accuracy    <       0.00008719 Ry

     total magnetization       =    61.29 Bohr mag/cell
     absolute magnetization    =    68.85 Bohr mag/cell

     iteration # 33     ecut=    50.00 Ry     beta= 0.70
     Davidson diagonalization with overlap
     ethr =  1.77E-08,  avg # of iterations =  1.7

     negative rho (up, down):  3.083E-03 2.018E-03

     total cpu time spent up to now is      615.7 secs

     total energy              =   -6056.52488892 Ry
     estimated scf accuracy    <       0.00002847 Ry

     total magnetization       =    61.29 Bohr mag/cell
     absolute magnetization    =    68.85 Bohr mag/cell

     iteration # 34     ecut=    50.00 Ry     beta= 0.70
     Davidson diagonalization with overlap
     ethr =  8.50E-09,  avg # of iterations =  2.0

     negative rho (up, down):  3.069E-03 2.029E-03

     total cpu time spent up to now is      630.3 secs

     total energy              =   -6056.52489055 Ry
     estimated scf accuracy    <       0.00001175 Ry

     total magnetization       =    61.29 Bohr mag/cell
     absolute magnetization    =    68.85 Bohr mag/cell

     iteration # 35     ecut=    50.00 Ry     beta= 0.70
     Davidson diagonalization with overlap
     ethr =  3.51E-09,  avg # of iterations =  5.0

     negative rho (up, down):  2.877E-03 1.847E-03

     total cpu time spent up to now is      652.1 secs

     total energy              =   -6056.52489014 Ry
     estimated scf accuracy    <       0.00001606 Ry

     total magnetization       =    61.29 Bohr mag/cell
     absolute magnetization    =    68.85 Bohr mag/cell

     iteration # 36     ecut=    50.00 Ry     beta= 0.70
     Davidson diagonalization with overlap
     ethr =  3.51E-09,  avg # of iterations =  2.0

     negative rho (up, down):  2.729E-03 1.682E-03

     total cpu time spent up to now is      669.3 secs

     total energy              =   -6056.52488903 Ry
     estimated scf accuracy    <       0.00001166 Ry

     total magnetization       =    61.29 Bohr mag/cell
     absolute magnetization    =    68.85 Bohr mag/cell

     iteration # 37     ecut=    50.00 Ry     beta= 0.70
     Davidson diagonalization with overlap
     ethr =  3.48E-09,  avg # of iterations =  1.1

     negative rho (up, down):  2.797E-03 1.725E-03

     total cpu time spent up to now is      686.3 secs

     total energy              =   -6056.52488939 Ry
     estimated scf accuracy    <       0.00000898 Ry

     total magnetization       =    61.29 Bohr mag/cell
     absolute magnetization    =    68.85 Bohr mag/cell

     iteration # 38     ecut=    50.00 Ry     beta= 0.70
     Davidson diagonalization with overlap
     ethr =  2.68E-09,  avg # of iterations =  1.5

     negative rho (up, down):  2.666E-03 1.595E-03

     total cpu time spent up to now is      704.7 secs

     total energy              =   -6056.52488890 Ry
     estimated scf accuracy    <       0.00000916 Ry

     total magnetization       =    61.29 Bohr mag/cell
     absolute magnetization    =    68.85 Bohr mag/cell

     iteration # 39     ecut=    50.00 Ry     beta= 0.70
     Davidson diagonalization with overlap
     ethr =  2.68E-09,  avg # of iterations =  1.1

     negative rho (up, down):  2.511E-03 1.426E-03

     total cpu time spent up to now is      718.2 secs

     total energy              =   -6056.52488872 Ry
     estimated scf accuracy    <       0.00000616 Ry

     total magnetization       =    61.29 Bohr mag/cell
     absolute magnetization    =    68.85 Bohr mag/cell

     iteration # 40     ecut=    50.00 Ry     beta= 0.70
     Davidson diagonalization with overlap
     ethr =  1.84E-09,  avg # of iterations =  1.4

     negative rho (up, down):  2.452E-03 1.367E-03

     total cpu time spent up to now is      737.3 secs

     total energy              =   -6056.52488848 Ry
     estimated scf accuracy    <       0.00000447 Ry

     total magnetization       =    61.29 Bohr mag/cell
     absolute magnetization    =    68.85 Bohr mag/cell

     iteration # 41     ecut=    50.00 Ry     beta= 0.70
     Davidson diagonalization with overlap
     ethr =  1.34E-09,  avg # of iterations =  1.7

     negative rho (up, down):  2.297E-03 1.192E-03

     total cpu time spent up to now is      751.3 secs

     total energy              =   -6056.52488873 Ry
     estimated scf accuracy    <       0.00000500 Ry

     total magnetization       =    61.28 Bohr mag/cell
     absolute magnetization    =    68.85 Bohr mag/cell

     iteration # 42     ecut=    50.00 Ry     beta= 0.70
     Davidson diagonalization with overlap
     ethr =  1.34E-09,  avg # of iterations =  1.8

     negative rho (up, down):  2.279E-03 1.175E-03

     total cpu time spent up to now is      770.2 secs

     total energy              =   -6056.52488880 Ry
     estimated scf accuracy    <       0.00000216 Ry

     total magnetization       =    61.28 Bohr mag/cell
     absolute magnetization    =    68.85 Bohr mag/cell

     iteration # 43     ecut=    50.00 Ry     beta= 0.70
     Davidson diagonalization with overlap
     ethr =  6.45E-10,  avg # of iterations =  2.2

     negative rho (up, down):  2.277E-03 1.172E-03

     total cpu time spent up to now is      785.1 secs

     total energy              =   -6056.52488883 Ry
     estimated scf accuracy    <       0.00000188 Ry

     total magnetization       =    61.28 Bohr mag/cell
     absolute magnetization    =    68.85 Bohr mag/cell

     iteration # 44     ecut=    50.00 Ry     beta= 0.70
     Davidson diagonalization with overlap
     ethr =  5.62E-10,  avg # of iterations =  1.2

     negative rho (up, down):  2.255E-03 1.151E-03

     total cpu time spent up to now is      803.6 secs

     total energy              =   -6056.52488889 Ry
     estimated scf accuracy    <       0.00000049 Ry

     total magnetization       =    61.28 Bohr mag/cell
     absolute magnetization    =    68.85 Bohr mag/cell

     iteration # 45     ecut=    50.00 Ry     beta= 0.70
     Davidson diagonalization with overlap
     ethr =  1.48E-10,  avg # of iterations =  4.8

     negative rho (up, down):  2.245E-03 1.140E-03

     total cpu time spent up to now is      825.2 secs

     total energy              =   -6056.52488888 Ry
     estimated scf accuracy    <       0.00000037 Ry

     total magnetization       =    61.28 Bohr mag/cell
     absolute magnetization    =    68.85 Bohr mag/cell

     iteration # 46     ecut=    50.00 Ry     beta= 0.70
     Davidson diagonalization with overlap
     ethr =  1.09E-10,  avg # of iterations =  1.7

     negative rho (up, down):  2.224E-03 1.121E-03

     total cpu time spent up to now is      839.5 secs

     total energy              =   -6056.52488887 Ry
     estimated scf accuracy    <       0.00000024 Ry

     total magnetization       =    61.28 Bohr mag/cell
     absolute magnetization    =    68.85 Bohr mag/cell

     iteration # 47     ecut=    50.00 Ry     beta= 0.70
     Davidson diagonalization with overlap
     ethr =  7.09E-11,  avg # of iterations =  2.1

     negative rho (up, down):  2.211E-03 1.108E-03

     total cpu time spent up to now is      859.0 secs

     total energy              =   -6056.52488884 Ry
     estimated scf accuracy    <       0.00000026 Ry

     total magnetization       =    61.28 Bohr mag/cell
     absolute magnetization    =    68.85 Bohr mag/cell

     iteration # 48     ecut=    50.00 Ry     beta= 0.70
     Davidson diagonalization with overlap
     ethr =  7.09E-11,  avg # of iterations =  1.4

     negative rho (up, down):  2.205E-03 1.103E-03

     total cpu time spent up to now is      873.0 secs

     total energy              =   -6056.52488885 Ry
     estimated scf accuracy    <       0.00000002 Ry

     total magnetization       =    61.28 Bohr mag/cell
     absolute magnetization    =    68.85 Bohr mag/cell

     iteration # 49     ecut=    50.00 Ry     beta= 0.70
     Davidson diagonalization with overlap
     c_bands:  2 eigenvalues not converged
     ethr =  6.49E-12,  avg # of iterations =  9.7

     negative rho (up, down):  2.208E-03 1.106E-03

     total cpu time spent up to now is      901.0 secs

     total energy              =   -6056.52488886 Ry
     estimated scf accuracy    <       0.00000002 Ry

     total magnetization       =    61.28 Bohr mag/cell
     absolute magnetization    =    68.85 Bohr mag/cell

     iteration # 50     ecut=    50.00 Ry     beta= 0.70
     Davidson diagonalization with overlap
     ethr =  5.54E-12,  avg # of iterations =  1.9

     negative rho (up, down):  2.212E-03 1.110E-03

     total cpu time spent up to now is      920.5 secs

     total energy              =   -6056.52488887 Ry
     estimated scf accuracy    <       0.00000002 Ry

     total magnetization       =    61.28 Bohr mag/cell
     absolute magnetization    =    68.85 Bohr mag/cell

     iteration # 51     ecut=    50.00 Ry     beta= 0.70
     Davidson diagonalization with overlap
     ethr =  4.96E-12,  avg # of iterations =  2.0

     negative rho (up, down):  2.216E-03 1.115E-03

     total cpu time spent up to now is      935.5 secs

     total energy              =   -6056.52488889 Ry
     estimated scf accuracy    <       0.00000004 Ry

     total magnetization       =    61.28 Bohr mag/cell
     absolute magnetization    =    68.85 Bohr mag/cell

     iteration # 52     ecut=    50.00 Ry     beta= 0.70
     Davidson diagonalization with overlap
     ethr =  4.96E-12,  avg # of iterations =  1.7

     negative rho (up, down):  2.217E-03 1.117E-03

     Magnetic moment per site  (integrated on atomic sphere of radius R)
     atom   1 (R=0.103)  charge=  6.2308  magn=  1.7662
     atom   2 (R=0.103)  charge=  6.2307  magn=  1.7684
     atom   3 (R=0.103)  charge=  6.2307  magn=  1.7687
     atom   4 (R=0.103)  charge=  6.2311  magn=  1.7713
     atom   5 (R=0.103)  charge=  6.2308  magn=  1.7696
     atom   6 (R=0.103)  charge=  6.2310  magn=  1.7705
     atom   7 (R=0.103)  charge=  6.2308  magn=  1.7707
     atom   8 (R=0.103)  charge=  6.2310  magn=  1.7656
     atom   9 (R=0.103)  charge=  6.2313  magn=  1.7660
     atom  10 (R=0.103)  charge=  6.2369  magn=  1.7069
     atom  11 (R=0.103)  charge=  6.2370  magn=  1.6856
     atom  12 (R=0.103)  charge=  6.2374  magn=  1.7035
     atom  13 (R=0.103)  charge=  6.2369  magn=  1.7024
     atom  14 (R=0.103)  charge=  6.2378  magn=  1.6946
     atom  15 (R=0.103)  charge=  6.2372  magn=  1.6936
     atom  16 (R=0.103)  charge=  6.2368  magn=  1.6897
     atom  17 (R=0.103)  charge=  6.2373  magn=  1.7014
     atom  18 (R=0.103)  charge=  6.2376  magn=  1.6969
     atom  19 (R=0.103)  charge=  6.2349  magn=  1.7039
     atom  20 (R=0.103)  charge=  6.2369  magn=  1.6784
     atom  21 (R=0.103)  charge=  6.2361  magn=  1.7061
     atom  22 (R=0.103)  charge=  6.2376  magn=  1.6920
     atom  23 (R=0.103)  charge=  6.2374  magn=  1.6874
     atom  24 (R=0.103)  charge=  6.2372  magn=  1.7023
     atom  25 (R=0.103)  charge=  6.2366  magn=  1.6744
     atom  26 (R=0.103)  charge=  6.2333  magn=  1.7092
     atom  27 (R=0.103)  charge=  6.2395  magn=  1.6616
     atom  28 (R=0.103)  charge=  6.2360  magn=  1.6853
     atom  29 (R=0.103)  charge=  6.2599  magn=  1.1214
     atom  30 (R=0.103)  charge=  6.2322  magn=  1.7737
     atom  31 (R=0.103)  charge=  6.2364  magn=  1.7709
     atom  32 (R=0.103)  charge=  6.2305  magn=  1.7712
     atom  33 (R=0.103)  charge=  6.2327  magn=  1.7825
     atom  34 (R=0.103)  charge=  6.2324  magn=  1.7897
     atom  35 (R=0.103)  charge=  6.2379  magn=  1.7487
     atom  36 (R=0.103)  charge=  6.2316  magn=  1.7643
     atom  37 (R=0.061)  charge=  0.8435  magn= -0.0199
     atom  38 (R=0.069)  charge=  3.1923  magn= -0.0165
     atom  39 (R=0.061)  charge=  0.5066  magn= -0.0044

     total cpu time spent up to now is      953.6 secs

     End of self-consistent calculation

 ------ SPIN UP ------------


          k = 0.0000 0.0000 0.0000 ( 51087 PWs)   bands (ev):

   -21.3146  -9.8906  -7.4903  -6.5637  -6.1136  -5.5344  -4.9838  -4.6271
    -4.5923  -4.5899  -4.5879  -4.5863  -4.5743  -4.5281  -4.2359  -4.0621
    -4.0581  -4.0578  -4.0534  -4.0350  -3.9935  -3.5473  -3.5453  -3.5401
    -3.5342  -3.5210  -3.4981  -3.4147  -3.4113  -3.4020  -3.3990  -3.3954
    -3.3753  -3.3385  -3.3310  -3.0237  -3.0206  -3.0196  -3.0188  -2.9669
    -2.9579  -2.9551  -2.9515  -2.9457  -2.9440  -2.9411  -2.9302  -2.7914
    -2.7866  -2.7323  -2.7247  -2.7201  -2.7154  -2.7035  -2.7017  -2.6874
    -2.6866  -2.6851  -2.6751  -2.5886  -2.5830  -2.5817  -2.5699  -2.5518
    -2.5223  -2.0865  -2.0522  -2.0414  -2.0400  -2.0395  -1.9968  -1.9346
    -1.9156  -1.9117  -1.8916  -1.8842  -1.8662  -1.8615  -1.8577  -1.8488
    -1.8210  -1.8096  -1.8010  -1.7630  -1.7597  -1.7358  -1.7316  -1.7296
    -1.7262  -1.7163  -1.7136  -1.6960  -1.6948  -1.6850  -1.6800  -1.6773
    -1.6739  -1.6704  -1.6676  -1.6663  -1.6636  -1.6608  -1.6555  -1.6542
    -1.6512  -1.6025  -1.5979  -1.5774  -1.5706  -1.5016  -1.4974  -1.4274
    -1.3102  -1.2222  -1.2182  -1.2143  -1.2123  -1.2033  -1.1845  -1.1739
    -1.1696  -1.1494  -1.1342  -1.1237  -1.1148  -1.0727  -1.0083  -0.9973
    -0.9844  -0.9652  -0.8957  -0.8122  -0.8022  -0.7858  -0.7770  -0.7640
    -0.7450  -0.7306  -0.7241  -0.7229  -0.7221  -0.7036  -0.6437  -0.6026
    -0.5500  -0.4847  -0.4795  -0.4767  -0.4465  -0.4262  -0.4165  -0.4117
    -0.4069  -0.4052  -0.4020  -0.3950  -0.3911  -0.3902  -0.3894  -0.3828
    -0.3700  -0.3679  -0.3424  -0.3343  -0.3331  -0.3315  -0.3247  -0.3201
    -0.3035  -0.3026  -0.2803  -0.2759  -0.2751  -0.2641  -0.2550  -0.2510
    -0.2488  -0.2465  -0.2226  -0.2049  -0.1914  -0.1750  -0.1738  -0.1703
    -0.1676  -0.1623  -0.1514  -0.1410  -0.1314  -0.1257  -0.0839  -0.0832
    -0.0771  -0.0753  -0.0154  -0.0141  -0.0071  -0.0062   0.0179   0.0470
     0.3852   0.9298

          k = 0.0000 0.2309 0.0000 ( 51134 PWs)   bands (ev):

   -21.3146  -9.8903  -7.3432  -6.5280  -6.0391  -5.5532  -5.2892  -4.9896
    -4.8421  -4.8269  -4.4728  -4.3208  -4.2526  -4.2480  -4.1808  -4.1313
    -4.1058  -4.0787  -3.9755  -3.9380  -3.9203  -3.6659  -3.5589  -3.5439
    -3.4664  -3.4398  -3.4311  -3.4201  -3.4150  -3.3990  -3.3936  -3.3761
    -3.3402  -3.2967  -3.2934  -3.2698  -3.2639  -3.0648  -3.0384  -3.0356
    -2.9855  -2.9821  -2.9755  -2.9658  -2.8868  -2.8557  -2.8459  -2.8182
    -2.8112  -2.8066  -2.7830  -2.7629  -2.6891  -2.6753  -2.6469  -2.6166
    -2.5973  -2.5809  -2.5689  -2.5597  -2.5365  -2.5237  -2.5031  -2.4993
    -2.4336  -2.1683  -2.1575  -2.1425  -2.1199  -2.1042  -2.0439  -2.0117
    -2.0071  -2.0038  -1.9845  -1.9819  -1.9656  -1.9404  -1.9092  -1.8811
    -1.8678  -1.8571  -1.8457  -1.8164  -1.7992  -1.7959  -1.7929  -1.7776
    -1.7637  -1.7599  -1.7563  -1.7512  -1.7361  -1.7042  -1.6752  -1.6625
    -1.6462  -1.5953  -1.5804  -1.5764  -1.5631  -1.5545  -1.5500  -1.5372
    -1.5251  -1.5176  -1.5150  -1.5072  -1.4886  -1.4757  -1.4702  -1.4519
    -1.4425  -1.4318  -1.4013  -1.3710  -1.3428  -1.3213  -1.2576  -1.2418
    -1.2344  -1.2243  -1.2140  -1.2068  -1.2014  -1.1951  -1.1005  -1.0511
    -1.0452  -1.0245  -0.9723  -0.9485  -0.9383  -0.8816  -0.8744  -0.8517
    -0.8231  -0.7545  -0.7486  -0.7255  -0.7121  -0.7000  -0.6918  -0.6755
    -0.6652  -0.6415  -0.6356  -0.5894  -0.5763  -0.5684  -0.5548  -0.5426
    -0.5236  -0.5072  -0.4790  -0.4741  -0.4489  -0.4322  -0.4159  -0.4038
    -0.4005  -0.3947  -0.3829  -0.3764  -0.3688  -0.3494  -0.3449  -0.3343
    -0.2858  -0.2669  -0.2620  -0.2292  -0.2159  -0.2096  -0.1836  -0.1584
    -0.1535  -0.1455  -0.1368  -0.1238  -0.1131  -0.1024  -0.0938  -0.0695
    -0.0563  -0.0159  -0.0047   0.0000   0.0228   0.0267   0.0674   0.0819
     0.0871   0.1339   0.3633   0.3762   0.4819   0.5885   0.6268   0.6568
     0.7380   0.7719

          k = 0.0000 0.4619 0.0000 ( 51204 PWs)   bands (ev):

   -21.3146  -9.8898  -6.9265  -6.4971  -6.1627  -5.8306  -5.4047  -5.0180
    -4.9799  -4.9603  -4.7817  -4.1329  -4.1068  -4.0776  -4.0685  -3.9973
    -3.8951  -3.8912  -3.8502  -3.7649  -3.7572  -3.7476  -3.6573  -3.5801
    -3.5723  -3.5688  -3.5631  -3.5119  -3.4633  -3.4531  -3.4453  -3.2999
    -3.2869  -3.2825  -3.2712  -3.2469  -3.2408  -3.1370  -3.1303  -3.1187
    -3.1162  -3.1105  -2.9898  -2.9127  -2.8971  -2.8182  -2.8024  -2.7855
    -2.7669  -2.7357  -2.7268  -2.7212  -2.7095  -2.6881  -2.6344  -2.6231
    -2.5926  -2.5665  -2.5534  -2.4241  -2.4150  -2.4079  -2.3870  -2.3510
    -2.2997  -2.2869  -2.2757  -2.2624  -2.1995  -2.1578  -2.1369  -2.1284
    -2.1258  -2.1170  -2.1041  -2.0946  -2.0862  -2.0596  -2.0298  -1.9995
    -1.9868  -1.9664  -1.9526  -1.9338  -1.9157  -1.8801  -1.8382  -1.8111
    -1.8049  -1.7789  -1.7683  -1.7546  -1.7112  -1.6975  -1.6922  -1.6855
    -1.6718  -1.6532  -1.6437  -1.6238  -1.6057  -1.6019  -1.5864  -1.5787
    -1.5634  -1.5448  -1.5061  -1.4768  -1.4287  -1.4195  -1.4109  -1.3834
    -1.3635  -1.3409  -1.3299  -1.3029  -1.2745  -1.2599  -1.2560  -1.2540
    -1.2501  -1.2433  -1.2315  -1.2213  -1.2090  -1.2034  -1.1944  -1.1894
    -1.1578  -1.1290  -1.0758  -1.0651  -1.0243  -1.0145  -0.9967  -0.9693
    -0.9439  -0.9304  -0.8940  -0.8894  -0.8679  -0.8370  -0.8125  -0.7842
    -0.7533  -0.7439  -0.6995  -0.6867  -0.6660  -0.6553  -0.6377  -0.5754
    -0.5372  -0.5034  -0.4913  -0.4778  -0.4745  -0.4693  -0.4572  -0.4497
    -0.4347  -0.4271  -0.3606  -0.3346  -0.3150  -0.3113  -0.3012  -0.2991
    -0.2836  -0.2655  -0.2537  -0.2363  -0.2291  -0.2103  -0.1493  -0.1265
    -0.1213  -0.1082  -0.0974  -0.0534  -0.0279  -0.0040   0.0090   0.0404
     0.0531   0.0934   0.1007   0.1177   0.1226   0.1264   0.1512   0.1582
     0.2255   0.2611   0.3773   0.8797   1.1543   1.3446   1.3672   1.3973
     1.6671   1.7432

          k = 0.2000-0.1155 0.0000 ( 51134 PWs)   bands (ev):

   -21.3146  -9.8913  -7.3419  -6.5277  -6.0318  -5.5329  -5.3150  -5.0054
    -4.8278  -4.8121  -4.4816  -4.3547  -4.2508  -4.2457  -4.1848  -4.1389
    -4.0911  -4.0563  -3.9900  -3.9316  -3.9145  -3.6690  -3.5566  -3.5450
    -3.4706  -3.4492  -3.4208  -3.4187  -3.4144  -3.4064  -3.3899  -3.3728
    -3.3407  -3.2947  -3.2934  -3.2664  -3.2641  -3.0695  -3.0400  -3.0330
    -2.9850  -2.9825  -2.9735  -2.9655  -2.8992  -2.8561  -2.8458  -2.8199
    -2.8107  -2.8084  -2.7727  -2.7642  -2.6921  -2.6752  -2.6528  -2.6124
    -2.6052  -2.5738  -2.5695  -2.5436  -2.5388  -2.5173  -2.5006  -2.4972
    -2.4450  -2.1691  -2.1576  -2.1340  -2.1262  -2.1075  -2.0494  -2.0125
    -2.0082  -2.0008  -1.9928  -1.9748  -1.9649  -1.9407  -1.9177  -1.8790
    -1.8653  -1.8506  -1.8436  -1.8187  -1.8005  -1.7947  -1.7915  -1.7777
    -1.7651  -1.7616  -1.7547  -1.7521  -1.7491  -1.7085  -1.6779  -1.6548
    -1.6415  -1.6002  -1.5820  -1.5718  -1.5661  -1.5606  -1.5520  -1.5426
    -1.5304  -1.5210  -1.5138  -1.5112  -1.4989  -1.4785  -1.4708  -1.4556
    -1.4355  -1.4278  -1.4127  -1.3709  -1.3124  -1.3082  -1.2523  -1.2381
    -1.2321  -1.2261  -1.2115  -1.2082  -1.1957  -1.1892  -1.0769  -1.0469
    -1.0301  -1.0206  -0.9766  -0.9497  -0.9349  -0.9030  -0.8752  -0.8467
    -0.8263  -0.7796  -0.7488  -0.7380  -0.7190  -0.7021  -0.6777  -0.6643
    -0.6620  -0.6439  -0.6243  -0.5913  -0.5771  -0.5658  -0.5549  -0.5527
    -0.5417  -0.5002  -0.4787  -0.4755  -0.4626  -0.4324  -0.4132  -0.4014
    -0.3989  -0.3928  -0.3872  -0.3825  -0.3652  -0.3541  -0.3480  -0.3195
    -0.2843  -0.2661  -0.2621  -0.2304  -0.2190  -0.1996  -0.1838  -0.1564
    -0.1517  -0.1434  -0.1388  -0.1262  -0.1111  -0.1020  -0.0939  -0.0730
    -0.0501  -0.0148  -0.0022   0.0034   0.0232   0.0263   0.0707   0.0762
     0.1027   0.1384   0.3698   0.3756   0.4375   0.5500   0.6311   0.6493
     0.6954   0.8235

          k = 0.2000 0.1155 0.0000 ( 51134 PWs)   bands (ev):

   -21.3146  -9.8911  -7.3421  -6.5273  -6.0335  -5.5356  -5.3187  -4.9854
    -4.8317  -4.8234  -4.4772  -4.3479  -4.2518  -4.2464  -4.1841  -4.1385
    -4.0981  -4.0574  -3.9867  -3.9343  -3.9148  -3.6690  -3.5547  -3.5478
    -3.4678  -3.4471  -3.4242  -3.4197  -3.4127  -3.4058  -3.3915  -3.3724
    -3.3414  -3.2967  -3.2916  -3.2677  -3.2645  -3.0667  -3.0390  -3.0337
    -2.9843  -2.9811  -2.9726  -2.9676  -2.8912  -2.8518  -2.8480  -2.8232
    -2.8116  -2.8073  -2.7794  -2.7661  -2.6877  -2.6753  -2.6560  -2.6104
    -2.6036  -2.5735  -2.5711  -2.5448  -2.5405  -2.5234  -2.5063  -2.4988
    -2.4390  -2.1645  -2.1608  -2.1414  -2.1228  -2.1055  -2.0436  -2.0113
    -2.0071  -2.0006  -1.9918  -1.9777  -1.9686  -1.9411  -1.9088  -1.8764
    -1.8655  -1.8568  -1.8417  -1.8148  -1.8005  -1.7949  -1.7880  -1.7724
    -1.7669  -1.7637  -1.7532  -1.7507  -1.7410  -1.7163  -1.6794  -1.6577
    -1.6438  -1.6010  -1.5794  -1.5715  -1.5636  -1.5606  -1.5488  -1.5385
    -1.5278  -1.5225  -1.5166  -1.5111  -1.4976  -1.4795  -1.4640  -1.4526
    -1.4395  -1.4340  -1.4158  -1.3724  -1.3292  -1.3100  -1.2561  -1.2387
    -1.2330  -1.2227  -1.2148  -1.2077  -1.2013  -1.1937  -1.0884  -1.0542
    -1.0319  -1.0156  -0.9702  -0.9505  -0.9263  -0.8968  -0.8776  -0.8557
    -0.8018  -0.7619  -0.7535  -0.7319  -0.7158  -0.7079  -0.6959  -0.6750
    -0.6619  -0.6436  -0.6226  -0.5838  -0.5766  -0.5709  -0.5520  -0.5472
    -0.5354  -0.5044  -0.4782  -0.4743  -0.4511  -0.4292  -0.4124  -0.4067
    -0.4003  -0.3931  -0.3862  -0.3788  -0.3605  -0.3550  -0.3444  -0.3227
    -0.2834  -0.2665  -0.2615  -0.2352  -0.2143  -0.2063  -0.1766  -0.1628
    -0.1493  -0.1464  -0.1306  -0.1227  -0.1107  -0.0993  -0.0949  -0.0642
    -0.0544  -0.0148  -0.0030   0.0008   0.0243   0.0262   0.0658   0.0724
     0.0939   0.1280   0.3569   0.3766   0.4616   0.5475   0.6360   0.6578
     0.6838   0.8332

          k = 0.2000 0.3464 0.0000 ( 51202 PWs)   bands (ev):

   -21.3146  -9.8906  -7.0583  -6.4911  -5.9045  -5.6964  -5.6669  -5.3683
    -4.9767  -4.5794  -4.4690  -4.2568  -4.2548  -4.2102  -4.0379  -4.0342
    -3.9448  -3.9359  -3.9195  -3.8077  -3.7987  -3.6685  -3.6564  -3.5946
    -3.5493  -3.4598  -3.4531  -3.4296  -3.4101  -3.4015  -3.3939  -3.3693
    -3.3579  -3.3296  -3.3222  -3.2811  -3.2457  -3.2005  -3.1919  -3.0676
    -3.0587  -2.9778  -2.9705  -2.9437  -2.9172  -2.9104  -2.8229  -2.7754
    -2.7655  -2.7493  -2.7381  -2.7255  -2.6893  -2.6826  -2.6615  -2.6478
    -2.6288  -2.5200  -2.5146  -2.4596  -2.4542  -2.4311  -2.3984  -2.3953
    -2.3818  -2.2898  -2.1970  -2.1910  -2.1658  -2.1398  -2.1223  -2.1092
    -2.1009  -2.0827  -2.0631  -2.0560  -2.0461  -2.0321  -2.0151  -2.0068
    -1.9842  -1.9598  -1.9152  -1.8679  -1.8372  -1.8229  -1.8000  -1.7906
    -1.7783  -1.7674  -1.7323  -1.7273  -1.6938  -1.6839  -1.6732  -1.6685
    -1.6621  -1.6489  -1.6406  -1.6297  -1.6167  -1.6132  -1.5872  -1.5697
    -1.5606  -1.5424  -1.5273  -1.5001  -1.4818  -1.4655  -1.4507  -1.4337
    -1.4248  -1.4119  -1.3934  -1.3679  -1.3451  -1.3253  -1.3062  -1.2796
    -1.2653  -1.2598  -1.2500  -1.2319  -1.2164  -1.2056  -1.1955  -1.1530
    -1.1051  -1.0939  -1.0757  -1.0596  -0.9854  -0.9573  -0.9426  -0.8949
    -0.8377  -0.8286  -0.8222  -0.8036  -0.7976  -0.7799  -0.7732  -0.7427
    -0.7393  -0.7176  -0.6959  -0.6794  -0.6566  -0.6474  -0.6276  -0.6209
    -0.6054  -0.5803  -0.5664  -0.5435  -0.5361  -0.5233  -0.4700  -0.3985
    -0.3756  -0.3556  -0.3409  -0.3316  -0.3245  -0.2983  -0.2883  -0.2836
    -0.2813  -0.2530  -0.2002  -0.1824  -0.1728  -0.1678  -0.1357  -0.1128
    -0.1045  -0.0981  -0.0925  -0.0713  -0.0657  -0.0547  -0.0487  -0.0413
    -0.0207   0.0404   0.0614   0.0741   0.0846   0.1200   0.1296   0.1431
     0.4375   0.4671   0.4846   0.6518   0.7710   0.8252   1.1241   1.3406
     1.3683   1.5644

          k = 0.2000-0.5774 0.0000 ( 51262 PWs)   bands (ev):

   -21.3146  -9.8905  -6.6630  -6.4495  -6.3102  -5.8233  -5.6996  -5.2921
    -4.9712  -4.8734  -4.5953  -4.2439  -3.9993  -3.9527  -3.8396  -3.8248
    -3.8217  -3.7945  -3.7911  -3.7724  -3.7288  -3.7098  -3.7082  -3.7050
    -3.6202  -3.6041  -3.5604  -3.5571  -3.5299  -3.5240  -3.4285  -3.3855
    -3.3743  -3.3648  -3.3478  -3.3037  -3.2238  -3.2028  -3.0866  -3.0774
    -3.0742  -2.9994  -2.9822  -2.9683  -2.9470  -2.8699  -2.8633  -2.8548
    -2.7930  -2.7817  -2.7057  -2.6734  -2.6405  -2.6355  -2.5877  -2.5785
    -2.5013  -2.4934  -2.4841  -2.4715  -2.4601  -2.4321  -2.4202  -2.3576
    -2.2859  -2.2821  -2.2684  -2.2589  -2.2123  -2.1993  -2.1477  -2.1393
    -2.1222  -2.0957  -2.0876  -2.0817  -2.0594  -2.0340  -2.0195  -2.0055
    -1.9997  -1.9923  -1.9626  -1.9482  -1.9445  -1.8996  -1.8752  -1.8511
    -1.8459  -1.7950  -1.7778  -1.7544  -1.7268  -1.7036  -1.6913  -1.6714
    -1.6666  -1.6612  -1.6524  -1.6448  -1.6392  -1.6072  -1.5978  -1.5955
    -1.5417  -1.5140  -1.5029  -1.4982  -1.4822  -1.4764  -1.4682  -1.4620
    -1.4569  -1.4411  -1.4244  -1.3987  -1.3891  -1.3576  -1.3418  -1.3201
    -1.2705  -1.2537  -1.2426  -1.2025  -1.1885  -1.1840  -1.1664  -1.1132
    -1.0947  -1.0845  -1.0644  -1.0257  -1.0066  -0.9589  -0.9505  -0.9307
    -0.9154  -0.9088  -0.8934  -0.8829  -0.8483  -0.8360  -0.8086  -0.7897
    -0.7699  -0.7446  -0.7269  -0.7168  -0.7096  -0.6735  -0.6392  -0.6339
    -0.6192  -0.6022  -0.5889  -0.5770  -0.5472  -0.5193  -0.5109  -0.4542
    -0.3673  -0.3347  -0.3261  -0.3147  -0.3135  -0.3051  -0.2975  -0.2854
    -0.2544  -0.2414  -0.2299  -0.2225  -0.1730  -0.1676  -0.1055  -0.1016
    -0.0789  -0.0677  -0.0637  -0.0464  -0.0047   0.0012   0.0091   0.0183
     0.0270   0.0902   0.1006   0.1077   0.1218   0.1325   0.1538   0.1919
     0.2836   0.5045   0.5613   0.8573   1.3892   1.4011   1.4763   1.7032
     1.8887   1.9607

          k = 0.2000-0.3464 0.0000 ( 51202 PWs)   bands (ev):

   -21.3146  -9.8910  -7.0577  -6.4914  -5.9016  -5.6933  -5.6670  -5.3681
    -4.9849  -4.5750  -4.4746  -4.2582  -4.2529  -4.2096  -4.0380  -4.0340
    -3.9434  -3.9395  -3.9205  -3.8061  -3.7962  -3.6645  -3.6596  -3.5947
    -3.5496  -3.4590  -3.4525  -3.4274  -3.4130  -3.4022  -3.3945  -3.3674
    -3.3563  -3.3326  -3.3159  -3.2837  -3.2444  -3.2058  -3.1886  -3.0727
    -3.0580  -2.9792  -2.9662  -2.9431  -2.9247  -2.9098  -2.8234  -2.7859
    -2.7619  -2.7465  -2.7392  -2.7228  -2.6878  -2.6779  -2.6564  -2.6448
    -2.6331  -2.5213  -2.5025  -2.4604  -2.4513  -2.4332  -2.3990  -2.3931
    -2.3825  -2.2828  -2.2008  -2.1964  -2.1748  -2.1449  -2.1245  -2.1085
    -2.1013  -2.0826  -2.0612  -2.0518  -2.0393  -2.0313  -2.0223  -2.0066
    -1.9856  -1.9782  -1.9108  -1.8637  -1.8352  -1.8227  -1.8083  -1.7960
    -1.7766  -1.7566  -1.7436  -1.7230  -1.6994  -1.6810  -1.6767  -1.6704
    -1.6675  -1.6497  -1.6394  -1.6250  -1.6156  -1.5984  -1.5868  -1.5725
    -1.5520  -1.5476  -1.5162  -1.5028  -1.4848  -1.4754  -1.4385  -1.4312
    -1.4205  -1.4069  -1.3970  -1.3542  -1.3407  -1.3186  -1.3056  -1.2840
    -1.2666  -1.2597  -1.2499  -1.2357  -1.2185  -1.2098  -1.1889  -1.1522
    -1.1126  -1.0934  -1.0771  -1.0395  -0.9975  -0.9597  -0.9449  -0.9084
    -0.8419  -0.8263  -0.8231  -0.8079  -0.7985  -0.7898  -0.7634  -0.7478
    -0.7387  -0.7151  -0.6946  -0.6903  -0.6547  -0.6472  -0.6329  -0.6211
    -0.6126  -0.5962  -0.5485  -0.5411  -0.5308  -0.5221  -0.4629  -0.3931
    -0.3798  -0.3577  -0.3393  -0.3325  -0.3281  -0.2987  -0.2924  -0.2876
    -0.2684  -0.2529  -0.1941  -0.1867  -0.1778  -0.1661  -0.1381  -0.1222
    -0.1058  -0.0979  -0.0930  -0.0786  -0.0659  -0.0578  -0.0491  -0.0374
    -0.0193   0.0350   0.0637   0.0775   0.0794   0.1205   0.1308   0.1590
     0.4570   0.4651   0.4763   0.6502   0.7795   0.8192   1.1104   1.3447
     1.3676   1.5924

          k = 0.4000-0.2309 0.0000 ( 51204 PWs)   bands (ev):

   -21.3146  -9.8924  -6.9205  -6.4945  -6.1551  -5.8147  -5.3926  -5.0678
    -4.9802  -4.9051  -4.8436  -4.1567  -4.0882  -4.0782  -4.0383  -4.0119
    -3.8921  -3.8898  -3.8536  -3.7626  -3.7539  -3.7523  -3.6696  -3.5768
    -3.5732  -3.5645  -3.5635  -3.5127  -3.4676  -3.4583  -3.4493  -3.2896
    -3.2859  -3.2800  -3.2604  -3.2435  -3.2411  -3.1365  -3.1312  -3.1216
    -3.1169  -3.1093  -3.0046  -2.9063  -2.8993  -2.8137  -2.8091  -2.7788
    -2.7705  -2.7390  -2.7302  -2.7221  -2.7007  -2.6927  -2.6307  -2.6243
    -2.5993  -2.5637  -2.5561  -2.4214  -2.4184  -2.3980  -2.3864  -2.3524
    -2.3047  -2.2914  -2.2791  -2.2649  -2.2004  -2.1545  -2.1348  -2.1288
    -2.1278  -2.1133  -2.0942  -2.0902  -2.0814  -2.0568  -2.0331  -2.0114
    -1.9853  -1.9645  -1.9464  -1.9261  -1.9201  -1.8769  -1.8254  -1.8127
    -1.8023  -1.7995  -1.7745  -1.7659  -1.7248  -1.6968  -1.6934  -1.6863
    -1.6745  -1.6587  -1.6465  -1.6206  -1.6129  -1.6053  -1.5913  -1.5738
    -1.5655  -1.5535  -1.5021  -1.4484  -1.4407  -1.4216  -1.3939  -1.3825
    -1.3651  -1.3436  -1.3093  -1.2878  -1.2770  -1.2660  -1.2564  -1.2545
    -1.2525  -1.2406  -1.2331  -1.2205  -1.2157  -1.2008  -1.1858  -1.1743
    -1.1578  -1.1242  -1.0920  -1.0555  -1.0167  -1.0074  -0.9879  -0.9741
    -0.9480  -0.9256  -0.8985  -0.8874  -0.8689  -0.8459  -0.8239  -0.7807
    -0.7491  -0.7215  -0.6979  -0.6842  -0.6649  -0.6524  -0.6376  -0.6130
    -0.5553  -0.4996  -0.4871  -0.4775  -0.4722  -0.4675  -0.4574  -0.4527
    -0.4378  -0.4268  -0.3494  -0.3355  -0.3216  -0.3007  -0.2970  -0.2872
    -0.2805  -0.2687  -0.2592  -0.2513  -0.2296  -0.2112  -0.1446  -0.1261
    -0.1215  -0.1034  -0.0848  -0.0759  -0.0281  -0.0067   0.0093   0.0370
     0.0545   0.0972   0.1001   0.1170   0.1236   0.1280   0.1454   0.1696
     0.2257   0.2665   0.3257   0.9712   1.1419   1.3001   1.3630   1.3746
     1.6203   1.7715

          k = 0.4000 0.0000 0.0000 ( 51202 PWs)   bands (ev):

   -21.3146  -9.8923  -7.0542  -6.4915  -5.8891  -5.6805  -5.6740  -5.3797
    -4.9926  -4.5398  -4.5093  -4.2660  -4.2546  -4.2070  -4.0402  -4.0344
    -3.9412  -3.9402  -3.9349  -3.8042  -3.7833  -3.6673  -3.6596  -3.5912
    -3.5476  -3.4571  -3.4477  -3.4316  -3.4120  -3.4031  -3.3902  -3.3749
    -3.3537  -3.3294  -3.3214  -3.2834  -3.2423  -3.2024  -3.1916  -3.0739
    -3.0551  -2.9809  -2.9640  -2.9391  -2.9294  -2.9147  -2.8303  -2.7796
    -2.7697  -2.7434  -2.7376  -2.7237  -2.6806  -2.6718  -2.6637  -2.6501
    -2.6330  -2.5224  -2.5058  -2.4578  -2.4539  -2.4418  -2.3974  -2.3929
    -2.3849  -2.2737  -2.2043  -2.1914  -2.1718  -2.1481  -2.1183  -2.1021
    -2.0956  -2.0828  -2.0698  -2.0582  -2.0429  -2.0324  -2.0291  -2.0076
    -1.9840  -1.9520  -1.9128  -1.8823  -1.8397  -1.8249  -1.8108  -1.7922
    -1.7711  -1.7599  -1.7441  -1.7284  -1.6967  -1.6817  -1.6727  -1.6697
    -1.6651  -1.6532  -1.6414  -1.6230  -1.6176  -1.6058  -1.5868  -1.5715
    -1.5615  -1.5352  -1.5142  -1.4949  -1.4806  -1.4738  -1.4545  -1.4329
    -1.4205  -1.3982  -1.3907  -1.3621  -1.3540  -1.3218  -1.3083  -1.2769
    -1.2657  -1.2545  -1.2513  -1.2256  -1.2206  -1.2032  -1.1861  -1.1527
    -1.1007  -1.0869  -1.0799  -1.0443  -0.9861  -0.9629  -0.9426  -0.9085
    -0.8427  -0.8256  -0.8226  -0.7987  -0.7927  -0.7789  -0.7724  -0.7606
    -0.7358  -0.7232  -0.7010  -0.6861  -0.6623  -0.6482  -0.6270  -0.6226
    -0.6106  -0.5891  -0.5584  -0.5432  -0.5306  -0.5185  -0.4503  -0.4152
    -0.3769  -0.3524  -0.3429  -0.3331  -0.3241  -0.2982  -0.2911  -0.2859
    -0.2641  -0.2571  -0.1991  -0.1849  -0.1696  -0.1680  -0.1291  -0.1248
    -0.1007  -0.0957  -0.0922  -0.0812  -0.0619  -0.0567  -0.0497  -0.0314
    -0.0200   0.0354   0.0615   0.0745   0.0796   0.1200   0.1250   0.1510
     0.4614   0.4658   0.5192   0.5582   0.8037   0.8121   1.1195   1.3417
     1.3606   1.5897

          k = 0.4000 0.2309 0.0000 ( 51204 PWs)   bands (ev):

   -21.3146  -9.8919  -6.9210  -6.4937  -6.1587  -5.8186  -5.4006  -5.0499
    -4.9798  -4.9252  -4.8195  -4.1539  -4.0952  -4.0822  -4.0375  -4.0090
    -3.8931  -3.8903  -3.8533  -3.7621  -3.7580  -3.7497  -3.6691  -3.5770
    -3.5731  -3.5655  -3.5639  -3.5142  -3.4659  -3.4575  -3.4471  -3.2919
    -3.2875  -3.2813  -3.2630  -3.2447  -3.2395  -3.1374  -3.1300  -3.1178
    -3.1142  -3.1110  -2.9965  -2.9094  -2.8988  -2.8203  -2.8058  -2.7826
    -2.7689  -2.7365  -2.7283  -2.7220  -2.7016  -2.6970  -2.6301  -2.6227
    -2.5982  -2.5652  -2.5575  -2.4267  -2.4141  -2.4073  -2.3896  -2.3538
    -2.3050  -2.2877  -2.2808  -2.2598  -2.2021  -2.1520  -2.1334  -2.1305
    -2.1278  -2.1105  -2.0982  -2.0880  -2.0806  -2.0662  -2.0472  -2.0096
    -1.9768  -1.9630  -1.9490  -1.9251  -1.9016  -1.8811  -1.8413  -1.8097
    -1.7999  -1.7902  -1.7711  -1.7574  -1.7155  -1.6965  -1.6931  -1.6831
    -1.6704  -1.6540  -1.6443  -1.6199  -1.6139  -1.6043  -1.5915  -1.5752
    -1.5606  -1.5484  -1.5033  -1.4881  -1.4336  -1.4186  -1.3931  -1.3838
    -1.3627  -1.3389  -1.3252  -1.3029  -1.2736  -1.2621  -1.2602  -1.2551
    -1.2489  -1.2448  -1.2325  -1.2239  -1.2110  -1.2013  -1.1866  -1.1770
    -1.1595  -1.1190  -1.0892  -1.0523  -1.0217  -1.0132  -1.0086  -0.9724
    -0.9490  -0.9318  -0.8990  -0.8906  -0.8710  -0.8273  -0.8126  -0.7793
    -0.7539  -0.7127  -0.6935  -0.6849  -0.6679  -0.6438  -0.6251  -0.6077
    -0.5591  -0.4980  -0.4909  -0.4807  -0.4702  -0.4671  -0.4542  -0.4490
    -0.4409  -0.4271  -0.3521  -0.3289  -0.3166  -0.3095  -0.2987  -0.2950
    -0.2791  -0.2587  -0.2532  -0.2416  -0.2310  -0.2147  -0.1417  -0.1253
    -0.1185  -0.1139  -0.0858  -0.0609  -0.0288  -0.0071   0.0096   0.0416
     0.0548   0.0955   0.0989   0.1188   0.1216   0.1261   0.1413   0.1673
     0.2254   0.2564   0.3419   0.9213   1.1235   1.3035   1.3629   1.3784
     1.6755   1.7298

          k = 0.4000-0.6928 0.0000 ( 51262 PWs)   bands (ev):

   -21.3146  -9.8919  -6.6555  -6.4434  -6.3153  -5.8441  -5.6740  -5.2458
    -5.0406  -4.8950  -4.5572  -4.2395  -4.0031  -3.9566  -3.8580  -3.8246
    -3.8153  -3.8044  -3.7933  -3.7740  -3.7172  -3.7105  -3.7077  -3.7027
    -3.6241  -3.6052  -3.5607  -3.5570  -3.5279  -3.5260  -3.4141  -3.3864
    -3.3772  -3.3705  -3.3438  -3.3031  -3.2179  -3.2017  -3.0892  -3.0766
    -3.0749  -2.9948  -2.9858  -2.9706  -2.9449  -2.8722  -2.8646  -2.8498
    -2.7985  -2.7817  -2.7006  -2.6794  -2.6419  -2.6357  -2.5845  -2.5799
    -2.5071  -2.4922  -2.4804  -2.4773  -2.4615  -2.4393  -2.4176  -2.3550
    -2.2953  -2.2783  -2.2701  -2.2610  -2.2141  -2.1984  -2.1478  -2.1383
    -2.1143  -2.0933  -2.0864  -2.0736  -2.0671  -2.0463  -2.0221  -2.0018
    -1.9921  -1.9886  -1.9554  -1.9469  -1.9380  -1.9073  -1.8759  -1.8559
    -1.8382  -1.8013  -1.7758  -1.7543  -1.7285  -1.7140  -1.6959  -1.6829
    -1.6667  -1.6593  -1.6494  -1.6441  -1.6293  -1.6005  -1.5890  -1.5705
    -1.5416  -1.5099  -1.5011  -1.4972  -1.4871  -1.4752  -1.4728  -1.4625
    -1.4520  -1.4431  -1.4311  -1.4095  -1.3827  -1.3704  -1.3437  -1.3337
    -1.2880  -1.2555  -1.2153  -1.2029  -1.1898  -1.1817  -1.1725  -1.1036
    -1.0949  -1.0875  -1.0740  -1.0470  -0.9787  -0.9585  -0.9426  -0.9271
    -0.9160  -0.9065  -0.8927  -0.8888  -0.8474  -0.8265  -0.7988  -0.7886
    -0.7703  -0.7432  -0.7352  -0.7236  -0.6973  -0.6721  -0.6452  -0.6273
    -0.6128  -0.5996  -0.5880  -0.5792  -0.5583  -0.5338  -0.5107  -0.4441
    -0.3723  -0.3314  -0.3229  -0.3203  -0.3114  -0.3046  -0.2933  -0.2724
    -0.2561  -0.2452  -0.2292  -0.2229  -0.1761  -0.1655  -0.1062  -0.0944
    -0.0782  -0.0680  -0.0617  -0.0379  -0.0121   0.0040   0.0090   0.0140
     0.0255   0.0697   0.1021   0.1035   0.1217   0.1338   0.1525   0.1878
     0.2802   0.5062   0.5855   0.8494   1.3144   1.4117   1.4577   1.7957
     1.9009   1.9357

          k = 0.4000-0.4619 0.0000 ( 51262 PWs)   bands (ev):

   -21.3146  -9.8922  -6.6563  -6.4417  -6.3127  -5.8490  -5.6710  -5.2168
    -5.0642  -4.9158  -4.5434  -4.2388  -4.0027  -3.9584  -3.8612  -3.8248
    -3.8172  -3.8055  -3.7916  -3.7755  -3.7185  -3.7102  -3.7060  -3.6998
    -3.6233  -3.6049  -3.5605  -3.5553  -3.5294  -3.5250  -3.4106  -3.3924
    -3.3743  -3.3705  -3.3433  -3.3041  -3.2123  -3.2001  -3.0974  -3.0803
    -3.0751  -2.9897  -2.9831  -2.9790  -2.9446  -2.8656  -2.8602  -2.8548
    -2.7933  -2.7836  -2.7038  -2.6761  -2.6474  -2.6341  -2.5861  -2.5802
    -2.5052  -2.4923  -2.4831  -2.4740  -2.4614  -2.4308  -2.4216  -2.3554
    -2.2908  -2.2777  -2.2715  -2.2592  -2.2142  -2.2026  -2.1479  -2.1394
    -2.1159  -2.1007  -2.0891  -2.0783  -2.0561  -2.0324  -2.0243  -2.0009
    -1.9951  -1.9863  -1.9611  -1.9462  -1.9382  -1.9018  -1.8832  -1.8509
    -1.8437  -1.8014  -1.7756  -1.7658  -1.7252  -1.7061  -1.6975  -1.6867
    -1.6656  -1.6587  -1.6484  -1.6428  -1.6306  -1.6100  -1.5875  -1.5742
    -1.5343  -1.5108  -1.5037  -1.5008  -1.4888  -1.4785  -1.4714  -1.4664
    -1.4569  -1.4451  -1.4284  -1.4031  -1.3916  -1.3553  -1.3442  -1.3248
    -1.2811  -1.2528  -1.2229  -1.2003  -1.1881  -1.1793  -1.1682  -1.1133
    -1.0973  -1.0856  -1.0609  -1.0184  -1.0015  -0.9566  -0.9390  -0.9303
    -0.9157  -0.8999  -0.8969  -0.8790  -0.8589  -0.8373  -0.8092  -0.7813
    -0.7769  -0.7438  -0.7301  -0.7242  -0.6973  -0.6721  -0.6550  -0.6331
    -0.6136  -0.6028  -0.5934  -0.5828  -0.5515  -0.5371  -0.5011  -0.4389
    -0.3735  -0.3329  -0.3243  -0.3158  -0.3110  -0.3027  -0.2916  -0.2831
    -0.2535  -0.2412  -0.2291  -0.2229  -0.1836  -0.1630  -0.1065  -0.0966
    -0.0870  -0.0683  -0.0550  -0.0470  -0.0091   0.0023   0.0077   0.0164
     0.0294   0.0678   0.0995   0.1076   0.1199   0.1331   0.1544   0.1954
     0.2607   0.5049   0.6135   0.8612   1.3172   1.4118   1.4439   1.7961
     1.8924   1.9485

 ------ SPIN DOWN ----------


          k = 0.0000 0.0000 0.0000 ( 51087 PWs)   bands (ev):

   -21.3570  -9.9857  -7.6225  -6.6143  -6.1752  -5.5386  -5.0173  -4.4224
    -4.3939  -4.3908  -4.3894  -4.3843  -4.3726  -4.2646  -3.5273  -3.5165
    -3.5146  -3.5138  -3.4895  -3.4801  -3.3660  -2.5782  -2.5686  -2.5668
    -2.5621  -2.5415  -2.4955  -2.1089  -2.1001  -2.0987  -2.0966  -2.0923
    -2.0874  -1.9049  -1.8986  -1.8290  -1.8173  -1.8121  -1.8064  -1.7187
    -1.7072  -1.6744  -1.6595  -1.6216  -1.5751  -1.5597  -1.5505  -1.5448
    -1.5403  -1.4883  -1.3112  -1.2899  -1.2816  -1.2803  -1.2775  -1.2701
    -1.2698  -1.2599  -1.2481  -1.2107  -1.2016  -1.1938  -1.1898  -1.1794
    -1.1399  -0.9253  -0.6428  -0.6200  -0.6056  -0.6008  -0.5770  -0.4592
    -0.4064  -0.3083  -0.2863  -0.2847  -0.2753  -0.2716  -0.2630  -0.2361
    -0.2253  -0.2072  -0.1934  -0.1923  -0.1917  -0.1801  -0.1564  -0.1204
    -0.0973  -0.0845  -0.0826  -0.0638  -0.0549  -0.0309  -0.0282  -0.0230
    -0.0210  -0.0136   0.0015   0.0034   0.0133   0.0144   0.0670   0.1171
     0.1484   0.1658   0.1919   0.2186   0.2321   0.2333   0.2355   0.2372
     0.2406   0.2417   0.2430   0.2482   0.3092   0.3106   0.3434   0.3985
     0.4060   0.4184   0.4312   0.4537   0.5665   0.6211   0.6234   0.6807
     0.7077   0.7110   0.7162   0.7211   0.7240   0.8550   1.0231   1.0396
     1.0672   1.0696   1.2042   1.2457   1.2646   1.2801   1.2813   1.2855
     1.2876   1.4378   1.4415   1.4495   1.4546   1.4639   1.4814   1.4832
     1.4905   1.5164   1.5363   1.5405   1.5589   1.5891   1.5996   1.6015
     1.6089   1.6107   1.6145   1.6377   1.6653   1.6837   1.6914   1.7072
     1.7188   1.7286   1.7318   1.7334   1.7390   1.7420   1.7478   1.7833
     1.7894   1.8110   1.8155   1.8234   1.8298   1.8326   1.8368   1.8640
     1.8718   1.8772   1.8804   1.8832   1.8877   1.8914   1.8974   1.9008
     1.9048   1.9522   1.9599   1.9779   2.1101   2.1128   2.1152   2.1181
     2.1216   2.1242

          k = 0.0000 0.2309 0.0000 ( 51134 PWs)   bands (ev):

   -21.3570  -9.9854  -7.4740  -6.5721  -6.1025  -5.5777  -5.3067  -5.0121
    -4.7803  -4.7654  -4.2515  -4.1080  -3.8472  -3.8399  -3.7631  -3.7263
    -3.5474  -3.3061  -3.1803  -3.1594  -3.0569  -2.7808  -2.5925  -2.5652
    -2.5003  -2.4753  -2.4493  -2.2230  -2.1432  -2.1354  -2.1271  -2.0958
    -2.0875  -2.0546  -2.0434  -2.0092  -2.0028  -1.8797  -1.8554  -1.7802
    -1.7735  -1.7250  -1.6370  -1.6054  -1.5885  -1.5750  -1.4934  -1.4561
    -1.4350  -1.4002  -1.3627  -1.3399  -1.3255  -1.2996  -1.2850  -1.2745
    -1.2648  -1.2161  -1.1822  -1.1681  -1.1372  -1.0986  -1.0889  -1.0631
    -0.9555  -0.9173  -0.7110  -0.6686  -0.6527  -0.6399  -0.5974  -0.5575
    -0.5174  -0.4817  -0.4623  -0.4248  -0.3276  -0.3035  -0.2909  -0.2781
    -0.2670  -0.2501  -0.2435  -0.2243  -0.2133  -0.1932  -0.1593  -0.1198
    -0.0890  -0.0830  -0.0763  -0.0541  -0.0448  -0.0212  -0.0131   0.0053
     0.0115   0.0169   0.0230   0.0259   0.0311   0.0395   0.0689   0.0816
     0.1014   0.1220   0.1310   0.1332   0.1709   0.1754   0.1936   0.2066
     0.2284   0.2497   0.2844   0.3056   0.3370   0.3463   0.3516   0.3769
     0.4287   0.5379   0.5781   0.5877   0.5976   0.6438   0.6509   0.6685
     0.6887   0.6953   0.6971   0.7001   0.7451   0.8976   1.0067   1.0297
     1.0359   1.0479   1.0615   1.0696   1.0936   1.1482   1.1971   1.2241
     1.2374   1.2518   1.3120   1.3193   1.3489   1.3718   1.3991   1.4133
     1.4536   1.4621   1.5024   1.5151   1.5254   1.5397   1.5580   1.5653
     1.5937   1.6092   1.6548   1.6628   1.6936   1.7022   1.7117   1.7245
     1.7681   1.7697   1.7801   1.7823   1.8003   1.8324   1.8589   1.8628
     1.8678   1.8720   1.9033   1.9191   1.9282   1.9396   1.9578   1.9666
     1.9778   2.0115   2.0183   2.0243   2.0428   2.0492   2.0562   2.0789
     2.0940   2.1037   2.1133   2.1372   2.1847   2.2135   2.2230   2.2470
     2.2895   2.3107

          k = 0.0000 0.4619 0.0000 ( 51204 PWs)   bands (ev):

   -21.3570  -9.9849  -7.0462  -6.5493  -6.2555  -5.8791  -5.4478  -5.0436
    -4.9887  -4.9646  -4.7792  -3.9010  -3.8893  -3.7906  -3.2849  -3.2260
    -3.2207  -3.1024  -2.9672  -2.8997  -2.7892  -2.7706  -2.6259  -2.6191
    -2.5748  -2.5539  -2.5006  -2.4703  -2.3924  -2.3756  -2.3166  -2.3099
    -2.2898  -2.1042  -2.0820  -2.0063  -2.0007  -1.8910  -1.8815  -1.8716
    -1.8667  -1.8390  -1.5883  -1.5767  -1.5607  -1.5454  -1.5244  -1.4726
    -1.3528  -1.3471  -1.3292  -1.3175  -1.3035  -1.2896  -1.2816  -1.2622
    -1.2062  -1.1695  -1.1640  -1.1488  -1.1205  -1.0746  -0.9864  -0.9298
    -0.8399  -0.8087  -0.7283  -0.6976  -0.6726  -0.6623  -0.6201  -0.6102
    -0.5911  -0.5778  -0.5487  -0.5254  -0.4815  -0.4515  -0.4352  -0.4087
    -0.3777  -0.3508  -0.3269  -0.3223  -0.3103  -0.2768  -0.2036  -0.1841
    -0.1311  -0.1157  -0.1073  -0.0495  -0.0333  -0.0248  -0.0016   0.0264
     0.0522   0.0580   0.0691   0.0836   0.0914   0.0998   0.1122   0.1342
     0.1459   0.1682   0.1822   0.1856   0.1912   0.2000   0.2203   0.2340
     0.2540   0.2634   0.2994   0.3529   0.3980   0.4149   0.4317   0.4472
     0.4542   0.4602   0.4842   0.5021   0.5493   0.5642   0.5725   0.6080
     0.6343   0.6406   0.6645   0.6699   0.6866   0.7073   0.8164   0.8566
     0.9012   0.9440   0.9916   1.0285   1.0882   1.1082   1.1243   1.1425
     1.1482   1.1568   1.2002   1.2343   1.2478   1.2890   1.3835   1.4053
     1.4205   1.4319   1.4916   1.5030   1.5291   1.5348   1.5686   1.5731
     1.6115   1.6255   1.6556   1.7123   1.7374   1.7500   1.7601   1.7802
     1.7911   1.7935   1.8159   1.8494   1.8637   1.8695   1.8827   1.9037
     1.9207   1.9423   2.0130   2.0249   2.0300   2.0469   2.0525   2.0678
     2.0764   2.1059   2.1105   2.1178   2.1249   2.1391   2.1465   2.1500
     2.1750   2.1971   2.3105   2.3270   2.3594   2.4655   2.6268   2.8260
     2.8442   2.9162

          k = 0.2000-0.1155 0.0000 ( 51134 PWs)   bands (ev):

   -21.3570  -9.9864  -7.4728  -6.5719  -6.0951  -5.5521  -5.3353  -5.0368
    -4.7617  -4.7483  -4.2625  -4.1537  -3.8459  -3.8398  -3.7432  -3.6941
    -3.5540  -3.3076  -3.1724  -3.1497  -3.0755  -2.8070  -2.5772  -2.5526
    -2.5168  -2.4664  -2.4435  -2.2279  -2.1450  -2.1324  -2.1294  -2.0942
    -2.0898  -2.0532  -2.0434  -2.0073  -2.0024  -1.8659  -1.8559  -1.7854
    -1.7746  -1.7412  -1.6319  -1.6022  -1.5925  -1.5759  -1.5233  -1.4540
    -1.4304  -1.3983  -1.3539  -1.3357  -1.3268  -1.2995  -1.2844  -1.2747
    -1.2670  -1.1992  -1.1808  -1.1678  -1.1390  -1.0988  -1.0839  -1.0618
    -0.9906  -0.9041  -0.7097  -0.6689  -0.6589  -0.6307  -0.6046  -0.5665
    -0.5029  -0.4949  -0.4369  -0.4214  -0.3257  -0.2999  -0.2932  -0.2762
    -0.2661  -0.2493  -0.2438  -0.2207  -0.2111  -0.1913  -0.1515  -0.1146
    -0.1025  -0.0821  -0.0785  -0.0560  -0.0392  -0.0210  -0.0136   0.0067
     0.0120   0.0165   0.0220   0.0254   0.0331   0.0479   0.0643   0.0817
     0.0986   0.1220   0.1277   0.1348   0.1580   0.1851   0.1932   0.2107
     0.2360   0.2739   0.3005   0.3106   0.3193   0.3482   0.3510   0.3766
     0.3878   0.5227   0.5662   0.5890   0.5923   0.6423   0.6484   0.6728
     0.6780   0.6934   0.6965   0.7005   0.7743   0.9086   1.0031   1.0219
     1.0346   1.0535   1.0576   1.0707   1.0823   1.1356   1.2078   1.2213
     1.2294   1.2670   1.3109   1.3169   1.3419   1.3720   1.3813   1.4024
     1.4619   1.4832   1.4998   1.5170   1.5259   1.5383   1.5545   1.5646
     1.5908   1.6172   1.6496   1.6706   1.6895   1.7057   1.7165   1.7459
     1.7602   1.7744   1.7760   1.7854   1.7982   1.8249   1.8537   1.8646
     1.8694   1.8725   1.9072   1.9185   1.9292   1.9422   1.9525   1.9718
     1.9778   2.0119   2.0170   2.0242   2.0421   2.0460   2.0564   2.0768
     2.0821   2.1075   2.1144   2.1339   2.1987   2.2132   2.2252   2.2338
     2.2965   2.3124

          k = 0.2000 0.1155 0.0000 ( 51134 PWs)   bands (ev):

   -21.3570  -9.9862  -7.4730  -6.5715  -6.0970  -5.5556  -5.3386  -5.0180
    -4.7696  -4.7546  -4.2544  -4.1496  -3.8468  -3.8393  -3.7526  -3.6959
    -3.5533  -3.3073  -3.1761  -3.1491  -3.0711  -2.8015  -2.5841  -2.5521
    -2.5113  -2.4722  -2.4439  -2.2266  -2.1442  -2.1324  -2.1281  -2.0925
    -2.0886  -2.0542  -2.0434  -2.0075  -2.0016  -1.8737  -1.8552  -1.7834
    -1.7734  -1.7279  -1.6577  -1.6073  -1.5938  -1.5755  -1.4845  -1.4504
    -1.4304  -1.4177  -1.3627  -1.3328  -1.3178  -1.3036  -1.2794  -1.2789
    -1.2638  -1.2058  -1.1881  -1.1696  -1.1378  -1.1022  -1.0867  -1.0653
    -0.9504  -0.9183  -0.7170  -0.6685  -0.6559  -0.6347  -0.5993  -0.5684
    -0.5122  -0.4948  -0.4430  -0.4140  -0.3278  -0.3007  -0.2922  -0.2834
    -0.2568  -0.2450  -0.2396  -0.2274  -0.2185  -0.1966  -0.1582  -0.1212
    -0.0951  -0.0829  -0.0743  -0.0626  -0.0444  -0.0148  -0.0134   0.0031
     0.0128   0.0137   0.0221   0.0266   0.0356   0.0430   0.0732   0.0837
     0.0988   0.1241   0.1326   0.1346   0.1568   0.1789   0.1995   0.2091
     0.2368   0.2518   0.2981   0.3072   0.3355   0.3469   0.3515   0.3761
     0.4457   0.5422   0.5713   0.5916   0.5971   0.6368   0.6479   0.6731
     0.6820   0.6894   0.6962   0.6989   0.7405   0.8972   1.0074   1.0150
     1.0356   1.0548   1.0629   1.0690   1.0883   1.1477   1.1657   1.2176
     1.2332   1.2564   1.3129   1.3181   1.3426   1.3720   1.3899   1.4037
     1.4640   1.4746   1.5050   1.5177   1.5263   1.5378   1.5547   1.5651
     1.5940   1.6206   1.6555   1.6653   1.6854   1.7057   1.7145   1.7416
     1.7600   1.7737   1.7772   1.7859   1.7991   1.8266   1.8573   1.8651
     1.8676   1.8772   1.8981   1.9208   1.9295   1.9412   1.9536   1.9719
     1.9762   2.0102   2.0162   2.0238   2.0435   2.0472   2.0544   2.0778
     2.0821   2.1064   2.1120   2.1364   2.1965   2.2135   2.2273   2.2356
     2.3021   2.3106

          k = 0.2000 0.3464 0.0000 ( 51202 PWs)   bands (ev):

   -21.3570  -9.9857  -7.1837  -6.5321  -5.9541  -5.7754  -5.7453  -5.3902
    -5.0062  -4.5298  -4.3913  -4.0369  -4.0325  -3.9277  -3.2165  -3.1992
    -3.1898  -3.1855  -3.0775  -2.9993  -2.9189  -2.8873  -2.8534  -2.5233
    -2.4433  -2.4373  -2.4208  -2.3730  -2.3460  -2.3284  -2.2374  -2.2250
    -2.2191  -2.2141  -2.1990  -2.0796  -2.0160  -1.8575  -1.8442  -1.8385
    -1.7604  -1.7484  -1.7134  -1.7057  -1.5809  -1.5102  -1.4880  -1.4386
    -1.3923  -1.3592  -1.3247  -1.3183  -1.3029  -1.3007  -1.2656  -1.2575
    -1.2423  -1.2181  -1.1500  -1.1442  -1.0704  -1.0019  -0.9725  -0.9267
    -0.8647  -0.8523  -0.7369  -0.7086  -0.6308  -0.6190  -0.6008  -0.5630
    -0.5524  -0.5424  -0.5266  -0.5152  -0.4575  -0.4361  -0.4114  -0.3970
    -0.3896  -0.3638  -0.3468  -0.3322  -0.2789  -0.2572  -0.1887  -0.1729
    -0.1533  -0.1265  -0.1039  -0.0730  -0.0548  -0.0422  -0.0288  -0.0111
     0.0001   0.0114   0.0279   0.0430   0.0515   0.0692   0.0928   0.1094
     0.1245   0.1355   0.1530   0.1720   0.1812   0.1953   0.2054   0.2088
     0.2194   0.2884   0.3100   0.3201   0.3951   0.4349   0.4508   0.4633
     0.4920   0.4975   0.5345   0.5624   0.6059   0.6106   0.6233   0.6385
     0.6448   0.6688   0.6919   0.7415   0.7684   0.7922   0.8915   0.9378
     0.9592   1.0379   1.0522   1.0822   1.0990   1.1080   1.1171   1.1370
     1.1552   1.1691   1.1783   1.1966   1.2324   1.2536   1.3101   1.3514
     1.3705   1.3861   1.3988   1.4393   1.4520   1.4839   1.5061   1.5348
     1.5578   1.6127   1.6853   1.7328   1.7485   1.7607   1.7782   1.7941
     1.8132   1.8222   1.8431   1.8523   1.8671   1.8907   1.9157   1.9222
     1.9380   1.9548   1.9715   1.9799   1.9972   2.0171   2.0260   2.0446
     2.0587   2.0672   2.0678   2.0962   2.1024   2.1081   2.1450   2.1843
     2.2010   2.2234   2.3121   2.3270   2.3861   2.4515   2.4868   2.6159
     2.7500   2.7832

          k = 0.2000-0.5774 0.0000 ( 51262 PWs)   bands (ev):

   -21.3570  -9.9856  -6.7395  -6.5709  -6.3807  -5.8925  -5.7485  -5.3502
    -4.9879  -4.9013  -4.5641  -4.0956  -3.5448  -3.4426  -3.2269  -3.2256
    -3.2071  -3.0192  -2.9705  -2.8185  -2.8058  -2.8026  -2.6782  -2.6676
    -2.6570  -2.6487  -2.6280  -2.6227  -2.4150  -2.3013  -2.2580  -2.2516
    -2.2454  -2.2300  -2.1964  -2.1857  -2.0829  -2.0686  -1.8244  -1.7468
    -1.7284  -1.7217  -1.7127  -1.6491  -1.5593  -1.5341  -1.4878  -1.4642
    -1.4294  -1.4247  -1.3440  -1.3044  -1.2673  -1.2479  -1.2377  -1.2127
    -1.1552  -1.1158  -1.0947  -1.0758  -1.0274  -1.0060  -0.9959  -0.8977
    -0.8694  -0.7704  -0.7173  -0.7094  -0.6895  -0.6693  -0.6273  -0.6251
    -0.5829  -0.5497  -0.5266  -0.5061  -0.4714  -0.4504  -0.4148  -0.3927
    -0.3850  -0.3710  -0.3449  -0.3411  -0.3262  -0.3220  -0.2924  -0.2806
[...]
     atom    8 type  1   force =     0.00040341   -0.00160877   -0.10209376
     atom    9 type  1   force =     0.00345011   -0.00167788   -0.10517222
     atom   10 type  1   force =     0.00139484    0.00077829   -0.00872100
     atom   11 type  1   force =     0.00113331    0.00025251   -0.01333366
     atom   12 type  1   force =    -0.00289056    0.00111711   -0.00967665
     atom   13 type  1   force =     0.00061131   -0.00098054   -0.01032642
     atom   14 type  1   force =     0.00000240   -0.00091685   -0.00944490
     atom   15 type  1   force =    -0.00048245   -0.00006527   -0.01219512
     atom   16 type  1   force =     0.00105760   -0.00095156   -0.01755012
     atom   17 type  1   force =    -0.00057404   -0.00040493   -0.01038406
     atom   18 type  1   force =    -0.00061902    0.00150503   -0.01138838
     atom   19 type  1   force =     0.00066302    0.00931397    0.00358936
     atom   20 type  1   force =    -0.00285821    0.00922611    0.01044094
     atom   21 type  1   force =     0.00169753   -0.00099193    0.01646509
     atom   22 type  1   force =    -0.00118561   -0.00218527    0.01847334
     atom   23 type  1   force =     0.00175934   -0.00096936    0.01479963
     atom   24 type  1   force =    -0.00020079   -0.00055720    0.01798149
     atom   25 type  1   force =    -0.01022707   -0.00218386    0.00429452
     atom   26 type  1   force =    -0.00126435   -0.00842819   -0.00042264
     atom   27 type  1   force =     0.00717132   -0.00373517    0.01147365
     atom   28 type  1   force =     0.05730418   -0.00568074    0.11373374
     atom   29 type  1   force =    -0.00762806   -0.00541275    0.01398863
     atom   30 type  1   force =     0.00387186   -0.00036047    0.11775004
     atom   31 type  1   force =    -0.01186199   -0.04071412    0.15720626
     atom   32 type  1   force =    -0.00004292    0.00155818    0.10644743
     atom   33 type  1   force =     0.00635209   -0.01019962    0.11584282
     atom   34 type  1   force =     0.00375317    0.00799357    0.11660973
     atom   35 type  1   force =    -0.01295596    0.04083546    0.14930204
     atom   36 type  1   force =    -0.00234441    0.00126840    0.10871381
     atom   37 type  2   force =    -0.38708233    0.00558721    0.21776503
     atom   38 type  3   force =     2.15214323   -0.23878163   -1.15372576
     atom   39 type  4   force =    -0.05332648    0.01281012   -0.05389348
     The ionic contribution  to forces
     atom    1 type  1   force =    -0.00567495    0.00758495 -111.16763416
     atom    2 type  1   force =     0.00599912    0.00758255 -111.16698628
     atom    3 type  1   force =    -0.00032416    0.00257040 -111.15568456
     atom    4 type  1   force =     0.00015802    0.00284975 -111.15510195
     atom    5 type  1   force =    -0.00146936   -0.00479147 -111.15768592
     atom    6 type  1   force =     0.00131134   -0.00451251 -111.15800223
     atom    7 type  1   force =    -0.00730497   -0.00303192 -111.16249561
     atom    8 type  1   force =     0.00016056   -0.00549914 -111.17683341
     atom    9 type  1   force =     0.00714439   -0.00275261 -111.16217193
     atom   10 type  1   force =    -0.05445403    0.00018203  -40.21145137
     atom   11 type  1   force =     0.05625019    0.00176168  -40.20802432
     atom   12 type  1   force =    -0.00179130    0.00050021  -40.09977979
     atom   13 type  1   force =     0.00215503    0.06794897  -40.14342110
     atom   14 type  1   force =     0.02512759    0.02003902  -40.08872616
     atom   15 type  1   force =    -0.02728362    0.02094138  -40.09305527
     atom   16 type  1   force =    -0.02674690   -0.02250810  -40.09143299
     atom   17 type  1   force =    -0.00040206   -0.06853576  -40.14580870
     atom   18 type  1   force =     0.02714694   -0.02032915  -40.09212920
     atom   19 type  1   force =    -0.28710856    0.39432272   31.09434877
     atom   20 type  1   force =     0.30464411    0.39396826   31.13075242
     atom   21 type  1   force =    -0.01721668    0.11334733   31.66108472
     atom   22 type  1   force =     0.00694645    0.12575840   31.68742295
     atom   23 type  1   force =    -0.07020265   -0.22586449   31.58243147
     atom   24 type  1   force =     0.06334242   -0.21312956   31.56934920
     atom   25 type  1   force =    -0.36324013   -0.14726232   31.35007647
     atom   26 type  1   force =     0.00508949   -0.31013765   30.58051434
     atom   27 type  1   force =     0.35722178   -0.13235608   31.36630727
     atom   28 type  1   force =    -3.66484617   -0.05477865   97.80529881
     atom   29 type  1   force =     4.01615000    0.22102840   97.82087879
     atom   30 type  1   force =    -0.10411229    0.01690888  103.94505584
     atom   31 type  1   force =     0.13126764    3.08825368  102.54590838
     atom   32 type  1   force =     0.82338785    0.73139209  104.18694517
     atom   33 type  1   force =    -0.95222525    0.84003783  104.01738229
     atom   34 type  1   force =    -0.91021764   -0.85998500  104.07365086
     atom   35 type  1   force =    -0.02796340   -3.16498245  102.46253783
     atom   36 type  1   force =     0.92323916   -0.78146030  104.07758049
     atom   37 type  2   force =     6.11887852   -0.60954967   55.80536364
     atom   38 type  3   force =    -8.27727386    0.99313501   87.85706826
     atom   39 type  4   force =     1.92423738   -0.41864670   15.01646698
     The local contribution  to forces
     atom    1 type  1   force =     0.00294884   -0.00890210  111.27118857
     atom    2 type  1   force =    -0.00546696   -0.01050839  111.27380884
     atom    3 type  1   force =     0.00266668   -0.00173744  111.26189163
     atom    4 type  1   force =     0.00127995   -0.00230192  111.26325411
     atom    5 type  1   force =    -0.00075147    0.00643964  111.26643444
     atom    6 type  1   force =    -0.00077687    0.00199124  111.26548299
     atom    7 type  1   force =     0.01033322    0.00220792  111.26542764
     atom    8 type  1   force =    -0.00024892    0.00767400  111.28184400
     atom    9 type  1   force =    -0.01070911    0.00458436  111.27004979
     atom   10 type  1   force =     0.05225603   -0.00091931   40.19884723
     atom   11 type  1   force =    -0.05649601   -0.00228220   40.19921725
     atom   12 type  1   force =     0.00496753   -0.00160454   40.08830477
     atom   13 type  1   force =    -0.00257124   -0.06683047   40.13311821
     atom   14 type  1   force =    -0.02571255   -0.01841279   40.07755061
     atom   15 type  1   force =     0.02832413   -0.02088988   40.08342061
     atom   16 type  1   force =     0.02565615    0.02389166   40.08625880
     atom   17 type  1   force =     0.00012888    0.06888704   40.13532547
     atom   18 type  1   force =    -0.02630402    0.01909007   40.08188274
     atom   19 type  1   force =     0.28595325   -0.40559037  -31.07624539
     atom   20 type  1   force =    -0.30128219   -0.40343111  -31.12166174
     atom   21 type  1   force =     0.01570692   -0.11309691  -31.65493177
     atom   22 type  1   force =    -0.00623198   -0.12433099  -31.68020804
     atom   23 type  1   force =     0.06866820    0.22647290  -31.57421567
     atom   24 type  1   force =    -0.06223570    0.21347815  -31.56354736
     atom   25 type  1   force =     0.37594141    0.15147308  -31.33194828
     atom   26 type  1   force =    -0.00469168    0.31941154  -30.55947607
     atom   27 type  1   force =    -0.36322805    0.13590990  -31.36229340
     atom   28 type  1   force =     3.58948199    0.06305237  -97.91958827
     atom   29 type  1   force =    -4.00666743   -0.21352895  -97.82100305
     atom   30 type  1   force =     0.09857562   -0.01631359 -104.07354708
     atom   31 type  1   force =    -0.11682644   -3.03714158 -102.71564260
     atom   32 type  1   force =    -0.81998589   -0.73034955 -104.29985936
     atom   33 type  1   force =     0.94184816   -0.82554338 -104.14344697
     atom   34 type  1   force =     0.90253262    0.84824356 -104.19851747
     atom   35 type  1   force =     0.04348029    3.11293152 -102.62265999
     atom   36 type  1   force =    -0.91786136    0.77628440 -104.19428067
     atom   37 type  2   force =    -5.73149535    0.60252692  -56.01896708
     atom   38 type  3   force =     6.14386223   -0.75901457  -86.71919187
     atom   39 type  4   force =    -1.87228472    0.40774487  -14.95476004
     The core correction contribution to forces
     atom    1 type  1   force =    -0.00011362   -0.00030610    0.01028435
     atom    2 type  1   force =    -0.00013319   -0.00034122    0.01049570
     atom    3 type  1   force =     0.00008161    0.00009262    0.01007438
     atom    4 type  1   force =    -0.00001103    0.00002597    0.01023106
     atom    5 type  1   force =    -0.00003158    0.00028309    0.01036324
     atom    6 type  1   force =    -0.00008845   -0.00021596    0.01015297
     atom    7 type  1   force =     0.00031793    0.00001899    0.01053324
     atom    8 type  1   force =    -0.00003578    0.00019512    0.01044731
     atom    9 type  1   force =    -0.00021646    0.00022916    0.01041362
     atom   10 type  1   force =     0.00003001   -0.00003220   -0.00147875
     atom   11 type  1   force =    -0.00000715    0.00005254   -0.00173966
     atom   12 type  1   force =     0.00007818    0.00019622   -0.00166218
     atom   13 type  1   force =     0.00008438   -0.00006188   -0.00180727
     atom   14 type  1   force =    -0.00007833   -0.00006520   -0.00173268
     atom   15 type  1   force =     0.00001445   -0.00006363   -0.00189652
     atom   16 type  1   force =     0.00020976    0.00002971   -0.00183095
     atom   17 type  1   force =     0.00008207    0.00013058   -0.00180904
     atom   18 type  1   force =    -0.00018468   -0.00003186   -0.00170052
     atom   19 type  1   force =    -0.00004051   -0.00008477    0.00094243
     atom   20 type  1   force =    -0.00045420    0.00093203    0.00053965
     atom   21 type  1   force =     0.00023772   -0.00004660    0.00170193
     atom   22 type  1   force =     0.00009880   -0.00031908    0.00222910
     atom   23 type  1   force =    -0.00015941    0.00007328    0.00163661
     atom   24 type  1   force =    -0.00008494   -0.00024708    0.00206414
     atom   25 type  1   force =     0.00016046    0.00009774    0.00133266
     atom   26 type  1   force =    -0.00040905    0.00001796    0.00068891
     atom   27 type  1   force =     0.00122134   -0.00077980    0.00002650
     atom   28 type  1   force =     0.00933340   -0.00008218    0.00264518
     atom   29 type  1   force =    -0.00309786   -0.00106538   -0.00727728
     atom   30 type  1   force =    -0.00090480    0.00039639   -0.00954544
     atom   31 type  1   force =     0.00187858   -0.00432579   -0.00658000
     atom   32 type  1   force =    -0.00206678   -0.00226679   -0.00927280
     atom   33 type  1   force =     0.00012014   -0.00025349   -0.01019559
     atom   34 type  1   force =     0.00030378    0.00017242   -0.00993425
     atom   35 type  1   force =     0.00198430    0.00488666   -0.00703233
     atom   36 type  1   force =    -0.00206534    0.00189056   -0.00913737
     atom   37 type  2   force =     0.00418748    0.00011064   -0.00247396
     atom   38 type  3   force =    -0.01731067    0.00191160    0.01025422
     atom   39 type  4   force =     0.00000000    0.00000000    0.00000000
     The Hubbard contrib.    to forces
     atom    1 type  1   force =     0.00000000    0.00000000    0.00000000
     atom    2 type  1   force =     0.00000000    0.00000000    0.00000000
     atom    3 type  1   force =     0.00000000    0.00000000    0.00000000
     atom    4 type  1   force =     0.00000000    0.00000000    0.00000000
     atom    5 type  1   force =     0.00000000    0.00000000    0.00000000
     atom    6 type  1   force =     0.00000000    0.00000000    0.00000000
     atom    7 type  1   force =     0.00000000    0.00000000    0.00000000
     atom    8 type  1   force =     0.00000000    0.00000000    0.00000000
     atom    9 type  1   force =     0.00000000    0.00000000    0.00000000
     atom   10 type  1   force =     0.00000000    0.00000000    0.00000000
     atom   11 type  1   force =     0.00000000    0.00000000    0.00000000
     atom   12 type  1   force =     0.00000000    0.00000000    0.00000000
     atom   13 type  1   force =     0.00000000    0.00000000    0.00000000
     atom   14 type  1   force =     0.00000000    0.00000000    0.00000000
     atom   15 type  1   force =     0.00000000    0.00000000    0.00000000
     atom   16 type  1   force =     0.00000000    0.00000000    0.00000000
     atom   17 type  1   force =     0.00000000    0.00000000    0.00000000
     atom   18 type  1   force =     0.00000000    0.00000000    0.00000000
     atom   19 type  1   force =     0.00000000    0.00000000    0.00000000
     atom   20 type  1   force =     0.00000000    0.00000000    0.00000000
     atom   21 type  1   force =     0.00000000    0.00000000    0.00000000
     atom   22 type  1   force =     0.00000000    0.00000000    0.00000000
     atom   23 type  1   force =     0.00000000    0.00000000    0.00000000
     atom   24 type  1   force =     0.00000000    0.00000000    0.00000000
     atom   25 type  1   force =     0.00000000    0.00000000    0.00000000
     atom   26 type  1   force =     0.00000000    0.00000000    0.00000000
     atom   27 type  1   force =     0.00000000    0.00000000    0.00000000
     atom   28 type  1   force =     0.00000000    0.00000000    0.00000000
     atom   29 type  1   force =     0.00000000    0.00000000    0.00000000
     atom   30 type  1   force =     0.00000000    0.00000000    0.00000000
     atom   31 type  1   force =     0.00000000    0.00000000    0.00000000
     atom   32 type  1   force =     0.00000000    0.00000000    0.00000000
     atom   33 type  1   force =     0.00000000    0.00000000    0.00000000
     atom   34 type  1   force =     0.00000000    0.00000000    0.00000000
     atom   35 type  1   force =     0.00000000    0.00000000    0.00000000
     atom   36 type  1   force =     0.00000000    0.00000000    0.00000000
     atom   37 type  2   force =     0.00000000    0.00000000    0.00000000
     atom   38 type  3   force =     0.00000000    0.00000000    0.00000000
     atom   39 type  4   force =     0.00000000    0.00000000    0.00000000
     The SCF correction term to forces
     atom    1 type  1   force =    -0.00000000   -0.00000000    0.00000000
     atom    2 type  1   force =     0.00000000    0.00000000    0.00000000
     atom    3 type  1   force =    -0.00000000   -0.00000000    0.00000000
     atom    4 type  1   force =     0.00000000    0.00000000    0.00000000
     atom    5 type  1   force =    -0.00000000   -0.00000000    0.00000000
     atom    6 type  1   force =    -0.00000000   -0.00000000    0.00000000
     atom    7 type  1   force =    -0.00000000   -0.00000000    0.00000000
     atom    8 type  1   force =    -0.00000000   -0.00000000    0.00000000
     atom    9 type  1   force =     0.00000000    0.00000000    0.00000000
     atom   10 type  1   force =    -0.00000000   -0.00000000    0.00000000
     atom   11 type  1   force =    -0.00000000    0.00000000    0.00000000
     atom   12 type  1   force =     0.00000000    0.00000000    0.00000000
     atom   13 type  1   force =     0.00000000   -0.00000000    0.00000000
     atom   14 type  1   force =    -0.00000000   -0.00000000    0.00000000
     atom   15 type  1   force =    -0.00000000   -0.00000000    0.00000000
     atom   16 type  1   force =     0.00000000    0.00000000    0.00000000
     atom   17 type  1   force =    -0.00000000    0.00000000    0.00000000
     atom   18 type  1   force =     0.00000000    0.00000000    0.00000000
     atom   19 type  1   force =     0.00000000   -0.00000000    0.00000000
     atom   20 type  1   force =    -0.00000000   -0.00000000    0.00000000
     atom   21 type  1   force =     0.00000000    0.00000000    0.00000000
     atom   22 type  1   force =     0.00000000   -0.00000000    0.00000000
     atom   23 type  1   force =     0.00000000    0.00000000    0.00000000
     atom   24 type  1   force =    -0.00000000   -0.00000000    0.00000000
     atom   25 type  1   force =     0.00000000   -0.00000000    0.00000000
     atom   26 type  1   force =     0.00000000    0.00000000    0.00000000
     atom   27 type  1   force =    -0.00000000    0.00000000    0.00000000
     atom   28 type  1   force =     0.00000000   -0.00000000   -0.00000000
     atom   29 type  1   force =    -0.00000000    0.00000000   -0.00000000
     atom   30 type  1   force =    -0.00000000   -0.00000000   -0.00000000
     atom   31 type  1   force =     0.00000000    0.00000000   -0.00000000
     atom   32 type  1   force =    -0.00000000    0.00000000   -0.00000000
     atom   33 type  1   force =     0.00000000    0.00000000   -0.00000000
     atom   34 type  1   force =     0.00000000   -0.00000000   -0.00000000
     atom   35 type  1   force =     0.00000000    0.00000000   -0.00000000
     atom   36 type  1   force =    -0.00000000   -0.00000000   -0.00000000
     atom   37 type  2   force =     0.00000098    0.00000075   -0.00001584
     atom   38 type  3   force =     0.00000173    0.00000060   -0.00001976
     atom   39 type  4   force =     0.00000001   -0.00000011   -0.00000284

     Total force =     0.011493     Total SCF correction =     0.000026

     Writing all to output data dir ./pwscf.save/

     init_run     :     15.63s CPU     16.21s WALL (       1 calls)
     electrons    :    912.69s CPU    937.28s WALL (       1 calls)
     forces       :      3.56s CPU      3.67s WALL (       1 calls)

     Called by init_run:
     wfcinit      :     12.58s CPU     13.01s WALL (       1 calls)
     potinit      :      1.94s CPU      2.06s WALL (       1 calls)
     hinit0       :      0.85s CPU      0.87s WALL (       1 calls)

     Called by electrons:
     c_bands      :    773.81s CPU    792.86s WALL (      52 calls)
     sum_band     :     93.21s CPU     96.29s WALL (      52 calls)
     v_of_rho     :     12.76s CPU     13.94s WALL (      53 calls)
     newd         :      3.79s CPU      3.93s WALL (      53 calls)
     PAW_pot      :     13.10s CPU     13.51s WALL (      53 calls)
     mix_rho      :     17.24s CPU     17.81s WALL (      52 calls)
     vdW_kernel   :      1.07s CPU      1.08s WALL (       1 calls)

     Called by c_bands:
     init_us_2    :      8.64s CPU      9.06s WALL (    2756 calls)
     init_us_2:cp :      8.62s CPU      9.05s WALL (    2756 calls)
     cegterg      :    748.16s CPU    766.15s WALL (    1352 calls)

     Called by *egterg:
     cdiaghg      :    211.52s CPU    215.14s WALL (    4825 calls)
     h_psi        :    358.91s CPU    368.68s WALL (    4851 calls)
     s_psi        :     37.19s CPU     38.26s WALL (    4851 calls)
     g_psi        :      0.90s CPU      0.94s WALL (    3473 calls)

     Called by h_psi:
     h_psi:calbec :     58.85s CPU     60.69s WALL (    4851 calls)
     vloc_psi     :    259.61s CPU    266.29s WALL (    4851 calls)
     add_vuspsi   :     38.29s CPU     39.45s WALL (    4851 calls)

     General routines
     calbec       :     84.07s CPU     86.79s WALL (    6307 calls)
     fft          :      9.87s CPU     11.02s WALL (    4794 calls)
     ffts         :     10.30s CPU     10.64s WALL (   21991 calls)
     fftw         :    297.40s CPU    305.10s WALL ( 1402644 calls)
     interpolate  :      0.42s CPU      0.44s WALL (     106 calls)

     Parallel routines

     PWSCF        :  15m37.55s CPU  16m 8.25s WALL


   This run was terminated on:  15:24:54   9Dec2025            

=------------------------------------------------------------------------------=
   JOB DONE.
=------------------------------------------------------------------------------=
