
     Program PWSCF v.7.1 starts on 11Dec2025 at  5: 9:28 
        Git branch: heads/qe-7.1
        Last git commit: 48ba0178f8fede6d020eb786884699a9f063f55d-dirty
        Last git commit date: Fri Jan 27 14:22:33 2023 +0000
        Last git commit subject: Merge branch 'fix_hubbard' into 'develop'

     This program is part of the open-source Quantum ESPRESSO suite
     for quantum simulation of materials; please cite
         "P. Giannozzi et al., J. Phys.:Condens. Matter 21 395502 (2009);
         "P. Giannozzi et al., J. Phys.:Condens. Matter 29 465901 (2017);
         "P. Giannozzi et al., J. Chem. Phys. 152 154105 (2020);
          URL http://www.quantum-espresso.org", 
     in publications or presentations arising from this work. More details at
     http://www.quantum-espresso.org/quote

     Parallel version (MPI), running on    96 processors

     MPI processes distributed on     2 nodes
     11175 MiB available memory on the printing compute node when the environment starts

     Reading input from espresso.pwi
Warning: card &CELL ignored
Warning: card / ignored
Warning: card &FCP ignored
Warning: card / ignored
Warning: card &RISM ignored
Warning: card / ignored

     Current dimensions of program PWSCF are:
     Max number of different atomic species (ntypx) = 10
     Max number of k-points (npk) =  40000
     Max angular momentum in pseudopotentials (lmaxx) =  4
     file Co.pbe-n-kjpaw_psl.1.0.0.UPF: wavefunction(s)  4S 3D renormalized
     file C.pbe-n-kjpaw_psl.1.0.0.UPF: wavefunction(s)  2S 2P renormalized
     file O.pbe-nl-kjpaw_psl.1.0.0.UPF: wavefunction(s)  2S 2P renormalized
     file H.pbe-kjpaw_psl.1.0.0.UPF: wavefunction(s)  1S renormalized

     **************************************************************************
     Initializing libbeef V0.1.2 with the BEEF-vdW functional.
     Citation: Wellendorff et al., PRB 85, 235149 (2012).
     **************************************************************************


     IMPORTANT: XC functional enforced from input :
     Exchange-correlation= BEEF-VDW
                           (   1   4  43  14   2   0   0)
     Any further DFT definition will be discarded
     Please, verify this is what you really want


     R & G space division:  proc/nbgrp/npool/nimage =      96
     Subspace diagonalization in iterative solution of the eigenvalue problem:
     one sub-group per band group will be used
     custom distributed-memory algorithm (size of sub-group:  2*  2 procs)


     Parallelization info
     --------------------
     sticks:   dense  smooth     PW     G-vecs:    dense   smooth      PW
     Min          43      28      7                 7829     4248     595
     Max          44      29      8                 7845     4281     630
     Sum        4153    2773    757               752179   409445   59217

     Using Slab Decomposition



     bravais-lattice index     =            0
     lattice parameter (alat)  =      14.1729  a.u.
     unit-cell volume          =    8574.3059 (a.u.)^3
     number of atoms/cell      =           39
     number of atomic types    =            4
     number of electrons       =       335.00
     number of Kohn-Sham states=          202
     kinetic-energy cutoff     =      50.0000  Ry
     charge density cutoff     =     300.0000  Ry
     scf convergence threshold =      1.0E-08
     mixing beta               =       0.7000
     number of iterations used =            8  local-TF  mixing
     Exchange-correlation= BEEF-VDW
                           (   1   4  43  14   2   0   0)

     celldm(1)=  14.172946  celldm(2)=   0.000000  celldm(3)=   0.000000
     celldm(4)=   0.000000  celldm(5)=   0.000000  celldm(6)=   0.000000

     crystal axes: (cart. coord. in units of alat)
               a(1) = (   1.000000   0.000000   0.000000 )  
               a(2) = (   0.500000   0.866025   0.000000 )  
               a(3) = (   0.000000   0.000000   3.477667 )  

     reciprocal axes: (cart. coord. in units 2 pi/alat)
               b(1) = (  1.000000 -0.577350  0.000000 )  
               b(2) = (  0.000000  1.154701  0.000000 )  
               b(3) = (  0.000000  0.000000  0.287549 )  


     PseudoPot. # 1 for Co read from file:
     /users/kbadger1/espresso/pseudo/pslibrary.1.0.0/pbe/PSEUDOPOTENTIALS/Co.pbe-n-kjpaw_psl.1.0.0.UPF
     MD5 check sum: 88af6ec42553d4236c267fdfcb472151
     Pseudo is Projector augmented-wave + core cor, Zval =  9.0
     Generated using 'atomic' code by A. Dal Corso  v.7.0
     Shape of augmentation charge: PSQ
     Using radial grid of 1193 points,  6 beta functions with: 
                l(1) =   0
                l(2) =   0
                l(3) =   1
                l(4) =   1
                l(5) =   2
                l(6) =   2
     Q(r) pseudized with 0 coefficients 


     PseudoPot. # 2 for C  read from file:
     /users/kbadger1/espresso/pseudo/pslibrary.1.0.0/pbe/PSEUDOPOTENTIALS/C.pbe-n-kjpaw_psl.1.0.0.UPF
     MD5 check sum: 6408e75cdba28732cea38a4db8498ce4
     Pseudo is Projector augmented-wave + core cor, Zval =  4.0
     Generated using 'atomic' code by A. Dal Corso  v.7.0
     Shape of augmentation charge: PSQ
     Using radial grid of 1073 points,  4 beta functions with: 
                l(1) =   0
                l(2) =   0
                l(3) =   1
                l(4) =   1
     Q(r) pseudized with 0 coefficients 


     PseudoPot. # 3 for O  read from file:
     /users/kbadger1/espresso/pseudo/pslibrary.1.0.0/pbe/PSEUDOPOTENTIALS/O.pbe-nl-kjpaw_psl.1.0.0.UPF
     MD5 check sum: f0439fab3598ca4e468f064226030408
     Pseudo is Projector augmented-wave + core cor, Zval =  6.0
     Generated using 'atomic' code by A. Dal Corso  v.7.0
     Shape of augmentation charge: PSQ
     Using radial grid of 1095 points,  4 beta functions with: 
                l(1) =   0
                l(2) =   0
                l(3) =   1
                l(4) =   1
     Q(r) pseudized with 0 coefficients 


     PseudoPot. # 4 for H  read from file:
     /users/kbadger1/espresso/pseudo/pslibrary.1.0.0/pbe/PSEUDOPOTENTIALS/H.pbe-kjpaw_psl.1.0.0.UPF
     MD5 check sum: fe4c6fa958fa6d3815bf5d2419cbf1df
     Pseudo is Projector augmented-wave, Zval =  1.0
     Generated using 'atomic' code by A. Dal Corso  v.7.0
     Shape of augmentation charge: PSQ
     Using radial grid of  929 points,  2 beta functions with: 
                l(1) =   0
                l(2) =   0
     Q(r) pseudized with 0 coefficients 


     atomic species   valence    mass     pseudopotential
        Co             9.00    58.93319     Co( 1.00)
        C              4.00    12.00000     C ( 1.00)
        O              6.00    15.99491     O ( 1.00)
        H              1.00     1.00783     H ( 1.00)

     Starting magnetic structure 
     atomic species   magnetization
        Co           1.000
        C            1.000
        O            0.000
        H            0.000

     No symmetry found



   Cartesian axes

     site n.     atom                  positions (alat units)
         1           Co  tau(   1) = (   0.0000000   0.1924501   1.3333333  )
         2           Co  tau(   2) = (   0.3333333   0.1924501   1.3333333  )
         3           Co  tau(   3) = (   0.6666667   0.1924501   1.3333333  )
         4           Co  tau(   4) = (   0.1666667   0.4811252   1.3333333  )
         5           Co  tau(   5) = (   0.5000000   0.4811252   1.3333333  )
         6           Co  tau(   6) = (   0.8333333   0.4811252   1.3333333  )
         7           Co  tau(   7) = (   0.3333333   0.7698004   1.3333333  )
         8           Co  tau(   8) = (   0.6666667   0.7698004   1.3333333  )
         9           Co  tau(   9) = (   1.0000000   0.7698004   1.3333333  )
        10           Co  tau(  10) = (   0.0000000   0.0000000   1.6036667  )
        11           Co  tau(  11) = (   0.3333333   0.0000000   1.6036667  )
        12           Co  tau(  12) = (   0.6666667   0.0000000   1.6036667  )
        13           Co  tau(  13) = (   0.1666667   0.2886751   1.6036667  )
        14           Co  tau(  14) = (   0.5000000   0.2886751   1.6036667  )
        15           Co  tau(  15) = (   0.8333333   0.2886751   1.6036667  )
        16           Co  tau(  16) = (   0.3333333   0.5773503   1.6036667  )
        17           Co  tau(  17) = (   0.6666667   0.5773503   1.6036667  )
        18           Co  tau(  18) = (   1.0000000   0.5773503   1.6036667  )
        19           Co  tau(  19) = (   0.0000000   0.1924501   1.8740000  )
        20           Co  tau(  20) = (   0.3333333   0.1924501   1.8740000  )
        21           Co  tau(  21) = (   0.6666667   0.1924501   1.8740000  )
        22           Co  tau(  22) = (   0.1666667   0.4811252   1.8740000  )
        23           Co  tau(  23) = (   0.5000000   0.4811252   1.8740000  )
        24           Co  tau(  24) = (   0.8333333   0.4811252   1.8740000  )
        25           Co  tau(  25) = (   0.3333333   0.7698004   1.8740000  )
        26           Co  tau(  26) = (   0.6666667   0.7698004   1.8740000  )
        27           Co  tau(  27) = (   1.0000000   0.7698004   1.8740000  )
        28           Co  tau(  28) = (   0.0000000   0.0000000   2.1443333  )
        29           Co  tau(  29) = (   0.3333333   0.0000000   2.1443333  )
        30           Co  tau(  30) = (   0.6666667   0.0000000   2.1443333  )
        31           Co  tau(  31) = (   0.1666667   0.2886751   2.1443333  )
        32           Co  tau(  32) = (   0.5000000   0.2886751   2.1443333  )
        33           Co  tau(  33) = (   0.8333333   0.2886751   2.1443333  )
        34           Co  tau(  34) = (   0.3333333   0.5773503   2.1443333  )
        35           Co  tau(  35) = (   0.6666667   0.5773503   2.1443333  )
        36           Co  tau(  36) = (   1.0000000   0.5773503   2.1443333  )
        37           C   tau(  37) = (   0.3789366   0.2143851   2.3482265  )
        38           O   tau(  38) = (   0.2305487   0.1401552   2.3923183  )
        39           H   tau(  39) = (   0.4652203   0.2553460   2.4597832  )

     number of k points=    13  Marzari-Vanderbilt smearing, width (Ry)=  0.0010
                       cart. coord. in units 2pi/alat
        k(    1) = (   0.0000000   0.0000000   0.0000000), wk =   0.0400000
        k(    2) = (   0.0000000   0.2309401   0.0000000), wk =   0.0800000
        k(    3) = (   0.0000000   0.4618802   0.0000000), wk =   0.0800000
        k(    4) = (   0.2000000  -0.1154701   0.0000000), wk =   0.0800000
        k(    5) = (   0.2000000   0.1154701   0.0000000), wk =   0.0800000
        k(    6) = (   0.2000000   0.3464102   0.0000000), wk =   0.0800000
        k(    7) = (   0.2000000  -0.5773503   0.0000000), wk =   0.0800000
        k(    8) = (   0.2000000  -0.3464102   0.0000000), wk =   0.0800000
        k(    9) = (   0.4000000  -0.2309401   0.0000000), wk =   0.0800000
        k(   10) = (   0.4000000   0.0000000   0.0000000), wk =   0.0800000
        k(   11) = (   0.4000000   0.2309401   0.0000000), wk =   0.0800000
        k(   12) = (   0.4000000  -0.6928203   0.0000000), wk =   0.0800000
        k(   13) = (   0.4000000  -0.4618802   0.0000000), wk =   0.0800000

     Dense  grid:   752179 G-vectors     FFT dimensions: (  80,  80, 288)

     Smooth grid:   409445 G-vectors     FFT dimensions: (  64,  64, 225)

     Estimated max dynamical RAM per process >      99.02 MB

     Estimated total dynamical RAM >       9.28 GB
     Generating pointlists ...
     new r_m :   0.1025 (alat units)  1.4528 (a.u.) for type    1
     new r_m :   0.0606 (alat units)  0.8586 (a.u.) for type    2
     new r_m :   0.0708 (alat units)  1.0037 (a.u.) for type    3
     new r_m :   0.0606 (alat units)  0.8586 (a.u.) for type    4

     Initial potential from superposition of free atoms

     starting charge     334.9897, renormalised to     335.0000

     negative rho (up, down):  3.030E-03 4.705E-04


     %%%%%%%%%%%%%%%%%%%%%%%%%%%%%%%%%%%%%%%%%%%%%%%%%%%%%%%%%%%%%%%%%%%%%%%%
     %                                                                      %
     % You are using vdW-DF, which was implemented by the Thonhauser group. %
     % Please cite the following two papers that made this development      %
     % possible and the two reviews that describe the various versions:     %
     %                                                                      %
     %   T. Thonhauser et al., PRL 115, 136402 (2015).                      %
     %   T. Thonhauser et al., PRB 76, 125112 (2007).                       %
     %   K. Berland et al., Rep. Prog. Phys. 78, 066501 (2015).             %
     %   D.C. Langreth et al., J. Phys.: Condens. Matter 21, 084203 (2009). %
     %                                                                      %
     % If you are calculating stress with vdW-DF, please also cite:         %
     %                                                                      %
     %   R. Sabatini et al., J. Phys.: Condens. Matter 24, 424209 (2012).   %
     %   C.M. Frostenson et al., Electr. Struct. 4, 014001 (2022).          %
     %                                                                      %
     %%%%%%%%%%%%%%%%%%%%%%%%%%%%%%%%%%%%%%%%%%%%%%%%%%%%%%%%%%%%%%%%%%%%%%%%

     %%%%%%%%%%%%%%%%%%%%%%%%%%%%%%%%%%%%%%%%%%%%%%%%%%%%%%%%%%%%%%%%%%%%%%%%
     %                                                                      %
     %  vdW-DF NEWS:                                                        %
     %                                                                      %
     %  * vdW-DF3 is now available. DOI: 10.1021/acs.jctc.0c00471           %
     %    use with input_dft = 'vdW-DF3-opt1' or 'vdW-DF3-opt2'             %
     %                                                                      %
     %  * Unscreened and range-separated hybrid vdW-DF-cx functionals       %
     %    DOI: 10.1063/1.4986522 and 10.1088/1361-648X/ac2ad2               %
     %    use with input_dft = 'vdW-DF-cx0'    and 'vdW-DF-ahcx'            %
     %  * Unscreened and range-separated hybrid vdW-DF2-b86r functionals    %
     %    DOI: 10.1063/1.4986522 and DOI: 10.1103/PhysRevX.12.041003        %
     %    use with input_dft = 'vdW-DF2-br0' and 'vdW-DF2-ahbr'             %
     %                                                                      %
     %%%%%%%%%%%%%%%%%%%%%%%%%%%%%%%%%%%%%%%%%%%%%%%%%%%%%%%%%%%%%%%%%%%%%%%%


     Starting wfcs are  333 randomized atomic wfcs
     Checking if some PAW data can be deallocated... 

     total cpu time spent up to now is       12.2 secs

     per-process dynamical memory:   231.0 Mb

     Self-consistent Calculation

     iteration #  1     ecut=    50.00 Ry     beta= 0.70
     Davidson diagonalization with overlap
     ethr =  1.00E-02,  avg # of iterations =  2.0

     negative rho (up, down):  2.330E-05 2.973E-08

     total cpu time spent up to now is       34.2 secs

     total energy              =   -6053.08945350 Ry
     estimated scf accuracy    <      39.59677507 Ry

     total magnetization       =    69.00 Bohr mag/cell
     absolute magnetization    =    81.14 Bohr mag/cell

     iteration #  2     ecut=    50.00 Ry     beta= 0.70
     Davidson diagonalization with overlap
     ethr =  1.00E-02,  avg # of iterations =  1.0

     negative rho (up, down):  2.346E-06 9.955E-09

     total cpu time spent up to now is       50.5 secs

     total energy              =   -6052.54760311 Ry
     estimated scf accuracy    <      24.51929860 Ry

     total magnetization       =    69.01 Bohr mag/cell
     absolute magnetization    =    76.79 Bohr mag/cell

     iteration #  3     ecut=    50.00 Ry     beta= 0.70
     Davidson diagonalization with overlap
     ethr =  7.32E-03,  avg # of iterations =  1.0

     negative rho (up, down):  1.136E-08 0.000E+00

     total cpu time spent up to now is       64.8 secs

     total energy              =   -6055.15512251 Ry
     estimated scf accuracy    <      85.34859325 Ry

     total magnetization       =    66.28 Bohr mag/cell
     absolute magnetization    =    73.26 Bohr mag/cell

     iteration #  4     ecut=    50.00 Ry     beta= 0.70
     Davidson diagonalization with overlap
     ethr =  7.32E-03,  avg # of iterations =  1.0

     total cpu time spent up to now is       80.8 secs

     total energy              =   -6056.32500916 Ry
     estimated scf accuracy    <       5.85754682 Ry

     total magnetization       =    60.68 Bohr mag/cell
     absolute magnetization    =    70.37 Bohr mag/cell

     iteration #  5     ecut=    50.00 Ry     beta= 0.70
     Davidson diagonalization with overlap
     ethr =  1.75E-03,  avg # of iterations =  1.3

     total cpu time spent up to now is       95.2 secs

     total energy              =   -6056.36422338 Ry
     estimated scf accuracy    <       2.00581636 Ry

     total magnetization       =    60.75 Bohr mag/cell
     absolute magnetization    =    69.85 Bohr mag/cell

     iteration #  6     ecut=    50.00 Ry     beta= 0.70
     Davidson diagonalization with overlap
     ethr =  5.99E-04,  avg # of iterations =  1.7

     total cpu time spent up to now is      112.3 secs

     total energy              =   -6056.47422841 Ry
     estimated scf accuracy    <       0.63033649 Ry

     total magnetization       =    60.35 Bohr mag/cell
     absolute magnetization    =    69.41 Bohr mag/cell

     iteration #  7     ecut=    50.00 Ry     beta= 0.70
     Davidson diagonalization with overlap
     ethr =  1.88E-04,  avg # of iterations =  5.5

     total cpu time spent up to now is      130.3 secs

     total energy              =   -6056.51155989 Ry
     estimated scf accuracy    <       0.84253645 Ry

     total magnetization       =    60.56 Bohr mag/cell
     absolute magnetization    =    69.21 Bohr mag/cell

     iteration #  8     ecut=    50.00 Ry     beta= 0.70
     Davidson diagonalization with overlap
     ethr =  1.88E-04,  avg # of iterations =  1.6

     total cpu time spent up to now is      147.6 secs

     total energy              =   -6056.51921441 Ry
     estimated scf accuracy    <       0.14482635 Ry

     total magnetization       =    61.02 Bohr mag/cell
     absolute magnetization    =    69.40 Bohr mag/cell

     iteration #  9     ecut=    50.00 Ry     beta= 0.70
     Davidson diagonalization with overlap
     c_bands:  2 eigenvalues not converged
     c_bands:  1 eigenvalues not converged
     c_bands:  2 eigenvalues not converged
     c_bands:  1 eigenvalues not converged
     c_bands:  2 eigenvalues not converged
     ethr =  4.32E-05,  avg # of iterations = 13.9

     total cpu time spent up to now is      182.5 secs

     total energy              =   -6056.53997319 Ry
     estimated scf accuracy    <       0.22986483 Ry

     total magnetization       =    61.25 Bohr mag/cell
     absolute magnetization    =    69.18 Bohr mag/cell

     iteration # 10     ecut=    50.00 Ry     beta= 0.70
     Davidson diagonalization with overlap
     ethr =  4.32E-05,  avg # of iterations =  1.5

     total cpu time spent up to now is      199.0 secs

     total energy              =   -6056.54453248 Ry
     estimated scf accuracy    <       0.17171863 Ry

     total magnetization       =    61.32 Bohr mag/cell
     absolute magnetization    =    69.14 Bohr mag/cell

     iteration # 11     ecut=    50.00 Ry     beta= 0.70
     Davidson diagonalization with overlap
     ethr =  4.32E-05,  avg # of iterations =  1.2

     total cpu time spent up to now is      212.1 secs

     total energy              =   -6056.53389715 Ry
     estimated scf accuracy    <       0.10514013 Ry

     total magnetization       =    61.24 Bohr mag/cell
     absolute magnetization    =    68.98 Bohr mag/cell

     iteration # 12     ecut=    50.00 Ry     beta= 0.70
     Davidson diagonalization with overlap
     ethr =  3.14E-05,  avg # of iterations =  1.9

     negative rho (up, down):  2.028E-06 0.000E+00

     total cpu time spent up to now is      229.4 secs

     total energy              =   -6056.53542339 Ry
     estimated scf accuracy    <       0.08387890 Ry

     total magnetization       =    61.24 Bohr mag/cell
     absolute magnetization    =    68.81 Bohr mag/cell

     iteration # 13     ecut=    50.00 Ry     beta= 0.70
     Davidson diagonalization with overlap
     ethr =  2.50E-05,  avg # of iterations =  1.1

     total cpu time spent up to now is      243.7 secs

     total energy              =   -6056.53458090 Ry
     estimated scf accuracy    <       0.08839417 Ry

     total magnetization       =    61.24 Bohr mag/cell
     absolute magnetization    =    68.76 Bohr mag/cell

     iteration # 14     ecut=    50.00 Ry     beta= 0.70
     Davidson diagonalization with overlap
     ethr =  2.50E-05,  avg # of iterations =  1.2

     negative rho (up, down):  2.521E-06 0.000E+00

     total cpu time spent up to now is      259.4 secs

     total energy              =   -6056.53045887 Ry
     estimated scf accuracy    <       0.07941736 Ry

     total magnetization       =    61.25 Bohr mag/cell
     absolute magnetization    =    68.83 Bohr mag/cell

     iteration # 15     ecut=    50.00 Ry     beta= 0.70
     Davidson diagonalization with overlap
     ethr =  2.37E-05,  avg # of iterations =  1.1

     negative rho (up, down):  2.670E-03 1.755E-03

     total cpu time spent up to now is      272.8 secs

     total energy              =   -6056.52645238 Ry
     estimated scf accuracy    <       0.11349141 Ry

     total magnetization       =    61.24 Bohr mag/cell
     absolute magnetization    =    68.76 Bohr mag/cell

     iteration # 16     ecut=    50.00 Ry     beta= 0.70
     Davidson diagonalization with overlap
     ethr =  2.37E-05,  avg # of iterations =  1.1

     negative rho (up, down):  1.070E-02 9.450E-03

     total cpu time spent up to now is      288.8 secs

     total energy              =   -6056.52374884 Ry
     estimated scf accuracy    <       0.06862599 Ry

     total magnetization       =    61.24 Bohr mag/cell
     absolute magnetization    =    68.76 Bohr mag/cell

     iteration # 17     ecut=    50.00 Ry     beta= 0.70
     Davidson diagonalization with overlap
     ethr =  2.05E-05,  avg # of iterations =  1.2

     negative rho (up, down):  3.048E-02 2.851E-02

     total cpu time spent up to now is      303.1 secs

     total energy              =   -6056.52190134 Ry
     estimated scf accuracy    <       0.03212656 Ry

     total magnetization       =    61.25 Bohr mag/cell
     absolute magnetization    =    68.78 Bohr mag/cell

     iteration # 18     ecut=    50.00 Ry     beta= 0.70
     Davidson diagonalization with overlap
     c_bands:  1 eigenvalues not converged
     ethr =  9.59E-06,  avg # of iterations =  2.5

     negative rho (up, down):  1.091E-02 9.667E-03

     total cpu time spent up to now is      321.0 secs

     total energy              =   -6056.52228112 Ry
     estimated scf accuracy    <       0.06373110 Ry

     total magnetization       =    61.24 Bohr mag/cell
     absolute magnetization    =    68.74 Bohr mag/cell

     iteration # 19     ecut=    50.00 Ry     beta= 0.70
     Davidson diagonalization with overlap
     ethr =  9.59E-06,  avg # of iterations =  1.1

     negative rho (up, down):  2.705E-02 2.550E-02

     total cpu time spent up to now is      334.2 secs

     total energy              =   -6056.52123369 Ry
     estimated scf accuracy    <       0.02316970 Ry

     total magnetization       =    61.24 Bohr mag/cell
     absolute magnetization    =    68.77 Bohr mag/cell

     iteration # 20     ecut=    50.00 Ry     beta= 0.70
     Davidson diagonalization with overlap
     ethr =  6.92E-06,  avg # of iterations =  1.5

     negative rho (up, down):  1.762E-02 1.631E-02

     total cpu time spent up to now is      350.1 secs

     total energy              =   -6056.52031216 Ry
     estimated scf accuracy    <       0.02142521 Ry

     total magnetization       =    61.24 Bohr mag/cell
     absolute magnetization    =    68.77 Bohr mag/cell

     iteration # 21     ecut=    50.00 Ry     beta= 0.70
     Davidson diagonalization with overlap
     c_bands:  2 eigenvalues not converged
     ethr =  6.40E-06,  avg # of iterations =  2.0

     negative rho (up, down):  1.531E-02 1.420E-02

     total cpu time spent up to now is      365.8 secs

     total energy              =   -6056.51942694 Ry
     estimated scf accuracy    <       0.01807003 Ry

     total magnetization       =    61.24 Bohr mag/cell
     absolute magnetization    =    68.77 Bohr mag/cell

     iteration # 22     ecut=    50.00 Ry     beta= 0.70
     Davidson diagonalization with overlap
     ethr =  5.39E-06,  avg # of iterations =  1.2

     negative rho (up, down):  2.661E-02 2.558E-02

     total cpu time spent up to now is      381.7 secs

     total energy              =   -6056.51910112 Ry
     estimated scf accuracy    <       0.01486916 Ry

     total magnetization       =    61.24 Bohr mag/cell
     absolute magnetization    =    68.78 Bohr mag/cell

     iteration # 23     ecut=    50.00 Ry     beta= 0.70
     Davidson diagonalization with overlap
     ethr =  4.44E-06,  avg # of iterations =  1.4

     negative rho (up, down):  1.888E-02 1.818E-02

     total cpu time spent up to now is      395.6 secs

     total energy              =   -6056.51885857 Ry
     estimated scf accuracy    <       0.00726171 Ry

     total magnetization       =    61.24 Bohr mag/cell
     absolute magnetization    =    68.79 Bohr mag/cell

     iteration # 24     ecut=    50.00 Ry     beta= 0.70
     Davidson diagonalization with overlap
     ethr =  2.17E-06,  avg # of iterations =  2.0

     negative rho (up, down):  1.532E-02 1.463E-02

     total cpu time spent up to now is      412.8 secs

     total energy              =   -6056.51895974 Ry
     estimated scf accuracy    <       0.00265462 Ry

     total magnetization       =    61.24 Bohr mag/cell
     absolute magnetization    =    68.79 Bohr mag/cell

     iteration # 25     ecut=    50.00 Ry     beta= 0.70
     Davidson diagonalization with overlap
     ethr =  7.92E-07,  avg # of iterations =  2.3

     negative rho (up, down):  5.503E-03 4.853E-03

     total cpu time spent up to now is      428.8 secs

     total energy              =   -6056.51887010 Ry
     estimated scf accuracy    <       0.00121670 Ry

     total magnetization       =    61.24 Bohr mag/cell
     absolute magnetization    =    68.80 Bohr mag/cell

     iteration # 26     ecut=    50.00 Ry     beta= 0.70
     Davidson diagonalization with overlap
     ethr =  3.63E-07,  avg # of iterations =  2.9

     negative rho (up, down):  8.897E-03 8.327E-03

     total cpu time spent up to now is      447.0 secs

     total energy              =   -6056.51912475 Ry
     estimated scf accuracy    <       0.00231484 Ry

     total magnetization       =    61.24 Bohr mag/cell
     absolute magnetization    =    68.80 Bohr mag/cell

     iteration # 27     ecut=    50.00 Ry     beta= 0.70
     Davidson diagonalization with overlap
     ethr =  3.63E-07,  avg # of iterations =  1.3

     negative rho (up, down):  7.135E-03 6.514E-03

     total cpu time spent up to now is      460.9 secs

     total energy              =   -6056.51917087 Ry
     estimated scf accuracy    <       0.00070049 Ry

     total magnetization       =    61.24 Bohr mag/cell
     absolute magnetization    =    68.81 Bohr mag/cell

     iteration # 28     ecut=    50.00 Ry     beta= 0.70
     Davidson diagonalization with overlap
     ethr =  2.09E-07,  avg # of iterations =  2.0

     negative rho (up, down):  5.879E-03 5.124E-03

     total cpu time spent up to now is      478.9 secs

     total energy              =   -6056.51923009 Ry
     estimated scf accuracy    <       0.00050846 Ry

     total magnetization       =    61.24 Bohr mag/cell
     absolute magnetization    =    68.81 Bohr mag/cell

     iteration # 29     ecut=    50.00 Ry     beta= 0.70
     Davidson diagonalization with overlap
     ethr =  1.52E-07,  avg # of iterations =  1.8

     negative rho (up, down):  5.354E-03 4.509E-03

     total cpu time spent up to now is      497.0 secs

     total energy              =   -6056.51924706 Ry
     estimated scf accuracy    <       0.00032032 Ry

     total magnetization       =    61.24 Bohr mag/cell
     absolute magnetization    =    68.81 Bohr mag/cell

     iteration # 30     ecut=    50.00 Ry     beta= 0.70
     Davidson diagonalization with overlap
     ethr =  9.56E-08,  avg # of iterations =  1.8

     negative rho (up, down):  4.433E-03 3.519E-03

     total cpu time spent up to now is      511.1 secs

     total energy              =   -6056.51922786 Ry
     estimated scf accuracy    <       0.00008949 Ry

     total magnetization       =    61.24 Bohr mag/cell
     absolute magnetization    =    68.81 Bohr mag/cell

     iteration # 31     ecut=    50.00 Ry     beta= 0.70
     Davidson diagonalization with overlap
     ethr =  2.67E-08,  avg # of iterations =  5.2

     negative rho (up, down):  4.101E-03 3.147E-03

     total cpu time spent up to now is      531.4 secs

     total energy              =   -6056.51922526 Ry
     estimated scf accuracy    <       0.00008706 Ry

     total magnetization       =    61.24 Bohr mag/cell
     absolute magnetization    =    68.81 Bohr mag/cell

     iteration # 32     ecut=    50.00 Ry     beta= 0.70
     Davidson diagonalization with overlap
     ethr =  2.60E-08,  avg # of iterations =  1.6

     negative rho (up, down):  3.760E-03 2.793E-03

     total cpu time spent up to now is      546.6 secs

     total energy              =   -6056.51921262 Ry
     estimated scf accuracy    <       0.00004784 Ry

     total magnetization       =    61.24 Bohr mag/cell
     absolute magnetization    =    68.81 Bohr mag/cell

     iteration # 33     ecut=    50.00 Ry     beta= 0.70
     Davidson diagonalization with overlap
     ethr =  1.43E-08,  avg # of iterations =  1.8

     negative rho (up, down):  2.543E-03 1.410E-03

     total cpu time spent up to now is      564.2 secs

     total energy              =   -6056.51920040 Ry
     estimated scf accuracy    <       0.00002897 Ry

     total magnetization       =    61.24 Bohr mag/cell
     absolute magnetization    =    68.81 Bohr mag/cell

     iteration # 34     ecut=    50.00 Ry     beta= 0.70
     Davidson diagonalization with overlap
     ethr =  8.65E-09,  avg # of iterations =  2.8

     negative rho (up, down):  2.887E-03 1.795E-03

     total cpu time spent up to now is      579.5 secs

     total energy              =   -6056.51920209 Ry
     estimated scf accuracy    <       0.00009766 Ry

     total magnetization       =    61.24 Bohr mag/cell
     absolute magnetization    =    68.81 Bohr mag/cell

     iteration # 35     ecut=    50.00 Ry     beta= 0.70
     Davidson diagonalization with overlap
     ethr =  8.65E-09,  avg # of iterations =  1.9

     negative rho (up, down):  2.726E-03 1.607E-03

     total cpu time spent up to now is      597.1 secs

     total energy              =   -6056.51920082 Ry
     estimated scf accuracy    <       0.00005129 Ry

     total magnetization       =    61.24 Bohr mag/cell
     absolute magnetization    =    68.81 Bohr mag/cell

     iteration # 36     ecut=    50.00 Ry     beta= 0.70
     Davidson diagonalization with overlap
     ethr =  8.65E-09,  avg # of iterations =  1.6

     negative rho (up, down):  2.309E-03 1.216E-03

     total cpu time spent up to now is      611.9 secs

     total energy              =   -6056.51920205 Ry
     estimated scf accuracy    <       0.00005540 Ry

     total magnetization       =    61.24 Bohr mag/cell
     absolute magnetization    =    68.81 Bohr mag/cell

     iteration # 37     ecut=    50.00 Ry     beta= 0.70
     Davidson diagonalization with overlap
     ethr =  8.65E-09,  avg # of iterations =  1.9

     negative rho (up, down):  2.237E-03 1.159E-03

     total cpu time spent up to now is      628.9 secs

     total energy              =   -6056.51920294 Ry
     estimated scf accuracy    <       0.00003538 Ry

     total magnetization       =    61.24 Bohr mag/cell
     absolute magnetization    =    68.81 Bohr mag/cell

     iteration # 38     ecut=    50.00 Ry     beta= 0.70
     Davidson diagonalization with overlap
     ethr =  8.65E-09,  avg # of iterations =  1.1

     negative rho (up, down):  2.281E-03 1.189E-03

     total cpu time spent up to now is      642.2 secs

     total energy              =   -6056.51920452 Ry
     estimated scf accuracy    <       0.00000703 Ry

     total magnetization       =    61.24 Bohr mag/cell
     absolute magnetization    =    68.81 Bohr mag/cell

     iteration # 39     ecut=    50.00 Ry     beta= 0.70
     Davidson diagonalization with overlap
     ethr =  2.10E-09,  avg # of iterations =  3.5

     negative rho (up, down):  2.185E-03 1.112E-03

     total cpu time spent up to now is      662.1 secs

     total energy              =   -6056.51920328 Ry
     estimated scf accuracy    <       0.00001200 Ry

     total magnetization       =    61.24 Bohr mag/cell
     absolute magnetization    =    68.80 Bohr mag/cell

     iteration # 40     ecut=    50.00 Ry     beta= 0.70
     Davidson diagonalization with overlap
     ethr =  2.10E-09,  avg # of iterations =  1.8

     negative rho (up, down):  2.267E-03 1.168E-03

     total cpu time spent up to now is      680.2 secs

     total energy              =   -6056.51920478 Ry
     estimated scf accuracy    <       0.00000593 Ry

     total magnetization       =    61.24 Bohr mag/cell
     absolute magnetization    =    68.80 Bohr mag/cell

     iteration # 41     ecut=    50.00 Ry     beta= 0.70
     Davidson diagonalization with overlap
     ethr =  1.77E-09,  avg # of iterations =  1.7

     negative rho (up, down):  2.240E-03 1.144E-03

     total cpu time spent up to now is      694.5 secs

     total energy              =   -6056.51920484 Ry
     estimated scf accuracy    <       0.00000740 Ry

     total magnetization       =    61.24 Bohr mag/cell
     absolute magnetization    =    68.80 Bohr mag/cell

     iteration # 42     ecut=    50.00 Ry     beta= 0.70
     Davidson diagonalization with overlap
     ethr =  1.77E-09,  avg # of iterations =  1.2

     negative rho (up, down):  2.230E-03 1.132E-03

     total cpu time spent up to now is      710.3 secs

     total energy              =   -6056.51920513 Ry
     estimated scf accuracy    <       0.00000086 Ry

     total magnetization       =    61.24 Bohr mag/cell
     absolute magnetization    =    68.80 Bohr mag/cell

     iteration # 43     ecut=    50.00 Ry     beta= 0.70
     Davidson diagonalization with overlap
     ethr =  2.58E-10,  avg # of iterations =  6.8

     negative rho (up, down):  2.205E-03 1.106E-03

     total cpu time spent up to now is      730.6 secs

     total energy              =   -6056.51920516 Ry
     estimated scf accuracy    <       0.00000042 Ry

     total magnetization       =    61.24 Bohr mag/cell
     absolute magnetization    =    68.80 Bohr mag/cell

     iteration # 44     ecut=    50.00 Ry     beta= 0.70
     Davidson diagonalization with overlap
     ethr =  1.26E-10,  avg # of iterations =  4.2

     negative rho (up, down):  2.239E-03 1.137E-03

     total cpu time spent up to now is      750.7 secs

     total energy              =   -6056.51920523 Ry
     estimated scf accuracy    <       0.00000146 Ry

     total magnetization       =    61.24 Bohr mag/cell
     absolute magnetization    =    68.80 Bohr mag/cell

     iteration # 45     ecut=    50.00 Ry     beta= 0.70
     Davidson diagonalization with overlap
     ethr =  1.26E-10,  avg # of iterations =  1.9

     negative rho (up, down):  2.237E-03 1.135E-03

     total cpu time spent up to now is      767.9 secs

     total energy              =   -6056.51920528 Ry
     estimated scf accuracy    <       0.00000043 Ry

     total magnetization       =    61.24 Bohr mag/cell
     absolute magnetization    =    68.80 Bohr mag/cell

     iteration # 46     ecut=    50.00 Ry     beta= 0.70
     Davidson diagonalization with overlap
     ethr =  1.26E-10,  avg # of iterations =  1.0

     negative rho (up, down):  2.239E-03 1.136E-03

     total cpu time spent up to now is      781.5 secs

     total energy              =   -6056.51920531 Ry
     estimated scf accuracy    <       0.00000008 Ry

     total magnetization       =    61.24 Bohr mag/cell
     absolute magnetization    =    68.80 Bohr mag/cell

     iteration # 47     ecut=    50.00 Ry     beta= 0.70
     Davidson diagonalization with overlap
     ethr =  2.43E-11,  avg # of iterations =  4.9

     negative rho (up, down):  2.239E-03 1.136E-03

     total cpu time spent up to now is      803.0 secs

     total energy              =   -6056.51920531 Ry
     estimated scf accuracy    <       0.00000009 Ry

     total magnetization       =    61.24 Bohr mag/cell
     absolute magnetization    =    68.80 Bohr mag/cell

     iteration # 48     ecut=    50.00 Ry     beta= 0.70
     Davidson diagonalization with overlap
     ethr =  2.43E-11,  avg # of iterations =  1.5

     negative rho (up, down):  2.243E-03 1.138E-03

     total cpu time spent up to now is      817.1 secs

     total energy              =   -6056.51920532 Ry
     estimated scf accuracy    <       0.00000005 Ry

     total magnetization       =    61.24 Bohr mag/cell
     absolute magnetization    =    68.80 Bohr mag/cell

     iteration # 49     ecut=    50.00 Ry     beta= 0.70
     Davidson diagonalization with overlap
     ethr =  1.59E-11,  avg # of iterations =  1.9

     negative rho (up, down):  2.241E-03 1.136E-03

     total cpu time spent up to now is      834.7 secs

     total energy              =   -6056.51920532 Ry
     estimated scf accuracy    <       0.00000002 Ry

     total magnetization       =    61.24 Bohr mag/cell
     absolute magnetization    =    68.80 Bohr mag/cell

     iteration # 50     ecut=    50.00 Ry     beta= 0.70
     Davidson diagonalization with overlap
     ethr =  5.98E-12,  avg # of iterations =  3.6

     negative rho (up, down):  2.241E-03 1.137E-03

     total cpu time spent up to now is      851.9 secs

     total energy              =   -6056.51920532 Ry
     estimated scf accuracy    <       0.00000003 Ry

     total magnetization       =    61.24 Bohr mag/cell
     absolute magnetization    =    68.80 Bohr mag/cell

     iteration # 51     ecut=    50.00 Ry     beta= 0.70
     Davidson diagonalization with overlap
     ethr =  5.98E-12,  avg # of iterations =  1.5

     negative rho (up, down):  2.236E-03 1.132E-03

     Magnetic moment per site  (integrated on atomic sphere of radius R)
     atom   1 (R=0.103)  charge=  6.2232  magn=  1.7676
     atom   2 (R=0.103)  charge=  6.2241  magn=  1.7562
     atom   3 (R=0.103)  charge=  6.2240  magn=  1.7619
     atom   4 (R=0.103)  charge=  6.2238  magn=  1.7626
     atom   5 (R=0.103)  charge=  6.2240  magn=  1.7622
     atom   6 (R=0.103)  charge=  6.2232  magn=  1.7693
     atom   7 (R=0.103)  charge=  6.2240  magn=  1.7697
     atom   8 (R=0.103)  charge=  6.2232  magn=  1.7672
     atom   9 (R=0.103)  charge=  6.2238  magn=  1.7634
     atom  10 (R=0.103)  charge=  6.2290  magn=  1.6919
     atom  11 (R=0.103)  charge=  6.2295  magn=  1.6985
     atom  12 (R=0.103)  charge=  6.2288  magn=  1.6947
     atom  13 (R=0.103)  charge=  6.2294  magn=  1.6991
     atom  14 (R=0.103)  charge=  6.2301  magn=  1.6831
     atom  15 (R=0.103)  charge=  6.2298  magn=  1.6966
     atom  16 (R=0.103)  charge=  6.2288  magn=  1.6949
     atom  17 (R=0.103)  charge=  6.2298  magn=  1.6954
     atom  18 (R=0.103)  charge=  6.2295  magn=  1.6895
     atom  19 (R=0.103)  charge=  6.2272  magn=  1.6937
     atom  20 (R=0.103)  charge=  6.2257  magn=  1.7343
     atom  21 (R=0.103)  charge=  6.2302  magn=  1.6731
     atom  22 (R=0.103)  charge=  6.2304  magn=  1.6764
     atom  23 (R=0.103)  charge=  6.2299  magn=  1.6726
     atom  24 (R=0.103)  charge=  6.2281  magn=  1.7039
     atom  25 (R=0.103)  charge=  6.2289  magn=  1.6930
     atom  26 (R=0.103)  charge=  6.2272  magn=  1.6927
     atom  27 (R=0.103)  charge=  6.2303  magn=  1.6808
     atom  28 (R=0.103)  charge=  6.2299  magn=  1.7911
     atom  29 (R=0.103)  charge=  6.2393  magn=  1.6588
     atom  30 (R=0.103)  charge=  6.2241  magn=  1.7707
     atom  31 (R=0.103)  charge=  6.2376  magn=  1.6735
     atom  32 (R=0.103)  charge=  6.2544  magn=  1.1618
     atom  33 (R=0.103)  charge=  6.2245  magn=  1.7652
     atom  34 (R=0.103)  charge=  6.2235  magn=  1.7741
     atom  35 (R=0.103)  charge=  6.2239  magn=  1.7651
     atom  36 (R=0.103)  charge=  6.2206  magn=  1.7987
     atom  37 (R=0.061)  charge=  0.8359  magn= -0.0234
     atom  38 (R=0.071)  charge=  3.2968  magn=  0.0313
     atom  39 (R=0.061)  charge=  0.5032  magn=  0.0032

     total cpu time spent up to now is      868.2 secs

     End of self-consistent calculation

 ------ SPIN UP ------------


          k = 0.0000 0.0000 0.0000 ( 51087 PWs)   bands (ev):

   -21.5365 -10.3508  -7.4940  -6.9702  -6.2900  -5.6636  -5.5208  -4.5607
    -4.5460  -4.5413  -4.5410  -4.5350  -4.5047  -4.4828  -4.1708  -4.0309
    -4.0116  -4.0083  -4.0003  -3.9590  -3.9522  -3.5305  -3.4958  -3.4896
    -3.4881  -3.4633  -3.4405  -3.3770  -3.3656  -3.3634  -3.3618  -3.3505
    -3.3298  -3.2889  -3.2842  -2.9941  -2.9833  -2.9716  -2.9688  -2.9670
    -2.9431  -2.9178  -2.9078  -2.9032  -2.8974  -2.8963  -2.8932  -2.7511
    -2.7430  -2.7305  -2.7098  -2.6781  -2.6690  -2.6641  -2.6544  -2.6353
    -2.6323  -2.6231  -2.6188  -2.5436  -2.5372  -2.5323  -2.5278  -2.5239
    -2.4618  -2.2896  -2.0302  -2.0080  -2.0011  -1.9944  -1.9896  -1.9346
    -1.8871  -1.8642  -1.8595  -1.8499  -1.8331  -1.8221  -1.8140  -1.8110
    -1.8085  -1.7627  -1.7609  -1.7204  -1.7114  -1.7061  -1.6920  -1.6840
    -1.6773  -1.6711  -1.6673  -1.6649  -1.6462  -1.6384  -1.6369  -1.6323
    -1.6293  -1.6250  -1.6216  -1.6194  -1.6144  -1.6123  -1.6111  -1.6090
    -1.5982  -1.5610  -1.5542  -1.5412  -1.5382  -1.4659  -1.4617  -1.4189
    -1.2643  -1.2236  -1.1760  -1.1728  -1.1647  -1.1619  -1.1481  -1.1360
    -1.1271  -1.1252  -1.0957  -1.0788  -1.0752  -0.9552  -0.9498  -0.9465
    -0.9268  -0.9004  -0.8027  -0.7798  -0.7563  -0.7459  -0.7420  -0.7056
    -0.6876  -0.6800  -0.6775  -0.6738  -0.6680  -0.6435  -0.5684  -0.5600
    -0.4461  -0.4379  -0.4274  -0.4252  -0.4137  -0.3911  -0.3677  -0.3649
    -0.3631  -0.3593  -0.3545  -0.3539  -0.3488  -0.3399  -0.3357  -0.3331
    -0.3281  -0.3224  -0.3105  -0.3022  -0.2903  -0.2883  -0.2853  -0.2772
    -0.2594  -0.2586  -0.2403  -0.2315  -0.2289  -0.2157  -0.2115  -0.2080
    -0.2068  -0.1988  -0.1736  -0.1578  -0.1412  -0.1357  -0.1287  -0.1222
    -0.1190  -0.1180  -0.1034  -0.0912  -0.0898  -0.0707  -0.0371  -0.0338
    -0.0288  -0.0276   0.0283   0.0344   0.0370   0.0437   0.0491   0.0705
     0.4826   1.0473

          k = 0.0000 0.2309 0.0000 ( 51134 PWs)   bands (ev):

   -21.5365 -10.3509  -7.3651  -6.9390  -6.2265  -5.6680  -5.4893  -5.2367
    -4.7916  -4.7811  -4.4090  -4.2769  -4.2036  -4.1998  -4.1362  -4.0786
    -4.0573  -4.0074  -3.9343  -3.8886  -3.8671  -3.6231  -3.5134  -3.4949
    -3.4387  -3.4080  -3.3765  -3.3698  -3.3675  -3.3581  -3.3476  -3.3270
    -3.2991  -3.2565  -3.2476  -3.2204  -3.2167  -3.0503  -3.0104  -2.9929
    -2.9650  -2.9398  -2.9313  -2.9243  -2.8624  -2.8297  -2.8043  -2.7788
    -2.7672  -2.7602  -2.7498  -2.7247  -2.6306  -2.6272  -2.6066  -2.5804
    -2.5605  -2.5550  -2.5252  -2.5153  -2.4995  -2.4720  -2.4503  -2.4440
    -2.3924  -2.3155  -2.1457  -2.1024  -2.0912  -2.0612  -2.0340  -1.9853
    -1.9631  -1.9567  -1.9494  -1.9405  -1.9234  -1.9108  -1.8917  -1.8568
    -1.8228  -1.8164  -1.8015  -1.7690  -1.7543  -1.7490  -1.7413  -1.7276
    -1.7216  -1.7115  -1.7069  -1.7061  -1.6897  -1.6810  -1.6656  -1.6332
    -1.6143  -1.5844  -1.5674  -1.5321  -1.5227  -1.5168  -1.5130  -1.5015
    -1.4867  -1.4853  -1.4734  -1.4643  -1.4626  -1.4400  -1.4264  -1.4113
    -1.3996  -1.3918  -1.3472  -1.3150  -1.3037  -1.2300  -1.2069  -1.1935
    -1.1821  -1.1724  -1.1639  -1.1587  -1.1554  -1.1226  -1.0486  -1.0170
    -0.9810  -0.9734  -0.9151  -0.9063  -0.8817  -0.8358  -0.8145  -0.8045
    -0.7728  -0.7271  -0.6983  -0.6914  -0.6650  -0.6572  -0.6321  -0.6228
    -0.6085  -0.5910  -0.5762  -0.5450  -0.5289  -0.5177  -0.5124  -0.5072
    -0.4476  -0.4336  -0.4315  -0.4217  -0.4056  -0.3820  -0.3628  -0.3574
    -0.3524  -0.3449  -0.3369  -0.3275  -0.3079  -0.2984  -0.2897  -0.2526
    -0.2427  -0.2273  -0.2202  -0.1906  -0.1814  -0.1652  -0.1352  -0.1114
    -0.1029  -0.0977  -0.0847  -0.0815  -0.0566  -0.0469  -0.0445  -0.0379
    -0.0104   0.0249   0.0330   0.0462   0.0677   0.0740   0.1052   0.1153
     0.1293   0.1656   0.4058   0.4169   0.5169   0.5785   0.6512   0.6770
     0.7879   0.9094

          k = 0.0000 0.4619 0.0000 ( 51204 PWs)   bands (ev):

   -21.5365 -10.3509  -7.1150  -6.7517  -6.2173  -6.0125  -5.5793  -5.2774
    -4.9310  -4.9187  -4.7916  -4.0883  -4.0580  -4.0381  -3.9954  -3.9552
    -3.8490  -3.8435  -3.7986  -3.7248  -3.7081  -3.6966  -3.5971  -3.5322
    -3.5268  -3.5201  -3.5149  -3.4607  -3.4455  -3.4061  -3.3994  -3.2654
    -3.2447  -3.2395  -3.2238  -3.2017  -3.1911  -3.1174  -3.0975  -3.0839
    -3.0673  -3.0627  -2.9562  -2.9166  -2.8625  -2.7952  -2.7650  -2.7439
    -2.7237  -2.6877  -2.6820  -2.6764  -2.6693  -2.6432  -2.5997  -2.5808
    -2.5497  -2.5322  -2.5099  -2.4461  -2.3788  -2.3707  -2.3435  -2.3087
    -2.2735  -2.2529  -2.2391  -2.2163  -2.2066  -2.1478  -2.1209  -2.0850
    -2.0799  -2.0775  -2.0675  -2.0527  -2.0377  -2.0295  -1.9873  -1.9735
    -1.9582  -1.9383  -1.9077  -1.8951  -1.8647  -1.8425  -1.7909  -1.7717
    -1.7558  -1.7427  -1.7248  -1.7026  -1.6802  -1.6602  -1.6445  -1.6384
    -1.6266  -1.6214  -1.6002  -1.5820  -1.5740  -1.5625  -1.5503  -1.5245
    -1.5207  -1.4991  -1.4579  -1.4529  -1.4111  -1.3739  -1.3566  -1.3437
    -1.3405  -1.3171  -1.2769  -1.2440  -1.2378  -1.2211  -1.2150  -1.2080
    -1.1965  -1.1930  -1.1800  -1.1769  -1.1644  -1.1571  -1.1459  -1.1354
    -1.1153  -1.0956  -1.0303  -1.0079  -0.9860  -0.9744  -0.9540  -0.9377
    -0.9184  -0.8604  -0.8575  -0.8337  -0.8212  -0.7794  -0.7652  -0.7140
    -0.7029  -0.6635  -0.6449  -0.6377  -0.6215  -0.6069  -0.5827  -0.5197
    -0.4675  -0.4605  -0.4393  -0.4265  -0.4231  -0.4147  -0.4097  -0.3927
    -0.3780  -0.3553  -0.2968  -0.2818  -0.2672  -0.2606  -0.2528  -0.2438
    -0.2333  -0.2229  -0.2107  -0.1987  -0.1814  -0.1525  -0.1030  -0.0783
    -0.0721  -0.0626  -0.0414   0.0164   0.0244   0.0346   0.0546   0.0905
     0.0996   0.1400   0.1435   0.1653   0.1698   0.1722   0.1891   0.1990
     0.2715   0.2848   0.3997   0.9599   1.1876   1.3501   1.3974   1.4416
     1.6187   1.7692

          k = 0.2000-0.1155 0.0000 ( 51134 PWs)   bands (ev):

   -21.5365 -10.3510  -7.3650  -6.9389  -6.2251  -5.6612  -5.4932  -5.2423
    -4.7909  -4.7783  -4.4116  -4.2805  -4.2031  -4.1996  -4.1371  -4.0787
    -4.0530  -4.0069  -3.9369  -3.8870  -3.8660  -3.6254  -3.5116  -3.4946
    -3.4439  -3.4083  -3.3760  -3.3696  -3.3679  -3.3578  -3.3443  -3.3273
    -3.2994  -3.2558  -3.2473  -3.2204  -3.2166  -3.0554  -3.0097  -2.9919
    -2.9619  -2.9391  -2.9320  -2.9244  -2.8659  -2.8287  -2.8045  -2.7782
    -2.7666  -2.7601  -2.7485  -2.7256  -2.6337  -2.6257  -2.6078  -2.5758
    -2.5609  -2.5553  -2.5245  -2.5149  -2.4974  -2.4718  -2.4500  -2.4426
    -2.3949  -2.3153  -2.1464  -2.1028  -2.0922  -2.0614  -2.0348  -1.9861
    -1.9631  -1.9558  -1.9483  -1.9405  -1.9239  -1.9116  -1.8936  -1.8555
    -1.8217  -1.8153  -1.8002  -1.7691  -1.7523  -1.7486  -1.7404  -1.7283
    -1.7220  -1.7122  -1.7075  -1.7061  -1.6907  -1.6820  -1.6630  -1.6357
    -1.6140  -1.5869  -1.5646  -1.5317  -1.5237  -1.5168  -1.5135  -1.5011
    -1.4871  -1.4855  -1.4727  -1.4644  -1.4626  -1.4403  -1.4275  -1.4109
    -1.3992  -1.3917  -1.3493  -1.3168  -1.3019  -1.2270  -1.2055  -1.1931
    -1.1815  -1.1735  -1.1633  -1.1583  -1.1552  -1.1249  -1.0532  -1.0140
    -0.9800  -0.9669  -0.9156  -0.9068  -0.8817  -0.8371  -0.8144  -0.8032
    -0.7731  -0.7315  -0.7011  -0.6926  -0.6640  -0.6583  -0.6289  -0.6223
    -0.6102  -0.5917  -0.5735  -0.5451  -0.5302  -0.5175  -0.5122  -0.5071
    -0.4463  -0.4357  -0.4290  -0.4213  -0.4070  -0.3852  -0.3615  -0.3563
    -0.3526  -0.3452  -0.3371  -0.3283  -0.3085  -0.2992  -0.2886  -0.2509
    -0.2423  -0.2273  -0.2182  -0.1904  -0.1846  -0.1640  -0.1347  -0.1113
    -0.1021  -0.0969  -0.0848  -0.0824  -0.0563  -0.0488  -0.0452  -0.0392
    -0.0094   0.0249   0.0337   0.0463   0.0680   0.0735   0.1045   0.1156
     0.1304   0.1662   0.4077   0.4172   0.5125   0.5819   0.6476   0.6792
     0.7790   0.9045

          k = 0.2000 0.1155 0.0000 ( 51134 PWs)   bands (ev):

   -21.5365 -10.3517  -7.3636  -6.9389  -6.2167  -5.6193  -5.5251  -5.2766
    -4.7846  -4.7664  -4.4176  -4.3039  -4.2068  -4.1954  -4.1373  -4.0850
    -4.0246  -4.0052  -3.9428  -3.8819  -3.8651  -3.6207  -3.5205  -3.5003
    -3.4286  -3.4058  -3.3732  -3.3704  -3.3680  -3.3591  -3.3380  -3.3326
    -3.2920  -3.2554  -3.2538  -3.2199  -3.2157  -3.0493  -2.9946  -2.9908
    -2.9649  -2.9540  -2.9318  -2.9298  -2.8672  -2.8258  -2.8239  -2.7836
    -2.7681  -2.7615  -2.7466  -2.7364  -2.6324  -2.6291  -2.6156  -2.5918
    -2.5668  -2.5362  -2.5246  -2.5060  -2.4926  -2.4675  -2.4503  -2.4466
    -2.4018  -2.2945  -2.1483  -2.1087  -2.0924  -2.0617  -2.0335  -1.9808
    -1.9639  -1.9563  -1.9490  -1.9374  -1.9277  -1.9093  -1.8784  -1.8662
    -1.8338  -1.8107  -1.7887  -1.7763  -1.7501  -1.7493  -1.7419  -1.7205
    -1.7173  -1.7123  -1.7105  -1.7070  -1.6831  -1.6815  -1.6584  -1.6488
    -1.6026  -1.5819  -1.5633  -1.5336  -1.5205  -1.5130  -1.5110  -1.5006
    -1.4923  -1.4845  -1.4798  -1.4644  -1.4637  -1.4394  -1.4242  -1.4112
    -1.4005  -1.3938  -1.3680  -1.3261  -1.3030  -1.2007  -1.1984  -1.1920
    -1.1837  -1.1767  -1.1736  -1.1618  -1.1539  -1.1490  -1.0426  -1.0123
    -0.9735  -0.9510  -0.9079  -0.9064  -0.8761  -0.8426  -0.8250  -0.8083
    -0.7514  -0.7284  -0.7124  -0.6935  -0.6664  -0.6635  -0.6297  -0.6262
    -0.6015  -0.5973  -0.5760  -0.5341  -0.5227  -0.5150  -0.5047  -0.5000
    -0.4600  -0.4361  -0.4318  -0.4185  -0.4125  -0.3790  -0.3704  -0.3556
    -0.3506  -0.3425  -0.3406  -0.3195  -0.3061  -0.3051  -0.2834  -0.2594
    -0.2359  -0.2267  -0.2120  -0.2015  -0.1806  -0.1712  -0.1251  -0.1088
    -0.1044  -0.0956  -0.0935  -0.0803  -0.0572  -0.0488  -0.0391  -0.0356
    -0.0073   0.0287   0.0366   0.0441   0.0717   0.0741   0.1032   0.1216
     0.1470   0.1596   0.3983   0.4115   0.4703   0.5716   0.6401   0.6686
     0.7462   0.9259

          k = 0.2000 0.3464 0.0000 ( 51202 PWs)   bands (ev):

   -21.5365 -10.3520  -7.1661  -6.8343  -6.1354  -5.7112  -5.6204  -5.4408
    -5.3860  -4.5157  -4.4505  -4.2090  -4.1991  -4.1483  -3.9938  -3.9855
    -3.8961  -3.8867  -3.8725  -3.7565  -3.7402  -3.6257  -3.6071  -3.5442
    -3.5031  -3.4194  -3.4052  -3.3949  -3.3757  -3.3560  -3.3385  -3.3193
    -3.3053  -3.2834  -3.2708  -3.2354  -3.1972  -3.1609  -3.1513  -3.0681
    -3.0354  -2.9567  -2.9304  -2.9020  -2.8829  -2.8758  -2.7959  -2.7683
    -2.7299  -2.6989  -2.6919  -2.6856  -2.6503  -2.6282  -2.6143  -2.6086
    -2.5903  -2.5314  -2.4712  -2.4201  -2.4096  -2.3946  -2.3765  -2.3522
    -2.3350  -2.2494  -2.2123  -2.1574  -2.1477  -2.1093  -2.0899  -2.0784
    -2.0544  -2.0501  -2.0341  -2.0255  -2.0028  -1.9857  -1.9845  -1.9743
    -1.9566  -1.9113  -1.8737  -1.8566  -1.7949  -1.7896  -1.7761  -1.7472
    -1.7438  -1.7129  -1.7034  -1.6789  -1.6672  -1.6472  -1.6353  -1.6233
    -1.6157  -1.6062  -1.5950  -1.5874  -1.5763  -1.5710  -1.5485  -1.5303
    -1.5240  -1.5112  -1.4775  -1.4529  -1.4361  -1.4075  -1.3941  -1.3892
    -1.3759  -1.3648  -1.3343  -1.3104  -1.2868  -1.2804  -1.2612  -1.2354
    -1.2204  -1.2094  -1.2067  -1.1965  -1.1762  -1.1530  -1.1398  -1.1042
    -1.0709  -1.0447  -1.0312  -0.9972  -0.9421  -0.9145  -0.8952  -0.8360
    -0.7946  -0.7884  -0.7753  -0.7665  -0.7542  -0.7396  -0.7264  -0.7155
    -0.6909  -0.6770  -0.6508  -0.6282  -0.6079  -0.5954  -0.5829  -0.5656
    -0.5452  -0.5324  -0.5054  -0.4906  -0.4850  -0.4322  -0.3781  -0.3381
    -0.3179  -0.3030  -0.2924  -0.2752  -0.2639  -0.2536  -0.2466  -0.2344
    -0.2280  -0.2133  -0.1600  -0.1388  -0.1316  -0.1182  -0.0819  -0.0658
    -0.0543  -0.0496  -0.0390  -0.0249  -0.0182  -0.0072  -0.0001   0.0171
     0.0303   0.0480   0.1083   0.1144   0.1274   0.1650   0.1686   0.1803
     0.4808   0.5124   0.5694   0.6611   0.8371   0.8550   1.1201   1.3444
     1.4222   1.5686

          k = 0.2000-0.5774 0.0000 ( 51262 PWs)   bands (ev):

   -21.5365 -10.3514  -7.0675  -6.4214  -6.4000  -6.0170  -5.7170  -5.5452
    -5.0596  -4.9411  -4.5423  -4.1923  -3.9557  -3.9052  -3.8117  -3.7803
    -3.7733  -3.7489  -3.7391  -3.7093  -3.6787  -3.6641  -3.6590  -3.6537
    -3.5754  -3.5458  -3.5128  -3.5073  -3.4844  -3.4753  -3.3900  -3.3542
    -3.3281  -3.3171  -3.2966  -3.2585  -3.2045  -3.1600  -3.0713  -3.0357
    -3.0292  -2.9943  -2.9531  -2.9259  -2.9015  -2.8217  -2.8190  -2.8097
    -2.7446  -2.7324  -2.6676  -2.6459  -2.6210  -2.5936  -2.5499  -2.5349
    -2.4960  -2.4510  -2.4438  -2.4340  -2.4264  -2.4107  -2.3800  -2.3230
    -2.2861  -2.2425  -2.2279  -2.2157  -2.2111  -2.1570  -2.1393  -2.1159
    -2.0848  -2.0603  -2.0477  -2.0326  -2.0176  -2.0068  -1.9756  -1.9687
    -1.9520  -1.9437  -1.9319  -1.9040  -1.8996  -1.8952  -1.8323  -1.8228
    -1.7948  -1.7677  -1.7382  -1.7181  -1.6932  -1.6758  -1.6573  -1.6377
    -1.6290  -1.6181  -1.6093  -1.5986  -1.5861  -1.5767  -1.5526  -1.5289
    -1.4877  -1.4737  -1.4566  -1.4508  -1.4344  -1.4289  -1.4220  -1.4146
    -1.4078  -1.3958  -1.3799  -1.3585  -1.3284  -1.3062  -1.2872  -1.2667
    -1.2144  -1.1992  -1.1802  -1.1653  -1.1444  -1.1282  -1.1198  -1.0977
    -1.0620  -1.0518  -1.0388  -1.0004  -0.9529  -0.9164  -0.9068  -0.8819
    -0.8718  -0.8626  -0.8501  -0.8213  -0.8022  -0.7926  -0.7660  -0.7338
    -0.7150  -0.6952  -0.6824  -0.6672  -0.6469  -0.6156  -0.5985  -0.5925
    -0.5744  -0.5551  -0.5432  -0.5378  -0.4958  -0.4628  -0.4422  -0.3432
    -0.2972  -0.2887  -0.2789  -0.2693  -0.2616  -0.2539  -0.2486  -0.2124
    -0.1968  -0.1888  -0.1780  -0.1632  -0.1358  -0.1235  -0.0552  -0.0519
    -0.0371  -0.0248  -0.0108  -0.0004   0.0421   0.0518   0.0532   0.0615
     0.0751   0.1442   0.1504   0.1619   0.1710   0.1812   0.2008   0.2233
     0.3143   0.5277   0.6196   0.8730   1.3420   1.4554   1.5465   1.7546
     1.9287   1.9868

          k = 0.2000-0.3464 0.0000 ( 51202 PWs)   bands (ev):

   -21.5365 -10.3509  -7.1675  -6.8390  -6.1440  -5.7402  -5.6218  -5.4398
    -5.3317  -4.5370  -4.4285  -4.2095  -4.2016  -4.1421  -3.9928  -3.9875
    -3.8989  -3.8782  -3.8665  -3.7559  -3.7546  -3.6216  -3.6119  -3.5447
    -3.5060  -3.4411  -3.4056  -3.3950  -3.3679  -3.3509  -3.3413  -3.3368
    -3.3098  -3.2882  -3.2749  -3.2377  -3.1982  -3.1579  -3.1444  -3.0546
    -3.0457  -2.9323  -2.9293  -2.9092  -2.8948  -2.8641  -2.7687  -2.7345
    -2.7264  -2.7046  -2.6966  -2.6820  -2.6510  -2.6352  -2.6154  -2.6025
    -2.5885  -2.5112  -2.4712  -2.4383  -2.4142  -2.3851  -2.3694  -2.3544
    -2.3257  -2.2997  -2.2207  -2.1563  -2.1353  -2.1173  -2.1049  -2.0742
    -2.0618  -2.0475  -2.0340  -2.0201  -2.0017  -1.9955  -1.9813  -1.9754
    -1.9531  -1.9125  -1.8682  -1.8397  -1.8012  -1.7798  -1.7705  -1.7504
    -1.7403  -1.7235  -1.6976  -1.6804  -1.6726  -1.6518  -1.6327  -1.6251
    -1.6208  -1.6077  -1.6063  -1.5839  -1.5776  -1.5673  -1.5539  -1.5366
    -1.5238  -1.5134  -1.4921  -1.4462  -1.4350  -1.4112  -1.3926  -1.3869
    -1.3680  -1.3623  -1.3538  -1.3000  -1.2862  -1.2795  -1.2631  -1.2458
    -1.2169  -1.2122  -1.2056  -1.1827  -1.1777  -1.1581  -1.1456  -1.0984
    -1.0780  -1.0480  -1.0400  -0.9900  -0.9410  -0.9282  -0.8954  -0.8038
    -0.7922  -0.7858  -0.7753  -0.7685  -0.7557  -0.7430  -0.7314  -0.7126
    -0.6944  -0.6715  -0.6531  -0.6275  -0.6202  -0.5923  -0.5867  -0.5685
    -0.5430  -0.5319  -0.5049  -0.4916  -0.4853  -0.4410  -0.3656  -0.3321
    -0.3202  -0.3054  -0.2916  -0.2797  -0.2675  -0.2547  -0.2504  -0.2365
    -0.2249  -0.2041  -0.1511  -0.1428  -0.1338  -0.1261  -0.0831  -0.0591
    -0.0577  -0.0515  -0.0419  -0.0212  -0.0192  -0.0121  -0.0023   0.0070
     0.0348   0.0775   0.1088   0.1118   0.1248   0.1589   0.1708   0.1903
     0.4677   0.5123   0.5355   0.7127   0.7750   0.8635   1.1915   1.3726
     1.3938   1.6043

          k = 0.4000-0.2309 0.0000 ( 51204 PWs)   bands (ev):

   -21.5365 -10.3514  -7.1153  -6.7503  -6.2125  -6.0104  -5.5742  -5.2898
    -4.9314  -4.9146  -4.7971  -4.0902  -4.0536  -4.0369  -3.9959  -3.9575
    -3.8484  -3.8436  -3.7997  -3.7249  -3.7082  -3.6965  -3.5997  -3.5315
    -3.5264  -3.5207  -3.5144  -3.4633  -3.4496  -3.4069  -3.3993  -3.2585
    -3.2444  -3.2387  -3.2230  -3.2013  -3.1912  -3.1215  -3.0998  -3.0833
    -3.0678  -3.0624  -2.9591  -2.9090  -2.8650  -2.7941  -2.7662  -2.7436
    -2.7239  -2.6882  -2.6830  -2.6755  -2.6679  -2.6440  -2.5978  -2.5805
    -2.5504  -2.5288  -2.5108  -2.4464  -2.3778  -2.3704  -2.3432  -2.3109
    -2.2777  -2.2542  -2.2372  -2.2155  -2.2042  -2.1477  -2.1123  -2.0857
    -2.0791  -2.0778  -2.0670  -2.0540  -2.0367  -2.0301  -1.9885  -1.9740
    -1.9591  -1.9368  -1.9074  -1.8938  -1.8652  -1.8404  -1.7913  -1.7689
    -1.7554  -1.7425  -1.7262  -1.7040  -1.6803  -1.6636  -1.6452  -1.6379
    -1.6284  -1.6218  -1.6012  -1.5821  -1.5739  -1.5625  -1.5515  -1.5237
    -1.5216  -1.4993  -1.4562  -1.4512  -1.4125  -1.3721  -1.3602  -1.3450
    -1.3384  -1.3177  -1.2745  -1.2442  -1.2371  -1.2202  -1.2150  -1.2079
    -1.1957  -1.1907  -1.1806  -1.1782  -1.1641  -1.1603  -1.1457  -1.1358
    -1.1167  -1.0971  -1.0322  -1.0077  -0.9851  -0.9740  -0.9551  -0.9390
    -0.9174  -0.8591  -0.8559  -0.8336  -0.8212  -0.7798  -0.7649  -0.7137
    -0.7007  -0.6660  -0.6461  -0.6383  -0.6224  -0.6064  -0.5824  -0.5191
    -0.4692  -0.4587  -0.4382  -0.4272  -0.4229  -0.4150  -0.4085  -0.3922
    -0.3754  -0.3520  -0.2975  -0.2827  -0.2676  -0.2601  -0.2518  -0.2433
    -0.2325  -0.2239  -0.2116  -0.1985  -0.1818  -0.1556  -0.1029  -0.0781
    -0.0714  -0.0619  -0.0407   0.0152   0.0261   0.0311   0.0547   0.0861
     0.0995   0.1398   0.1442   0.1653   0.1693   0.1718   0.1883   0.1989
     0.2716   0.2848   0.3918   0.9737   1.1697   1.3473   1.3979   1.4410
     1.6199   1.7721

          k = 0.4000 0.0000 0.0000 ( 51202 PWs)   bands (ev):

   -21.5365 -10.3523  -7.1661  -6.8335  -6.1331  -5.7019  -5.6226  -5.4423
    -5.3937  -4.5124  -4.4562  -4.2086  -4.1967  -4.1495  -3.9940  -3.9861
    -3.8970  -3.8885  -3.8729  -3.7557  -3.7366  -3.6268  -3.6078  -3.5433
    -3.5030  -3.4199  -3.4049  -3.3986  -3.3759  -3.3558  -3.3393  -3.3184
    -3.3050  -3.2835  -3.2694  -3.2357  -3.1967  -3.1600  -3.1511  -3.0729
    -3.0349  -2.9543  -2.9299  -2.9014  -2.8845  -2.8763  -2.7980  -2.7673
    -2.7299  -2.6978  -2.6916  -2.6856  -2.6489  -2.6277  -2.6142  -2.6068
    -2.5912  -2.5283  -2.4712  -2.4194  -2.4091  -2.3948  -2.3744  -2.3518
    -2.3365  -2.2487  -2.2166  -2.1592  -2.1482  -2.1095  -2.0889  -2.0784
    -2.0549  -2.0494  -2.0341  -2.0249  -2.0017  -1.9861  -1.9842  -1.9754
    -1.9566  -1.9109  -1.8737  -1.8590  -1.7932  -1.7885  -1.7742  -1.7471
    -1.7452  -1.7138  -1.7028  -1.6789  -1.6687  -1.6477  -1.6353  -1.6233
    -1.6157  -1.6067  -1.5940  -1.5875  -1.5775  -1.5707  -1.5489  -1.5307
    -1.5244  -1.5115  -1.4756  -1.4530  -1.4362  -1.4077  -1.3953  -1.3883
    -1.3755  -1.3638  -1.3319  -1.3102  -1.2879  -1.2804  -1.2618  -1.2303
    -1.2206  -1.2091  -1.2069  -1.1961  -1.1769  -1.1535  -1.1399  -1.1047
    -1.0709  -1.0442  -1.0311  -0.9939  -0.9447  -0.9164  -0.8945  -0.8344
    -0.7966  -0.7893  -0.7753  -0.7675  -0.7535  -0.7398  -0.7282  -0.7175
    -0.6897  -0.6782  -0.6501  -0.6282  -0.6077  -0.5960  -0.5838  -0.5652
    -0.5456  -0.5326  -0.5057  -0.4903  -0.4837  -0.4296  -0.3772  -0.3385
    -0.3183  -0.3030  -0.2919  -0.2750  -0.2655  -0.2536  -0.2446  -0.2333
    -0.2265  -0.2146  -0.1595  -0.1390  -0.1321  -0.1180  -0.0817  -0.0663
    -0.0544  -0.0503  -0.0397  -0.0256  -0.0184  -0.0076   0.0001   0.0188
     0.0266   0.0476   0.1089   0.1147   0.1260   0.1656   0.1684   0.1794
     0.4806   0.5122   0.5742   0.6448   0.8401   0.8570   1.1248   1.3474
     1.4166   1.5763

          k = 0.4000 0.2309 0.0000 ( 51204 PWs)   bands (ev):

   -21.5365 -10.3531  -7.1156  -6.7425  -6.1738  -6.0184  -5.5344  -5.3855
    -4.9296  -4.8915  -4.8351  -4.1044  -4.0316  -4.0182  -3.9902  -3.9638
    -3.8485  -3.8393  -3.8000  -3.7170  -3.7052  -3.7009  -3.6169  -3.5288
    -3.5281  -3.5158  -3.5126  -3.4637  -3.4445  -3.4053  -3.3913  -3.2533
    -3.2454  -3.2216  -3.2167  -3.1944  -3.1917  -3.1295  -3.0820  -3.0787
    -3.0691  -3.0645  -2.9680  -2.9242  -2.8929  -2.8104  -2.7890  -2.7443
    -2.7325  -2.6894  -2.6856  -2.6753  -2.6635  -2.6549  -2.5897  -2.5856
    -2.5616  -2.5503  -2.5158  -2.4315  -2.3763  -2.3674  -2.3582  -2.3027
    -2.2592  -2.2496  -2.2391  -2.2229  -2.1690  -2.1625  -2.1348  -2.0870
    -2.0809  -2.0734  -2.0637  -2.0556  -2.0331  -2.0301  -2.0000  -1.9601
    -1.9580  -1.9311  -1.9060  -1.8742  -1.8580  -1.8445  -1.7830  -1.7802
    -1.7592  -1.7481  -1.7289  -1.7154  -1.6699  -1.6528  -1.6472  -1.6370
    -1.6265  -1.6045  -1.6006  -1.5770  -1.5726  -1.5619  -1.5372  -1.5298
    -1.5126  -1.4971  -1.4546  -1.4349  -1.3964  -1.3770  -1.3614  -1.3435
    -1.3200  -1.3150  -1.2804  -1.2423  -1.2325  -1.2224  -1.2148  -1.2115
    -1.1973  -1.1945  -1.1830  -1.1807  -1.1766  -1.1653  -1.1408  -1.1368
    -1.1244  -1.0891  -1.0321  -1.0090  -0.9819  -0.9680  -0.9459  -0.9420
    -0.9212  -0.8744  -0.8540  -0.8306  -0.8209  -0.7759  -0.7694  -0.7302
    -0.7060  -0.6641  -0.6371  -0.6357  -0.6146  -0.5984  -0.5609  -0.5541
    -0.4724  -0.4616  -0.4354  -0.4278  -0.4239  -0.4125  -0.4017  -0.4010
    -0.3777  -0.3319  -0.3080  -0.2762  -0.2715  -0.2594  -0.2542  -0.2463
    -0.2389  -0.2062  -0.2025  -0.1919  -0.1867  -0.1739  -0.0932  -0.0800
    -0.0729  -0.0654  -0.0384   0.0034   0.0220   0.0299   0.0651   0.0720
     0.0983   0.1419   0.1427   0.1674   0.1680   0.1727   0.2004   0.2164
     0.2667   0.2821   0.3792   0.9681   1.2011   1.2875   1.3866   1.4139
     1.6836   1.7730

          k = 0.4000-0.6928 0.0000 ( 51262 PWs)   bands (ev):

   -21.5365 -10.3528  -7.0690  -6.3960  -6.3830  -6.0518  -5.7314  -5.4669
    -5.1527  -4.9656  -4.4963  -4.1879  -3.9562  -3.9107  -3.8273  -3.7814
    -3.7730  -3.7516  -3.7363  -3.7195  -3.6700  -3.6631  -3.6588  -3.6452
    -3.5774  -3.5474  -3.5122  -3.5024  -3.4849  -3.4804  -3.3774  -3.3354
    -3.3235  -3.3149  -3.2825  -3.2549  -3.2213  -3.1553  -3.0940  -3.0304
    -3.0282  -2.9906  -2.9566  -2.9299  -2.8957  -2.8292  -2.8252  -2.8067
    -2.7659  -2.7446  -2.6654  -2.6423  -2.6231  -2.6063  -2.5647  -2.5359
    -2.4947  -2.4507  -2.4467  -2.4355  -2.4274  -2.4162  -2.3890  -2.3099
    -2.2540  -2.2338  -2.2298  -2.2215  -2.1985  -2.1658  -2.1524  -2.1147
    -2.0820  -2.0616  -2.0450  -2.0363  -2.0239  -1.9987  -1.9797  -1.9701
    -1.9606  -1.9409  -1.9363  -1.9033  -1.8989  -1.8599  -1.8335  -1.8192
    -1.8156  -1.7684  -1.7327  -1.7199  -1.7012  -1.6619  -1.6425  -1.6405
    -1.6217  -1.6203  -1.6111  -1.5973  -1.5885  -1.5652  -1.5476  -1.5048
    -1.4773  -1.4698  -1.4591  -1.4451  -1.4328  -1.4282  -1.4213  -1.4134
    -1.4001  -1.3851  -1.3731  -1.3621  -1.3441  -1.3096  -1.2870  -1.2809
    -1.2365  -1.2116  -1.1709  -1.1561  -1.1523  -1.1363  -1.1253  -1.1043
    -1.0628  -1.0516  -1.0377  -0.9926  -0.9371  -0.9186  -0.9029  -0.8936
    -0.8761  -0.8618  -0.8391  -0.8268  -0.8038  -0.7851  -0.7579  -0.7444
    -0.7241  -0.6926  -0.6783  -0.6710  -0.6482  -0.6067  -0.5973  -0.5781
    -0.5718  -0.5604  -0.5491  -0.5357  -0.4883  -0.4700  -0.4393  -0.3490
    -0.2973  -0.2916  -0.2809  -0.2729  -0.2591  -0.2514  -0.2365  -0.2291
    -0.1967  -0.1882  -0.1778  -0.1609  -0.1414  -0.1156  -0.0532  -0.0511
    -0.0406  -0.0224  -0.0079   0.0019   0.0382   0.0472   0.0604   0.0657
     0.0790   0.1206   0.1479   0.1514   0.1670   0.1778   0.1943   0.2198
     0.3104   0.5405   0.6461   0.9191   1.2688   1.4544   1.5144   1.7951
     1.8998   1.9474

          k = 0.4000-0.4619 0.0000 ( 51262 PWs)   bands (ev):

   -21.5365 -10.3518  -7.0679  -6.4197  -6.3965  -6.0184  -5.7226  -5.5325
    -5.0747  -4.9405  -4.5371  -4.1913  -3.9557  -3.9074  -3.8160  -3.7811
    -3.7730  -3.7487  -3.7377  -3.7096  -3.6778  -3.6644  -3.6593  -3.6530
    -3.5761  -3.5457  -3.5134  -3.5062  -3.4842  -3.4754  -3.3937  -3.3538
    -3.3281  -3.3176  -3.2957  -3.2574  -3.1982  -3.1600  -3.0799  -3.0359
    -3.0293  -2.9901  -2.9524  -2.9273  -2.9015  -2.8219  -2.8187  -2.8085
    -2.7446  -2.7324  -2.6694  -2.6446  -2.6192  -2.5945  -2.5477  -2.5349
    -2.4969  -2.4505  -2.4437  -2.4337  -2.4263  -2.4126  -2.3800  -2.3243
    -2.2847  -2.2431  -2.2275  -2.2164  -2.2109  -2.1565  -2.1384  -2.1113
    -2.0833  -2.0623  -2.0477  -2.0331  -2.0201  -2.0058  -1.9753  -1.9699
    -1.9519  -1.9431  -1.9310  -1.9006  -1.8997  -1.8925  -1.8315  -1.8239
    -1.7934  -1.7694  -1.7399  -1.7198  -1.6940  -1.6765  -1.6571  -1.6392
    -1.6262  -1.6187  -1.6104  -1.5982  -1.5876  -1.5791  -1.5522  -1.5260
    -1.4874  -1.4732  -1.4565  -1.4503  -1.4354  -1.4290  -1.4223  -1.4151
    -1.4075  -1.3966  -1.3803  -1.3579  -1.3294  -1.3060  -1.2883  -1.2636
    -1.2149  -1.2018  -1.1792  -1.1635  -1.1440  -1.1289  -1.1190  -1.0997
    -1.0627  -1.0518  -1.0395  -1.0001  -0.9545  -0.9161  -0.9041  -0.8818
    -0.8717  -0.8620  -0.8506  -0.8215  -0.8017  -0.7927  -0.7671  -0.7349
    -0.7142  -0.6946  -0.6821  -0.6688  -0.6461  -0.6143  -0.5994  -0.5932
    -0.5735  -0.5567  -0.5440  -0.5361  -0.4954  -0.4629  -0.4407  -0.3433
    -0.2960  -0.2890  -0.2782  -0.2670  -0.2631  -0.2535  -0.2473  -0.2141
    -0.1955  -0.1889  -0.1784  -0.1646  -0.1354  -0.1234  -0.0547  -0.0515
    -0.0395  -0.0241  -0.0105   0.0003   0.0417   0.0519   0.0542   0.0607
     0.0758   0.1433   0.1504   0.1586   0.1709   0.1765   0.2005   0.2226
     0.3114   0.5284   0.6249   0.8679   1.3421   1.4566   1.5411   1.7740
     1.9117   1.9889

 ------ SPIN DOWN ----------


          k = 0.0000 0.0000 0.0000 ( 51087 PWs)   bands (ev):

   -21.4875 -10.4146  -7.6086  -6.9357  -6.3173  -5.6557  -5.4946  -4.3684
    -4.3498  -4.3468  -4.3416  -4.3362  -4.3004  -4.2012  -3.5059  -3.4737
    -3.4714  -3.4630  -3.4391  -3.4025  -3.3019  -2.6118  -2.5257  -2.5240
    -2.5136  -2.4883  -2.4393  -2.1544  -2.0667  -2.0582  -2.0536  -2.0485
    -2.0289  -1.9019  -1.8545  -1.8201  -1.7749  -1.7737  -1.7586  -1.7540
    -1.6702  -1.6668  -1.6322  -1.6193  -1.6149  -1.5317  -1.5078  -1.5067
    -1.4715  -1.4666  -1.3321  -1.2582  -1.2446  -1.2402  -1.2324  -1.2207
    -1.2201  -1.2085  -1.1912  -1.1733  -1.1665  -1.1475  -1.1412  -1.1303
    -1.1019  -1.0206  -0.7808  -0.5872  -0.5834  -0.5595  -0.5556  -0.4297
    -0.3706  -0.2737  -0.2518  -0.2420  -0.2325  -0.2315  -0.2205  -0.1911
    -0.1760  -0.1687  -0.1563  -0.1462  -0.1437  -0.1432  -0.0851  -0.0718
    -0.0589  -0.0395  -0.0331  -0.0177  -0.0016   0.0099   0.0117   0.0190
     0.0209   0.0213   0.0428   0.0475   0.0492   0.0560   0.0959   0.1123
     0.1824   0.2073   0.2133   0.2601   0.2632   0.2721   0.2725   0.2778
     0.2842   0.2876   0.2884   0.3512   0.3566   0.3569   0.4220   0.4223
     0.4452   0.4637   0.4654   0.4917   0.6560   0.6652   0.6966   0.7144
     0.7501   0.7598   0.7627   0.7646   0.8749   1.0145   1.0563   1.0994
     1.1051   1.1671   1.2891   1.3100   1.3213   1.3276   1.3313   1.3332
     1.3526   1.4840   1.4842   1.4937   1.5020   1.5028   1.5259   1.5287
     1.5411   1.5602   1.5826   1.5875   1.6222   1.6269   1.6298   1.6479
     1.6482   1.6550   1.6600   1.6740   1.6921   1.7106   1.7337   1.7506
     1.7558   1.7677   1.7703   1.7773   1.7820   1.7849   1.7882   1.8216
     1.8420   1.8558   1.8565   1.8579   1.8718   1.8727   1.8795   1.9138
     1.9155   1.9231   1.9252   1.9300   1.9333   1.9405   1.9484   1.9517
     1.9596   2.0010   2.0062   2.0155   2.1516   2.1549   2.1610   2.1654
     2.1691   2.1695

          k = 0.0000 0.2309 0.0000 ( 51134 PWs)   bands (ev):

   -21.4875 -10.4146  -7.4685  -6.9105  -6.2446  -5.6797  -5.4729  -5.2528
    -4.7315  -4.7167  -4.1973  -4.0520  -3.8005  -3.7908  -3.7184  -3.6622
    -3.5025  -3.2432  -3.1394  -3.1053  -3.0160  -2.7495  -2.5869  -2.5115
    -2.4805  -2.4282  -2.3945  -2.2197  -2.1229  -2.0945  -2.0858  -2.0733
    -2.0400  -2.0113  -1.9966  -1.9815  -1.9525  -1.8830  -1.8152  -1.7808
    -1.7346  -1.7250  -1.7003  -1.5790  -1.5342  -1.5325  -1.5243  -1.4548
    -1.3846  -1.3788  -1.3298  -1.2990  -1.2779  -1.2550  -1.2361  -1.2293
    -1.2124  -1.2075  -1.1457  -1.1138  -1.0959  -1.0738  -1.0619  -1.0226
    -0.9896  -0.9067  -0.8001  -0.6267  -0.6124  -0.5943  -0.5824  -0.5269
    -0.4610  -0.4440  -0.4009  -0.3920  -0.2815  -0.2722  -0.2562  -0.2398
    -0.2227  -0.2118  -0.1956  -0.1833  -0.1751  -0.1627  -0.1287  -0.0745
    -0.0528  -0.0333  -0.0271  -0.0218   0.0031   0.0251   0.0322   0.0415
     0.0504   0.0577   0.0632   0.0712   0.0727   0.0773   0.1164   0.1294
     0.1514   0.1611   0.1755   0.1795   0.2013   0.2218   0.2309   0.2500
     0.2780   0.2799   0.3367   0.3627   0.3793   0.3953   0.4030   0.4233
     0.5322   0.5574   0.6182   0.6350   0.6467   0.6775   0.6905   0.7171
     0.7248   0.7420   0.7435   0.7490   0.9308   0.9847   1.0530   1.0710
     1.0791   1.0846   1.1070   1.1171   1.1564   1.1689   1.2323   1.2620
     1.2992   1.3283   1.3541   1.3634   1.3937   1.4076   1.4369   1.4755
     1.5033   1.5313   1.5429   1.5576   1.5649   1.5812   1.6062   1.6154
     1.6408   1.6735   1.6979   1.7060   1.7347   1.7439   1.7567   1.7884
     1.8043   1.8108   1.8209   1.8239   1.8447   1.8717   1.9009   1.9091
     1.9169   1.9358   1.9522   1.9611   1.9727   1.9878   2.0029   2.0090
     2.0235   2.0628   2.0649   2.0696   2.0892   2.0955   2.1078   2.1189
     2.1313   2.1538   2.1584   2.1652   2.2363   2.2549   2.2593   2.2992
     2.3339   2.3607

          k = 0.0000 0.4619 0.0000 ( 51204 PWs)   bands (ev):

   -21.4875 -10.4147  -7.1248  -6.8089  -6.2801  -6.0401  -5.5901  -5.2953
    -4.9443  -4.9263  -4.7791  -3.8606  -3.8416  -3.7185  -3.2273  -3.1800
    -3.1744  -3.0581  -2.9050  -2.8647  -2.7485  -2.7227  -2.6038  -2.5754
    -2.5611  -2.5054  -2.4617  -2.4257  -2.3525  -2.3289  -2.3062  -2.2584
    -2.2445  -2.0771  -2.0371  -1.9969  -1.9550  -1.9033  -1.8529  -1.8364
    -1.8253  -1.8006  -1.7482  -1.5728  -1.5324  -1.5009  -1.4798  -1.4507
    -1.3342  -1.3080  -1.2896  -1.2793  -1.2722  -1.2463  -1.2422  -1.2176
    -1.1974  -1.1359  -1.1211  -1.1106  -1.0812  -1.0669  -0.9623  -0.9043
    -0.8508  -0.7804  -0.7477  -0.6592  -0.6368  -0.6088  -0.5819  -0.5656
    -0.5502  -0.5348  -0.4942  -0.4724  -0.4451  -0.4088  -0.3766  -0.3559
    -0.3326  -0.3092  -0.2864  -0.2815  -0.2424  -0.2317  -0.1768  -0.1267
    -0.0953  -0.0884  -0.0541  -0.0213  -0.0078   0.0199   0.0294   0.0507
     0.0803   0.0925   0.1054   0.1209   0.1263   0.1327   0.1524   0.1786
     0.1863   0.2125   0.2200   0.2313   0.2358   0.2437   0.2546   0.2796
     0.2923   0.3129   0.3680   0.4215   0.4364   0.4435   0.4783   0.4946
     0.4973   0.5175   0.5352   0.5845   0.6044   0.6091   0.6234   0.6554
     0.6752   0.6922   0.7061   0.7261   0.7491   0.8350   0.8685   0.8984
     0.9219   0.9562   1.0357   1.0722   1.1302   1.1527   1.1732   1.1783
     1.2001   1.2191   1.2465   1.2777   1.2853   1.3784   1.4483   1.4526
     1.4725   1.4996   1.5200   1.5435   1.5792   1.5894   1.6174   1.6313
     1.6602   1.6703   1.7114   1.7437   1.7724   1.7838   1.8078   1.8266
     1.8307   1.8395   1.8602   1.8865   1.8993   1.9144   1.9272   1.9537
     1.9679   2.0130   2.0211   2.0581   2.0784   2.0928   2.1033   2.1141
     2.1206   2.1473   2.1559   2.1613   2.1730   2.1893   2.1919   2.1947
     2.2065   2.2429   2.3249   2.4074   2.4161   2.5290   2.6437   2.8535
     2.8880   2.9554

          k = 0.2000-0.1155 0.0000 ( 51134 PWs)   bands (ev):

   -21.4875 -10.4148  -7.4683  -6.9105  -6.2430  -5.6727  -5.4766  -5.2593
    -4.7301  -4.7141  -4.2021  -4.0547  -3.8000  -3.7905  -3.7140  -3.6596
    -3.5039  -3.2431  -3.1373  -3.1043  -3.0205  -2.7569  -2.5803  -2.5108
    -2.4845  -2.4245  -2.3938  -2.2261  -2.1191  -2.0944  -2.0870  -2.0708
    -2.0405  -2.0099  -1.9965  -1.9807  -1.9513  -1.8860  -1.8162  -1.7853
    -1.7340  -1.7276  -1.6937  -1.5805  -1.5349  -1.5319  -1.5234  -1.4576
    -1.3825  -1.3787  -1.3310  -1.2957  -1.2775  -1.2554  -1.2355  -1.2305
    -1.2138  -1.2046  -1.1416  -1.1133  -1.0943  -1.0757  -1.0612  -1.0227
    -0.9903  -0.9116  -0.7976  -0.6260  -0.6130  -0.5949  -0.5813  -0.5273
    -0.4613  -0.4433  -0.4014  -0.3914  -0.2800  -0.2723  -0.2555  -0.2390
    -0.2232  -0.2124  -0.1963  -0.1840  -0.1747  -0.1618  -0.1290  -0.0749
    -0.0541  -0.0331  -0.0276  -0.0205   0.0037   0.0258   0.0319   0.0416
     0.0490   0.0577   0.0626   0.0708   0.0726   0.0776   0.1163   0.1300
     0.1517   0.1612   0.1741   0.1797   0.2026   0.2199   0.2315   0.2510
     0.2777   0.2820   0.3367   0.3663   0.3791   0.3951   0.4035   0.4234
     0.5342   0.5549   0.6089   0.6352   0.6421   0.6795   0.6921   0.7162
     0.7241   0.7419   0.7443   0.7485   0.9322   0.9840   1.0525   1.0695
     1.0783   1.0853   1.1055   1.1181   1.1538   1.1700   1.2331   1.2621
     1.2988   1.3277   1.3535   1.3645   1.3934   1.4076   1.4370   1.4808
     1.5022   1.5305   1.5426   1.5558   1.5648   1.5813   1.6062   1.6154
     1.6437   1.6770   1.6943   1.7078   1.7355   1.7431   1.7563   1.7891
     1.8040   1.8091   1.8208   1.8248   1.8431   1.8733   1.9011   1.9099
     1.9172   1.9346   1.9529   1.9614   1.9726   1.9877   2.0030   2.0082
     2.0230   2.0625   2.0646   2.0692   2.0889   2.0952   2.1064   2.1172
     2.1294   2.1535   2.1591   2.1649   2.2383   2.2557   2.2591   2.2949
     2.3363   2.3612

          k = 0.2000 0.1155 0.0000 ( 51134 PWs)   bands (ev):

   -21.4875 -10.4155  -7.4668  -6.9109  -6.2338  -5.6327  -5.5028  -5.3023
    -4.7145  -4.7039  -4.2119  -4.0904  -3.8007  -3.7930  -3.6706  -3.6505
    -3.5093  -3.2418  -3.1348  -3.1063  -3.0262  -2.7676  -2.5531  -2.5254
    -2.4720  -2.4169  -2.4116  -2.1933  -2.1455  -2.0885  -2.0843  -2.0699
    -2.0519  -2.0101  -1.9975  -1.9780  -1.9631  -1.8870  -1.8128  -1.7997
    -1.7313  -1.7304  -1.6674  -1.6487  -1.5441  -1.5323  -1.4811  -1.4271
    -1.4022  -1.3698  -1.3354  -1.3161  -1.2706  -1.2503  -1.2402  -1.2322
    -1.2215  -1.1752  -1.1635  -1.1141  -1.0982  -1.0631  -1.0555  -1.0256
    -0.9781  -0.8861  -0.8244  -0.6253  -0.6168  -0.5835  -0.5789  -0.5317
    -0.4826  -0.4295  -0.4056  -0.3925  -0.2946  -0.2617  -0.2575  -0.2423
    -0.2121  -0.2076  -0.2006  -0.1817  -0.1757  -0.1590  -0.1340  -0.0755
    -0.0456  -0.0342  -0.0233  -0.0228  -0.0032   0.0334   0.0340   0.0460
     0.0482   0.0577   0.0588   0.0687   0.0713   0.0781   0.1198   0.1213
     0.1565   0.1580   0.1794   0.1800   0.1897   0.2253   0.2381   0.2516
     0.2741   0.2827   0.3364   0.3775   0.3843   0.3948   0.4061   0.4231
     0.5283   0.5624   0.5935   0.6331   0.6422   0.6887   0.6994   0.7149
     0.7204   0.7338   0.7465   0.7468   0.8915   0.9934   1.0497   1.0702
     1.0727   1.0822   1.1087   1.1233   1.1430   1.2117   1.2399   1.2723
     1.3093   1.3130   1.3511   1.3762   1.4024   1.4142   1.4200   1.4391
     1.5025   1.5302   1.5515   1.5626   1.5800   1.5980   1.6046   1.6228
     1.6337   1.6829   1.6894   1.7104   1.7190   1.7523   1.7610   1.7907
     1.8044   1.8092   1.8208   1.8266   1.8502   1.8640   1.8987   1.9010
     1.9145   1.9226   1.9531   1.9586   1.9774   1.9909   1.9971   2.0111
     2.0280   2.0646   2.0652   2.0681   2.0901   2.0926   2.0988   2.1246
     2.1266   2.1551   2.1570   2.1629   2.2434   2.2494   2.2608   2.3035
     2.3309   2.3626

          k = 0.2000 0.3464 0.0000 ( 51202 PWs)   bands (ev):

   -21.4875 -10.4158  -7.2152  -6.8540  -6.1295  -5.7714  -5.7003  -5.4551
    -5.3966  -4.4659  -4.3690  -3.9929  -3.9760  -3.8593  -3.1731  -3.1517
    -3.1444  -3.1329  -3.0324  -2.9493  -2.8521  -2.8433  -2.8074  -2.4791
    -2.4547  -2.3951  -2.3801  -2.3350  -2.2980  -2.2808  -2.2236  -2.1889
    -2.1780  -2.1701  -2.1394  -2.0446  -2.0061  -1.9372  -1.8113  -1.7969
    -1.7593  -1.7441  -1.6726  -1.6620  -1.6136  -1.5062  -1.4801  -1.4458
    -1.3514  -1.3162  -1.2776  -1.2724  -1.2680  -1.2522  -1.2318  -1.2132
    -1.2033  -1.1947  -1.1394  -1.0897  -1.0527  -0.9910  -0.9363  -0.8951
    -0.8444  -0.8032  -0.7890  -0.6971  -0.5987  -0.5772  -0.5666  -0.5289
    -0.5145  -0.4863  -0.4789  -0.4582  -0.4132  -0.3959  -0.3705  -0.3543
    -0.3461  -0.3241  -0.3090  -0.2850  -0.2274  -0.1947  -0.1362  -0.1206
    -0.1092  -0.0855  -0.0549  -0.0315  -0.0176  -0.0020   0.0089   0.0193
     0.0336   0.0610   0.0651   0.0798   0.0927   0.1074   0.1363   0.1630
     0.1726   0.1782   0.1916   0.2005   0.2147   0.2212   0.2373   0.2484
     0.3162   0.3394   0.3441   0.3654   0.4513   0.4723   0.4959   0.5106
     0.5360   0.5545   0.5812   0.6211   0.6409   0.6532   0.6702   0.6768
     0.6853   0.7008   0.7477   0.7842   0.8151   0.8676   0.9670   0.9777
     1.0411   1.0779   1.0985   1.1193   1.1330   1.1469   1.1655   1.1746
     1.1962   1.2073   1.2169   1.2419   1.2731   1.3503   1.3764   1.3840
     1.4170   1.4360   1.4437   1.4726   1.5003   1.5442   1.5590   1.5808
     1.6233   1.6835   1.7633   1.7841   1.7917   1.8150   1.8280   1.8371
     1.8511   1.8591   1.8808   1.8857   1.9139   1.9462   1.9624   1.9699
     1.9853   2.0069   2.0210   2.0265   2.0450   2.0616   2.0714   2.0946
     2.1024   2.1136   2.1159   2.1388   2.1467   2.1791   2.1980   2.2287
     2.2354   2.2521   2.3465   2.3674   2.4084   2.4833   2.5178   2.6311
     2.7803   2.8321

          k = 0.2000-0.5774 0.0000 ( 51262 PWs)   bands (ev):

   -21.4875 -10.4152  -7.0263  -6.5295  -6.4866  -6.0198  -5.7933  -5.5553
    -5.0962  -4.9530  -4.5067  -4.0457  -3.5159  -3.3648  -3.1836  -3.1743
    -3.1618  -2.9640  -2.9208  -2.7850  -2.7655  -2.7576  -2.6393  -2.6244
    -2.6188  -2.5876  -2.5794  -2.5590  -2.4197  -2.3098  -2.2348  -2.2166
    -2.1985  -2.1802  -2.1457  -2.1422  -2.0689  -2.0198  -1.8495  -1.8175
    -1.7063  -1.6810  -1.6759  -1.6039  -1.5747  -1.5239  -1.4467  -1.4318
    -1.4028  -1.3855  -1.3755  -1.2677  -1.2225  -1.2117  -1.2003  -1.1854
    -1.1507  -1.0885  -1.0542  -1.0388  -0.9877  -0.9781  -0.9560  -0.9026
    -0.8538  -0.7932  -0.6910  -0.6600  -0.6502  -0.6074  -0.5834  -0.5761
    -0.5346  -0.5121  -0.4906  -0.4614  -0.4198  -0.4090  -0.3742  -0.3597
    -0.3394  -0.3255  -0.3098  -0.2968  -0.2924  -0.2848  -0.2504  -0.2289
    -0.2215  -0.1880  -0.1570  -0.1391  -0.1053  -0.0666  -0.0370   0.0072
     0.0290   0.0636   0.0765   0.0954   0.1036   0.1254   0.1388   0.1572
     0.1916   0.2170   0.2377   0.2533   0.2673   0.2840   0.3322   0.3640
     0.3927   0.4093   0.4144   0.4253   0.4353   0.4774   0.4989   0.5262
     0.5337   0.5640   0.5970   0.6171   0.6413   0.6506   0.6828   0.6945
     0.7086   0.7152   0.7398   0.7561   0.7769   0.7931   0.7973   0.8404
     0.8979   0.9588   1.0156   1.0634   1.0843   1.0940   1.1233   1.1356
     1.1469   1.1640   1.1797   1.2610   1.2851   1.3213   1.3446   1.3553
     1.3903   1.3931   1.4294   1.4714   1.4903   1.5077   1.5395   1.6000
     1.6439   1.6977   1.7417   1.7698   1.8182   1.8366   1.8551   1.8729
[...]
     atom    8 type  1   force =    -0.00003458   -0.00515954   -0.10041008
     atom    9 type  1   force =     0.00001494    0.00397772   -0.10546978
     atom   10 type  1   force =     0.00163064    0.00083356   -0.01379999
     atom   11 type  1   force =    -0.00072560   -0.00003582   -0.00833160
     atom   12 type  1   force =    -0.00015951    0.00225249   -0.01211553
     atom   13 type  1   force =    -0.00024356   -0.00063674   -0.00805309
     atom   14 type  1   force =     0.00073729    0.00028447   -0.01052099
     atom   15 type  1   force =    -0.00096833    0.00036105   -0.01016805
     atom   16 type  1   force =     0.00186305   -0.00113781   -0.01215003
     atom   17 type  1   force =     0.00007191   -0.00071538   -0.01017350
     atom   18 type  1   force =    -0.00127764   -0.00059747   -0.01546324
     atom   19 type  1   force =    -0.00556353   -0.00106627    0.00490436
     atom   20 type  1   force =     0.00019779   -0.00064648    0.00241573
     atom   21 type  1   force =     0.00330777   -0.00541832    0.01103733
     atom   22 type  1   force =     0.00197240    0.00583513    0.00542152
     atom   23 type  1   force =    -0.00324663    0.00504797    0.01153565
     atom   24 type  1   force =     0.00117541    0.00038760    0.01995255
     atom   25 type  1   force =     0.00218688    0.00120069    0.01837491
     atom   26 type  1   force =    -0.00324537   -0.00389341    0.00512207
     atom   27 type  1   force =     0.00524351   -0.00056356    0.00737897
     atom   28 type  1   force =     0.05532295    0.03448732    0.16498782
     atom   29 type  1   force =    -0.04454309    0.08326488    0.18579263
     atom   30 type  1   force =    -0.01149596    0.00488175    0.11592465
     atom   31 type  1   force =     0.05472996   -0.07161859    0.17833054
     atom   32 type  1   force =     0.01141890    0.00174572    0.06886437
     atom   33 type  1   force =     0.00146629   -0.00180348    0.11555980
     atom   34 type  1   force =    -0.00283380   -0.01143447    0.11540373
     atom   35 type  1   force =     0.00008761    0.00161616    0.11347522
     atom   36 type  1   force =    -0.00059678   -0.00083194    0.10122497
     atom   37 type  2   force =    -0.38988853   -0.21010276    0.16924096
     atom   38 type  3   force =     1.91515115    0.96957557   -1.19817661
     atom   39 type  4   force =    -0.04622889   -0.02207165   -0.05805344
     The ionic contribution  to forces
     atom    1 type  1   force =    -0.01013202    0.00100655 -111.27199694
     atom    2 type  1   force =     0.00161807    0.00088315 -111.28912383
     atom    3 type  1   force =     0.00851392    0.00005043 -111.26877278
     atom    4 type  1   force =    -0.00435524    0.00934087 -111.26854624
     atom    5 type  1   force =     0.00434296    0.00749147 -111.26856669
     atom    6 type  1   force =     0.00001230    0.00017715 -111.25993460
     atom    7 type  1   force =    -0.00161448   -0.00105110 -111.26024417
     atom    8 type  1   force =    -0.00414820   -0.00942129 -111.27170080
     atom    9 type  1   force =     0.00576267   -0.00847724 -111.26845848
     atom   10 type  1   force =    -0.05833928   -0.03490742  -40.22881240
     atom   11 type  1   force =     0.01337139   -0.07605752  -40.32023886
     atom   12 type  1   force =     0.04496880   -0.03227163  -40.20257910
     atom   13 type  1   force =    -0.05806373    0.04950114  -40.32161373
     atom   14 type  1   force =     0.06636194    0.03882858  -40.30494710
     atom   15 type  1   force =    -0.00829236    0.01763069  -40.19055747
     atom   16 type  1   force =    -0.00442224    0.05516769  -40.20169883
     atom   17 type  1   force =     0.01073412   -0.01499648  -40.18849633
     atom   18 type  1   force =    -0.00631449   -0.00289205  -40.17962411
     atom   19 type  1   force =    -0.51189490    0.05599407   31.13759666
     atom   20 type  1   force =     0.08690996    0.04776398   30.17222585
     atom   21 type  1   force =     0.42405426   -0.00291168   31.29889107
     atom   22 type  1   force =    -0.21143237    0.45307059   31.31655111
     atom   23 type  1   force =     0.21006241    0.37442437   31.30943858
     atom   24 type  1   force =     0.00191694    0.00913222   31.67907577
     atom   25 type  1   force =    -0.07500385   -0.04883585   31.66560293
     atom   26 type  1   force =    -0.20354584   -0.47690994   31.15413386
     atom   27 type  1   force =     0.27814557   -0.41205782   31.32050152
     atom   28 type  1   force =    -2.50061960   -1.50299740  103.02900910
     atom   29 type  1   force =     1.10336416   -5.02885944   98.94021004
     atom   30 type  1   force =     1.55156760   -1.10586854  104.06803411
     atom   31 type  1   force =    -3.70383804    3.54461649   98.73709775
     atom   32 type  1   force =     4.35453371    2.59911792   98.97390566
     atom   33 type  1   force =    -0.29237826    0.50192746  104.33703649
     atom   34 type  1   force =    -0.14334664    1.87190938  104.10416653
     atom   35 type  1   force =     0.27955861   -0.45799384  104.38542190
     atom   36 type  1   force =    -0.14752296   -0.05422161  104.58328553
     atom   37 type  2   force =     5.27625026    2.62694728   56.70825059
     atom   38 type  3   force =    -7.46422522   -3.80018376   89.24746787
     atom   39 type  4   force =     1.68744005    0.80593312   15.39800954
     The local contribution  to forces
     atom    1 type  1   force =     0.01529319   -0.00330149  111.37453084
     atom    2 type  1   force =    -0.00527510   -0.00277433  111.39496191
     atom    3 type  1   force =    -0.01035506    0.00211484  111.37802351
     atom    4 type  1   force =     0.00077583   -0.00779524  111.37601077
     atom    5 type  1   force =    -0.00347544   -0.00987734  111.37769659
     atom    6 type  1   force =     0.00183460    0.00101963  111.36510197
     atom    7 type  1   force =     0.00039318    0.00033913  111.36627712
     atom    8 type  1   force =     0.00453854    0.01477552  111.37498917
     atom    9 type  1   force =    -0.00620454    0.00441098  111.37606726
     atom   10 type  1   force =     0.05767220    0.03457852   40.22127292
     atom   11 type  1   force =    -0.01424440    0.07584244   40.30873920
     atom   12 type  1   force =    -0.04379374    0.02981123   40.19537318
     atom   13 type  1   force =     0.05709587   -0.05004633   40.31020494
     atom   14 type  1   force =    -0.06549849   -0.03822532   40.29317353
     atom   15 type  1   force =     0.00932927   -0.01822662   40.17955140
     atom   16 type  1   force =     0.00297155   -0.05292674   40.19472957
     atom   17 type  1   force =    -0.01101961    0.01591014   40.17763295
     atom   18 type  1   force =     0.00812006    0.00380155   40.17344280
     atom   19 type  1   force =     0.51739369   -0.05293215  -31.12064619
     atom   20 type  1   force =    -0.08667473   -0.04676529  -30.15564559
     atom   21 type  1   force =    -0.42559127    0.00666138  -31.29211981
     atom   22 type  1   force =     0.20924743   -0.45857017  -31.30268711
     atom   23 type  1   force =    -0.20747216   -0.37774287  -31.30269160
     atom   24 type  1   force =    -0.00209662   -0.00906144  -31.67546412
     atom   25 type  1   force =     0.07304219    0.04792479  -31.65844057
     atom   26 type  1   force =     0.20785978    0.47967910  -31.13772390
     atom   27 type  1   force =    -0.28309980    0.41220265  -31.30781058
     atom   28 type  1   force =     2.43473045    1.46243381 -103.20579626
     atom   29 type  1   force =    -1.05484202    4.92009735  -99.13165420
     atom   30 type  1   force =    -1.53057536    1.09521930 -104.19201735
     atom   31 type  1   force =     3.62680506   -3.45694703  -98.92285574
     atom   32 type  1   force =    -4.35409377   -2.59159473  -99.04522596
     atom   33 type  1   force =     0.28806620   -0.49654005 -104.46491281
     atom   34 type  1   force =     0.14689277   -1.85035467 -104.22721759
     atom   35 type  1   force =    -0.27816884    0.45206150 -104.51040788
     atom   36 type  1   force =     0.14544090    0.05374518 -104.69339544
     atom   37 type  2   force =    -4.88847482   -2.41835965  -56.87156092
     atom   38 type  3   force =     5.56404270    2.83795817  -88.06746155
     atom   39 type  4   force =    -1.63773093   -0.78275138  -15.33149817
     The core correction contribution to forces
     atom    1 type  1   force =     0.00041423   -0.00010841    0.01020245
     atom    2 type  1   force =    -0.00031695   -0.00021069    0.00960383
     atom    3 type  1   force =    -0.00009821    0.00011142    0.01042392
     atom    4 type  1   force =    -0.00028105   -0.00012189    0.01009784
     atom    5 type  1   force =     0.00001048   -0.00013991    0.01047410
     atom    6 type  1   force =    -0.00018086   -0.00005780    0.00994889
     atom    7 type  1   force =    -0.00025154   -0.00013429    0.00987681
     atom    8 type  1   force =     0.00003781    0.00038139    0.01022511
     atom    9 type  1   force =    -0.00023464   -0.00019489    0.01005467
     atom   10 type  1   force =     0.00003181    0.00000493   -0.00210481
     atom   11 type  1   force =    -0.00018397    0.00014370   -0.00173138
     atom   12 type  1   force =     0.00031982    0.00002620   -0.00192464
     atom   13 type  1   force =     0.00002225   -0.00027541   -0.00171621
     atom   14 type  1   force =     0.00024373    0.00014526   -0.00203743
     atom   15 type  1   force =     0.00000918    0.00006786   -0.00163078
     atom   16 type  1   force =     0.00019516    0.00028743   -0.00193403
     atom   17 type  1   force =     0.00003018   -0.00006186   -0.00161516
     atom   18 type  1   force =    -0.00012878   -0.00006075   -0.00192226
     atom   19 type  1   force =    -0.00058101   -0.00038549    0.00133247
     atom   20 type  1   force =    -0.00020304   -0.00009581    0.00190763
     atom   21 type  1   force =     0.00061102   -0.00060544    0.00088132
     atom   22 type  1   force =    -0.00023327    0.00022733    0.00116097
     atom   23 type  1   force =    -0.00028713    0.00081539    0.00096747
     atom   24 type  1   force =    -0.00001747   -0.00003003    0.00210247
     atom   25 type  1   force =     0.00041301    0.00023172    0.00178394
     atom   26 type  1   force =    -0.00062523   -0.00026797    0.00134238
     atom   27 type  1   force =     0.00000146   -0.00034752    0.00128857
     atom   28 type  1   force =     0.00342997    0.00182344   -0.00650386
     atom   29 type  1   force =    -0.00121712    0.01457687    0.00320256
     atom   30 type  1   force =    -0.00369738    0.00325857   -0.00875556
     atom   31 type  1   force =     0.01173402   -0.00884107    0.00396632
     atom   32 type  1   force =    -0.00792398   -0.00559049    0.00283041
     atom   33 type  1   force =    -0.00076666   -0.00023298   -0.00978588
     atom   34 type  1   force =     0.00111585   -0.00438149   -0.00883345
     atom   35 type  1   force =    -0.00083850   -0.00056437   -0.00976383
     atom   36 type  1   force =     0.00010636    0.00014788   -0.01067234
     atom   37 type  2   force =     0.00505964    0.00280978   -0.00191441
     atom   38 type  3   force =    -0.01618778   -0.00817569    0.01117861
     atom   39 type  4   force =     0.00000000    0.00000000    0.00000000
     The Hubbard contrib.    to forces
     atom    1 type  1   force =     0.00000000    0.00000000    0.00000000
     atom    2 type  1   force =     0.00000000    0.00000000    0.00000000
     atom    3 type  1   force =     0.00000000    0.00000000    0.00000000
     atom    4 type  1   force =     0.00000000    0.00000000    0.00000000
     atom    5 type  1   force =     0.00000000    0.00000000    0.00000000
     atom    6 type  1   force =     0.00000000    0.00000000    0.00000000
     atom    7 type  1   force =     0.00000000    0.00000000    0.00000000
     atom    8 type  1   force =     0.00000000    0.00000000    0.00000000
     atom    9 type  1   force =     0.00000000    0.00000000    0.00000000
     atom   10 type  1   force =     0.00000000    0.00000000    0.00000000
     atom   11 type  1   force =     0.00000000    0.00000000    0.00000000
     atom   12 type  1   force =     0.00000000    0.00000000    0.00000000
     atom   13 type  1   force =     0.00000000    0.00000000    0.00000000
     atom   14 type  1   force =     0.00000000    0.00000000    0.00000000
     atom   15 type  1   force =     0.00000000    0.00000000    0.00000000
     atom   16 type  1   force =     0.00000000    0.00000000    0.00000000
     atom   17 type  1   force =     0.00000000    0.00000000    0.00000000
     atom   18 type  1   force =     0.00000000    0.00000000    0.00000000
     atom   19 type  1   force =     0.00000000    0.00000000    0.00000000
     atom   20 type  1   force =     0.00000000    0.00000000    0.00000000
     atom   21 type  1   force =     0.00000000    0.00000000    0.00000000
     atom   22 type  1   force =     0.00000000    0.00000000    0.00000000
     atom   23 type  1   force =     0.00000000    0.00000000    0.00000000
     atom   24 type  1   force =     0.00000000    0.00000000    0.00000000
     atom   25 type  1   force =     0.00000000    0.00000000    0.00000000
     atom   26 type  1   force =     0.00000000    0.00000000    0.00000000
     atom   27 type  1   force =     0.00000000    0.00000000    0.00000000
     atom   28 type  1   force =     0.00000000    0.00000000    0.00000000
     atom   29 type  1   force =     0.00000000    0.00000000    0.00000000
     atom   30 type  1   force =     0.00000000    0.00000000    0.00000000
     atom   31 type  1   force =     0.00000000    0.00000000    0.00000000
     atom   32 type  1   force =     0.00000000    0.00000000    0.00000000
     atom   33 type  1   force =     0.00000000    0.00000000    0.00000000
     atom   34 type  1   force =     0.00000000    0.00000000    0.00000000
     atom   35 type  1   force =     0.00000000    0.00000000    0.00000000
     atom   36 type  1   force =     0.00000000    0.00000000    0.00000000
     atom   37 type  2   force =     0.00000000    0.00000000    0.00000000
     atom   38 type  3   force =     0.00000000    0.00000000    0.00000000
     atom   39 type  4   force =     0.00000000    0.00000000    0.00000000
     The SCF correction term to forces
     atom    1 type  1   force =     0.00000000   -0.00000000    0.00000000
     atom    2 type  1   force =     0.00000000    0.00000000    0.00000000
     atom    3 type  1   force =    -0.00000000    0.00000000    0.00000000
     atom    4 type  1   force =     0.00000000   -0.00000000    0.00000000
     atom    5 type  1   force =    -0.00000000   -0.00000000    0.00000000
     atom    6 type  1   force =    -0.00000000   -0.00000000    0.00000000
     atom    7 type  1   force =     0.00000000    0.00000000    0.00000000
     atom    8 type  1   force =    -0.00000000    0.00000000    0.00000000
     atom    9 type  1   force =    -0.00000000    0.00000000    0.00000000
     atom   10 type  1   force =     0.00000000    0.00000000    0.00000000
     atom   11 type  1   force =     0.00000000    0.00000000    0.00000000
     atom   12 type  1   force =    -0.00000000    0.00000000    0.00000000
     atom   13 type  1   force =     0.00000000    0.00000000    0.00000000
     atom   14 type  1   force =    -0.00000000   -0.00000000    0.00000000
     atom   15 type  1   force =    -0.00000000    0.00000000    0.00000000
     atom   16 type  1   force =    -0.00000000   -0.00000000    0.00000000
     atom   17 type  1   force =    -0.00000000   -0.00000000    0.00000000
     atom   18 type  1   force =     0.00000000    0.00000000    0.00000000
     atom   19 type  1   force =     0.00000000    0.00000000    0.00000000
     atom   20 type  1   force =     0.00000000    0.00000000    0.00000000
     atom   21 type  1   force =    -0.00000000   -0.00000000    0.00000000
     atom   22 type  1   force =     0.00000000    0.00000000    0.00000000
     atom   23 type  1   force =    -0.00000000   -0.00000000    0.00000000
     atom   24 type  1   force =    -0.00000000    0.00000000    0.00000000
     atom   25 type  1   force =    -0.00000000   -0.00000000    0.00000000
     atom   26 type  1   force =     0.00000000   -0.00000000    0.00000000
     atom   27 type  1   force =     0.00000000    0.00000000    0.00000000
     atom   28 type  1   force =    -0.00000000   -0.00000000    0.00000000
     atom   29 type  1   force =     0.00000000    0.00000000   -0.00000000
     atom   30 type  1   force =    -0.00000000    0.00000000    0.00000000
     atom   31 type  1   force =     0.00000000   -0.00000000   -0.00000000
     atom   32 type  1   force =    -0.00000000    0.00000000    0.00000000
     atom   33 type  1   force =    -0.00000000   -0.00000000    0.00000000
     atom   34 type  1   force =     0.00000000   -0.00000000    0.00000000
     atom   35 type  1   force =    -0.00000000   -0.00000000    0.00000000
     atom   36 type  1   force =     0.00000000    0.00000000   -0.00000000
     atom   37 type  2   force =     0.00001537    0.00000562   -0.00001879
     atom   38 type  3   force =     0.00001098   -0.00000234   -0.00001767
     atom   39 type  4   force =     0.00000091    0.00000059   -0.00000533

     Total force =     0.012733     Total SCF correction =     0.000033

     Writing all to output data dir ./pwscf.save/

     init_run     :     11.40s CPU     11.83s WALL (       1 calls)
     electrons    :    845.23s CPU    856.22s WALL (       1 calls)
     forces       :      4.27s CPU      4.36s WALL (       1 calls)

     Called by init_run:
     wfcinit      :      8.35s CPU      8.65s WALL (       1 calls)
     potinit      :      1.97s CPU      2.06s WALL (       1 calls)
     hinit0       :      0.83s CPU      0.85s WALL (       1 calls)

     Called by electrons:
     c_bands      :    720.18s CPU    728.65s WALL (      51 calls)
     sum_band     :     84.81s CPU     86.26s WALL (      51 calls)
     v_of_rho     :      8.94s CPU      9.31s WALL (      52 calls)
     newd         :      2.96s CPU      3.01s WALL (      52 calls)
     PAW_pot      :     13.00s CPU     13.15s WALL (      52 calls)
     mix_rho      :     16.67s CPU     17.02s WALL (      51 calls)
     vdW_kernel   :      1.07s CPU      1.08s WALL (       1 calls)

     Called by c_bands:
     init_us_2    :      8.81s CPU      8.99s WALL (    2704 calls)
     init_us_2:cp :      8.79s CPU      8.98s WALL (    2704 calls)
     cegterg      :    694.27s CPU    702.05s WALL (    1326 calls)

     Called by *egterg:
     cdiaghg      :    198.77s CPU    200.42s WALL (    4357 calls)
     h_psi        :    328.44s CPU    332.93s WALL (    4383 calls)
     s_psi        :     37.06s CPU     37.43s WALL (    4383 calls)
     g_psi        :      0.87s CPU      0.89s WALL (    3031 calls)

     Called by h_psi:
     h_psi:calbec :     53.37s CPU     54.17s WALL (    4383 calls)
     vloc_psi     :    235.54s CPU    238.76s WALL (    4383 calls)
     add_vuspsi   :     37.23s CPU     37.68s WALL (    4383 calls)

     General routines
     calbec       :     76.94s CPU     78.12s WALL (    5813 calls)
     fft          :      5.71s CPU      6.10s WALL (    4705 calls)
     ffts         :      9.65s CPU      9.92s WALL (   21250 calls)
     fftw         :    266.65s CPU    270.39s WALL ( 1373694 calls)
     interpolate  :      0.38s CPU      0.39s WALL (     104 calls)

     Parallel routines

     PWSCF        :  14m27.12s CPU  14m47.21s WALL


   This run was terminated on:   5:24:15  11Dec2025            

=------------------------------------------------------------------------------=
   JOB DONE.
=------------------------------------------------------------------------------=
