
     Program PWSCF v.7.1 starts on 10Nov2025 at 21: 4:56 
        Git branch: heads/qe-7.1
        Last git commit: 48ba0178f8fede6d020eb786884699a9f063f55d-dirty
        Last git commit date: Fri Jan 27 14:22:33 2023 +0000
        Last git commit subject: Merge branch 'fix_hubbard' into 'develop'

     This program is part of the open-source Quantum ESPRESSO suite
     for quantum simulation of materials; please cite
         "P. Giannozzi et al., J. Phys.:Condens. Matter 21 395502 (2009);
         "P. Giannozzi et al., J. Phys.:Condens. Matter 29 465901 (2017);
         "P. Giannozzi et al., J. Chem. Phys. 152 154105 (2020);
          URL http://www.quantum-espresso.org", 
     in publications or presentations arising from this work. More details at
     http://www.quantum-espresso.org/quote

     Parallel version (MPI), running on    48 processors

     MPI processes distributed on     1 nodes
     88325 MiB available memory on the printing compute node when the environment starts

     Reading input from espresso.pwi
Warning: card &CELL ignored
Warning: card / ignored
Warning: card &FCP ignored
Warning: card / ignored
Warning: card &RISM ignored
Warning: card / ignored

     Current dimensions of program PWSCF are:
     Max number of different atomic species (ntypx) = 10
     Max number of k-points (npk) =  40000
     Max angular momentum in pseudopotentials (lmaxx) =  4
     file Pt.pbe-n-kjpaw_psl.1.0.0.UPF: wavefunction(s)  6S 5D renormalized
     file C.pbe-n-kjpaw_psl.1.0.0.UPF: wavefunction(s)  2S 2P renormalized
     file H.pbe-kjpaw_psl.1.0.0.UPF: wavefunction(s)  1S renormalized

     **************************************************************************
     Initializing libbeef V0.1.2 with the BEEF-vdW functional.
     Citation: Wellendorff et al., PRB 85, 235149 (2012).
     **************************************************************************


     IMPORTANT: XC functional enforced from input :
     Exchange-correlation= BEEF-VDW
                           (   1   4  43  14   2   0   0)
     Any further DFT definition will be discarded
     Please, verify this is what you really want


     R & G space division:  proc/nbgrp/npool/nimage =      48
     Subspace diagonalization in iterative solution of the eigenvalue problem:
     one sub-group per band group will be used
     custom distributed-memory algorithm (size of sub-group:  2*  2 procs)


     Parallelization info
     --------------------
     sticks:   dense  smooth     PW     G-vecs:    dense   smooth      PW
     Min         151      59     16                29407     7165    1028
     Max         152      60     17                29420     7176    1042
     Sum        7267    2839    769              1411785   344073   49691

     Using Slab Decomposition



     bravais-lattice index     =            0
     lattice parameter (alat)  =      16.0349  a.u.
     unit-cell volume          =   10068.6169 (a.u.)^3
     number of atoms/cell      =           38
     number of atomic types    =            3
     number of electrons       =       365.00
     number of Kohn-Sham states=          220
     kinetic-energy cutoff     =      40.0000  Ry
     charge density cutoff     =     410.0000  Ry
     scf convergence threshold =      1.0E-08
     mixing beta               =       0.7000
     number of iterations used =            8  local-TF  mixing
     Exchange-correlation= BEEF-VDW
                           (   1   4  43  14   2   0   0)

     celldm(1)=  16.034858  celldm(2)=   0.000000  celldm(3)=   0.000000
     celldm(4)=   0.000000  celldm(5)=   0.000000  celldm(6)=   0.000000

     crystal axes: (cart. coord. in units of alat)
               a(1) = (   1.000000   0.000000   0.000000 )  
               a(2) = (   0.500000   0.866025   0.000000 )  
               a(3) = (   0.000000   0.000000   2.819966 )  

     reciprocal axes: (cart. coord. in units 2 pi/alat)
               b(1) = (  1.000000 -0.577350  0.000000 )  
               b(2) = (  0.000000  1.154701  0.000000 )  
               b(3) = (  0.000000  0.000000  0.354614 )  


     PseudoPot. # 1 for Pt read from file:
     /users/kbadger1/espresso/pseudo/pslibrary.1.0.0/pbe/PSEUDOPOTENTIALS/Pt.pbe-n-kjpaw_psl.1.0.0.UPF
     MD5 check sum: 2e24a0b5bf98a4ed1a57fa81bca8c143
     Pseudo is Projector augmented-wave + core cor, Zval = 10.0
     Generated using 'atomic' code by A. Dal Corso  v.7.0
     Shape of augmentation charge: PSQ
     Using radial grid of 1277 points,  6 beta functions with: 
                l(1) =   0
                l(2) =   0
                l(3) =   1
                l(4) =   1
                l(5) =   2
                l(6) =   2
     Q(r) pseudized with 0 coefficients 


     PseudoPot. # 2 for C  read from file:
     /users/kbadger1/espresso/pseudo/pslibrary.1.0.0/pbe/PSEUDOPOTENTIALS/C.pbe-n-kjpaw_psl.1.0.0.UPF
     MD5 check sum: 6408e75cdba28732cea38a4db8498ce4
     Pseudo is Projector augmented-wave + core cor, Zval =  4.0
     Generated using 'atomic' code by A. Dal Corso  v.7.0
     Shape of augmentation charge: PSQ
     Using radial grid of 1073 points,  4 beta functions with: 
                l(1) =   0
                l(2) =   0
                l(3) =   1
                l(4) =   1
     Q(r) pseudized with 0 coefficients 


     PseudoPot. # 3 for H  read from file:
     /users/kbadger1/espresso/pseudo/pslibrary.1.0.0/pbe/PSEUDOPOTENTIALS/H.pbe-kjpaw_psl.1.0.0.UPF
     MD5 check sum: fe4c6fa958fa6d3815bf5d2419cbf1df
     Pseudo is Projector augmented-wave, Zval =  1.0
     Generated using 'atomic' code by A. Dal Corso  v.7.0
     Shape of augmentation charge: PSQ
     Using radial grid of  929 points,  2 beta functions with: 
                l(1) =   0
                l(2) =   0
     Q(r) pseudized with 0 coefficients 


     atomic species   valence    mass     pseudopotential
        Pt            10.00   195.08400     Pt( 1.00)
        C              4.00    12.01100     C ( 1.00)
        H              1.00     1.00800     H ( 1.00)

     No symmetry found



   Cartesian axes

     site n.     atom                  positions (alat units)
         1           Pt  tau(   1) = (   0.0000000   0.0000000   1.0017346  )
         2           Pt  tau(   2) = (   0.3333333   0.0000000   1.0017346  )
         3           Pt  tau(   3) = (   0.6666667   0.0000000   1.0017346  )
         4           Pt  tau(   4) = (   0.1666667   0.2886751   1.0017346  )
         5           Pt  tau(   5) = (   0.5000000   0.2886751   1.0017346  )
         6           Pt  tau(   6) = (   0.8333333   0.2886751   1.0017346  )
         7           Pt  tau(   7) = (   0.3333333   0.5773503   1.0017346  )
         8           Pt  tau(   8) = (   0.6666667   0.5773503   1.0017346  )
         9           Pt  tau(   9) = (   1.0000000   0.5773503   1.0017346  )
        10           Pt  tau(  10) = (   0.1666667   0.0962250   1.2739001  )
        11           Pt  tau(  11) = (   0.5000000   0.0962250   1.2739001  )
        12           Pt  tau(  12) = (   0.8333333   0.0962250   1.2739001  )
        13           Pt  tau(  13) = (   0.3333333   0.3849002   1.2739001  )
        14           Pt  tau(  14) = (   0.6666667   0.3849002   1.2739001  )
        15           Pt  tau(  15) = (   1.0000000   0.3849002   1.2739001  )
        16           Pt  tau(  16) = (   0.5000000   0.6735753   1.2739001  )
        17           Pt  tau(  17) = (   0.8333333   0.6735753   1.2739001  )
        18           Pt  tau(  18) = (   1.1666667   0.6735753   1.2739001  )
        19           Pt  tau(  19) = (   0.0003721   0.1966766   1.5455537  )
        20           Pt  tau(  20) = (   0.3329557   0.1966752   1.5455542  )
        21           Pt  tau(  21) = (   0.6666699   0.1968212   1.5426645  )
        22           Pt  tau(  22) = (   0.1666627   0.4887827   1.5412843  )
        23           Pt  tau(  23) = (   0.4997384   0.4861613   1.5428445  )
        24           Pt  tau(  24) = (   0.8335969   0.4861606   1.5428444  )
        25           Pt  tau(  25) = (   0.3352475   0.7764487   1.5464937  )
        26           Pt  tau(  26) = (   0.6666661   0.7756820   1.5481231  )
        27           Pt  tau(  27) = (   0.9980835   0.7764445   1.5464920  )
        28           Pt  tau(  28) = (  -0.0043160   0.0094044   1.8360658  )
        29           Pt  tau(  29) = (   0.3376455   0.0094028   1.8360647  )
        30           Pt  tau(  30) = (   0.6666651   0.0110297   1.8196020  )
        31           Pt  tau(  31) = (   0.1666631   0.3153453   1.8181439  )
        32           Pt  tau(  32) = (   0.5034753   0.3007130   1.8162323  )
        33           Pt  tau(  33) = (   0.8298566   0.3007137   1.8162320  )
        34           Pt  tau(  34) = (   0.3352615   0.5905418   1.8193276  )
        35           Pt  tau(  35) = (   0.6666656   0.5839888   1.8170047  )
        36           Pt  tau(  36) = (   0.9980679   0.5905393   1.8193269  )
        37           C   tau(  37) = (   0.1666665   0.1227606   1.9499375  )
        38           H   tau(  38) = (   0.1666663   0.1726360   2.0685026  )

     number of k points=    13  Marzari-Vanderbilt smearing, width (Ry)=  0.0010
                       cart. coord. in units 2pi/alat
        k(    1) = (   0.0000000   0.0000000   0.0000000), wk =   0.0800000
        k(    2) = (   0.0000000   0.2309401   0.0000000), wk =   0.1600000
        k(    3) = (   0.0000000   0.4618802   0.0000000), wk =   0.1600000
        k(    4) = (   0.2000000  -0.1154701   0.0000000), wk =   0.1600000
        k(    5) = (   0.2000000   0.1154701   0.0000000), wk =   0.1600000
        k(    6) = (   0.2000000   0.3464102   0.0000000), wk =   0.1600000
        k(    7) = (   0.2000000  -0.5773503   0.0000000), wk =   0.1600000
        k(    8) = (   0.2000000  -0.3464102   0.0000000), wk =   0.1600000
        k(    9) = (   0.4000000  -0.2309401   0.0000000), wk =   0.1600000
        k(   10) = (   0.4000000  -0.0000000   0.0000000), wk =   0.1600000
        k(   11) = (   0.4000000   0.2309401   0.0000000), wk =   0.1600000
        k(   12) = (   0.4000000  -0.6928203   0.0000000), wk =   0.1600000
        k(   13) = (   0.4000000  -0.4618802   0.0000000), wk =   0.1600000

     Dense  grid:  1411785 G-vectors     FFT dimensions: ( 108, 108, 300)

     Smooth grid:   344073 G-vectors     FFT dimensions: (  72,  72, 192)

     Estimated max dynamical RAM per process >     206.88 MB

     Estimated total dynamical RAM >       9.70 GB

     Initial potential from superposition of free atoms

     starting charge     364.9938, renormalised to     365.0000

     negative rho (up, down):  3.271E-03 0.000E+00


     %%%%%%%%%%%%%%%%%%%%%%%%%%%%%%%%%%%%%%%%%%%%%%%%%%%%%%%%%%%%%%%%%%%%%%%%
     %                                                                      %
     % You are using vdW-DF, which was implemented by the Thonhauser group. %
     % Please cite the following two papers that made this development      %
     % possible and the two reviews that describe the various versions:     %
     %                                                                      %
     %   T. Thonhauser et al., PRL 115, 136402 (2015).                      %
     %   T. Thonhauser et al., PRB 76, 125112 (2007).                       %
     %   K. Berland et al., Rep. Prog. Phys. 78, 066501 (2015).             %
     %   D.C. Langreth et al., J. Phys.: Condens. Matter 21, 084203 (2009). %
     %                                                                      %
     % If you are calculating stress with vdW-DF, please also cite:         %
     %                                                                      %
     %   R. Sabatini et al., J. Phys.: Condens. Matter 24, 424209 (2012).   %
     %                                                                      %
     %%%%%%%%%%%%%%%%%%%%%%%%%%%%%%%%%%%%%%%%%%%%%%%%%%%%%%%%%%%%%%%%%%%%%%%%

     %%%%%%%%%%%%%%%%%%%%%%%%%%%%%%%%%%%%%%%%%%%%%%%%%%%%%%%%%%%%%%%%%%%%%%%%
     %                                                                      %
     %  vdW-DF NEWS:                                                        %
     %                                                                      %
     %  * vdW-DF3 is now available. DOI: 10.1021/acs.jctc.0c00471           %
     %    use with input_dft = 'vdW-DF3-opt1' or 'vdW-DF3-opt2'             %
     %                                                                      %
     %  * Unscreened and range-separated hybrid vdW-DF-cx functionals       %
     %    DOI: 10.1063/1.4986522 and 10.1088/1361-648X/ac2ad2               %
     %    use with input_dft = 'vdW-DF-cx0'    and 'vdW-DF-ahcx'            %
     %  * Unscreened and range-separated hybrid vdW-DF2-b86r functionals    %
     %    DOI: 10.1063/1.4986522 and DOI: 10.1103/PhysRevX.12.041003        %
     %    use with input_dft = 'vdW-DF2-br0' and 'vdW-DF2-ahbr'             %
     %                                                                      %
     %%%%%%%%%%%%%%%%%%%%%%%%%%%%%%%%%%%%%%%%%%%%%%%%%%%%%%%%%%%%%%%%%%%%%%%%


     Starting wfcs are  329 randomized atomic wfcs
     Checking if some PAW data can be deallocated... 

     total cpu time spent up to now is       11.1 secs

     per-process dynamical memory:   211.7 Mb

     Self-consistent Calculation

     iteration #  1     ecut=    40.00 Ry     beta= 0.70
     Davidson diagonalization with overlap
     ethr =  1.00E-02,  avg # of iterations =  2.0

     Threshold (ethr) on eigenvalues was too large:
     Diagonalizing with lowered threshold

     Davidson diagonalization with overlap
     ethr =  5.22E-04,  avg # of iterations =  4.7

     negative rho (up, down):  1.035E-02 0.000E+00

     total cpu time spent up to now is       45.0 secs

     total energy              =  -27774.14261145 Ry
     estimated scf accuracy    <       2.17474495 Ry

     iteration #  2     ecut=    40.00 Ry     beta= 0.70
     Davidson diagonalization with overlap
     ethr =  5.96E-04,  avg # of iterations =  2.3

     negative rho (up, down):  7.790E-03 0.000E+00

     total cpu time spent up to now is       60.1 secs

     total energy              =  -27774.34257776 Ry
     estimated scf accuracy    <       0.74417940 Ry

     iteration #  3     ecut=    40.00 Ry     beta= 0.70
     Davidson diagonalization with overlap
     ethr =  2.04E-04,  avg # of iterations =  3.1

     negative rho (up, down):  4.437E-03 0.000E+00

     total cpu time spent up to now is       73.5 secs

     total energy              =  -27774.40885736 Ry
     estimated scf accuracy    <       0.19060090 Ry

     iteration #  4     ecut=    40.00 Ry     beta= 0.70
     Davidson diagonalization with overlap
     ethr =  5.22E-05,  avg # of iterations =  9.8

     negative rho (up, down):  1.673E-03 0.000E+00

     total cpu time spent up to now is      103.8 secs

     total energy              =  -27774.45376040 Ry
     estimated scf accuracy    <       0.07049864 Ry

     iteration #  5     ecut=    40.00 Ry     beta= 0.70
     Davidson diagonalization with overlap
     c_bands:  1 eigenvalues not converged
     ethr =  1.93E-05,  avg # of iterations =  6.4

     negative rho (up, down):  8.201E-04 0.000E+00

     total cpu time spent up to now is      122.7 secs

     total energy              =  -27774.46036956 Ry
     estimated scf accuracy    <       0.03314987 Ry

     iteration #  6     ecut=    40.00 Ry     beta= 0.70
     Davidson diagonalization with overlap
     ethr =  9.08E-06,  avg # of iterations =  4.1

     negative rho (up, down):  2.896E-04 0.000E+00

     total cpu time spent up to now is      138.2 secs

     total energy              =  -27774.46238315 Ry
     estimated scf accuracy    <       0.00490423 Ry

     iteration #  7     ecut=    40.00 Ry     beta= 0.70
     Davidson diagonalization with overlap
     c_bands:  1 eigenvalues not converged
     c_bands:  1 eigenvalues not converged
     c_bands:  1 eigenvalues not converged
     ethr =  1.34E-06,  avg # of iterations = 14.6

     negative rho (up, down):  1.647E-04 0.000E+00

     total cpu time spent up to now is      174.3 secs

     total energy              =  -27774.46413524 Ry
     estimated scf accuracy    <       0.00225567 Ry

     iteration #  8     ecut=    40.00 Ry     beta= 0.70
     Davidson diagonalization with overlap
     ethr =  6.18E-07,  avg # of iterations =  3.3

     negative rho (up, down):  1.299E-04 0.000E+00

     total cpu time spent up to now is      189.7 secs

     total energy              =  -27774.46432891 Ry
     estimated scf accuracy    <       0.00060793 Ry

     iteration #  9     ecut=    40.00 Ry     beta= 0.70
     Davidson diagonalization with overlap
     ethr =  1.67E-07,  avg # of iterations =  2.8

     negative rho (up, down):  1.218E-04 0.000E+00

     total cpu time spent up to now is      206.9 secs

     total energy              =  -27774.46440058 Ry
     estimated scf accuracy    <       0.00046148 Ry

     iteration # 10     ecut=    40.00 Ry     beta= 0.70
     Davidson diagonalization with overlap
     ethr =  1.26E-07,  avg # of iterations =  2.9

     negative rho (up, down):  1.450E-04 0.000E+00

     total cpu time spent up to now is      219.8 secs

     total energy              =  -27774.46443994 Ry
     estimated scf accuracy    <       0.00030316 Ry

     iteration # 11     ecut=    40.00 Ry     beta= 0.70
     Davidson diagonalization with overlap
     ethr =  8.31E-08,  avg # of iterations =  2.1

     negative rho (up, down):  3.149E-04 0.000E+00

     total cpu time spent up to now is      234.6 secs

     total energy              =  -27774.46451306 Ry
     estimated scf accuracy    <       0.00021102 Ry

     iteration # 12     ecut=    40.00 Ry     beta= 0.70
     Davidson diagonalization with overlap
     ethr =  5.78E-08,  avg # of iterations =  5.3

     negative rho (up, down):  5.911E-04 0.000E+00

     total cpu time spent up to now is      250.2 secs

     total energy              =  -27774.46455932 Ry
     estimated scf accuracy    <       0.00011703 Ry

     iteration # 13     ecut=    40.00 Ry     beta= 0.70
     Davidson diagonalization with overlap
     ethr =  3.21E-08,  avg # of iterations =  2.0

     negative rho (up, down):  1.314E-03 0.000E+00

     total cpu time spent up to now is      265.1 secs

     total energy              =  -27774.46461067 Ry
     estimated scf accuracy    <       0.00004072 Ry

     iteration # 14     ecut=    40.00 Ry     beta= 0.70
     Davidson diagonalization with overlap
     c_bands:  1 eigenvalues not converged
     c_bands:  1 eigenvalues not converged
     ethr =  1.12E-08,  avg # of iterations =  8.7

     negative rho (up, down):  1.421E-03 0.000E+00

     total cpu time spent up to now is      285.0 secs

     total energy              =  -27774.46462710 Ry
     estimated scf accuracy    <       0.00002903 Ry

     iteration # 15     ecut=    40.00 Ry     beta= 0.70
     Davidson diagonalization with overlap
     ethr =  7.95E-09,  avg # of iterations =  2.8

     negative rho (up, down):  2.549E-03 0.000E+00

     total cpu time spent up to now is      301.2 secs

     total energy              =  -27774.46463066 Ry
     estimated scf accuracy    <       0.00001611 Ry

     iteration # 16     ecut=    40.00 Ry     beta= 0.70
     Davidson diagonalization with overlap
     ethr =  4.41E-09,  avg # of iterations =  2.0

     negative rho (up, down):  2.881E-03 0.000E+00

     total cpu time spent up to now is      315.2 secs

     total energy              =  -27774.46463128 Ry
     estimated scf accuracy    <       0.00000671 Ry

     iteration # 17     ecut=    40.00 Ry     beta= 0.70
     Davidson diagonalization with overlap
     ethr =  1.84E-09,  avg # of iterations =  3.5

     negative rho (up, down):  3.054E-03 0.000E+00

     total cpu time spent up to now is      333.7 secs

     total energy              =  -27774.46463158 Ry
     estimated scf accuracy    <       0.00000194 Ry

     iteration # 18     ecut=    40.00 Ry     beta= 0.70
     Davidson diagonalization with overlap
     ethr =  5.31E-10,  avg # of iterations =  4.5

     negative rho (up, down):  3.155E-03 0.000E+00

     total cpu time spent up to now is      357.3 secs

     total energy              =  -27774.46463177 Ry
     estimated scf accuracy    <       0.00000061 Ry

     iteration # 19     ecut=    40.00 Ry     beta= 0.70
     Davidson diagonalization with overlap
     ethr =  1.67E-10,  avg # of iterations =  2.9

     negative rho (up, down):  3.231E-03 0.000E+00

     total cpu time spent up to now is      375.5 secs

     total energy              =  -27774.46463154 Ry
     estimated scf accuracy    <       0.00000041 Ry

     iteration # 20     ecut=    40.00 Ry     beta= 0.70
     Davidson diagonalization with overlap
     ethr =  1.13E-10,  avg # of iterations =  1.3

     negative rho (up, down):  3.203E-03 0.000E+00

     total cpu time spent up to now is      390.0 secs

     total energy              =  -27774.46463171 Ry
     estimated scf accuracy    <       0.00000010 Ry

     iteration # 21     ecut=    40.00 Ry     beta= 0.70
     Davidson diagonalization with overlap
     ethr =  2.81E-11,  avg # of iterations =  3.5

     negative rho (up, down):  3.162E-03 0.000E+00

     total cpu time spent up to now is      406.2 secs

     total energy              =  -27774.46463196 Ry
     estimated scf accuracy    <       0.00000006 Ry

     iteration # 22     ecut=    40.00 Ry     beta= 0.70
     Davidson diagonalization with overlap
     ethr =  1.58E-11,  avg # of iterations =  2.0

     negative rho (up, down):  3.165E-03 0.000E+00

     total cpu time spent up to now is      421.6 secs

     total energy              =  -27774.46463195 Ry
     estimated scf accuracy    <       0.00000003 Ry

     iteration # 23     ecut=    40.00 Ry     beta= 0.70
     Davidson diagonalization with overlap
     ethr =  9.19E-12,  avg # of iterations =  2.0

     negative rho (up, down):  3.138E-03 0.000E+00

     total cpu time spent up to now is      436.0 secs

     End of self-consistent calculation

          k = 0.0000 0.0000 0.0000 ( 42913 PWs)   bands (ev):

    -9.9059  -6.0773  -4.9086  -4.4768  -3.7751  -3.7635  -3.7196  -3.6856
    -3.6711  -3.6550  -3.6452  -3.5033  -3.3768  -3.3292  -3.1386  -3.1311
    -3.1239  -3.0541  -2.9987  -2.9595  -2.6921  -2.6827  -2.6650  -2.5537
    -2.4965  -2.4954  -2.4553  -2.4528  -2.4382  -2.3525  -2.3504  -2.3296
    -2.2659  -2.2639  -2.2342  -2.1931  -2.1922  -2.1717  -2.1517  -2.1268
    -2.1083  -1.8056  -1.7553  -1.6772  -1.6208  -1.5999  -1.5880  -1.5517
    -1.5447  -1.5307  -1.5228  -1.4649  -1.4349  -1.3568  -1.3557  -1.3088
    -1.2397  -1.2260  -0.8863  -0.8667  -0.8143  -0.8006  -0.7987  -0.7561
    -0.7358  -0.6592  -0.6398  -0.6056  -0.5948  -0.5909  -0.5835  -0.5707
    -0.5573  -0.5427  -0.5419  -0.5146  -0.4946  -0.4906  -0.4890  -0.4548
    -0.4391  -0.4116  -0.4002  -0.3913  -0.3718  -0.3620  -0.1932  -0.1715
    -0.1659  -0.1425  -0.1244  -0.1226  -0.1007  -0.0975  -0.0731  -0.0709
    -0.0539   0.0363   0.0369   0.0781   0.0867   0.1167   0.1643   0.1714
     0.1902   0.2479   0.2490   0.2631   0.3018   0.3571   0.3735   0.6458
     0.6547   0.6705   0.7328   0.7415   0.7597   0.7744   0.7920   0.8027
     0.8808   0.8952   0.9429   0.9490   0.9532   0.9765   0.9907   1.0423
     1.0497   1.1182   1.1729   1.2091   1.2180   1.2823   1.2888   1.2990
     1.4457   1.4715   1.4868   1.4917   1.5334   1.5564   1.5686   1.5813
     1.6326   1.6426   1.6873   1.6971   1.7315   1.7345   1.7672   1.8378
     1.8646   1.9035   1.9056   1.9223   1.9362   1.9399   1.9434   1.9485
     1.9570   1.9757   1.9771   2.0270   2.0520   2.0542   2.0578   2.0785
     2.1284   2.1395   2.1428   2.1480   2.1619   2.1921   2.1985   2.2362
     2.2843   2.2867   2.2956   2.3007   2.3086   2.3343   2.3802   2.3811
     2.4176   2.4284   2.4545   2.4639   2.5129   2.5686   2.6233   2.6906
     2.7054   2.7143   2.7402   2.7443   2.7614   3.2243   3.2926   3.4281
     3.6015   3.6092   3.6283   3.6461   4.7241   4.7533   5.6507   5.9234
     5.9247   5.9464   6.3707   6.4466   7.1118   7.5269   7.5292   7.5678
     7.5968   7.6922   7.7163   7.7223

          k = 0.0000 0.2309 0.0000 ( 42996 PWs)   bands (ev):

    -9.9024  -5.9341  -4.8114  -4.4345  -4.1658  -3.8316  -3.8141  -3.5825
    -3.5415  -3.4946  -3.4544  -3.4366  -3.2946  -3.2793  -3.2211  -3.0916
    -3.0635  -3.0344  -2.9112  -2.8943  -2.7415  -2.6424  -2.6033  -2.6017
    -2.5347  -2.5226  -2.4972  -2.4332  -2.4250  -2.3665  -2.3615  -2.3488
    -2.3175  -2.3009  -2.2327  -2.2311  -2.1187  -2.1100  -2.0376  -2.0124
    -1.9824  -1.8262  -1.7950  -1.7426  -1.7071  -1.6994  -1.6733  -1.6434
    -1.5801  -1.5655  -1.4814  -1.4404  -1.4112  -1.3432  -1.3039  -1.2824
    -1.2482  -1.2147  -1.0647  -0.9794  -0.9672  -0.9471  -0.9204  -0.9069
    -0.8524  -0.7923  -0.7763  -0.7760  -0.7412  -0.7002  -0.6574  -0.6452
    -0.6179  -0.5979  -0.5728  -0.4940  -0.4921  -0.4658  -0.4157  -0.4043
    -0.3987  -0.3687  -0.3591  -0.3562  -0.3334  -0.2390  -0.2357  -0.1982
    -0.1768  -0.1630  -0.1511  -0.1448  -0.1205  -0.0747  -0.0582  -0.0579
    -0.0243  -0.0132   0.0203   0.0330   0.0334   0.0916   0.1085   0.1343
     0.1552   0.2086   0.2584   0.2632   0.2732   0.3012   0.3024   0.3300
     0.3301   0.4891   0.4895   0.5188   0.6442   0.7099   0.7337   0.7628
     0.7843   0.7938   0.8031   0.8429   0.9658   1.0200   1.0443   1.0595
     1.1036   1.1053   1.1279   1.1414   1.1940   1.1977   1.2241   1.2282
     1.3335   1.3700   1.3728   1.3976   1.4430   1.4907   1.5104   1.5665
     1.5695   1.6095   1.6130   1.6685   1.6956   1.7291   1.7419   1.7625
     1.7625   1.8249   1.8296   1.8961   1.9000   1.9345   1.9443   1.9653
     1.9830   2.0450   2.0619   2.1140   2.1247   2.1769   2.2335   2.2408
     2.2491   2.2747   2.2973   2.3066   2.3142   2.3651   2.3800   2.3806
     2.4154   2.4155   2.4820   2.4824   2.5283   2.5746   2.5986   2.6290
     2.6525   2.6655   2.6761   2.7042   2.7103   2.7319   2.7903   2.8163
     2.8678   2.9212   2.9819   3.0161   3.0344   3.1285   3.3029   3.4127
     3.7152   3.9988   4.2453   4.3298   4.6546   4.8447   5.4348   5.6955
     5.9082   6.2373   6.3953   6.5462   6.6884   6.7552   7.3004   7.3959
     7.4937   7.7030   7.8124   7.8240

          k = 0.0000 0.4619 0.0000 ( 43046 PWs)   bands (ev):

    -9.8967  -5.5228  -4.9168  -4.6028  -4.1825  -3.8601  -3.8574  -3.6971
    -3.4326  -3.3105  -3.2538  -3.2260  -3.1754  -3.1108  -3.0667  -3.0036
    -2.9063  -2.8747  -2.8547  -2.7653  -2.7576  -2.7403  -2.6985  -2.6785
    -2.6286  -2.6108  -2.6023  -2.5695  -2.5095  -2.4891  -2.3027  -2.2912
    -2.2679  -2.2429  -2.1642  -2.1374  -2.0752  -2.0633  -2.0121  -2.0047
    -1.9743  -1.8676  -1.8661  -1.7946  -1.7254  -1.6805  -1.6464  -1.6333
    -1.5613  -1.5595  -1.5353  -1.5055  -1.4934  -1.4717  -1.3663  -1.3362
    -1.3169  -1.2503  -1.1964  -1.1717  -1.1504  -1.1228  -1.0785  -1.0765
    -0.9616  -0.9299  -0.8791  -0.8562  -0.8295  -0.7872  -0.7607  -0.7504
    -0.6893  -0.6149  -0.5892  -0.5730  -0.5465  -0.5400  -0.5073  -0.4707
    -0.4595  -0.4260  -0.4058  -0.4016  -0.3875  -0.3590  -0.3532  -0.3285
    -0.3078  -0.2392  -0.2367  -0.2046  -0.1785  -0.1590  -0.1289  -0.1239
    -0.0575  -0.0069   0.0194   0.0270   0.0688   0.0915   0.0916   0.1284
     0.1677   0.2054   0.2279   0.2734   0.2752   0.3256   0.3728   0.4322
     0.4820   0.4876   0.5609   0.5775   0.6015   0.6180   0.6468   0.6798
     0.6937   0.7368   0.7485   0.7724   0.7968   0.8068   0.8308   0.8747
     0.8808   0.9348   0.9901   0.9976   1.0526   1.0849   1.1513   1.1562
     1.2455   1.2927   1.3085   1.3605   1.3819   1.4101   1.4929   1.4953
     1.5590   1.5784   1.6077   1.6173   1.6415   1.6717   1.6866   1.7049
     1.7259   1.7995   1.8093   1.8503   1.8818   1.9054   1.9511   1.9640
     2.0298   2.0696   2.1350   2.1397   2.1809   2.2415   2.2832   2.2870
     2.3274   2.3314   2.3607   2.3799   2.4403   2.4566   2.4674   2.5055
     2.5772   2.6069   2.6130   2.6250   2.6358   2.6660   2.6711   2.6902
     2.8172   2.8346   2.8742   2.8814   2.8852   2.9738   3.1138   3.2654
     3.3013   3.3919   3.6085   3.8773   3.9166   4.0679   4.1466   4.2020
     4.5572   4.6372   4.7791   4.8818   5.1690   5.2084   5.3132   5.4073
     5.4400   5.5970   5.6868   6.0834   6.2020   6.3549   6.5958   7.0145
     7.0639   7.4966   7.5702   7.7106

          k = 0.2000-0.1155 0.0000 ( 42996 PWs)   bands (ev):

    -9.9027  -5.9337  -4.8020  -4.4198  -4.2014  -3.8336  -3.7912  -3.5852
    -3.5516  -3.4949  -3.4652  -3.4227  -3.3330  -3.2683  -3.2203  -3.0796
    -3.0611  -3.0355  -2.9455  -2.8822  -2.7258  -2.6464  -2.6148  -2.5959
    -2.5288  -2.5258  -2.4954  -2.4492  -2.4216  -2.3793  -2.3569  -2.3354
    -2.3117  -2.3001  -2.2416  -2.2283  -2.1292  -2.1000  -2.0313  -1.9963
    -1.9779  -1.8309  -1.7705  -1.7418  -1.7110  -1.6912  -1.6696  -1.6437
    -1.5696  -1.5458  -1.5144  -1.4232  -1.4181  -1.3512  -1.3189  -1.2811
    -1.2447  -1.2022  -1.0362  -0.9704  -0.9568  -0.9330  -0.9051  -0.8665
    -0.8374  -0.8257  -0.8112  -0.7876  -0.7399  -0.7001  -0.6665  -0.6302
    -0.6256  -0.5998  -0.5642  -0.5344  -0.5174  -0.4912  -0.4117  -0.3981
    -0.3859  -0.3564  -0.3469  -0.3346  -0.2921  -0.2517  -0.2402  -0.2085
    -0.1858  -0.1645  -0.1574  -0.1460  -0.1168  -0.1004  -0.0517  -0.0371
    -0.0186  -0.0136   0.0021   0.0343   0.0554   0.0844   0.1089   0.1397
     0.1476   0.2077   0.2358   0.2462   0.2711   0.2970   0.3132   0.3285
     0.3364   0.4291   0.5125   0.5753   0.6581   0.6996   0.7265   0.7450
     0.7633   0.7822   0.8063   0.8627   0.9432   1.0181   1.0409   1.0522
     1.0927   1.1124   1.1258   1.1312   1.1840   1.2005   1.2148   1.2342
     1.3437   1.3631   1.3730   1.3899   1.4065   1.4861   1.5147   1.5557
     1.5649   1.5883   1.6249   1.6685   1.6901   1.7223   1.7394   1.7676
     1.7784   1.8257   1.8397   1.8969   1.9066   1.9374   1.9509   1.9695
     1.9920   2.0199   2.0856   2.1045   2.1192   2.1680   2.2056   2.2425
     2.2445   2.2693   2.2942   2.3035   2.3162   2.3682   2.3819   2.3869
     2.4102   2.4230   2.4608   2.4672   2.5392   2.5605   2.6074   2.6309
     2.6622   2.6783   2.6875   2.7186   2.7368   2.7560   2.7965   2.8205
     2.8655   2.9208   2.9933   3.0186   3.0523   3.1094   3.2996   3.4522
     3.7389   4.0098   4.2420   4.3063   4.6459   4.8316   5.4055   5.7349
     5.9485   6.2292   6.3844   6.5428   6.6993   6.7353   7.3188   7.3616
     7.4696   7.7049   7.7877   7.8327

          k = 0.2000 0.1155 0.0000 ( 42996 PWs)   bands (ev):

    -9.9027  -5.9337  -4.8020  -4.4198  -4.2014  -3.8336  -3.7912  -3.5852
    -3.5516  -3.4949  -3.4652  -3.4228  -3.3330  -3.2683  -3.2202  -3.0796
    -3.0611  -3.0355  -2.9455  -2.8823  -2.7258  -2.6463  -2.6148  -2.5959
    -2.5289  -2.5258  -2.4954  -2.4492  -2.4216  -2.3793  -2.3569  -2.3354
    -2.3117  -2.3001  -2.2416  -2.2283  -2.1292  -2.1000  -2.0313  -1.9963
    -1.9779  -1.8309  -1.7705  -1.7418  -1.7110  -1.6912  -1.6696  -1.6437
    -1.5696  -1.5458  -1.5144  -1.4232  -1.4181  -1.3511  -1.3190  -1.2811
    -1.2447  -1.2022  -1.0362  -0.9704  -0.9568  -0.9330  -0.9051  -0.8665
    -0.8374  -0.8257  -0.8112  -0.7876  -0.7399  -0.7001  -0.6665  -0.6302
    -0.6256  -0.5998  -0.5642  -0.5344  -0.5174  -0.4912  -0.4117  -0.3981
    -0.3859  -0.3564  -0.3469  -0.3346  -0.2921  -0.2517  -0.2402  -0.2085
    -0.1858  -0.1645  -0.1574  -0.1460  -0.1168  -0.1004  -0.0517  -0.0371
    -0.0186  -0.0136   0.0021   0.0343   0.0554   0.0844   0.1089   0.1397
     0.1476   0.2077   0.2358   0.2462   0.2711   0.2970   0.3132   0.3285
     0.3364   0.4290   0.5126   0.5753   0.6581   0.6996   0.7265   0.7450
     0.7633   0.7823   0.8063   0.8627   0.9432   1.0181   1.0409   1.0522
     1.0927   1.1124   1.1258   1.1312   1.1841   1.2005   1.2148   1.2342
     1.3437   1.3631   1.3730   1.3899   1.4065   1.4861   1.5147   1.5557
     1.5649   1.5883   1.6249   1.6685   1.6902   1.7223   1.7394   1.7676
     1.7784   1.8257   1.8396   1.8969   1.9066   1.9374   1.9509   1.9695
     1.9920   2.0199   2.0856   2.1045   2.1192   2.1680   2.2056   2.2425
     2.2445   2.2693   2.2942   2.3035   2.3162   2.3682   2.3819   2.3869
     2.4102   2.4230   2.4608   2.4672   2.5392   2.5605   2.6074   2.6309
     2.6622   2.6783   2.6875   2.7186   2.7368   2.7560   2.7965   2.8205
     2.8655   2.9208   2.9933   3.0186   3.0523   3.1094   3.2996   3.4522
     3.7389   4.0098   4.2420   4.3063   4.6459   4.8315   5.4055   5.7349
     5.9485   6.2291   6.3844   6.5428   6.6993   6.7353   7.3188   7.3616
     7.4696   7.7050   7.7876   7.8324

          k = 0.2000 0.3464 0.0000 ( 43046 PWs)   bands (ev):

    -9.8981  -5.6554  -4.6755  -4.4628  -4.4437  -4.2175  -3.5599  -3.4788
    -3.3636  -3.3501  -3.3318  -3.2992  -3.2729  -3.1992  -3.1815  -3.1130
    -3.0253  -2.9173  -2.7770  -2.7676  -2.7580  -2.7251  -2.6675  -2.6328
    -2.5643  -2.5580  -2.5169  -2.4611  -2.4390  -2.4293  -2.3890  -2.3513
    -2.3197  -2.2874  -2.2650  -2.2212  -2.1488  -2.1027  -2.0304  -1.9138
    -1.8846  -1.8189  -1.7901  -1.7581  -1.7349  -1.6988  -1.6814  -1.6298
    -1.5737  -1.5502  -1.5192  -1.4755  -1.4207  -1.3779  -1.3487  -1.3008
    -1.2801  -1.2419  -1.2099  -1.1819  -1.0767  -1.0711  -1.0197  -0.9959
    -0.9756  -0.9073  -0.8945  -0.8776  -0.8503  -0.8111  -0.7170  -0.6992
    -0.6624  -0.6492  -0.6283  -0.6059  -0.5565  -0.5348  -0.4810  -0.4552
    -0.4065  -0.3979  -0.3858  -0.3469  -0.3307  -0.3056  -0.2936  -0.2694
    -0.2607  -0.2339  -0.2027  -0.1633  -0.1263  -0.1085  -0.0800  -0.0672
    -0.0546  -0.0347  -0.0055   0.0209   0.0420   0.0539   0.0658   0.0808
     0.0968   0.1047   0.1306   0.2040   0.2240   0.2760   0.3376   0.3607
     0.3932   0.4044   0.4937   0.5409   0.5717   0.6189   0.6305   0.7026
     0.7471   0.7612   0.7813   0.8161   0.8330   0.8710   0.9003   0.9160
     0.9596   0.9760   1.0414   1.1167   1.1230   1.1512   1.1814   1.2136
     1.2764   1.2968   1.3333   1.3600   1.3683   1.4414   1.4549   1.4821
     1.5063   1.5335   1.5878   1.6123   1.6482   1.6901   1.7070   1.7192
     1.7272   1.7475   1.7652   1.7788   1.8135   1.8793   1.9216   2.0051
     2.0364   2.0881   2.1549   2.2474   2.2590   2.2783   2.2990   2.3197
     2.3730   2.4030   2.4224   2.4465   2.4685   2.4741   2.4905   2.5089
     2.5290   2.5471   2.5810   2.6138   2.6443   2.6502   2.6924   2.7068
     2.7596   2.8192   2.8714   2.9178   2.9291   2.9538   2.9980   3.0280
     3.0916   3.1503   3.3355   3.5842   3.6976   3.9016   3.9520   4.1797
     4.2196   4.3272   4.7183   4.8429   5.0401   5.1110   5.1926   5.3631
     5.4663   6.0986   6.2106   6.4008   6.4895   6.6894   6.9275   7.0962
     7.1624   7.1808   7.2870   7.5581

          k = 0.2000-0.5774 0.0000 ( 43014 PWs)   bands (ev):

    -9.8953  -5.1545  -5.1198  -4.5714  -4.5059  -3.9832  -3.7938  -3.4765
    -3.3240  -3.2957  -3.2082  -3.1416  -3.0755  -3.0582  -3.0215  -2.9379
    -2.9098  -2.8550  -2.8444  -2.8184  -2.8054  -2.7613  -2.7244  -2.6671
    -2.6311  -2.6098  -2.5841  -2.5766  -2.5175  -2.4890  -2.3791  -2.3332
    -2.3156  -2.2602  -2.2192  -2.1871  -2.1832  -2.0904  -2.0157  -1.9898
    -1.9286  -1.8919  -1.7933  -1.7755  -1.7403  -1.6790  -1.6627  -1.5848
    -1.5384  -1.4776  -1.4425  -1.4084  -1.3937  -1.3688  -1.3533  -1.3055
    -1.2906  -1.2281  -1.2259  -1.2016  -1.1770  -1.1391  -1.1215  -1.1122
    -1.0625  -1.0251  -0.9965  -0.9259  -0.9013  -0.8813  -0.7821  -0.7652
    -0.7196  -0.7146  -0.6879  -0.6782  -0.6306  -0.6209  -0.5575  -0.5335
    -0.5286  -0.4907  -0.4623  -0.4132  -0.3791  -0.3343  -0.3133  -0.2938
    -0.2835  -0.1926  -0.1857  -0.1698  -0.1404  -0.1050  -0.0939  -0.0521
    -0.0328  -0.0167   0.0075   0.0228   0.0304   0.0395   0.0892   0.0921
     0.1169   0.1328   0.1343   0.1643   0.1880   0.1935   0.2273   0.3895
     0.4185   0.4681   0.4787   0.5400   0.5943   0.6126   0.6457   0.6716
     0.6825   0.7185   0.7307   0.7751   0.7990   0.8104   0.8430   0.8828
     0.9503   0.9763   0.9991   1.0098   1.0655   1.1037   1.1775   1.1911
     1.2562   1.2676   1.3179   1.3422   1.3579   1.3920   1.4124   1.4250
     1.4556   1.4849   1.5391   1.5600   1.5807   1.5987   1.6309   1.6747
     1.7031   1.7238   1.7765   1.8402   1.9174   1.9448   2.0046   2.0630
     2.1053   2.1133   2.1695   2.1854   2.2461   2.2534   2.3083   2.3599
     2.3945   2.4189   2.4470   2.4736   2.4867   2.5235   2.5320   2.5907
     2.6103   2.6190   2.6353   2.6804   2.6987   2.7041   2.7635   2.7890
     2.8310   2.8776   2.8911   2.8973   2.9543   2.9760   3.0343   3.1391
     3.5476   3.8626   3.9390   4.0705   4.1495   4.2991   4.3694   4.3962
     4.5719   4.7860   4.8881   5.0849   5.1758   5.2048   5.5433   5.5641
     5.7227   5.8125   5.8900   5.9638   6.1070   6.2407   6.4165   6.4951
     6.7631   7.0490   7.1615   7.2457

          k = 0.2000-0.3464 0.0000 ( 43046 PWs)   bands (ev):

    -9.8981  -5.6554  -4.6755  -4.4628  -4.4437  -4.2175  -3.5599  -3.4788
    -3.3636  -3.3501  -3.3318  -3.2992  -3.2728  -3.1992  -3.1815  -3.1130
    -3.0253  -2.9172  -2.7770  -2.7676  -2.7580  -2.7251  -2.6675  -2.6328
    -2.5643  -2.5580  -2.5169  -2.4611  -2.4390  -2.4293  -2.3890  -2.3513
    -2.3197  -2.2874  -2.2650  -2.2212  -2.1488  -2.1027  -2.0304  -1.9138
    -1.8846  -1.8189  -1.7901  -1.7581  -1.7349  -1.6988  -1.6814  -1.6298
    -1.5737  -1.5502  -1.5192  -1.4755  -1.4207  -1.3779  -1.3487  -1.3008
    -1.2800  -1.2419  -1.2099  -1.1819  -1.0767  -1.0711  -1.0197  -0.9959
    -0.9756  -0.9073  -0.8945  -0.8776  -0.8503  -0.8110  -0.7171  -0.6992
    -0.6624  -0.6492  -0.6283  -0.6059  -0.5565  -0.5349  -0.4810  -0.4552
    -0.4065  -0.3979  -0.3858  -0.3469  -0.3307  -0.3056  -0.2936  -0.2694
    -0.2607  -0.2339  -0.2028  -0.1633  -0.1263  -0.1085  -0.0800  -0.0672
    -0.0546  -0.0347  -0.0055   0.0209   0.0420   0.0539   0.0658   0.0808
     0.0968   0.1047   0.1306   0.2040   0.2240   0.2760   0.3376   0.3607
     0.3932   0.4044   0.4937   0.5409   0.5717   0.6189   0.6305   0.7026
     0.7471   0.7612   0.7813   0.8161   0.8330   0.8710   0.9003   0.9160
     0.9596   0.9760   1.0414   1.1167   1.1230   1.1512   1.1815   1.2136
     1.2764   1.2968   1.3333   1.3600   1.3684   1.4414   1.4549   1.4821
     1.5063   1.5335   1.5878   1.6123   1.6482   1.6901   1.7070   1.7192
     1.7272   1.7475   1.7652   1.7788   1.8135   1.8793   1.9217   2.0051
     2.0364   2.0881   2.1549   2.2474   2.2590   2.2783   2.2990   2.3197
     2.3730   2.4030   2.4224   2.4465   2.4685   2.4741   2.4905   2.5089
     2.5290   2.5471   2.5810   2.6138   2.6443   2.6502   2.6924   2.7068
     2.7596   2.8192   2.8714   2.9179   2.9291   2.9538   2.9980   3.0280
     3.0916   3.1502   3.3355   3.5842   3.6976   3.9016   3.9520   4.1797
     4.2196   4.3272   4.7183   4.8429   5.0401   5.1110   5.1926   5.3631
     5.4663   6.0987   6.2106   6.4008   6.4895   6.6894   6.9275   7.0962
     7.1624   7.1808   7.2870   7.5581

          k = 0.4000-0.2309 0.0000 ( 43046 PWs)   bands (ev):

    -9.8976  -5.5206  -4.9011  -4.5898  -4.2034  -3.8595  -3.8436  -3.7149
    -3.4686  -3.3524  -3.2801  -3.2261  -3.1809  -3.0905  -3.0578  -3.0021
    -2.9002  -2.8864  -2.8560  -2.8031  -2.7598  -2.7384  -2.6879  -2.6750
    -2.6462  -2.6264  -2.5885  -2.5714  -2.5096  -2.4820  -2.2892  -2.2784
    -2.2544  -2.2428  -2.1660  -2.1306  -2.0461  -2.0246  -2.0082  -1.9871
    -1.9290  -1.8646  -1.8209  -1.7658  -1.7308  -1.6935  -1.6560  -1.6247
    -1.5958  -1.5649  -1.5303  -1.5134  -1.4881  -1.4643  -1.3573  -1.3288
    -1.3115  -1.2577  -1.2134  -1.1551  -1.1017  -1.0957  -1.0743  -1.0618
    -0.9424  -0.9154  -0.9106  -0.8724  -0.8420  -0.7925  -0.7698  -0.7515
    -0.6866  -0.6473  -0.6204  -0.5851  -0.5481  -0.5411  -0.4888  -0.4716
    -0.4461  -0.4234  -0.4034  -0.3807  -0.3708  -0.3546  -0.3479  -0.3252
    -0.3031  -0.2651  -0.2090  -0.2038  -0.1868  -0.1511  -0.1265  -0.0907
    -0.0663  -0.0384  -0.0065   0.0237   0.0492   0.0649   0.0801   0.1206
     0.1487   0.1844   0.2308   0.2728   0.2848   0.3110   0.3478   0.3904
     0.4454   0.5122   0.5505   0.5727   0.5893   0.6266   0.6733   0.6922
     0.7192   0.7334   0.7700   0.7890   0.7998   0.8261   0.8330   0.8410
     0.8680   0.9385   0.9772   0.9900   1.0367   1.0661   1.1265   1.1704
     1.2059   1.2644   1.2873   1.3496   1.3833   1.4306   1.4752   1.5103
     1.5545   1.5748   1.6079   1.6325   1.6463   1.6569   1.7041   1.7151
     1.7300   1.8030   1.8230   1.8545   1.8846   1.9012   1.9095   1.9617
     2.0251   2.0697   2.1079   2.1475   2.1799   2.2345   2.2823   2.2878
     2.3155   2.3276   2.3451   2.3861   2.4287   2.4407   2.4593   2.4942
     2.5782   2.5987   2.6178   2.6332   2.6406   2.6605   2.7000   2.7143
     2.8323   2.8696   2.8800   2.8976   2.9134   2.9831   3.1130   3.1894
     3.3092   3.4604   3.6166   3.8984   3.9059   4.0548   4.1710   4.2396
     4.5626   4.6357   4.7938   4.9339   5.1691   5.2213   5.3310   5.3842
     5.4189   5.6149   5.7153   6.1087   6.1723   6.3862   6.5578   6.9785
     7.0166   7.4928   7.5759   7.7051

          k = 0.4000-0.0000 0.0000 ( 43046 PWs)   bands (ev):

    -9.8987  -5.6541  -4.6440  -4.4689  -4.4531  -4.2297  -3.5781  -3.4859
    -3.3708  -3.3558  -3.3304  -3.3033  -3.2592  -3.2067  -3.1687  -3.1518
    -3.0105  -2.9166  -2.7996  -2.7613  -2.7572  -2.7290  -2.6689  -2.6568
    -2.5668  -2.5513  -2.4973  -2.4557  -2.4418  -2.3980  -2.3852  -2.3440
    -2.3249  -2.2880  -2.2790  -2.2280  -2.1797  -2.1054  -1.9407  -1.8937
    -1.8721  -1.8337  -1.7988  -1.7572  -1.7243  -1.7010  -1.6727  -1.6011
    -1.5802  -1.5694  -1.5189  -1.4601  -1.4113  -1.3946  -1.3462  -1.3048
    -1.2893  -1.2419  -1.2141  -1.1869  -1.0638  -1.0444  -1.0044  -0.9619
    -0.9261  -0.9147  -0.8940  -0.8690  -0.8362  -0.8055  -0.7250  -0.6951
    -0.6792  -0.6659  -0.6570  -0.6373  -0.5484  -0.5197  -0.4976  -0.4719
    -0.3945  -0.3767  -0.3679  -0.3498  -0.3316  -0.3156  -0.2966  -0.2713
    -0.2551  -0.2472  -0.2371  -0.1847  -0.1339  -0.1242  -0.0813  -0.0727
    -0.0543  -0.0172  -0.0056   0.0098   0.0340   0.0483   0.0667   0.0872
     0.0973   0.1227   0.1325   0.2200   0.2309   0.2820   0.3308   0.3487
     0.3716   0.4025   0.4777   0.5176   0.5743   0.6226   0.6366   0.7134
     0.7262   0.7416   0.7645   0.8182   0.8527   0.8690   0.8949   0.9062
     0.9630   1.0285   1.0450   1.0910   1.1110   1.1417   1.1709   1.2109
     1.2439   1.2919   1.3146   1.3504   1.3663   1.4393   1.4596   1.4608
     1.4911   1.5191   1.5984   1.6339   1.6507   1.6935   1.7050   1.7334
     1.7466   1.7521   1.7716   1.7959   1.8310   1.8777   1.9132   2.0086
     2.0238   2.0687   2.1446   2.2456   2.2551   2.2758   2.2968   2.3154
     2.3600   2.4125   2.4321   2.4379   2.4537   2.4713   2.4816   2.5026
     2.5166   2.5478   2.5936   2.6167   2.6351   2.6694   2.6868   2.7031
     2.7541   2.8436   2.8941   2.9330   2.9587   2.9755   3.0088   3.0222
     3.0892   3.1408   3.3406   3.5969   3.6717   3.8531   3.9804   4.2091
     4.2243   4.4106   4.7106   4.8288   5.0488   5.1246   5.1840   5.3570
     5.4638   6.0619   6.2822   6.3993   6.5253   6.6840   6.8853   7.0696
     7.1545   7.1779   7.2951   7.5694

          k = 0.4000 0.2309 0.0000 ( 43046 PWs)   bands (ev):

    -9.8976  -5.5206  -4.9011  -4.5898  -4.2034  -3.8595  -3.8437  -3.7149
    -3.4686  -3.3524  -3.2801  -3.2261  -3.1809  -3.0905  -3.0578  -3.0021
    -2.9002  -2.8864  -2.8560  -2.8030  -2.7598  -2.7384  -2.6879  -2.6750
    -2.6462  -2.6264  -2.5886  -2.5714  -2.5096  -2.4820  -2.2892  -2.2784
    -2.2544  -2.2428  -2.1660  -2.1306  -2.0461  -2.0246  -2.0082  -1.9871
    -1.9290  -1.8646  -1.8209  -1.7658  -1.7308  -1.6935  -1.6560  -1.6247
    -1.5958  -1.5649  -1.5303  -1.5134  -1.4881  -1.4643  -1.3573  -1.3287
    -1.3115  -1.2577  -1.2134  -1.1551  -1.1018  -1.0956  -1.0743  -1.0618
    -0.9424  -0.9154  -0.9106  -0.8724  -0.8420  -0.7925  -0.7699  -0.7515
    -0.6866  -0.6473  -0.6204  -0.5851  -0.5481  -0.5411  -0.4888  -0.4716
    -0.4461  -0.4234  -0.4034  -0.3807  -0.3708  -0.3546  -0.3479  -0.3252
    -0.3031  -0.2651  -0.2090  -0.2038  -0.1868  -0.1511  -0.1265  -0.0907
    -0.0663  -0.0384  -0.0065   0.0237   0.0492   0.0649   0.0801   0.1206
     0.1487   0.1844   0.2308   0.2728   0.2848   0.3110   0.3478   0.3904
     0.4453   0.5122   0.5505   0.5727   0.5893   0.6266   0.6734   0.6922
     0.7192   0.7334   0.7700   0.7890   0.7998   0.8261   0.8330   0.8409
     0.8680   0.9385   0.9772   0.9900   1.0367   1.0661   1.1265   1.1704
     1.2059   1.2644   1.2873   1.3496   1.3833   1.4306   1.4752   1.5103
     1.5545   1.5748   1.6079   1.6325   1.6463   1.6569   1.7041   1.7151
     1.7300   1.8030   1.8230   1.8545   1.8846   1.9012   1.9095   1.9617
     2.0251   2.0697   2.1079   2.1475   2.1799   2.2345   2.2823   2.2878
     2.3155   2.3276   2.3451   2.3861   2.4287   2.4407   2.4593   2.4942
     2.5782   2.5987   2.6178   2.6332   2.6406   2.6605   2.7000   2.7143
     2.8323   2.8696   2.8800   2.8976   2.9134   2.9831   3.1130   3.1894
     3.3092   3.4603   3.6166   3.8984   3.9059   4.0548   4.1710   4.2396
     4.5626   4.6357   4.7938   4.9339   5.1691   5.2213   5.3310   5.3843
     5.4189   5.6149   5.7153   6.1087   6.1723   6.3862   6.5578   6.9785
     7.0166   7.4928   7.5758   7.7051

          k = 0.4000-0.6928 0.0000 ( 43014 PWs)   bands (ev):

    -9.8958  -5.1497  -5.1149  -4.6061  -4.4526  -4.0001  -3.8148  -3.4671
    -3.3668  -3.3062  -3.2062  -3.1454  -3.0814  -3.0549  -3.0118  -2.9536
    -2.9102  -2.8486  -2.8452  -2.8219  -2.7802  -2.7552  -2.7442  -2.6910
    -2.6286  -2.6206  -2.6090  -2.5776  -2.5043  -2.4810  -2.3717  -2.3268
    -2.3032  -2.2489  -2.2095  -2.1819  -2.1662  -2.0512  -2.0089  -1.9847
    -1.9133  -1.8518  -1.8114  -1.7713  -1.7560  -1.6765  -1.6305  -1.6112
    -1.5529  -1.4961  -1.4526  -1.4381  -1.3966  -1.3508  -1.3097  -1.2945
    -1.2688  -1.2322  -1.2164  -1.1828  -1.1645  -1.1475  -1.1266  -1.0980
    -1.0590  -1.0493  -0.9820  -0.9327  -0.9039  -0.8619  -0.8092  -0.7517
    -0.7387  -0.7261  -0.6853  -0.6718  -0.6404  -0.6000  -0.5573  -0.5357
    -0.5212  -0.4897  -0.4658  -0.4355  -0.3575  -0.3271  -0.3113  -0.3041
    -0.2813  -0.2328  -0.1997  -0.1551  -0.1179  -0.0986  -0.0843  -0.0631
    -0.0499  -0.0330  -0.0077  -0.0065   0.0285   0.0583   0.0785   0.1054
     0.1120   0.1233   0.1388   0.1504   0.1771   0.2025   0.2417   0.3593
     0.4186   0.4589   0.4651   0.5295   0.5864   0.6354   0.6472   0.6720
     0.6892   0.7112   0.7374   0.7787   0.7848   0.8216   0.8545   0.8932
     0.9163   0.9847   0.9975   1.0164   1.0471   1.0772   1.1703   1.2167
     1.2427   1.2743   1.3157   1.3410   1.3739   1.3845   1.4172   1.4250
     1.4558   1.4742   1.5431   1.5625   1.5902   1.5993   1.6387   1.6555
     1.6968   1.7097   1.7669   1.8235   1.9206   1.9424   2.0017   2.0689
     2.1059   2.1238   2.1660   2.1848   2.2447   2.2612   2.3097   2.3473
     2.3825   2.4129   2.4441   2.4605   2.4772   2.5325   2.5457   2.5889
     2.6110   2.6159   2.6377   2.6717   2.6837   2.7056   2.7596   2.7825
     2.8377   2.8890   2.9053   2.9294   2.9653   3.0093   3.0301   3.1436
     3.5486   3.7871   3.9987   4.0701   4.1724   4.3234   4.3592   4.3704
     4.5897   4.7524   4.9253   5.1058   5.1946   5.2430   5.5383   5.5698
     5.7666   5.8089   5.9197   5.9618   6.0930   6.2162   6.4238   6.4604
     6.7772   7.0532   7.1307   7.1950

          k = 0.4000-0.4619 0.0000 ( 43014 PWs)   bands (ev):

    -9.8958  -5.1497  -5.1148  -4.6061  -4.4526  -4.0001  -3.8147  -3.4671
    -3.3668  -3.3062  -3.2062  -3.1454  -3.0814  -3.0549  -3.0118  -2.9536
    -2.9102  -2.8487  -2.8452  -2.8219  -2.7802  -2.7552  -2.7442  -2.6910
    -2.6286  -2.6206  -2.6090  -2.5777  -2.5043  -2.4810  -2.3717  -2.3268
    -2.3032  -2.2489  -2.2095  -2.1819  -2.1662  -2.0513  -2.0089  -1.9847
    -1.9133  -1.8518  -1.8114  -1.7713  -1.7560  -1.6765  -1.6305  -1.6112
    -1.5529  -1.4961  -1.4526  -1.4381  -1.3966  -1.3508  -1.3097  -1.2945
    -1.2688  -1.2322  -1.2164  -1.1828  -1.1645  -1.1475  -1.1266  -1.0980
    -1.0590  -1.0493  -0.9820  -0.9327  -0.9039  -0.8620  -0.8092  -0.7517
    -0.7387  -0.7261  -0.6853  -0.6718  -0.6404  -0.6000  -0.5573  -0.5356
    -0.5213  -0.4897  -0.4658  -0.4355  -0.3575  -0.3271  -0.3113  -0.3041
    -0.2813  -0.2328  -0.1997  -0.1551  -0.1179  -0.0986  -0.0843  -0.0631
    -0.0499  -0.0330  -0.0077  -0.0065   0.0285   0.0583   0.0785   0.1054
     0.1120   0.1233   0.1388   0.1504   0.1771   0.2025   0.2417   0.3593
     0.4186   0.4589   0.4651   0.5295   0.5864   0.6354   0.6472   0.6720
     0.6892   0.7112   0.7374   0.7787   0.7848   0.8216   0.8545   0.8932
     0.9163   0.9847   0.9975   1.0164   1.0471   1.0772   1.1703   1.2167
     1.2428   1.2743   1.3157   1.3410   1.3739   1.3845   1.4172   1.4250
     1.4558   1.4742   1.5431   1.5625   1.5902   1.5993   1.6387   1.6555
     1.6968   1.7097   1.7669   1.8235   1.9206   1.9424   2.0017   2.0689
     2.1059   2.1238   2.1660   2.1848   2.2447   2.2612   2.3097   2.3473
     2.3825   2.4129   2.4441   2.4605   2.4772   2.5325   2.5457   2.5889
     2.6110   2.6159   2.6377   2.6717   2.6837   2.7056   2.7596   2.7825
     2.8377   2.8890   2.9053   2.9294   2.9653   3.0093   3.0301   3.1436
     3.5486   3.7871   3.9987   4.0701   4.1723   4.3234   4.3592   4.3704
     4.5897   4.7524   4.9253   5.1058   5.1946   5.2430   5.5383   5.5698
     5.7666   5.8089   5.9197   5.9618   6.0930   6.2162   6.4238   6.4604
     6.7772   7.0532   7.1307   7.1949

     the Fermi energy is     2.6712 ev

!    total energy              =  -27774.46463209 Ry
     total all-electron energy =  -1326718.994146 Ry
     estimated scf accuracy    <          5.6E-09 Ry
     smearing contrib. (-TS)   =      -0.00008294 Ry
     internal energy E=F+TS    =  -27774.46454915 Ry

     The total energy is F=E-TS. E is the sum of the following terms:
     one-electron contribution =  -20731.76353892 Ry
     hartree contribution      =   10676.61336417 Ry
     xc contribution           =    -895.59047900 Ry
     ewald contribution        =    8656.84182748 Ry
     one-center paw contrib.   =  -25480.56572288 Ry

     convergence has been achieved in  23 iterations

     negative rho (up, down):  3.138E-03 0.000E+00

     Forces acting on atoms (cartesian axes, Ry/au):

     atom    1 type  1   force =     0.00017955   -0.00074006   -0.00337585
     atom    2 type  1   force =    -0.00017829   -0.00074105   -0.00337664
     atom    3 type  1   force =    -0.00000030   -0.00105247   -0.00542195
     atom    4 type  1   force =    -0.00000117   -0.00076302   -0.00470747
     atom    5 type  1   force =     0.00077201   -0.00085988   -0.00635078
     atom    6 type  1   force =    -0.00077122   -0.00085790   -0.00634913
     atom    7 type  1   force =    -0.00006045   -0.00084125   -0.00689390
     atom    8 type  1   force =     0.00000166   -0.00188252   -0.00611324
     atom    9 type  1   force =     0.00005935   -0.00084214   -0.00689325
     atom   10 type  1   force =    -0.00000179    0.00038277    0.01187921
     atom   11 type  1   force =     0.00064836   -0.00047712    0.00482743
     atom   12 type  1   force =    -0.00064710   -0.00047797    0.00482345
     atom   13 type  1   force =    -0.00000870    0.00155380    0.00141677
     atom   14 type  1   force =     0.00000144    0.00084635    0.00203448
     atom   15 type  1   force =     0.00000675    0.00155347    0.00141104
     atom   16 type  1   force =    -0.00075787    0.00327720    0.00498964
     atom   17 type  1   force =     0.00075755    0.00327441    0.00498694
     atom   18 type  1   force =    -0.00000001    0.00582973   -0.00791630
     atom   19 type  1   force =    -0.00020253    0.00084870   -0.00041768
     atom   20 type  1   force =     0.00021739    0.00085521   -0.00041664
     atom   21 type  1   force =    -0.00001645    0.00059282    0.00023981
     atom   22 type  1   force =     0.00001385    0.00152242   -0.00137287
     atom   23 type  1   force =     0.00012552    0.00078222    0.00031620
     atom   24 type  1   force =    -0.00013960    0.00078532    0.00031313
     atom   25 type  1   force =     0.00015369    0.00067715   -0.00008632
     atom   26 type  1   force =    -0.00000284    0.00050609    0.00046723
     atom   27 type  1   force =    -0.00015000    0.00069537   -0.00008228
     atom   28 type  1   force =     0.00089580    0.00145363    0.00043496
     atom   29 type  1   force =    -0.00089062    0.00145549    0.00043493
     atom   30 type  1   force =    -0.00000174    0.00099569   -0.00022887
     atom   31 type  1   force =     0.00000660   -0.00144015   -0.00093291
     atom   32 type  1   force =    -0.00000542    0.00110315    0.00047687
     atom   33 type  1   force =    -0.00000071    0.00110309    0.00048388
     atom   34 type  1   force =    -0.00041581    0.00057977   -0.00056194
     atom   35 type  1   force =    -0.00000119    0.00129980    0.00088133
     atom   36 type  1   force =     0.00041645    0.00058811   -0.00055502
     atom   37 type  2   force =    -0.00000309    0.00352891    0.00312258
     atom   38 type  3   force =     0.00000091   -0.02511515    0.01851317
     The non-local contrib.  to forces
     atom    1 type  1   force =     0.00014323    0.00029875   -0.01771333
     atom    2 type  1   force =    -0.00014250    0.00029766   -0.01771302
     atom    3 type  1   force =    -0.00000032    0.00000741   -0.02017155
     atom    4 type  1   force =    -0.00000152   -0.00020760   -0.01856865
     atom    5 type  1   force =     0.00111240   -0.00038499   -0.01928198
     atom    6 type  1   force =    -0.00111167   -0.00038357   -0.01928050
     atom    7 type  1   force =    -0.00170350    0.00131762   -0.02091453
     atom    8 type  1   force =     0.00000113   -0.00010592   -0.01848182
     atom    9 type  1   force =     0.00170212    0.00131694   -0.02091444
     atom   10 type  1   force =    -0.00000260    0.00174570    0.00178281
     atom   11 type  1   force =    -0.00015644    0.00338545   -0.00060713
     atom   12 type  1   force =     0.00015815    0.00338722   -0.00060716
     atom   13 type  1   force =     0.00109695   -0.00030562   -0.00146535
     atom   14 type  1   force =     0.00000312    0.00130269   -0.00255227
     atom   15 type  1   force =    -0.00110092   -0.00030623   -0.00146488
     atom   16 type  1   force =     0.00184608    0.00260198    0.00036927
     atom   17 type  1   force =    -0.00184536    0.00259806    0.00036937
     atom   18 type  1   force =    -0.00000146    0.00427988    0.00249498
     atom   19 type  1   force =     0.00013817    0.00364407    0.01211944
     atom   20 type  1   force =    -0.00013077    0.00364662    0.01212086
     atom   21 type  1   force =    -0.00000882    0.00417809    0.00642835
     atom   22 type  1   force =     0.00000703   -0.00117299    0.00607177
     atom   23 type  1   force =     0.00241199   -0.00149538    0.00637548
     atom   24 type  1   force =    -0.00241912   -0.00149588    0.00637444
     atom   25 type  1   force =    -0.00649608   -0.00200775   -0.00378705
     atom   26 type  1   force =    -0.00000200   -0.00031757    0.01230773
     atom   27 type  1   force =     0.00649939   -0.00199926   -0.00378316
     atom   28 type  1   force =     0.03679887    0.01610798   -0.03692011
     atom   29 type  1   force =    -0.03679548    0.01610748   -0.03691991
     atom   30 type  1   force =    -0.00000015   -0.00048019    0.01367951
     atom   31 type  1   force =     0.00000393   -0.06060130    0.00377083
     atom   32 type  1   force =    -0.01707300   -0.00714145    0.01850792
     atom   33 type  1   force =     0.01706852   -0.00714101    0.01850466
     atom   34 type  1   force =    -0.00346991   -0.00588907    0.01625762
     atom   35 type  1   force =     0.00000126    0.01214324    0.01801719
     atom   36 type  1   force =     0.00346930   -0.00588259    0.01625696
     atom   37 type  2   force =    -0.00000618    0.05759543   -0.09974368
     atom   38 type  3   force =     0.00000019   -0.03285951   -0.07280488
     The ionic contribution  to forces
     atom    1 type  1   force =     0.00877165   -0.00495601  -93.91951881
     atom    2 type  1   force =    -0.00876561   -0.00492358  -93.91950896
     atom    3 type  1   force =    -0.00000609   -0.00821893  -93.93506535
     atom    4 type  1   force =     0.00002999   -0.01822660  -93.94654160
     atom    5 type  1   force =    -0.00695586   -0.01021324  -93.95895304
     atom    6 type  1   force =     0.00692585   -0.01022209  -93.95901499
     atom    7 type  1   force =     0.00346454    0.01647477  -93.95017005
     atom    8 type  1   force =    -0.00002383    0.02436000  -93.94249625
     atom    9 type  1   force =    -0.00344073    0.01649430  -93.95022205
     atom   10 type  1   force =     0.00006785   -0.08276432  -32.40303297
     atom   11 type  1   force =    -0.07198328   -0.08288418  -32.51599356
     atom   12 type  1   force =     0.07190917   -0.08312760  -32.51636395
     atom   13 type  1   force =    -0.00732968   -0.07115283  -32.58034590
     atom   14 type  1   force =    -0.00020621    0.05275617  -32.64339277
     atom   15 type  1   force =     0.00752720   -0.07119370  -32.58080654
     atom   16 type  1   force =     0.05614431    0.17662532  -32.43179624
     atom   17 type  1   force =    -0.05632065    0.17676640  -32.43199824
     atom   18 type  1   force =     0.00016268    0.21605366  -32.46564314
     atom   19 type  1   force =     0.05708923   -0.18877816   29.65992751
     atom   20 type  1   force =    -0.05619785   -0.18829234   29.66014914
     atom   21 type  1   force =    -0.00088152   -0.15832909   29.00793489
     atom   22 type  1   force =     0.00085778    0.15154270   28.68960434
     atom   23 type  1   force =    -0.05806225    0.14736267   29.04455711
     atom   24 type  1   force =     0.05719137    0.14769439   29.04439867
     atom   25 type  1   force =    -0.01000405    0.00698719   29.88190496
     atom   26 type  1   force =    -0.00012175    0.11603229   30.29492282
     atom   27 type  1   force =     0.01014552    0.00807102   29.88167593
     atom   28 type  1   force =    -2.95662704   -1.97066804   90.86754354
     atom   29 type  1   force =     2.95684506   -1.97034958   90.86723046
     atom   30 type  1   force =    -0.00023398   -0.12504472   91.30990112
     atom   31 type  1   force =     0.00051449    3.02113694   87.74810451
     atom   32 type  1   force =     0.35415018    0.22294991   90.76183681
     atom   33 type  1   force =    -0.35472724    0.22286688   90.76220021
     atom   34 type  1   force =    -0.03824981    0.08155764   91.36331519
     atom   35 type  1   force =    -0.00026517   -0.28640527   90.88359139
     atom   36 type  1   force =     0.03849160    0.08215868   91.36355384
     atom   37 type  2   force =     0.00010083   -0.27472686   44.47879520
     atom   38 type  3   force =     0.00001330    0.72258623   12.47971681
     The local contribution  to forces
     atom    1 type  1   force =    -0.00869252    0.00390845   93.91665997
     atom    2 type  1   force =     0.00868559    0.00388221   93.91664966
     atom    3 type  1   force =     0.00000728    0.00699487   93.93263509
     atom    4 type  1   force =    -0.00002486    0.01753942   93.94329111
     atom    5 type  1   force =     0.00647990    0.00964772   93.95492636
     atom    6 type  1   force =    -0.00645444    0.00965284   93.95498520
     atom    7 type  1   force =    -0.00188802   -0.01865518   93.94700845
     atom    8 type  1   force =     0.00001834   -0.02605909   93.93786226
     atom    9 type  1   force =     0.00187039   -0.01867266   93.94705832
     atom   10 type  1   force =    -0.00006307    0.08129783   32.41300779
     atom   11 type  1   force =     0.07254319    0.07884697   32.52088052
     atom   12 type  1   force =    -0.07247342    0.07908118   32.52124234
     atom   13 type  1   force =     0.00611527    0.07294534   32.58246980
     atom   14 type  1   force =     0.00019642   -0.05306748   32.64700932
     atom   15 type  1   force =    -0.00630292    0.07298410   32.58292128
     atom   16 type  1   force =    -0.05872348   -0.17546205   32.43614929
     atom   17 type  1   force =     0.05889317   -0.17559372   32.43634996
     atom   18 type  1   force =    -0.00015576   -0.21368487   32.45484145
     atom   19 type  1   force =    -0.05681936    0.18571041  -29.66953693
     atom   20 type  1   force =     0.05594570    0.18523349  -29.66976091
     atom   21 type  1   force =     0.00086383    0.15454591  -29.01269664
     atom   22 type  1   force =    -0.00084189   -0.14879418  -28.69442886
     atom   23 type  1   force =     0.05544068   -0.14486925  -29.04914613
     atom   24 type  1   force =    -0.05458595   -0.14519153  -29.04898588
     atom   25 type  1   force =     0.01666840   -0.00424058  -29.87602268
     atom   26 type  1   force =     0.00012135   -0.11447338  -30.30416383
     atom   27 type  1   force =    -0.01680991   -0.00530333  -29.87579143
     atom   28 type  1   force =     2.90661537    1.94694307  -90.82469071
     atom   29 type  1   force =    -2.90682851    1.94663016  -90.82438093
     atom   30 type  1   force =     0.00022940    0.12677481  -91.30789652
     atom   31 type  1   force =    -0.00050700   -2.94840477  -87.75050601
     atom   32 type  1   force =    -0.33920882   -0.21573591  -90.76354548
     atom   33 type  1   force =     0.33977867   -0.21565346  -90.76389353
     atom   34 type  1   force =     0.04155307   -0.07497960  -91.36437369
     atom   35 type  1   force =     0.00026027    0.27782390  -90.88448404
     atom   36 type  1   force =    -0.04179161   -0.07557326  -91.36460188
     atom   37 type  2   force =    -0.00009702    0.22161178  -44.37879540
     atom   38 type  3   force =    -0.00001247   -0.71484299  -12.38840481
     The core correction contribution to forces
     atom    1 type  1   force =    -0.00003524    0.00000674    0.01722109
     atom    2 type  1   force =     0.00003524    0.00000669    0.01722113
     atom    3 type  1   force =    -0.00000002    0.00016389    0.01720266
     atom    4 type  1   force =    -0.00000001    0.00012319    0.01713428
     atom    5 type  1   force =     0.00012941    0.00009161    0.01698191
     atom    6 type  1   force =    -0.00012940    0.00009163    0.01698192
     atom    7 type  1   force =     0.00007242    0.00001788    0.01720367
     atom    8 type  1   force =     0.00000003   -0.00007401    0.01702496
     atom    9 type  1   force =    -0.00007247    0.00001789    0.01720367
     atom   10 type  1   force =     0.00000005    0.00009715    0.00019050
     atom   11 type  1   force =     0.00023447    0.00017701    0.00061675
     atom   12 type  1   force =    -0.00023449    0.00017737    0.00061770
     atom   13 type  1   force =     0.00011447    0.00005727    0.00082053
     atom   14 type  1   force =     0.00000014   -0.00014442    0.00103587
     atom   15 type  1   force =    -0.00011458    0.00005741    0.00082136
     atom   16 type  1   force =    -0.00001808   -0.00048520    0.00033447
     atom   17 type  1   force =     0.00001844   -0.00048520    0.00033483
     atom   18 type  1   force =    -0.00000026   -0.00081462    0.00045211
     atom   19 type  1   force =    -0.00060326    0.00025581   -0.00287140
     atom   20 type  1   force =     0.00060060    0.00025457   -0.00287165
     atom   21 type  1   force =     0.00000255    0.00019914   -0.00136608
     atom   22 type  1   force =    -0.00000238   -0.00005716   -0.00256515
     atom   23 type  1   force =     0.00034424   -0.00021554   -0.00141087
     atom   24 type  1   force =    -0.00034189   -0.00021627   -0.00141055
     atom   25 type  1   force =    -0.00000291   -0.00005931   -0.00212597
     atom   26 type  1   force =     0.00000040   -0.00073252   -0.00254279
     atom   27 type  1   force =     0.00000238   -0.00006249   -0.00212657
     atom   28 type  1   force =     0.01411631    0.00906736   -0.00548900
     atom   29 type  1   force =    -0.01411724    0.00906735   -0.00548832
     atom   30 type  1   force =     0.00000048   -0.00024870   -0.01589048
     atom   31 type  1   force =    -0.00000101   -0.01358595   -0.00228327
     atom   32 type  1   force =     0.00213019    0.00102928   -0.01630335
     atom   33 type  1   force =    -0.00212886    0.00102958   -0.01630427
     atom   34 type  1   force =    -0.00023719   -0.00010926   -0.01573776
     atom   35 type  1   force =     0.00000051   -0.00226206   -0.01622739
     atom   36 type  1   force =     0.00023679   -0.00011093   -0.01573856
     atom   37 type  2   force =     0.00000011   -0.00095788    0.00284678
     atom   38 type  3   force =     0.00000000    0.00000000    0.00000000
     The Hubbard contrib.    to forces
     atom    1 type  1   force =     0.00000000    0.00000000    0.00000000
     atom    2 type  1   force =     0.00000000    0.00000000    0.00000000
     atom    3 type  1   force =     0.00000000    0.00000000    0.00000000
     atom    4 type  1   force =     0.00000000    0.00000000    0.00000000
     atom    5 type  1   force =     0.00000000    0.00000000    0.00000000
     atom    6 type  1   force =     0.00000000    0.00000000    0.00000000
     atom    7 type  1   force =     0.00000000    0.00000000    0.00000000
     atom    8 type  1   force =     0.00000000    0.00000000    0.00000000
     atom    9 type  1   force =     0.00000000    0.00000000    0.00000000
     atom   10 type  1   force =     0.00000000    0.00000000    0.00000000
     atom   11 type  1   force =     0.00000000    0.00000000    0.00000000
     atom   12 type  1   force =     0.00000000    0.00000000    0.00000000
     atom   13 type  1   force =     0.00000000    0.00000000    0.00000000
     atom   14 type  1   force =     0.00000000    0.00000000    0.00000000
     atom   15 type  1   force =     0.00000000    0.00000000    0.00000000
     atom   16 type  1   force =     0.00000000    0.00000000    0.00000000
     atom   17 type  1   force =     0.00000000    0.00000000    0.00000000
     atom   18 type  1   force =     0.00000000    0.00000000    0.00000000
     atom   19 type  1   force =     0.00000000    0.00000000    0.00000000
     atom   20 type  1   force =     0.00000000    0.00000000    0.00000000
     atom   21 type  1   force =     0.00000000    0.00000000    0.00000000
     atom   22 type  1   force =     0.00000000    0.00000000    0.00000000
     atom   23 type  1   force =     0.00000000    0.00000000    0.00000000
     atom   24 type  1   force =     0.00000000    0.00000000    0.00000000
     atom   25 type  1   force =     0.00000000    0.00000000    0.00000000
     atom   26 type  1   force =     0.00000000    0.00000000    0.00000000
     atom   27 type  1   force =     0.00000000    0.00000000    0.00000000
     atom   28 type  1   force =     0.00000000    0.00000000    0.00000000
     atom   29 type  1   force =     0.00000000    0.00000000    0.00000000
     atom   30 type  1   force =     0.00000000    0.00000000    0.00000000
     atom   31 type  1   force =     0.00000000    0.00000000    0.00000000
     atom   32 type  1   force =     0.00000000    0.00000000    0.00000000
     atom   33 type  1   force =     0.00000000    0.00000000    0.00000000
     atom   34 type  1   force =     0.00000000    0.00000000    0.00000000
     atom   35 type  1   force =     0.00000000    0.00000000    0.00000000
     atom   36 type  1   force =     0.00000000    0.00000000    0.00000000
     atom   37 type  2   force =     0.00000000    0.00000000    0.00000000
     atom   38 type  3   force =     0.00000000    0.00000000    0.00000000
     The SCF correction term to forces
     atom    1 type  1   force =    -0.00000000    0.00000000   -0.00000000
     atom    2 type  1   force =     0.00000000   -0.00000000   -0.00000000
     atom    3 type  1   force =    -0.00000000   -0.00000000   -0.00000000
     atom    4 type  1   force =    -0.00000000    0.00000000   -0.00000000
     atom    5 type  1   force =     0.00000000   -0.00000000   -0.00000000
     atom    6 type  1   force =    -0.00000000    0.00000000   -0.00000000
     atom    7 type  1   force =    -0.00000000    0.00000000   -0.00000000
     atom    8 type  1   force =     0.00000000   -0.00000000   -0.00000000
     atom    9 type  1   force =    -0.00000000    0.00000000   -0.00000000
     atom   10 type  1   force =    -0.00000000    0.00000000   -0.00000000
     atom   11 type  1   force =     0.00000000   -0.00000000   -0.00000000
     atom   12 type  1   force =    -0.00000000    0.00000000   -0.00000000
     atom   13 type  1   force =    -0.00000000    0.00000000   -0.00000000
     atom   14 type  1   force =     0.00000000   -0.00000000   -0.00000000
     atom   15 type  1   force =    -0.00000000    0.00000000   -0.00000000
     atom   16 type  1   force =    -0.00000000   -0.00000000   -0.00000000
     atom   17 type  1   force =     0.00000000   -0.00000000   -0.00000000
     atom   18 type  1   force =    -0.00000000   -0.00000000   -0.00000000
     atom   19 type  1   force =    -0.00000733    0.00001538   -0.00006081
     atom   20 type  1   force =    -0.00000033    0.00001169   -0.00005860
     atom   21 type  1   force =     0.00000748   -0.00000241   -0.00006522
     atom   22 type  1   force =    -0.00000671    0.00000286   -0.00005948
     atom   23 type  1   force =    -0.00000916   -0.00000147   -0.00006389
     atom   24 type  1   force =     0.00001596   -0.00000658   -0.00006807
     atom   25 type  1   force =    -0.00001169   -0.00000358   -0.00006010
     atom   26 type  1   force =    -0.00000085   -0.00000391   -0.00006121
     atom   27 type  1   force =     0.00001260   -0.00001176   -0.00006157
     atom   28 type  1   force =    -0.00000774    0.00000207   -0.00001327
     atom   29 type  1   force =     0.00000551   -0.00000111   -0.00001088
     atom   30 type  1   force =     0.00000247   -0.00000670   -0.00002702
     atom   31 type  1   force =    -0.00000384    0.00001374   -0.00002348
     atom   32 type  1   force =    -0.00000400    0.00000014   -0.00002353
     atom   33 type  1   force =     0.00000818   -0.00000009   -0.00002770
     atom   34 type  1   force =    -0.00001199   -0.00000113   -0.00002782
     atom   35 type  1   force =     0.00000192   -0.00000120   -0.00002034
     atom   36 type  1   force =     0.00001035   -0.00000499   -0.00002990
     atom   37 type  2   force =    -0.00000087    0.00000525    0.00001516
     atom   38 type  3   force =    -0.00000013   -0.00000007    0.00000153

     Total force =     0.031974     Total SCF correction =     0.000205

     Writing all to output data dir ./pwscf.save/

     init_run     :     10.55s CPU     10.87s WALL (       1 calls)
     electrons    :    409.71s CPU    425.09s WALL (       1 calls)
     forces       :      4.20s CPU      4.92s WALL (       1 calls)

     Called by init_run:
     wfcinit      :      5.72s CPU      5.91s WALL (       1 calls)
     potinit      :      3.24s CPU      3.31s WALL (       1 calls)
     hinit0       :      0.99s CPU      1.00s WALL (       1 calls)

     Called by electrons:
     c_bands      :    344.32s CPU    353.94s WALL (      24 calls)
     sum_band     :     41.17s CPU     42.96s WALL (      24 calls)
     v_of_rho     :     10.47s CPU     12.83s WALL (      24 calls)
     newd         :      3.51s CPU      4.41s WALL (      24 calls)
     PAW_pot      :      5.11s CPU      5.38s WALL (      24 calls)
     mix_rho      :      7.25s CPU      7.49s WALL (      24 calls)
     vdW_kernel   :      1.72s CPU      1.73s WALL (       1 calls)

     Called by c_bands:
     init_us_2    :      3.42s CPU      3.53s WALL (     650 calls)
     init_us_2:cp :      3.42s CPU      3.53s WALL (     650 calls)
     cegterg      :    334.35s CPU    343.36s WALL (     312 calls)

     Called by *egterg:
     cdiaghg      :     94.47s CPU     96.25s WALL (    1581 calls)
     h_psi        :    147.69s CPU    151.98s WALL (    1607 calls)
     s_psi        :     18.52s CPU     18.94s WALL (    1607 calls)
     g_psi        :      0.56s CPU      0.57s WALL (    1282 calls)

     Called by h_psi:
     h_psi:calbec :     24.98s CPU     26.20s WALL (    1607 calls)
     vloc_psi     :    102.47s CPU    105.03s WALL (    1607 calls)
     add_vuspsi   :     18.87s CPU     19.35s WALL (    1607 calls)

     General routines
     calbec       :     35.54s CPU     37.06s WALL (    1971 calls)
     fft          :      6.13s CPU      8.37s WALL (    1572 calls)
     ffts         :      4.39s CPU      4.43s WALL (    5612 calls)
     fftw         :    101.40s CPU    103.80s WALL (  396358 calls)
     interpolate  :      0.62s CPU      0.69s WALL (      24 calls)

     Parallel routines

     PWSCF        :   7m 6.82s CPU   7m27.75s WALL


   This run was terminated on:  21:12:24  10Nov2025            

=------------------------------------------------------------------------------=
   JOB DONE.
=------------------------------------------------------------------------------=
