
     Program PWSCF v.7.1 starts on 14Dec2025 at 10:32:28 
        Git branch: heads/qe-7.1
        Last git commit: 48ba0178f8fede6d020eb786884699a9f063f55d-dirty
        Last git commit date: Fri Jan 27 14:22:33 2023 +0000
        Last git commit subject: Merge branch 'fix_hubbard' into 'develop'

     This program is part of the open-source Quantum ESPRESSO suite
     for quantum simulation of materials; please cite
         "P. Giannozzi et al., J. Phys.:Condens. Matter 21 395502 (2009);
         "P. Giannozzi et al., J. Phys.:Condens. Matter 29 465901 (2017);
         "P. Giannozzi et al., J. Chem. Phys. 152 154105 (2020);
          URL http://www.quantum-espresso.org", 
     in publications or presentations arising from this work. More details at
     http://www.quantum-espresso.org/quote

     Parallel version (MPI), running on    96 processors

     MPI processes distributed on     2 nodes
     29802 MiB available memory on the printing compute node when the environment starts

     Reading input from espresso.pwi
Warning: card &CELL ignored
Warning: card / ignored
Warning: card &FCP ignored
Warning: card / ignored
Warning: card &RISM ignored
Warning: card / ignored

     Current dimensions of program PWSCF are:
     Max number of different atomic species (ntypx) = 10
     Max number of k-points (npk) =  40000
     Max angular momentum in pseudopotentials (lmaxx) =  4
     file Co.pbe-n-kjpaw_psl.1.0.0.UPF: wavefunction(s)  4S 3D renormalized
     file C.pbe-n-kjpaw_psl.1.0.0.UPF: wavefunction(s)  2S 2P renormalized
     file O.pbe-nl-kjpaw_psl.1.0.0.UPF: wavefunction(s)  2S 2P renormalized
     file H.pbe-kjpaw_psl.1.0.0.UPF: wavefunction(s)  1S renormalized

     **************************************************************************
     Initializing libbeef V0.1.2 with the BEEF-vdW functional.
     Citation: Wellendorff et al., PRB 85, 235149 (2012).
     **************************************************************************


     IMPORTANT: XC functional enforced from input :
     Exchange-correlation= BEEF-VDW
                           (   1   4  43  14   2   0   0)
     Any further DFT definition will be discarded
     Please, verify this is what you really want


     R & G space division:  proc/nbgrp/npool/nimage =      96
     Subspace diagonalization in iterative solution of the eigenvalue problem:
     one sub-group per band group will be used
     custom distributed-memory algorithm (size of sub-group:  2*  2 procs)


     Parallelization info
     --------------------
     sticks:   dense  smooth     PW     G-vecs:    dense   smooth      PW
     Min          43      28      7                 7829     4248     595
     Max          44      29      8                 7845     4281     630
     Sum        4153    2773    757               752179   409445   59217

     Using Slab Decomposition



     bravais-lattice index     =            0
     lattice parameter (alat)  =      14.1729  a.u.
     unit-cell volume          =    8574.3059 (a.u.)^3
     number of atoms/cell      =           39
     number of atomic types    =            4
     number of electrons       =       335.00
     number of Kohn-Sham states=          202
     kinetic-energy cutoff     =      50.0000  Ry
     charge density cutoff     =     300.0000  Ry
     scf convergence threshold =      1.0E-08
     mixing beta               =       0.7000
     number of iterations used =            8  local-TF  mixing
     Exchange-correlation= BEEF-VDW
                           (   1   4  43  14   2   0   0)

     celldm(1)=  14.172946  celldm(2)=   0.000000  celldm(3)=   0.000000
     celldm(4)=   0.000000  celldm(5)=   0.000000  celldm(6)=   0.000000

     crystal axes: (cart. coord. in units of alat)
               a(1) = (   1.000000   0.000000   0.000000 )  
               a(2) = (   0.500000   0.866025   0.000000 )  
               a(3) = (   0.000000   0.000000   3.477667 )  

     reciprocal axes: (cart. coord. in units 2 pi/alat)
               b(1) = (  1.000000 -0.577350  0.000000 )  
               b(2) = (  0.000000  1.154701  0.000000 )  
               b(3) = (  0.000000  0.000000  0.287549 )  


     PseudoPot. # 1 for Co read from file:
     /users/kbadger1/espresso/pseudo/pslibrary.1.0.0/pbe/PSEUDOPOTENTIALS/Co.pbe-n-kjpaw_psl.1.0.0.UPF
     MD5 check sum: 88af6ec42553d4236c267fdfcb472151
     Pseudo is Projector augmented-wave + core cor, Zval =  9.0
     Generated using 'atomic' code by A. Dal Corso  v.7.0
     Shape of augmentation charge: PSQ
     Using radial grid of 1193 points,  6 beta functions with: 
                l(1) =   0
                l(2) =   0
                l(3) =   1
                l(4) =   1
                l(5) =   2
                l(6) =   2
     Q(r) pseudized with 0 coefficients 


     PseudoPot. # 2 for C  read from file:
     /users/kbadger1/espresso/pseudo/pslibrary.1.0.0/pbe/PSEUDOPOTENTIALS/C.pbe-n-kjpaw_psl.1.0.0.UPF
     MD5 check sum: 6408e75cdba28732cea38a4db8498ce4
     Pseudo is Projector augmented-wave + core cor, Zval =  4.0
     Generated using 'atomic' code by A. Dal Corso  v.7.0
     Shape of augmentation charge: PSQ
     Using radial grid of 1073 points,  4 beta functions with: 
                l(1) =   0
                l(2) =   0
                l(3) =   1
                l(4) =   1
     Q(r) pseudized with 0 coefficients 


     PseudoPot. # 3 for O  read from file:
     /users/kbadger1/espresso/pseudo/pslibrary.1.0.0/pbe/PSEUDOPOTENTIALS/O.pbe-nl-kjpaw_psl.1.0.0.UPF
     MD5 check sum: f0439fab3598ca4e468f064226030408
     Pseudo is Projector augmented-wave + core cor, Zval =  6.0
     Generated using 'atomic' code by A. Dal Corso  v.7.0
     Shape of augmentation charge: PSQ
     Using radial grid of 1095 points,  4 beta functions with: 
                l(1) =   0
                l(2) =   0
                l(3) =   1
                l(4) =   1
     Q(r) pseudized with 0 coefficients 


     PseudoPot. # 4 for H  read from file:
     /users/kbadger1/espresso/pseudo/pslibrary.1.0.0/pbe/PSEUDOPOTENTIALS/H.pbe-kjpaw_psl.1.0.0.UPF
     MD5 check sum: fe4c6fa958fa6d3815bf5d2419cbf1df
     Pseudo is Projector augmented-wave, Zval =  1.0
     Generated using 'atomic' code by A. Dal Corso  v.7.0
     Shape of augmentation charge: PSQ
     Using radial grid of  929 points,  2 beta functions with: 
                l(1) =   0
                l(2) =   0
     Q(r) pseudized with 0 coefficients 


     atomic species   valence    mass     pseudopotential
        Co             9.00    58.93319     Co( 1.00)
        C              4.00    12.01100     C ( 1.00)
        O              6.00    15.99900     O ( 1.00)
        H              1.00     1.00800     H ( 1.00)

     Starting magnetic structure 
     atomic species   magnetization
        Co           1.000
        C            1.000
        O            0.000
        H            0.000

     No symmetry found



   Cartesian axes

     site n.     atom                  positions (alat units)
         1           Co  tau(   1) = (   0.0000000   0.1924501   1.3333333  )
         2           Co  tau(   2) = (   0.3333333   0.1924501   1.3333333  )
         3           Co  tau(   3) = (   0.6666667   0.1924501   1.3333333  )
         4           Co  tau(   4) = (   0.1666667   0.4811252   1.3333333  )
         5           Co  tau(   5) = (   0.5000000   0.4811252   1.3333333  )
         6           Co  tau(   6) = (   0.8333333   0.4811252   1.3333333  )
         7           Co  tau(   7) = (   0.3333333   0.7698004   1.3333333  )
         8           Co  tau(   8) = (   0.6666667   0.7698004   1.3333333  )
         9           Co  tau(   9) = (   1.0000000   0.7698004   1.3333333  )
        10           Co  tau(  10) = (   0.0000000   0.0000000   1.6036667  )
        11           Co  tau(  11) = (   0.3333333   0.0000000   1.6036667  )
        12           Co  tau(  12) = (   0.6666667   0.0000000   1.6036667  )
        13           Co  tau(  13) = (   0.1666667   0.2886751   1.6036667  )
        14           Co  tau(  14) = (   0.5000000   0.2886751   1.6036667  )
        15           Co  tau(  15) = (   0.8333333   0.2886751   1.6036667  )
        16           Co  tau(  16) = (   0.3333333   0.5773503   1.6036667  )
        17           Co  tau(  17) = (   0.6666667   0.5773503   1.6036667  )
        18           Co  tau(  18) = (   1.0000000   0.5773503   1.6036667  )
        19           Co  tau(  19) = (   0.0000000   0.1924501   1.8740000  )
        20           Co  tau(  20) = (   0.3333333   0.1924501   1.8740000  )
        21           Co  tau(  21) = (   0.6666667   0.1924501   1.8740000  )
        22           Co  tau(  22) = (   0.1666667   0.4811252   1.8740000  )
        23           Co  tau(  23) = (   0.5000000   0.4811252   1.8740000  )
        24           Co  tau(  24) = (   0.8333333   0.4811252   1.8740000  )
        25           Co  tau(  25) = (   0.3333333   0.7698004   1.8740000  )
        26           Co  tau(  26) = (   0.6666667   0.7698004   1.8740000  )
        27           Co  tau(  27) = (   1.0000000   0.7698004   1.8740000  )
        28           Co  tau(  28) = (   0.0000000   0.0000000   2.1443333  )
        29           Co  tau(  29) = (   0.3333333   0.0000000   2.1443333  )
        30           Co  tau(  30) = (   0.6666667   0.0000000   2.1443333  )
        31           Co  tau(  31) = (   0.1666667   0.2886751   2.1443333  )
        32           Co  tau(  32) = (   0.5000000   0.2886751   2.1443333  )
        33           Co  tau(  33) = (   0.8333333   0.2886751   2.1443333  )
        34           Co  tau(  34) = (   0.3333333   0.5773503   2.1443333  )
        35           Co  tau(  35) = (   0.6666667   0.5773503   2.1443333  )
        36           Co  tau(  36) = (   1.0000000   0.5773503   2.1443333  )
        37           C   tau(  37) = (   0.2454015   0.0376394   2.3746162  )
        38           O   tau(  38) = (   0.0807121   0.0321078   2.4115312  )
        39           H   tau(  39) = (   0.3350374   0.0592379   2.4894157  )

     number of k points=    13  Marzari-Vanderbilt smearing, width (Ry)=  0.0010
                       cart. coord. in units 2pi/alat
        k(    1) = (   0.0000000   0.0000000   0.0000000), wk =   0.0400000
        k(    2) = (   0.0000000   0.2309401   0.0000000), wk =   0.0800000
        k(    3) = (   0.0000000   0.4618802   0.0000000), wk =   0.0800000
        k(    4) = (   0.2000000  -0.1154701   0.0000000), wk =   0.0800000
        k(    5) = (   0.2000000   0.1154701   0.0000000), wk =   0.0800000
        k(    6) = (   0.2000000   0.3464102   0.0000000), wk =   0.0800000
        k(    7) = (   0.2000000  -0.5773503   0.0000000), wk =   0.0800000
        k(    8) = (   0.2000000  -0.3464102   0.0000000), wk =   0.0800000
        k(    9) = (   0.4000000  -0.2309401   0.0000000), wk =   0.0800000
        k(   10) = (   0.4000000   0.0000000   0.0000000), wk =   0.0800000
        k(   11) = (   0.4000000   0.2309401   0.0000000), wk =   0.0800000
        k(   12) = (   0.4000000  -0.6928203   0.0000000), wk =   0.0800000
        k(   13) = (   0.4000000  -0.4618802   0.0000000), wk =   0.0800000

     Dense  grid:   752179 G-vectors     FFT dimensions: (  80,  80, 288)

     Smooth grid:   409445 G-vectors     FFT dimensions: (  64,  64, 225)

     Estimated max dynamical RAM per process >      99.02 MB

     Estimated total dynamical RAM >       9.28 GB
     Generating pointlists ...
     new r_m :   0.1029 (alat units)  1.4578 (a.u.) for type    1
     new r_m :   0.0607 (alat units)  0.8608 (a.u.) for type    2
     new r_m :   0.0697 (alat units)  0.9873 (a.u.) for type    3
     new r_m :   0.0607 (alat units)  0.8608 (a.u.) for type    4

     Initial potential from superposition of free atoms

     starting charge     334.9897, renormalised to     335.0000

     negative rho (up, down):  2.980E-03 4.702E-04


     %%%%%%%%%%%%%%%%%%%%%%%%%%%%%%%%%%%%%%%%%%%%%%%%%%%%%%%%%%%%%%%%%%%%%%%%
     %                                                                      %
     % You are using vdW-DF, which was implemented by the Thonhauser group. %
     % Please cite the following two papers that made this development      %
     % possible and the two reviews that describe the various versions:     %
     %                                                                      %
     %   T. Thonhauser et al., PRL 115, 136402 (2015).                      %
     %   T. Thonhauser et al., PRB 76, 125112 (2007).                       %
     %   K. Berland et al., Rep. Prog. Phys. 78, 066501 (2015).             %
     %   D.C. Langreth et al., J. Phys.: Condens. Matter 21, 084203 (2009). %
     %                                                                      %
     % If you are calculating stress with vdW-DF, please also cite:         %
     %                                                                      %
     %   R. Sabatini et al., J. Phys.: Condens. Matter 24, 424209 (2012).   %
     %   C.M. Frostenson et al., Electr. Struct. 4, 014001 (2022).          %
     %                                                                      %
     %%%%%%%%%%%%%%%%%%%%%%%%%%%%%%%%%%%%%%%%%%%%%%%%%%%%%%%%%%%%%%%%%%%%%%%%

     %%%%%%%%%%%%%%%%%%%%%%%%%%%%%%%%%%%%%%%%%%%%%%%%%%%%%%%%%%%%%%%%%%%%%%%%
     %                                                                      %
     %  vdW-DF NEWS:                                                        %
     %                                                                      %
     %  * vdW-DF3 is now available. DOI: 10.1021/acs.jctc.0c00471           %
     %    use with input_dft = 'vdW-DF3-opt1' or 'vdW-DF3-opt2'             %
     %                                                                      %
     %  * Unscreened and range-separated hybrid vdW-DF-cx functionals       %
     %    DOI: 10.1063/1.4986522 and 10.1088/1361-648X/ac2ad2               %
     %    use with input_dft = 'vdW-DF-cx0'    and 'vdW-DF-ahcx'            %
     %  * Unscreened and range-separated hybrid vdW-DF2-b86r functionals    %
     %    DOI: 10.1063/1.4986522 and DOI: 10.1103/PhysRevX.12.041003        %
     %    use with input_dft = 'vdW-DF2-br0' and 'vdW-DF2-ahbr'             %
     %                                                                      %
     %%%%%%%%%%%%%%%%%%%%%%%%%%%%%%%%%%%%%%%%%%%%%%%%%%%%%%%%%%%%%%%%%%%%%%%%


     Starting wfcs are  333 randomized atomic wfcs
     Checking if some PAW data can be deallocated... 

     total cpu time spent up to now is       16.0 secs

     per-process dynamical memory:   231.8 Mb

     Self-consistent Calculation

     iteration #  1     ecut=    50.00 Ry     beta= 0.70
     Davidson diagonalization with overlap
     ethr =  1.00E-02,  avg # of iterations =  2.0

     negative rho (up, down):  2.210E-05 4.292E-08

     total cpu time spent up to now is       38.3 secs

     total energy              =   -6053.06027357 Ry
     estimated scf accuracy    <      39.74211672 Ry

     total magnetization       =    69.00 Bohr mag/cell
     absolute magnetization    =    81.17 Bohr mag/cell

     iteration #  2     ecut=    50.00 Ry     beta= 0.70
     Davidson diagonalization with overlap
     ethr =  1.00E-02,  avg # of iterations =  1.0

     negative rho (up, down):  2.356E-06 7.530E-09

     total cpu time spent up to now is       52.3 secs

     total energy              =   -6052.43686789 Ry
     estimated scf accuracy    <      25.57916956 Ry

     total magnetization       =    69.00 Bohr mag/cell
     absolute magnetization    =    76.77 Bohr mag/cell

     iteration #  3     ecut=    50.00 Ry     beta= 0.70
     Davidson diagonalization with overlap
     ethr =  7.64E-03,  avg # of iterations =  1.0

     total cpu time spent up to now is       70.7 secs

     total energy              =   -6055.17955762 Ry
     estimated scf accuracy    <      83.82920208 Ry

     total magnetization       =    66.12 Bohr mag/cell
     absolute magnetization    =    73.26 Bohr mag/cell

     iteration #  4     ecut=    50.00 Ry     beta= 0.70
     Davidson diagonalization with overlap
     ethr =  7.64E-03,  avg # of iterations =  1.0

     total cpu time spent up to now is       84.5 secs

     total energy              =   -6056.35826956 Ry
     estimated scf accuracy    <       5.80093899 Ry

     total magnetization       =    60.78 Bohr mag/cell
     absolute magnetization    =    70.53 Bohr mag/cell

     iteration #  5     ecut=    50.00 Ry     beta= 0.70
     Davidson diagonalization with overlap
     ethr =  1.73E-03,  avg # of iterations =  1.1

     total cpu time spent up to now is      102.5 secs

     total energy              =   -6056.36928377 Ry
     estimated scf accuracy    <       3.45079001 Ry

     total magnetization       =    60.60 Bohr mag/cell
     absolute magnetization    =    69.90 Bohr mag/cell

     iteration #  6     ecut=    50.00 Ry     beta= 0.70
     Davidson diagonalization with overlap
     ethr =  1.03E-03,  avg # of iterations =  1.4

     total cpu time spent up to now is      117.1 secs

     total energy              =   -6056.48223701 Ry
     estimated scf accuracy    <       0.54252300 Ry

     total magnetization       =    60.57 Bohr mag/cell
     absolute magnetization    =    69.65 Bohr mag/cell

     iteration #  7     ecut=    50.00 Ry     beta= 0.70
     Davidson diagonalization with overlap
     ethr =  1.62E-04,  avg # of iterations =  6.7

     total cpu time spent up to now is      142.6 secs

     total energy              =   -6056.51876343 Ry
     estimated scf accuracy    <       0.88186948 Ry

     total magnetization       =    60.84 Bohr mag/cell
     absolute magnetization    =    69.49 Bohr mag/cell

     iteration #  8     ecut=    50.00 Ry     beta= 0.70
     Davidson diagonalization with overlap
     ethr =  1.62E-04,  avg # of iterations =  1.6

     total cpu time spent up to now is      161.2 secs

     total energy              =   -6056.53535426 Ry
     estimated scf accuracy    <       0.18351367 Ry

     total magnetization       =    60.85 Bohr mag/cell
     absolute magnetization    =    69.37 Bohr mag/cell

     iteration #  9     ecut=    50.00 Ry     beta= 0.70
     Davidson diagonalization with overlap
     c_bands:  1 eigenvalues not converged
     ethr =  5.48E-05,  avg # of iterations =  8.1

     total cpu time spent up to now is      187.4 secs

     total energy              =   -6056.54178590 Ry
     estimated scf accuracy    <       0.13896153 Ry

     total magnetization       =    61.29 Bohr mag/cell
     absolute magnetization    =    69.45 Bohr mag/cell

     iteration # 10     ecut=    50.00 Ry     beta= 0.70
     Davidson diagonalization with overlap
     ethr =  4.15E-05,  avg # of iterations =  2.9

     total cpu time spent up to now is      202.8 secs

     total energy              =   -6056.54320001 Ry
     estimated scf accuracy    <       0.18874418 Ry

     total magnetization       =    61.32 Bohr mag/cell
     absolute magnetization    =    69.28 Bohr mag/cell

     iteration # 11     ecut=    50.00 Ry     beta= 0.70
     Davidson diagonalization with overlap
     ethr =  4.15E-05,  avg # of iterations =  1.7

     total cpu time spent up to now is      221.6 secs

     total energy              =   -6056.53933530 Ry
     estimated scf accuracy    <       0.10151199 Ry

     total magnetization       =    61.33 Bohr mag/cell
     absolute magnetization    =    69.19 Bohr mag/cell

     iteration # 12     ecut=    50.00 Ry     beta= 0.70
     Davidson diagonalization with overlap
     c_bands:  4 eigenvalues not converged
     ethr =  3.03E-05,  avg # of iterations =  3.0

     negative rho (up, down):  2.057E-08 0.000E+00

     total cpu time spent up to now is      238.0 secs

     total energy              =   -6056.54139339 Ry
     estimated scf accuracy    <       0.09596057 Ry

     total magnetization       =    61.34 Bohr mag/cell
     absolute magnetization    =    69.05 Bohr mag/cell

     iteration # 13     ecut=    50.00 Ry     beta= 0.70
     Davidson diagonalization with overlap
     ethr =  2.86E-05,  avg # of iterations =  1.5

     total cpu time spent up to now is      256.3 secs

     total energy              =   -6056.53825665 Ry
     estimated scf accuracy    <       0.09586217 Ry

     total magnetization       =    61.33 Bohr mag/cell
     absolute magnetization    =    68.99 Bohr mag/cell

     iteration # 14     ecut=    50.00 Ry     beta= 0.70
     Davidson diagonalization with overlap
     ethr =  2.86E-05,  avg # of iterations =  2.2

     negative rho (up, down):  3.011E-04 4.867E-05

     total cpu time spent up to now is      271.2 secs

     total energy              =   -6056.53226419 Ry
     estimated scf accuracy    <       0.06465954 Ry

     total magnetization       =    61.33 Bohr mag/cell
     absolute magnetization    =    68.99 Bohr mag/cell

     iteration # 15     ecut=    50.00 Ry     beta= 0.70
     Davidson diagonalization with overlap
     c_bands:  3 eigenvalues not converged
     c_bands:  3 eigenvalues not converged
     ethr =  1.93E-05,  avg # of iterations =  4.4

     negative rho (up, down):  9.808E-03 8.244E-03

     total cpu time spent up to now is      292.5 secs

     total energy              =   -6056.52910652 Ry
     estimated scf accuracy    <       0.13937595 Ry

     total magnetization       =    61.32 Bohr mag/cell
     absolute magnetization    =    68.91 Bohr mag/cell

     iteration # 16     ecut=    50.00 Ry     beta= 0.70
     Davidson diagonalization with overlap
     ethr =  1.93E-05,  avg # of iterations =  1.7

     negative rho (up, down):  1.685E-02 1.517E-02

     total cpu time spent up to now is      312.6 secs

     total energy              =   -6056.52959519 Ry
     estimated scf accuracy    <       0.02327757 Ry

     total magnetization       =    61.33 Bohr mag/cell
     absolute magnetization    =    68.89 Bohr mag/cell

     iteration # 17     ecut=    50.00 Ry     beta= 0.70
     Davidson diagonalization with overlap
     c_bands:  1 eigenvalues not converged
     c_bands:  1 eigenvalues not converged
     c_bands:  4 eigenvalues not converged
     ethr =  6.95E-06,  avg # of iterations = 10.8

     negative rho (up, down):  2.014E-02 1.842E-02

     total cpu time spent up to now is      340.0 secs

     total energy              =   -6056.52795876 Ry
     estimated scf accuracy    <       0.04456787 Ry

     total magnetization       =    61.32 Bohr mag/cell
     absolute magnetization    =    68.88 Bohr mag/cell

     iteration # 18     ecut=    50.00 Ry     beta= 0.70
     Davidson diagonalization with overlap
     ethr =  6.95E-06,  avg # of iterations =  1.7

     negative rho (up, down):  1.398E-02 1.257E-02

     total cpu time spent up to now is      354.2 secs

     total energy              =   -6056.52784745 Ry
     estimated scf accuracy    <       0.01728860 Ry

     total magnetization       =    61.32 Bohr mag/cell
     absolute magnetization    =    68.86 Bohr mag/cell

     iteration # 19     ecut=    50.00 Ry     beta= 0.70
     Davidson diagonalization with overlap
     ethr =  5.16E-06,  avg # of iterations =  1.7

     negative rho (up, down):  2.171E-02 2.002E-02

     total cpu time spent up to now is      374.0 secs

     total energy              =   -6056.52652685 Ry
     estimated scf accuracy    <       0.01420479 Ry

     total magnetization       =    61.32 Bohr mag/cell
     absolute magnetization    =    68.86 Bohr mag/cell

     iteration # 20     ecut=    50.00 Ry     beta= 0.70
     Davidson diagonalization with overlap
     ethr =  4.24E-06,  avg # of iterations =  2.5

     negative rho (up, down):  2.050E-02 1.939E-02

     total cpu time spent up to now is      389.0 secs

     total energy              =   -6056.52551477 Ry
     estimated scf accuracy    <       0.01233544 Ry

     total magnetization       =    61.32 Bohr mag/cell
     absolute magnetization    =    68.85 Bohr mag/cell

     iteration # 21     ecut=    50.00 Ry     beta= 0.70
     Davidson diagonalization with overlap
     ethr =  3.68E-06,  avg # of iterations =  1.7

     negative rho (up, down):  2.203E-02 2.092E-02

     total cpu time spent up to now is      407.8 secs

     total energy              =   -6056.52565545 Ry
     estimated scf accuracy    <       0.00888946 Ry

     total magnetization       =    61.32 Bohr mag/cell
     absolute magnetization    =    68.85 Bohr mag/cell

     iteration # 22     ecut=    50.00 Ry     beta= 0.70
     Davidson diagonalization with overlap
     c_bands:  1 eigenvalues not converged
     ethr =  2.65E-06,  avg # of iterations =  2.5

     negative rho (up, down):  1.810E-02 1.713E-02

     total cpu time spent up to now is      428.6 secs

     total energy              =   -6056.52564971 Ry
     estimated scf accuracy    <       0.00330998 Ry

     total magnetization       =    61.32 Bohr mag/cell
     absolute magnetization    =    68.85 Bohr mag/cell

     iteration # 23     ecut=    50.00 Ry     beta= 0.70
     Davidson diagonalization with overlap
     ethr =  9.88E-07,  avg # of iterations =  2.2

     negative rho (up, down):  1.630E-02 1.540E-02

     total cpu time spent up to now is      443.5 secs

     total energy              =   -6056.52568626 Ry
     estimated scf accuracy    <       0.00188814 Ry

     total magnetization       =    61.32 Bohr mag/cell
     absolute magnetization    =    68.85 Bohr mag/cell

     iteration # 24     ecut=    50.00 Ry     beta= 0.70
     Davidson diagonalization with overlap
     ethr =  5.64E-07,  avg # of iterations =  2.4

     negative rho (up, down):  9.872E-03 9.171E-03

     total cpu time spent up to now is      462.9 secs

     total energy              =   -6056.52575640 Ry
     estimated scf accuracy    <       0.00157337 Ry

     total magnetization       =    61.32 Bohr mag/cell
     absolute magnetization    =    68.86 Bohr mag/cell

     iteration # 25     ecut=    50.00 Ry     beta= 0.70
     Davidson diagonalization with overlap
     ethr =  4.70E-07,  avg # of iterations =  2.9

     negative rho (up, down):  9.599E-03 8.882E-03

     total cpu time spent up to now is      479.5 secs

     total energy              =   -6056.52567104 Ry
     estimated scf accuracy    <       0.00329507 Ry

     total magnetization       =    61.32 Bohr mag/cell
     absolute magnetization    =    68.86 Bohr mag/cell

     iteration # 26     ecut=    50.00 Ry     beta= 0.70
     Davidson diagonalization with overlap
     ethr =  4.70E-07,  avg # of iterations =  1.2

     negative rho (up, down):  5.752E-03 4.978E-03

     total cpu time spent up to now is      497.9 secs

     total energy              =   -6056.52578850 Ry
     estimated scf accuracy    <       0.00037766 Ry

     total magnetization       =    61.32 Bohr mag/cell
     absolute magnetization    =    68.86 Bohr mag/cell

     iteration # 27     ecut=    50.00 Ry     beta= 0.70
     Davidson diagonalization with overlap
     ethr =  1.13E-07,  avg # of iterations =  4.6

     negative rho (up, down):  5.318E-03 4.495E-03

     total cpu time spent up to now is      519.7 secs

     total energy              =   -6056.52585283 Ry
     estimated scf accuracy    <       0.00036043 Ry

     total magnetization       =    61.32 Bohr mag/cell
     absolute magnetization    =    68.86 Bohr mag/cell

     iteration # 28     ecut=    50.00 Ry     beta= 0.70
     Davidson diagonalization with overlap
     ethr =  1.08E-07,  avg # of iterations =  1.7

     negative rho (up, down):  5.136E-03 4.301E-03

     total cpu time spent up to now is      534.1 secs

     total energy              =   -6056.52584670 Ry
     estimated scf accuracy    <       0.00034785 Ry

     total magnetization       =    61.32 Bohr mag/cell
     absolute magnetization    =    68.86 Bohr mag/cell

     iteration # 29     ecut=    50.00 Ry     beta= 0.70
     Davidson diagonalization with overlap
     ethr =  1.04E-07,  avg # of iterations =  1.1

     negative rho (up, down):  4.628E-03 3.770E-03

     total cpu time spent up to now is      553.3 secs

     total energy              =   -6056.52583905 Ry
     estimated scf accuracy    <       0.00015755 Ry

     total magnetization       =    61.32 Bohr mag/cell
     absolute magnetization    =    68.86 Bohr mag/cell

     iteration # 30     ecut=    50.00 Ry     beta= 0.70
     Davidson diagonalization with overlap
     ethr =  4.70E-08,  avg # of iterations =  2.1

     negative rho (up, down):  3.763E-03 2.783E-03

     total cpu time spent up to now is      567.9 secs

     total energy              =   -6056.52584455 Ry
     estimated scf accuracy    <       0.00010569 Ry

     total magnetization       =    61.32 Bohr mag/cell
     absolute magnetization    =    68.86 Bohr mag/cell

     iteration # 31     ecut=    50.00 Ry     beta= 0.70
     Davidson diagonalization with overlap
     ethr =  3.15E-08,  avg # of iterations =  1.9

     negative rho (up, down):  3.220E-03 2.133E-03

     total cpu time spent up to now is      587.4 secs

     total energy              =   -6056.52584525 Ry
     estimated scf accuracy    <       0.00015776 Ry

     total magnetization       =    61.32 Bohr mag/cell
     absolute magnetization    =    68.86 Bohr mag/cell

     iteration # 32     ecut=    50.00 Ry     beta= 0.70
     Davidson diagonalization with overlap
     ethr =  3.15E-08,  avg # of iterations =  1.9

     negative rho (up, down):  3.204E-03 2.205E-03

     total cpu time spent up to now is      607.9 secs

     total energy              =   -6056.52585094 Ry
     estimated scf accuracy    <       0.00011960 Ry

     total magnetization       =    61.32 Bohr mag/cell
     absolute magnetization    =    68.85 Bohr mag/cell

     iteration # 33     ecut=    50.00 Ry     beta= 0.70
     Davidson diagonalization with overlap
     ethr =  3.15E-08,  avg # of iterations =  1.4

     negative rho (up, down):  3.189E-03 2.185E-03

     total cpu time spent up to now is      621.7 secs

     total energy              =   -6056.52585109 Ry
     estimated scf accuracy    <       0.00003911 Ry

     total magnetization       =    61.32 Bohr mag/cell
     absolute magnetization    =    68.85 Bohr mag/cell

     iteration # 34     ecut=    50.00 Ry     beta= 0.70
     Davidson diagonalization with overlap
     c_bands:  1 eigenvalues not converged
     c_bands:  1 eigenvalues not converged
     ethr =  1.17E-08,  avg # of iterations =  3.8

     negative rho (up, down):  3.045E-03 1.997E-03

     total cpu time spent up to now is      643.4 secs

     total energy              =   -6056.52584620 Ry
     estimated scf accuracy    <       0.00018508 Ry

     total magnetization       =    61.32 Bohr mag/cell
     absolute magnetization    =    68.85 Bohr mag/cell

     iteration # 35     ecut=    50.00 Ry     beta= 0.70
     Davidson diagonalization with overlap
     ethr =  1.17E-08,  avg # of iterations =  1.3

     negative rho (up, down):  3.084E-03 2.101E-03

     total cpu time spent up to now is      657.1 secs

     total energy              =   -6056.52585473 Ry
     estimated scf accuracy    <       0.00002602 Ry

     total magnetization       =    61.32 Bohr mag/cell
     absolute magnetization    =    68.85 Bohr mag/cell

     iteration # 36     ecut=    50.00 Ry     beta= 0.70
     Davidson diagonalization with overlap
     ethr =  7.77E-09,  avg # of iterations =  1.8

     negative rho (up, down):  3.001E-03 2.035E-03

     total cpu time spent up to now is      676.6 secs

     total energy              =   -6056.52585371 Ry
     estimated scf accuracy    <       0.00001379 Ry

     total magnetization       =    61.32 Bohr mag/cell
     absolute magnetization    =    68.85 Bohr mag/cell

     iteration # 37     ecut=    50.00 Ry     beta= 0.70
     Davidson diagonalization with overlap
     ethr =  4.12E-09,  avg # of iterations =  2.7

     negative rho (up, down):  2.807E-03 1.724E-03

     total cpu time spent up to now is      693.6 secs

     total energy              =   -6056.52584915 Ry
     estimated scf accuracy    <       0.00001208 Ry

     total magnetization       =    61.32 Bohr mag/cell
     absolute magnetization    =    68.85 Bohr mag/cell

     iteration # 38     ecut=    50.00 Ry     beta= 0.70
     Davidson diagonalization with overlap
     ethr =  3.61E-09,  avg # of iterations =  1.8

     negative rho (up, down):  2.671E-03 1.588E-03

     total cpu time spent up to now is      711.2 secs

     total energy              =   -6056.52584867 Ry
     estimated scf accuracy    <       0.00001697 Ry

     total magnetization       =    61.32 Bohr mag/cell
     absolute magnetization    =    68.85 Bohr mag/cell

     iteration # 39     ecut=    50.00 Ry     beta= 0.70
     Davidson diagonalization with overlap
     ethr =  3.61E-09,  avg # of iterations =  1.4

     negative rho (up, down):  2.588E-03 1.514E-03

     total cpu time spent up to now is      730.1 secs

     total energy              =   -6056.52584857 Ry
     estimated scf accuracy    <       0.00000795 Ry

     total magnetization       =    61.32 Bohr mag/cell
     absolute magnetization    =    68.85 Bohr mag/cell

     iteration # 40     ecut=    50.00 Ry     beta= 0.70
     Davidson diagonalization with overlap
     ethr =  2.37E-09,  avg # of iterations =  2.1

     negative rho (up, down):  2.559E-03 1.477E-03

     total cpu time spent up to now is      744.8 secs

     total energy              =   -6056.52584870 Ry
     estimated scf accuracy    <       0.00000927 Ry

     total magnetization       =    61.32 Bohr mag/cell
     absolute magnetization    =    68.85 Bohr mag/cell

     iteration # 41     ecut=    50.00 Ry     beta= 0.70
     Davidson diagonalization with overlap
     ethr =  2.37E-09,  avg # of iterations =  1.3

     negative rho (up, down):  2.416E-03 1.299E-03

     total cpu time spent up to now is      763.2 secs

     total energy              =   -6056.52584872 Ry
     estimated scf accuracy    <       0.00000439 Ry

     total magnetization       =    61.32 Bohr mag/cell
     absolute magnetization    =    68.85 Bohr mag/cell

     iteration # 42     ecut=    50.00 Ry     beta= 0.70
     Davidson diagonalization with overlap
     ethr =  1.31E-09,  avg # of iterations =  3.4

     negative rho (up, down):  2.376E-03 1.265E-03

     total cpu time spent up to now is      779.2 secs

     total energy              =   -6056.52584896 Ry
     estimated scf accuracy    <       0.00000403 Ry

     total magnetization       =    61.32 Bohr mag/cell
     absolute magnetization    =    68.85 Bohr mag/cell

     iteration # 43     ecut=    50.00 Ry     beta= 0.70
     Davidson diagonalization with overlap
     ethr =  1.20E-09,  avg # of iterations =  1.6

     negative rho (up, down):  2.295E-03 1.182E-03

     total cpu time spent up to now is      798.6 secs

     total energy              =   -6056.52584898 Ry
     estimated scf accuracy    <       0.00000282 Ry

     total magnetization       =    61.32 Bohr mag/cell
     absolute magnetization    =    68.85 Bohr mag/cell

     iteration # 44     ecut=    50.00 Ry     beta= 0.70
     Davidson diagonalization with overlap
     ethr =  8.41E-10,  avg # of iterations =  1.8

     negative rho (up, down):  2.248E-03 1.138E-03

     total cpu time spent up to now is      817.7 secs

     total energy              =   -6056.52584894 Ry
     estimated scf accuracy    <       0.00000212 Ry

     total magnetization       =    61.32 Bohr mag/cell
     absolute magnetization    =    68.85 Bohr mag/cell

     iteration # 45     ecut=    50.00 Ry     beta= 0.70
     Davidson diagonalization with overlap
     ethr =  6.32E-10,  avg # of iterations =  2.2

     negative rho (up, down):  2.183E-03 1.074E-03

     total cpu time spent up to now is      832.6 secs

     total energy              =   -6056.52584849 Ry
     estimated scf accuracy    <       0.00000569 Ry

     total magnetization       =    61.32 Bohr mag/cell
     absolute magnetization    =    68.85 Bohr mag/cell

     iteration # 46     ecut=    50.00 Ry     beta= 0.70
     Davidson diagonalization with overlap
     ethr =  6.32E-10,  avg # of iterations =  1.5

     negative rho (up, down):  2.249E-03 1.140E-03

     total cpu time spent up to now is      852.2 secs

     total energy              =   -6056.52584903 Ry
     estimated scf accuracy    <       0.00000174 Ry

     total magnetization       =    61.32 Bohr mag/cell
     absolute magnetization    =    68.85 Bohr mag/cell

     iteration # 47     ecut=    50.00 Ry     beta= 0.70
     Davidson diagonalization with overlap
     ethr =  5.20E-10,  avg # of iterations =  1.2

     negative rho (up, down):  2.211E-03 1.104E-03

     total cpu time spent up to now is      865.7 secs

     total energy              =   -6056.52584904 Ry
     estimated scf accuracy    <       0.00000045 Ry

     total magnetization       =    61.32 Bohr mag/cell
     absolute magnetization    =    68.85 Bohr mag/cell

     iteration # 48     ecut=    50.00 Ry     beta= 0.70
     Davidson diagonalization with overlap
     ethr =  1.33E-10,  avg # of iterations =  5.7

     negative rho (up, down):  2.205E-03 1.099E-03

     total cpu time spent up to now is      888.5 secs

     total energy              =   -6056.52584909 Ry
     estimated scf accuracy    <       0.00000024 Ry

     total magnetization       =    61.32 Bohr mag/cell
     absolute magnetization    =    68.85 Bohr mag/cell

     iteration # 49     ecut=    50.00 Ry     beta= 0.70
     Davidson diagonalization with overlap
     ethr =  7.30E-11,  avg # of iterations =  1.8

     negative rho (up, down):  2.208E-03 1.104E-03

     total cpu time spent up to now is      908.4 secs

     total energy              =   -6056.52584915 Ry
     estimated scf accuracy    <       0.00000015 Ry

     total magnetization       =    61.32 Bohr mag/cell
     absolute magnetization    =    68.85 Bohr mag/cell

     iteration # 50     ecut=    50.00 Ry     beta= 0.70
     Davidson diagonalization with overlap
     ethr =  4.57E-11,  avg # of iterations =  2.3

     negative rho (up, down):  2.195E-03 1.091E-03

     total cpu time spent up to now is      923.7 secs

     total energy              =   -6056.52584913 Ry
     estimated scf accuracy    <       0.00000010 Ry

     total magnetization       =    61.32 Bohr mag/cell
     absolute magnetization    =    68.85 Bohr mag/cell

     iteration # 51     ecut=    50.00 Ry     beta= 0.70
     Davidson diagonalization with overlap
     ethr =  3.10E-11,  avg # of iterations =  2.1

     negative rho (up, down):  2.204E-03 1.101E-03

     total cpu time spent up to now is      943.2 secs

     total energy              =   -6056.52584916 Ry
     estimated scf accuracy    <       0.00000002 Ry

     total magnetization       =    61.32 Bohr mag/cell
     absolute magnetization    =    68.85 Bohr mag/cell

     iteration # 52     ecut=    50.00 Ry     beta= 0.70
     Davidson diagonalization with overlap
     c_bands:  2 eigenvalues not converged
     ethr =  6.81E-12,  avg # of iterations =  6.8

     negative rho (up, down):  2.203E-03 1.101E-03

     total cpu time spent up to now is      967.7 secs

     total energy              =   -6056.52584918 Ry
     estimated scf accuracy    <       0.00000004 Ry

     total magnetization       =    61.32 Bohr mag/cell
     absolute magnetization    =    68.85 Bohr mag/cell

     iteration # 53     ecut=    50.00 Ry     beta= 0.70
     Davidson diagonalization with overlap
     ethr =  6.81E-12,  avg # of iterations =  2.0

     negative rho (up, down):  2.203E-03 1.102E-03

     total cpu time spent up to now is      983.6 secs

     total energy              =   -6056.52584918 Ry
     estimated scf accuracy    <       0.00000001 Ry

     total magnetization       =    61.32 Bohr mag/cell
     absolute magnetization    =    68.85 Bohr mag/cell

     iteration # 54     ecut=    50.00 Ry     beta= 0.70
     Davidson diagonalization with overlap
     ethr =  3.62E-12,  avg # of iterations =  2.0

     negative rho (up, down):  2.206E-03 1.104E-03

     total cpu time spent up to now is     1003.2 secs

     total energy              =   -6056.52584919 Ry
     estimated scf accuracy    <       0.00000002 Ry

     total magnetization       =    61.32 Bohr mag/cell
     absolute magnetization    =    68.85 Bohr mag/cell

     iteration # 55     ecut=    50.00 Ry     beta= 0.70
     Davidson diagonalization with overlap
     ethr =  3.62E-12,  avg # of iterations =  1.7

     negative rho (up, down):  2.209E-03 1.108E-03

     total cpu time spent up to now is     1017.9 secs

     total energy              =   -6056.52584920 Ry
     estimated scf accuracy    <       0.00000002 Ry

     total magnetization       =    61.32 Bohr mag/cell
     absolute magnetization    =    68.85 Bohr mag/cell

     iteration # 56     ecut=    50.00 Ry     beta= 0.70
     Davidson diagonalization with overlap
     ethr =  3.62E-12,  avg # of iterations =  2.1

     negative rho (up, down):  2.213E-03 1.112E-03

     Magnetic moment per site  (integrated on atomic sphere of radius R)
     atom   1 (R=0.103)  charge=  6.2381  magn=  1.7675
     atom   2 (R=0.103)  charge=  6.2380  magn=  1.7704
     atom   3 (R=0.103)  charge=  6.2382  magn=  1.7684
     atom   4 (R=0.103)  charge=  6.2386  magn=  1.7724
     atom   5 (R=0.103)  charge=  6.2382  magn=  1.7729
     atom   6 (R=0.103)  charge=  6.2385  magn=  1.7726
     atom   7 (R=0.103)  charge=  6.2383  magn=  1.7719
     atom   8 (R=0.103)  charge=  6.2384  magn=  1.7654
     atom   9 (R=0.103)  charge=  6.2387  magn=  1.7678
     atom  10 (R=0.103)  charge=  6.2443  magn=  1.7077
     atom  11 (R=0.103)  charge=  6.2448  magn=  1.6865
     atom  12 (R=0.103)  charge=  6.2448  magn=  1.7056
     atom  13 (R=0.103)  charge=  6.2445  magn=  1.7057
     atom  14 (R=0.103)  charge=  6.2452  magn=  1.6958
     atom  15 (R=0.103)  charge=  6.2450  magn=  1.6950
     atom  16 (R=0.103)  charge=  6.2442  magn=  1.6907
     atom  17 (R=0.103)  charge=  6.2448  magn=  1.7040
     atom  18 (R=0.103)  charge=  6.2450  magn=  1.6983
     atom  19 (R=0.103)  charge=  6.2419  magn=  1.7085
     atom  20 (R=0.103)  charge=  6.2444  magn=  1.6847
     atom  21 (R=0.103)  charge=  6.2436  magn=  1.7078
     atom  22 (R=0.103)  charge=  6.2453  magn=  1.6895
     atom  23 (R=0.103)  charge=  6.2452  magn=  1.6895
     atom  24 (R=0.103)  charge=  6.2448  magn=  1.7015
     atom  25 (R=0.103)  charge=  6.2444  magn=  1.6697
     atom  26 (R=0.103)  charge=  6.2404  magn=  1.7110
     atom  27 (R=0.103)  charge=  6.2469  magn=  1.6602
     atom  28 (R=0.103)  charge=  6.2427  magn=  1.6818
     atom  29 (R=0.103)  charge=  6.2662  magn=  1.1272
     atom  30 (R=0.103)  charge=  6.2393  magn=  1.7810
     atom  31 (R=0.103)  charge=  6.2471  magn=  1.7463
     atom  32 (R=0.103)  charge=  6.2396  magn=  1.7726
     atom  33 (R=0.103)  charge=  6.2420  magn=  1.7797
     atom  34 (R=0.103)  charge=  6.2392  magn=  1.7939
     atom  35 (R=0.103)  charge=  6.2426  magn=  1.7751
     atom  36 (R=0.103)  charge=  6.2375  magn=  1.7684
     atom  37 (R=0.061)  charge=  0.8415  magn= -0.0218
     atom  38 (R=0.070)  charge=  3.2249  magn= -0.0117
     atom  39 (R=0.061)  charge=  0.5080  magn= -0.0045

     total cpu time spent up to now is     1038.4 secs

     End of self-consistent calculation

 ------ SPIN UP ------------


          k = 0.0000 0.0000 0.0000 ( 51087 PWs)   bands (ev):

   -21.2657  -9.8346  -7.4808  -6.5646  -6.0984  -5.5106  -4.9963  -4.6126
    -4.5782  -4.5774  -4.5751  -4.5737  -4.5611  -4.5132  -4.2212  -4.0502
    -4.0462  -4.0443  -4.0414  -4.0195  -3.9807  -3.5363  -3.5330  -3.5272
    -3.5216  -3.5035  -3.4890  -3.4022  -3.3987  -3.3906  -3.3862  -3.3810
    -3.3655  -3.3254  -3.3170  -3.0109  -3.0089  -3.0074  -3.0062  -2.9524
    -2.9462  -2.9424  -2.9379  -2.9337  -2.9318  -2.9271  -2.9151  -2.7778
    -2.7739  -2.7148  -2.7100  -2.7082  -2.7045  -2.6954  -2.6911  -2.6738
    -2.6715  -2.6684  -2.6607  -2.5823  -2.5700  -2.5685  -2.5596  -2.5309
    -2.5128  -2.0658  -2.0489  -2.0288  -2.0267  -2.0265  -1.9499  -1.9421
    -1.9214  -1.8980  -1.8832  -1.8770  -1.8755  -1.8480  -1.8462  -1.8414
    -1.7992  -1.7957  -1.7727  -1.7515  -1.7474  -1.7243  -1.7190  -1.7168
    -1.7141  -1.7038  -1.6987  -1.6865  -1.6801  -1.6719  -1.6702  -1.6653
    -1.6608  -1.6597  -1.6539  -1.6535  -1.6512  -1.6480  -1.6423  -1.6391
    -1.6349  -1.6002  -1.5818  -1.5627  -1.5580  -1.4903  -1.4855  -1.4024
    -1.3135  -1.2088  -1.2064  -1.2017  -1.2010  -1.1852  -1.1713  -1.1615
    -1.1559  -1.1290  -1.1188  -1.1116  -1.0707  -1.0501  -0.9957  -0.9851
    -0.9718  -0.9585  -0.8906  -0.7980  -0.7879  -0.7737  -0.7596  -0.7569
    -0.7356  -0.7154  -0.7132  -0.7110  -0.7092  -0.6953  -0.6443  -0.5907
    -0.5543  -0.4714  -0.4667  -0.4622  -0.4267  -0.4128  -0.4061  -0.3993
    -0.3955  -0.3929  -0.3908  -0.3828  -0.3782  -0.3776  -0.3750  -0.3705
    -0.3580  -0.3540  -0.3290  -0.3276  -0.3206  -0.3176  -0.3168  -0.2999
    -0.2913  -0.2899  -0.2692  -0.2638  -0.2614  -0.2544  -0.2430  -0.2378
    -0.2365  -0.2350  -0.2027  -0.1887  -0.1764  -0.1649  -0.1594  -0.1578
    -0.1535  -0.1481  -0.1404  -0.1268  -0.1152  -0.1042  -0.0726  -0.0698
    -0.0662  -0.0617  -0.0023   0.0002   0.0048   0.0056   0.0304   0.0634
     0.4152   0.9012

          k = 0.0000 0.2309 0.0000 ( 51134 PWs)   bands (ev):

   -21.2657  -9.8344  -7.3339  -6.5281  -6.0240  -5.5318  -5.2802  -4.9913
    -4.8295  -4.8166  -4.4567  -4.3079  -4.2402  -4.2354  -4.1684  -4.1184
    -4.0943  -4.0625  -3.9622  -3.9260  -3.9063  -3.6526  -3.5483  -3.5302
    -3.4523  -3.4265  -3.4204  -3.4071  -3.4031  -3.3862  -3.3798  -3.3646
    -3.3264  -3.2859  -3.2811  -3.2573  -3.2506  -3.0513  -3.0270  -3.0228
    -2.9719  -2.9699  -2.9630  -2.9507  -2.8737  -2.8434  -2.8330  -2.8054
    -2.7982  -2.7927  -2.7690  -2.7481  -2.6782  -2.6623  -2.6330  -2.6102
    -2.5819  -2.5671  -2.5559  -2.5490  -2.5206  -2.5116  -2.4933  -2.4853
    -2.4201  -2.1517  -2.1449  -2.1242  -2.1083  -2.0891  -2.0199  -2.0085
    -1.9964  -1.9950  -1.9752  -1.9711  -1.9533  -1.9291  -1.9142  -1.8640
    -1.8565  -1.8449  -1.8311  -1.8159  -1.7851  -1.7827  -1.7760  -1.7687
    -1.7548  -1.7468  -1.7437  -1.7385  -1.7221  -1.6872  -1.6577  -1.6487
    -1.6340  -1.5826  -1.5664  -1.5646  -1.5479  -1.5424  -1.5370  -1.5249
    -1.5118  -1.5069  -1.5021  -1.4958  -1.4711  -1.4662  -1.4560  -1.4362
    -1.4300  -1.4193  -1.3912  -1.3657  -1.3268  -1.2930  -1.2391  -1.2300
    -1.2222  -1.2103  -1.2006  -1.1936  -1.1887  -1.1821  -1.0759  -1.0371
    -1.0275  -1.0077  -0.9710  -0.9345  -0.9277  -0.8786  -0.8663  -0.8404
    -0.8054  -0.7446  -0.7400  -0.7169  -0.7058  -0.6864  -0.6820  -0.6635
    -0.6510  -0.6254  -0.6231  -0.5841  -0.5637  -0.5569  -0.5427  -0.5254
    -0.5138  -0.4959  -0.4658  -0.4597  -0.4326  -0.4204  -0.4038  -0.3911
    -0.3873  -0.3816  -0.3681  -0.3638  -0.3551  -0.3364  -0.3300  -0.3203
    -0.2735  -0.2559  -0.2503  -0.2175  -0.2050  -0.1991  -0.1666  -0.1438
    -0.1405  -0.1312  -0.1234  -0.1102  -0.0975  -0.0889  -0.0814  -0.0514
    -0.0412  -0.0029   0.0088   0.0121   0.0346   0.0399   0.0789   0.0976
     0.1041   0.1452   0.3730   0.3922   0.4956   0.5925   0.6388   0.6806
     0.7608   0.7693

          k = 0.0000 0.4619 0.0000 ( 51204 PWs)   bands (ev):

   -21.2657  -9.8341  -6.9189  -6.4939  -6.1494  -5.8150  -5.3918  -5.0150
    -4.9664  -4.9506  -4.7685  -4.1213  -4.0951  -4.0708  -4.0471  -3.9835
    -3.8830  -3.8783  -3.8365  -3.7502  -3.7450  -3.7335  -3.6450  -3.5673
    -3.5582  -3.5570  -3.5503  -3.4987  -3.4512  -3.4407  -3.4328  -3.2900
    -3.2751  -3.2674  -3.2585  -3.2344  -3.2286  -3.1265  -3.1175  -3.1049
    -3.1025  -3.0980  -2.9753  -2.9001  -2.8831  -2.8065  -2.7892  -2.7732
    -2.7523  -2.7224  -2.7136  -2.7084  -2.6970  -2.6741  -2.6248  -2.6091
    -2.5787  -2.5597  -2.5377  -2.4179  -2.3993  -2.3966  -2.3683  -2.3372
    -2.2870  -2.2748  -2.2651  -2.2499  -2.1837  -2.1525  -2.1235  -2.1161
    -2.1128  -2.1046  -2.0861  -2.0835  -2.0734  -2.0458  -2.0162  -1.9845
    -1.9765  -1.9493  -1.9449  -1.9239  -1.9010  -1.8667  -1.8379  -1.7963
    -1.7912  -1.7677  -1.7613  -1.7394  -1.7006  -1.6852  -1.6778  -1.6734
    -1.6621  -1.6340  -1.6261  -1.6102  -1.5927  -1.5895  -1.5762  -1.5654
    -1.5503  -1.5284  -1.4972  -1.4577  -1.4172  -1.4113  -1.4044  -1.3716
    -1.3478  -1.3255  -1.3101  -1.2937  -1.2600  -1.2499  -1.2433  -1.2383
    -1.2331  -1.2253  -1.2193  -1.2092  -1.1998  -1.1888  -1.1785  -1.1730
    -1.1415  -1.1098  -1.0784  -1.0537  -1.0181  -1.0008  -0.9867  -0.9461
    -0.9319  -0.9197  -0.8845  -0.8761  -0.8506  -0.8269  -0.8004  -0.7866
    -0.7409  -0.7338  -0.6879  -0.6727  -0.6559  -0.6402  -0.6271  -0.5612
    -0.5352  -0.4884  -0.4788  -0.4645  -0.4609  -0.4543  -0.4417  -0.4386
    -0.4193  -0.4103  -0.3449  -0.3195  -0.3007  -0.2987  -0.2907  -0.2870
    -0.2696  -0.2526  -0.2401  -0.2235  -0.2175  -0.1945  -0.1336  -0.1133
    -0.1090  -0.0949  -0.0839  -0.0392  -0.0168   0.0099   0.0206   0.0573
     0.0666   0.1059   0.1129   0.1305   0.1352   0.1386   0.1639   0.1734
     0.2382   0.2719   0.4096   0.8635   1.1698   1.3552   1.3820   1.4259
     1.6787   1.7524

          k = 0.2000-0.1155 0.0000 ( 51134 PWs)   bands (ev):

   -21.2657  -9.8354  -7.3325  -6.5276  -6.0176  -5.5126  -5.3047  -5.0025
    -4.8188  -4.8041  -4.4629  -4.3371  -4.2381  -4.2334  -4.1719  -4.1248
    -4.0824  -4.0437  -3.9750  -3.9206  -3.9014  -3.6556  -3.5451  -3.5338
    -3.4557  -3.4347  -3.4092  -3.4055  -3.4015  -3.3915  -3.3797  -3.3620
    -3.3285  -3.2827  -3.2809  -3.2545  -3.2514  -3.0560  -3.0276  -3.0204
    -2.9715  -2.9701  -2.9592  -2.9534  -2.8835  -2.8400  -2.8334  -2.8077
    -2.7986  -2.7967  -2.7610  -2.7486  -2.6766  -2.6619  -2.6428  -2.6029
    -2.5896  -2.5602  -2.5572  -2.5306  -2.5261  -2.5023  -2.4967  -2.4858
    -2.4289  -2.1506  -2.1457  -2.1237  -2.1135  -2.0909  -2.0225  -2.0084
    -1.9992  -1.9915  -1.9861  -1.9669  -1.9533  -1.9331  -1.9133  -1.8639
    -1.8519  -1.8437  -1.8333  -1.8018  -1.7877  -1.7805  -1.7711  -1.7667
    -1.7564  -1.7501  -1.7419  -1.7389  -1.7213  -1.6936  -1.6647  -1.6464
    -1.6313  -1.5901  -1.5710  -1.5594  -1.5520  -1.5456  -1.5362  -1.5316
    -1.5161  -1.5045  -1.5010  -1.4955  -1.4867  -1.4736  -1.4606  -1.4449
    -1.4260  -1.4150  -1.4012  -1.3530  -1.3071  -1.2823  -1.2438  -1.2268
    -1.2184  -1.2121  -1.1996  -1.1960  -1.1865  -1.1717  -1.0499  -1.0335
    -1.0121  -0.9968  -0.9708  -0.9388  -0.9189  -0.9021  -0.8683  -0.8366
    -0.8146  -0.7617  -0.7322  -0.7262  -0.7133  -0.6891  -0.6699  -0.6530
    -0.6508  -0.6331  -0.6108  -0.5888  -0.5665  -0.5585  -0.5411  -0.5376
    -0.5316  -0.4895  -0.4651  -0.4616  -0.4465  -0.4135  -0.4026  -0.3875
    -0.3864  -0.3799  -0.3738  -0.3694  -0.3522  -0.3410  -0.3308  -0.3072
    -0.2737  -0.2494  -0.2479  -0.2180  -0.2046  -0.1850  -0.1710  -0.1434
    -0.1386  -0.1327  -0.1238  -0.1127  -0.0953  -0.0886  -0.0820  -0.0567
    -0.0331   0.0005   0.0109   0.0220   0.0364   0.0385   0.0833   0.0894
     0.1201   0.1521   0.3794   0.3867   0.4519   0.5573   0.6480   0.6535
     0.7065   0.8540

          k = 0.2000 0.1155 0.0000 ( 51134 PWs)   bands (ev):

   -21.2657  -9.8355  -7.3325  -6.5279  -6.0166  -5.5119  -5.2996  -5.0139
    -4.8180  -4.7975  -4.4682  -4.3381  -4.2382  -4.2333  -4.1719  -4.1243
    -4.0791  -4.0445  -3.9755  -3.9189  -3.9019  -3.6595  -3.5420  -3.5338
    -3.4591  -3.4372  -3.4089  -3.4068  -3.3985  -3.3915  -3.3774  -3.3607
    -3.3301  -3.2833  -3.2787  -3.2542  -3.2516  -3.0522  -3.0260  -3.0205
    -2.9716  -2.9683  -2.9603  -2.9539  -2.8784  -2.8381  -2.8345  -2.8079
    -2.8010  -2.7952  -2.7634  -2.7532  -2.6755  -2.6636  -2.6479  -2.5972
    -2.5914  -2.5598  -2.5574  -2.5304  -2.5231  -2.5085  -2.4926  -2.4842
    -2.4298  -2.1521  -2.1466  -2.1185  -2.1110  -2.0909  -2.0186  -2.0053
    -1.9949  -1.9909  -1.9847  -1.9689  -1.9602  -1.9378  -1.9160  -1.8664
    -1.8535  -1.8383  -1.8340  -1.8039  -1.7874  -1.7819  -1.7705  -1.7624
    -1.7575  -1.7501  -1.7421  -1.7372  -1.7180  -1.6951  -1.6735  -1.6431
    -1.6291  -1.5974  -1.5639  -1.5623  -1.5514  -1.5464  -1.5366  -1.5258
    -1.5134  -1.5073  -1.5037  -1.5002  -1.4882  -1.4677  -1.4553  -1.4399
    -1.4288  -1.4199  -1.4077  -1.3500  -1.3100  -1.2873  -1.2424  -1.2269
    -1.2201  -1.2107  -1.1980  -1.1932  -1.1876  -1.1703  -1.0835  -1.0413
    -1.0149  -0.9987  -0.9579  -0.9384  -0.9213  -0.8930  -0.8628  -0.8438
    -0.8057  -0.7463  -0.7324  -0.7208  -0.7024  -0.6901  -0.6835  -0.6635
    -0.6509  -0.6309  -0.6141  -0.5811  -0.5634  -0.5575  -0.5395  -0.5347
    -0.5262  -0.4942  -0.4663  -0.4603  -0.4424  -0.4163  -0.4057  -0.3934
    -0.3870  -0.3810  -0.3728  -0.3650  -0.3473  -0.3411  -0.3322  -0.3091
    -0.2705  -0.2543  -0.2530  -0.2172  -0.2029  -0.1937  -0.1655  -0.1493
    -0.1369  -0.1331  -0.1179  -0.1103  -0.0945  -0.0854  -0.0833  -0.0455
    -0.0348  -0.0030   0.0106   0.0193   0.0355   0.0398   0.0790   0.0879
     0.1074   0.1456   0.3737   0.3896   0.4655   0.5610   0.6446   0.6745
     0.7035   0.8542

          k = 0.2000 0.3464 0.0000 ( 51202 PWs)   bands (ev):

   -21.2657  -9.8353  -7.0494  -6.4896  -5.8846  -5.6819  -5.6547  -5.3497
    -4.9889  -4.5620  -4.4607  -4.2438  -4.2406  -4.1977  -4.0258  -4.0208
    -3.9293  -3.9245  -3.9079  -3.7927  -3.7850  -3.6564  -3.6449  -3.5809
    -3.5366  -3.4466  -3.4387  -3.4174  -3.4013  -3.3888  -3.3791  -3.3577
    -3.3446  -3.3171  -3.3079  -3.2695  -3.2314  -3.1870  -3.1805  -3.0547
    -3.0422  -2.9666  -2.9545  -2.9312  -2.9033  -2.8973  -2.8099  -2.7616
    -2.7547  -2.7355  -2.7256  -2.7131  -2.6759  -2.6687  -2.6491  -2.6349
    -2.6190  -2.5051  -2.4961  -2.4473  -2.4393  -2.4204  -2.3849  -2.3785
    -2.3678  -2.2766  -2.1842  -2.1789  -2.1497  -2.1328  -2.1131  -2.0944
    -2.0883  -2.0699  -2.0536  -2.0358  -2.0341  -2.0195  -2.0076  -1.9929
    -1.9726  -1.9460  -1.9067  -1.8766  -1.8242  -1.8141  -1.7954  -1.7841
    -1.7628  -1.7483  -1.7221  -1.7122  -1.6836  -1.6685  -1.6596  -1.6568
    -1.6449  -1.6359  -1.6234  -1.6194  -1.6016  -1.5955  -1.5754  -1.5579
    -1.5529  -1.5280  -1.5050  -1.4863  -1.4728  -1.4474  -1.4379  -1.4211
    -1.4135  -1.3979  -1.3813  -1.3672  -1.3342  -1.3117  -1.2936  -1.2629
    -1.2542  -1.2457  -1.2320  -1.2174  -1.2048  -1.1884  -1.1834  -1.1348
    -1.0969  -1.0852  -1.0572  -1.0427  -0.9796  -0.9469  -0.9305  -0.8900
    -0.8279  -0.8176  -0.8079  -0.7915  -0.7863  -0.7659  -0.7590  -0.7320
    -0.7257  -0.7056  -0.6827  -0.6708  -0.6466  -0.6319  -0.6151  -0.6102
    -0.5900  -0.5699  -0.5582  -0.5304  -0.5230  -0.5094  -0.4580  -0.3866
    -0.3629  -0.3418  -0.3278  -0.3215  -0.3100  -0.2843  -0.2775  -0.2713
    -0.2674  -0.2356  -0.1846  -0.1677  -0.1590  -0.1543  -0.1244  -0.1007
    -0.0951  -0.0862  -0.0786  -0.0581  -0.0543  -0.0421  -0.0353  -0.0264
    -0.0077   0.0626   0.0744   0.0876   0.1010   0.1338   0.1435   0.1565
     0.4495   0.4790   0.4915   0.6698   0.7868   0.8404   1.1224   1.3690
     1.3873   1.6067

          k = 0.2000-0.5774 0.0000 ( 51262 PWs)   bands (ev):

   -21.2657  -9.8351  -6.6635  -6.4370  -6.2982  -5.8061  -5.6846  -5.2880
    -4.9576  -4.8677  -4.5825  -4.2312  -3.9869  -3.9383  -3.8286  -3.8113
    -3.8090  -3.7820  -3.7768  -3.7572  -3.7156  -3.6969  -3.6964  -3.6926
    -3.6057  -3.5925  -3.5474  -3.5445  -3.5188  -3.5116  -3.4146  -3.3726
    -3.3625  -3.3531  -3.3337  -3.2910  -3.2138  -3.1896  -3.0722  -3.0643
    -3.0624  -2.9851  -2.9679  -2.9534  -2.9338  -2.8575  -2.8510  -2.8416
    -2.7804  -2.7681  -2.6913  -2.6600  -2.6283  -2.6223  -2.5824  -2.5645
    -2.4877  -2.4822  -2.4700  -2.4608  -2.4471  -2.4193  -2.4026  -2.3452
    -2.2722  -2.2679  -2.2555  -2.2466  -2.2057  -2.1877  -2.1366  -2.1279
    -2.1014  -2.0863  -2.0743  -2.0687  -2.0516  -2.0228  -2.0055  -1.9949
    -1.9897  -1.9809  -1.9486  -1.9369  -1.9314  -1.8819  -1.8620  -1.8395
    -1.8311  -1.7943  -1.7591  -1.7380  -1.7172  -1.6922  -1.6810  -1.6626
    -1.6545  -1.6445  -1.6344  -1.6266  -1.6183  -1.5909  -1.5854  -1.5766
    -1.5358  -1.5023  -1.4909  -1.4857  -1.4709  -1.4665  -1.4578  -1.4513
    -1.4436  -1.4244  -1.4146  -1.3831  -1.3768  -1.3551  -1.3260  -1.3080
    -1.2653  -1.2379  -1.2312  -1.1897  -1.1767  -1.1705  -1.1529  -1.1037
    -1.0804  -1.0672  -1.0629  -1.0083  -0.9799  -0.9517  -0.9369  -0.9221
    -0.9037  -0.8993  -0.8827  -0.8678  -0.8309  -0.8226  -0.8008  -0.7756
    -0.7597  -0.7336  -0.7163  -0.7015  -0.6941  -0.6651  -0.6265  -0.6191
    -0.6060  -0.5914  -0.5789  -0.5635  -0.5372  -0.5085  -0.4939  -0.4404
    -0.3578  -0.3215  -0.3117  -0.3016  -0.2992  -0.2921  -0.2834  -0.2716
    -0.2427  -0.2304  -0.2174  -0.2101  -0.1562  -0.1474  -0.0925  -0.0889
    -0.0655  -0.0570  -0.0527  -0.0318   0.0086   0.0133   0.0217   0.0331
     0.0399   0.1033   0.1138   0.1198   0.1343   0.1458   0.1664   0.2029
     0.3028   0.5206   0.5851   0.8797   1.3822   1.4263   1.4684   1.7103
     1.9036   1.9728

          k = 0.2000-0.3464 0.0000 ( 51202 PWs)   bands (ev):

   -21.2657  -9.8351  -7.0493  -6.4897  -5.8862  -5.6845  -5.6536  -5.3511
    -4.9836  -4.5665  -4.4548  -4.2463  -4.2411  -4.1946  -4.0252  -4.0211
    -3.9285  -3.9252  -3.9063  -3.7970  -3.7833  -3.6531  -3.6447  -3.5820
    -3.5374  -3.4484  -3.4399  -3.4115  -3.4023  -3.3903  -3.3792  -3.3561
    -3.3448  -3.3198  -3.3021  -3.2711  -3.2336  -3.1931  -3.1772  -3.0593
    -3.0437  -2.9656  -2.9593  -2.9298  -2.9109  -2.8929  -2.8092  -2.7714
    -2.7525  -2.7319  -2.7253  -2.7103  -2.6788  -2.6655  -2.6462  -2.6294
    -2.6191  -2.5123  -2.4918  -2.4481  -2.4375  -2.4185  -2.3886  -2.3784
    -2.3707  -2.2774  -2.1889  -2.1799  -2.1528  -2.1300  -2.1174  -2.0968
    -2.0915  -2.0699  -2.0537  -2.0397  -2.0262  -2.0213  -2.0087  -1.9920
    -1.9751  -1.9576  -1.8979  -1.8538  -1.8223  -1.8088  -1.7989  -1.7866
    -1.7658  -1.7341  -1.7302  -1.7110  -1.6926  -1.6677  -1.6622  -1.6556
    -1.6481  -1.6358  -1.6251  -1.6146  -1.6021  -1.5832  -1.5750  -1.5576
    -1.5400  -1.5274  -1.5068  -1.4893  -1.4727  -1.4590  -1.4281  -1.4228
    -1.4089  -1.3931  -1.3828  -1.3575  -1.3258  -1.3080  -1.2926  -1.2761
    -1.2539  -1.2455  -1.2365  -1.2163  -1.2050  -1.1935  -1.1754  -1.1381
    -1.0978  -1.0833  -1.0648  -1.0218  -0.9834  -0.9490  -0.9355  -0.9114
    -0.8289  -0.8119  -0.8073  -0.7957  -0.7853  -0.7789  -0.7483  -0.7342
    -0.7294  -0.7031  -0.6842  -0.6739  -0.6407  -0.6281  -0.6231  -0.6118
    -0.6008  -0.5817  -0.5429  -0.5306  -0.5189  -0.5104  -0.4506  -0.3832
    -0.3653  -0.3419  -0.3253  -0.3186  -0.3140  -0.2869  -0.2789  -0.2733
    -0.2533  -0.2369  -0.1794  -0.1739  -0.1674  -0.1568  -0.1234  -0.1065
    -0.0945  -0.0857  -0.0802  -0.0648  -0.0527  -0.0452  -0.0369  -0.0227
    -0.0068   0.0563   0.0795   0.0905   0.0982   0.1328   0.1453   0.1716
     0.4619   0.4804   0.4875   0.6739   0.7947   0.8388   1.1313   1.3545
     1.3753   1.5672

          k = 0.4000-0.2309 0.0000 ( 51204 PWs)   bands (ev):

   -21.2657  -9.8366  -6.9129  -6.4913  -6.1438  -5.7998  -5.3829  -5.0563
    -4.9672  -4.9094  -4.8132  -4.1414  -4.0794  -4.0682  -4.0254  -3.9966
    -3.8801  -3.8776  -3.8390  -3.7496  -3.7427  -3.7380  -3.6539  -3.5637
    -3.5601  -3.5526  -3.5516  -3.4992  -3.4550  -3.4453  -3.4367  -3.2778
    -3.2721  -3.2708  -3.2499  -3.2319  -3.2293  -3.1247  -3.1196  -3.1072
    -3.1033  -3.0968  -2.9898  -2.8924  -2.8873  -2.8046  -2.7951  -2.7651
    -2.7554  -2.7233  -2.7151  -2.7099  -2.6875  -2.6823  -2.6178  -2.6105
    -2.5862  -2.5549  -2.5422  -2.4100  -2.4042  -2.3885  -2.3760  -2.3396
    -2.2903  -2.2769  -2.2673  -2.2492  -2.1867  -2.1415  -2.1198  -2.1162
    -2.1155  -2.0962  -2.0834  -2.0774  -2.0715  -2.0459  -2.0255  -2.0063
    -1.9685  -1.9515  -1.9372  -1.9104  -1.9020  -1.8661  -1.8293  -1.8006
    -1.7868  -1.7848  -1.7655  -1.7457  -1.7139  -1.6864  -1.6814  -1.6740
    -1.6616  -1.6383  -1.6305  -1.6072  -1.6030  -1.5920  -1.5703  -1.5647
    -1.5526  -1.5392  -1.4894  -1.4478  -1.4247  -1.4109  -1.3810  -1.3724
    -1.3539  -1.3198  -1.3063  -1.2811  -1.2632  -1.2519  -1.2463  -1.2414
    -1.2395  -1.2279  -1.2227  -1.2053  -1.1986  -1.1881  -1.1708  -1.1598
    -1.1404  -1.1090  -1.0723  -1.0396  -1.0114  -0.9941  -0.9809  -0.9512
    -0.9383  -0.9117  -0.8865  -0.8785  -0.8589  -0.8401  -0.8155  -0.7691
    -0.7371  -0.7098  -0.6902  -0.6744  -0.6535  -0.6372  -0.6261  -0.6046
    -0.5377  -0.4885  -0.4766  -0.4677  -0.4587  -0.4553  -0.4433  -0.4390
    -0.4246  -0.4109  -0.3348  -0.3203  -0.3080  -0.2881  -0.2815  -0.2735
    -0.2622  -0.2582  -0.2445  -0.2379  -0.2159  -0.1953  -0.1318  -0.1119
    -0.1077  -0.0902  -0.0725  -0.0598  -0.0158   0.0060   0.0223   0.0577
     0.0684   0.1101   0.1117   0.1304   0.1359   0.1419   0.1565   0.1818
     0.2378   0.2797   0.3694   0.9480   1.1490   1.3256   1.3768   1.3951
     1.6220   1.7808

          k = 0.4000 0.0000 0.0000 ( 51202 PWs)   bands (ev):

   -21.2657  -9.8369  -7.0454  -6.4901  -5.8706  -5.6673  -5.6615  -5.3599
    -5.0009  -4.5270  -4.4983  -4.2512  -4.2421  -4.1915  -4.0277  -4.0219
    -3.9287  -3.9263  -3.9211  -3.7912  -3.7711  -3.6570  -3.6475  -3.5779
    -3.5351  -3.4445  -3.4358  -3.4146  -3.4013  -3.3897  -3.3749  -3.3663
    -3.3412  -3.3153  -3.3110  -3.2701  -3.2298  -3.1900  -3.1769  -3.0598
    -3.0401  -2.9684  -2.9515  -2.9270  -2.9147  -2.9000  -2.8174  -2.7684
    -2.7510  -2.7305  -2.7254  -2.7096  -2.6651  -2.6631  -2.6550  -2.6374
    -2.6193  -2.5115  -2.4881  -2.4449  -2.4404  -2.4287  -2.3846  -2.3790
    -2.3714  -2.2595  -2.1915  -2.1800  -2.1586  -2.1386  -2.1048  -2.0904
    -2.0765  -2.0710  -2.0603  -2.0468  -2.0375  -2.0204  -2.0162  -1.9947
    -1.9705  -1.9384  -1.9064  -1.8714  -1.8295  -1.8165  -1.7983  -1.7761
    -1.7692  -1.7430  -1.7269  -1.7204  -1.6834  -1.6677  -1.6587  -1.6560
    -1.6466  -1.6386  -1.6294  -1.6141  -1.6082  -1.5906  -1.5733  -1.5580
    -1.5479  -1.5267  -1.5047  -1.4843  -1.4676  -1.4495  -1.4462  -1.4189
    -1.4102  -1.3843  -1.3796  -1.3572  -1.3350  -1.3087  -1.2946  -1.2717
    -1.2550  -1.2425  -1.2373  -1.2147  -1.2110  -1.1873  -1.1677  -1.1348
    -1.0891  -1.0718  -1.0652  -1.0265  -0.9761  -0.9554  -0.9315  -0.9034
    -0.8310  -0.8120  -0.8105  -0.7848  -0.7822  -0.7673  -0.7595  -0.7422
    -0.7255  -0.7074  -0.6906  -0.6791  -0.6464  -0.6359  -0.6184  -0.6145
    -0.6001  -0.5722  -0.5443  -0.5318  -0.5193  -0.5027  -0.4387  -0.4048
    -0.3640  -0.3390  -0.3284  -0.3198  -0.3101  -0.2853  -0.2791  -0.2735
    -0.2511  -0.2437  -0.1864  -0.1758  -0.1575  -0.1517  -0.1166  -0.1105
    -0.0878  -0.0853  -0.0790  -0.0651  -0.0486  -0.0432  -0.0372  -0.0198
    -0.0077   0.0603   0.0745   0.0880   0.0978   0.1324   0.1374   0.1702
     0.4766   0.4822   0.5419   0.5525   0.8189   0.8311   1.1341   1.3555
     1.3851   1.6220

          k = 0.4000 0.2309 0.0000 ( 51204 PWs)   bands (ev):

   -21.2657  -9.8370  -6.9134  -6.4919  -6.1405  -5.7977  -5.3761  -5.0689
    -4.9670  -4.8963  -4.8284  -4.1424  -4.0751  -4.0684  -4.0268  -3.9972
    -3.8797  -3.8774  -3.8411  -3.7517  -3.7438  -3.7369  -3.6567  -3.5635
    -3.5601  -3.5520  -3.5507  -3.5015  -3.4570  -3.4451  -3.4349  -3.2775
    -3.2720  -3.2670  -3.2498  -3.2305  -3.2273  -3.1223  -3.1161  -3.1034
    -3.1008  -3.0977  -2.9850  -2.8945  -2.8848  -2.8030  -2.7968  -2.7675
    -2.7571  -2.7248  -2.7157  -2.7090  -2.6910  -2.6851  -2.6178  -2.6082
    -2.5830  -2.5489  -2.5460  -2.4063  -2.4032  -2.3881  -2.3748  -2.3398
    -2.2925  -2.2794  -2.2684  -2.2498  -2.1863  -2.1486  -2.1213  -2.1175
    -2.1152  -2.0996  -2.0854  -2.0741  -2.0685  -2.0463  -2.0309  -2.0039
    -1.9674  -1.9526  -1.9367  -1.9162  -1.8960  -1.8622  -1.8268  -1.7957
    -1.7866  -1.7790  -1.7591  -1.7426  -1.7111  -1.6838  -1.6813  -1.6698
    -1.6631  -1.6355  -1.6300  -1.6102  -1.6023  -1.5908  -1.5785  -1.5668
    -1.5554  -1.5364  -1.4916  -1.4742  -1.4273  -1.4071  -1.3866  -1.3741
    -1.3496  -1.3246  -1.3075  -1.2927  -1.2606  -1.2544  -1.2474  -1.2390
    -1.2377  -1.2317  -1.2201  -1.2119  -1.1983  -1.1866  -1.1734  -1.1609
    -1.1478  -1.1057  -1.0786  -1.0389  -1.0056  -0.9998  -0.9909  -0.9611
    -0.9306  -0.9193  -0.8811  -0.8707  -0.8602  -0.8125  -0.7992  -0.7675
    -0.7422  -0.6979  -0.6943  -0.6735  -0.6548  -0.6321  -0.6258  -0.5923
    -0.5495  -0.4875  -0.4766  -0.4680  -0.4577  -0.4539  -0.4428  -0.4370
    -0.4311  -0.4134  -0.3404  -0.3158  -0.2992  -0.2971  -0.2861  -0.2780
    -0.2682  -0.2465  -0.2418  -0.2316  -0.2209  -0.1998  -0.1298  -0.1141
    -0.1053  -0.1008  -0.0764  -0.0434  -0.0167   0.0077   0.0205   0.0594
     0.0677   0.1079   0.1133   0.1306   0.1358   0.1394   0.1534   0.1817
     0.2383   0.2732   0.3633   0.9497   1.1483   1.3074   1.3782   1.3891
     1.6971   1.7741

          k = 0.4000-0.6928 0.0000 ( 51262 PWs)   bands (ev):

   -21.2657  -9.8368  -6.6586  -6.4283  -6.2995  -5.8306  -5.6575  -5.2124
    -5.0517  -4.9065  -4.5329  -4.2257  -3.9908  -3.9445  -3.8525  -3.8135
    -3.8043  -3.7869  -3.7765  -3.7621  -3.7058  -3.7005  -3.6946  -3.6876
    -3.6137  -3.5890  -3.5478  -3.5426  -3.5156  -3.5128  -3.4006  -3.3770
    -3.3646  -3.3560  -3.3305  -3.2902  -3.2001  -3.1885  -3.0741  -3.0646
    -3.0624  -2.9821  -2.9724  -2.9549  -2.9307  -2.8596  -2.8514  -2.8347
    -2.7856  -2.7687  -2.6874  -2.6719  -2.6294  -2.6255  -2.5703  -2.5655
    -2.4918  -2.4786  -2.4681  -2.4627  -2.4437  -2.4232  -2.4068  -2.3418
    -2.2795  -2.2671  -2.2570  -2.2460  -2.2072  -2.1853  -2.1464  -2.1255
    -2.0978  -2.0830  -2.0742  -2.0650  -2.0498  -2.0281  -2.0133  -1.9877
    -1.9811  -1.9758  -1.9425  -1.9341  -1.9246  -1.9048  -1.8657  -1.8402
    -1.8199  -1.7798  -1.7618  -1.7438  -1.7261  -1.7004  -1.6852  -1.6732
    -1.6539  -1.6468  -1.6391  -1.6312  -1.6125  -1.5901  -1.5775  -1.5656
    -1.5347  -1.5004  -1.4920  -1.4838  -1.4736  -1.4633  -1.4610  -1.4504
    -1.4382  -1.4347  -1.4160  -1.3916  -1.3702  -1.3567  -1.3317  -1.3171
    -1.2798  -1.2423  -1.2024  -1.1908  -1.1766  -1.1683  -1.1602  -1.0913
    -1.0816  -1.0725  -1.0583  -1.0254  -0.9686  -0.9463  -0.9268  -0.9212
    -0.9003  -0.8941  -0.8831  -0.8743  -0.8339  -0.8186  -0.7900  -0.7810
    -0.7624  -0.7288  -0.7201  -0.7127  -0.6847  -0.6601  -0.6335  -0.6127
    -0.5982  -0.5879  -0.5770  -0.5656  -0.5445  -0.5248  -0.4918  -0.4280
    -0.3669  -0.3179  -0.3117  -0.3065  -0.2989  -0.2920  -0.2793  -0.2601
    -0.2438  -0.2319  -0.2167  -0.2091  -0.1611  -0.1485  -0.0937  -0.0838
    -0.0651  -0.0551  -0.0450  -0.0266  -0.0021   0.0160   0.0202   0.0261
     0.0402   0.0804   0.1152   0.1169   0.1341   0.1460   0.1662   0.2033
     0.3004   0.5181   0.6276   0.8606   1.3254   1.4249   1.4519   1.8250
     1.8977   1.9653

          k = 0.4000-0.4619 0.0000 ( 51262 PWs)   bands (ev):

   -21.2657  -9.8366  -6.6560  -6.4309  -6.3019  -5.8283  -5.6578  -5.2320
    -5.0332  -4.8984  -4.5400  -4.2261  -3.9902  -3.9438  -3.8450  -3.8136
    -3.8043  -3.7881  -3.7791  -3.7620  -3.7061  -3.6983  -3.6925  -3.6883
    -3.6094  -3.5929  -3.5479  -3.5441  -3.5179  -3.5124  -3.4005  -3.3754
    -3.3631  -3.3596  -3.3301  -3.2908  -3.2038  -3.1903  -3.0813  -3.0660
    -3.0624  -2.9780  -2.9686  -2.9634  -2.9319  -2.8532  -2.8478  -2.8394
    -2.7825  -2.7688  -2.6879  -2.6676  -2.6349  -2.6215  -2.5754  -2.5664
    -2.4914  -2.4795  -2.4698  -2.4623  -2.4478  -2.4210  -2.4064  -2.3411
    -2.2781  -2.2644  -2.2589  -2.2483  -2.2016  -2.1880  -2.1419  -2.1252
    -2.1036  -2.0831  -2.0752  -2.0660  -2.0489  -2.0238  -2.0126  -1.9886
    -1.9812  -1.9733  -1.9448  -1.9351  -1.9226  -1.8893  -1.8765  -1.8371
    -1.8286  -1.7975  -1.7650  -1.7529  -1.7187  -1.6937  -1.6857  -1.6722
    -1.6524  -1.6446  -1.6347  -1.6291  -1.6211  -1.5876  -1.5648  -1.5503
    -1.5325  -1.4936  -1.4911  -1.4880  -1.4771  -1.4669  -1.4569  -1.4536
    -1.4438  -1.4304  -1.4170  -1.3899  -1.3766  -1.3498  -1.3314  -1.3200
    -1.2714  -1.2412  -1.2098  -1.1900  -1.1710  -1.1689  -1.1582  -1.0981
    -1.0872  -1.0706  -1.0489  -1.0106  -0.9920  -0.9410  -0.9238  -0.9169
    -0.9054  -0.8901  -0.8842  -0.8710  -0.8492  -0.8256  -0.7932  -0.7686
    -0.7628  -0.7342  -0.7178  -0.7104  -0.6870  -0.6628  -0.6339  -0.6175
    -0.6006  -0.5905  -0.5840  -0.5688  -0.5370  -0.5242  -0.4880  -0.4227
    -0.3674  -0.3205  -0.3116  -0.3031  -0.2966  -0.2884  -0.2772  -0.2665
    -0.2415  -0.2290  -0.2169  -0.2111  -0.1652  -0.1454  -0.0933  -0.0816
    -0.0745  -0.0557  -0.0444  -0.0341   0.0028   0.0142   0.0208   0.0296
     0.0405   0.0814   0.1116   0.1202   0.1320   0.1459   0.1670   0.2085
     0.2954   0.5203   0.6317   0.8813   1.3157   1.4257   1.4495   1.7933
     1.9131   1.9620

 ------ SPIN DOWN ----------


          k = 0.0000 0.0000 0.0000 ( 51087 PWs)   bands (ev):

   -21.3004  -9.9305  -7.6121  -6.6155  -6.1573  -5.5102  -5.0225  -4.4066
    -4.3800  -4.3778  -4.3759  -4.3697  -4.3575  -4.2470  -3.5145  -3.5036
    -3.5014  -3.5003  -3.4752  -3.4645  -3.3513  -2.5727  -2.5536  -2.5529
    -2.5498  -2.5240  -2.4845  -2.0979  -2.0871  -2.0841  -2.0828  -2.0791
    -2.0709  -1.8883  -1.8865  -1.8236  -1.8031  -1.7967  -1.7928  -1.6970
    -1.6944  -1.6545  -1.6484  -1.6270  -1.5474  -1.5400  -1.5387  -1.5336
    -1.5258  -1.4876  -1.2929  -1.2722  -1.2684  -1.2675  -1.2648  -1.2583
    -1.2572  -1.2465  -1.2334  -1.2036  -1.1855  -1.1785  -1.1769  -1.1632
    -1.1201  -0.8896  -0.6318  -0.6102  -0.6002  -0.5917  -0.5734  -0.4422
    -0.3834  -0.2900  -0.2757  -0.2692  -0.2687  -0.2567  -0.2465  -0.2244
    -0.2166  -0.1966  -0.1807  -0.1790  -0.1785  -0.1650  -0.1457  -0.1074
    -0.0779  -0.0718  -0.0673  -0.0392  -0.0343  -0.0228  -0.0139  -0.0095
    -0.0034   0.0028   0.0144   0.0174   0.0271   0.0286   0.0753   0.1409
     0.1596   0.1749   0.2044   0.2329   0.2458   0.2471   0.2489   0.2533
     0.2549   0.2563   0.2575   0.2753   0.3209   0.3236   0.3402   0.4152
     0.4222   0.4314   0.4471   0.4792   0.5261   0.6335   0.6352   0.6950
     0.7158   0.7261   0.7282   0.7340   0.7348   0.8476   1.0353   1.0534
     1.0803   1.0820   1.2253   1.2615   1.2757   1.2931   1.2959   1.2981
     1.3012   1.4499   1.4591   1.4624   1.4669   1.4787   1.4920   1.4969
     1.5034   1.5319   1.5461   1.5560   1.5728   1.6019   1.6121   1.6146
     1.6218   1.6240   1.6284   1.6528   1.6788   1.6949   1.7043   1.7208
     1.7333   1.7386   1.7447   1.7472   1.7490   1.7555   1.7604   1.7973
     1.8020   1.8235   1.8285   1.8369   1.8421   1.8433   1.8503   1.8772
     1.8843   1.8890   1.8942   1.8952   1.9022   1.9073   1.9107   1.9160
     1.9193   1.9663   1.9729   2.0109   2.1229   2.1263   2.1303   2.1310
     2.1353   2.1378

          k = 0.0000 0.2309 0.0000 ( 51134 PWs)   bands (ev):

   -21.3004  -9.9303  -7.4637  -6.5730  -6.0845  -5.5535  -5.2943  -5.0091
    -4.7671  -4.7527  -4.2328  -4.0925  -3.8339  -3.8264  -3.7516  -3.7109
    -3.5333  -3.2900  -3.1688  -3.1446  -3.0435  -2.7655  -2.5842  -2.5476
    -2.4876  -2.4657  -2.4361  -2.2076  -2.1291  -2.1204  -2.1130  -2.0839
    -2.0744  -2.0414  -2.0301  -1.9968  -1.9888  -1.8677  -1.8420  -1.7696
    -1.7601  -1.7089  -1.6314  -1.5873  -1.5741  -1.5611  -1.4832  -1.4441
    -1.4147  -1.3948  -1.3498  -1.3187  -1.3103  -1.2867  -1.2772  -1.2609
    -1.2492  -1.1975  -1.1654  -1.1563  -1.1221  -1.0849  -1.0738  -1.0434
    -0.9338  -0.8961  -0.7101  -0.6539  -0.6443  -0.6312  -0.5811  -0.5439
    -0.5076  -0.4721  -0.4512  -0.4085  -0.3129  -0.2908  -0.2740  -0.2715
    -0.2496  -0.2352  -0.2317  -0.2104  -0.2003  -0.1776  -0.1413  -0.1021
    -0.0716  -0.0694  -0.0550  -0.0399  -0.0287  -0.0099   0.0014   0.0163
     0.0249   0.0327   0.0359   0.0388   0.0445   0.0553   0.0807   0.0959
     0.1121   0.1378   0.1429   0.1476   0.1859   0.1887   0.2072   0.2199
     0.2415   0.2626   0.3008   0.3195   0.3478   0.3592   0.3673   0.3894
     0.4124   0.5536   0.5777   0.6006   0.6067   0.6608   0.6661   0.6810
     0.6998   0.7068   0.7098   0.7152   0.7379   0.9219   1.0220   1.0438
     1.0484   1.0614   1.0753   1.0841   1.1065   1.1643   1.2122   1.2386
     1.2496   1.2622   1.3261   1.3325   1.3610   1.3842   1.4136   1.4236
     1.4639   1.4775   1.5187   1.5293   1.5392   1.5525   1.5706   1.5776
     1.6073   1.6254   1.6687   1.6751   1.7088   1.7133   1.7262   1.7387
     1.7777   1.7834   1.7931   1.7951   1.8128   1.8504   1.8723   1.8755
     1.8806   1.8878   1.9140   1.9323   1.9422   1.9514   1.9704   1.9786
     1.9903   2.0245   2.0317   2.0419   2.0553   2.0625   2.0694   2.0912
     2.1096   2.1165   2.1268   2.1512   2.1981   2.2261   2.2378   2.2596
     2.3011   2.3235

          k = 0.0000 0.4619 0.0000 ( 51204 PWs)   bands (ev):

   -21.3004  -9.9300  -7.0373  -6.5472  -6.2414  -5.8598  -5.4314  -5.0358
    -4.9742  -4.9533  -4.7625  -3.8876  -3.8775  -3.7725  -3.2688  -3.2122
    -3.2075  -3.0880  -2.9506  -2.8854  -2.7781  -2.7566  -2.6122  -2.6058
    -2.5659  -2.5379  -2.4810  -2.4591  -2.3806  -2.3620  -2.3031  -2.2989
    -2.2754  -2.0923  -2.0691  -1.9951  -1.9878  -1.8826  -1.8693  -1.8557
    -1.8528  -1.8226  -1.5894  -1.5651  -1.5459  -1.5284  -1.5085  -1.4581
    -1.3419  -1.3306  -1.3176  -1.3058  -1.2788  -1.2747  -1.2735  -1.2473
    -1.1895  -1.1535  -1.1496  -1.1336  -1.1073  -1.0266  -0.9715  -0.9285
    -0.8244  -0.7970  -0.7270  -0.6824  -0.6646  -0.6488  -0.6048  -0.5957
    -0.5806  -0.5654  -0.5496  -0.5134  -0.4683  -0.4374  -0.4230  -0.4032
    -0.3659  -0.3368  -0.3127  -0.3107  -0.2995  -0.2637  -0.1851  -0.1431
    -0.1174  -0.1002  -0.0917  -0.0393  -0.0190  -0.0062   0.0093   0.0442
     0.0626   0.0714   0.0804   0.0997   0.1045   0.1167   0.1288   0.1511
     0.1612   0.1688   0.1962   0.1992   0.2083   0.2153   0.2337   0.2405
     0.2675   0.2768   0.3027   0.3619   0.4110   0.4295   0.4377   0.4555
     0.4671   0.4698   0.4987   0.5101   0.5652   0.5753   0.5831   0.6228
     0.6415   0.6561   0.6774   0.6845   0.6948   0.7206   0.8332   0.8692
     0.9210   0.9686   1.0038   1.0352   1.1030   1.1204   1.1347   1.1557
     1.1615   1.1689   1.2126   1.2464   1.2635   1.3022   1.4009   1.4079
     1.4320   1.4454   1.5075   1.5173   1.5438   1.5477   1.5808   1.5866
     1.6252   1.6371   1.6703   1.7284   1.7500   1.7615   1.7748   1.7933
     1.8039   1.8079   1.8276   1.8611   1.8800   1.8810   1.9021   1.9169
     1.9320   1.9527   2.0253   2.0345   2.0497   2.0596   2.0652   2.0807
     2.0892   2.1182   2.1260   2.1316   2.1401   2.1519   2.1611   2.1638
     2.1936   2.2112   2.3224   2.3325   2.3716   2.4800   2.6521   2.8031
     2.8972   2.9330

          k = 0.2000-0.1155 0.0000 ( 51134 PWs)   bands (ev):

   -21.3004  -9.9313  -7.4625  -6.5725  -6.0780  -5.5290  -5.3231  -5.0265
    -4.7534  -4.7381  -4.2395  -4.1353  -3.8332  -3.8258  -3.7347  -3.6814
    -3.5396  -3.2915  -3.1626  -3.1362  -3.0595  -2.7884  -2.5712  -2.5378
    -2.4999  -2.4580  -2.4326  -2.2129  -2.1338  -2.1188  -2.1140  -2.0824
    -2.0742  -2.0428  -2.0305  -1.9926  -1.9881  -1.8535  -1.8433  -1.7687
    -1.7603  -1.7313  -1.6266  -1.5851  -1.5820  -1.5620  -1.5084  -1.4214
    -1.4158  -1.3975  -1.3426  -1.3173  -1.3112  -1.2896  -1.2686  -1.2610
    -1.2508  -1.1834  -1.1778  -1.1517  -1.1243  -1.0874  -1.0719  -1.0405
    -0.9705  -0.8802  -0.6923  -0.6549  -0.6436  -0.6209  -0.5967  -0.5506
    -0.4995  -0.4757  -0.4382  -0.4055  -0.3095  -0.2866  -0.2804  -0.2648
    -0.2561  -0.2347  -0.2316  -0.2072  -0.1999  -0.1804  -0.1240  -0.1126
    -0.0792  -0.0697  -0.0626  -0.0440  -0.0250  -0.0062   0.0032   0.0176
     0.0257   0.0294   0.0344   0.0394   0.0472   0.0652   0.0778   0.0953
     0.1097   0.1352   0.1426   0.1486   0.1692   0.1940   0.2091   0.2286
     0.2471   0.2949   0.3130   0.3215   0.3376   0.3618   0.3645   0.3893
     0.3945   0.5473   0.5809   0.6014   0.6054   0.6587   0.6622   0.6825
     0.6965   0.7063   0.7104   0.7145   0.7470   0.9271   1.0152   1.0299
     1.0460   1.0673   1.0723   1.0827   1.0941   1.1548   1.1926   1.2349
     1.2459   1.2770   1.3249   1.3298   1.3569   1.3873   1.3934   1.4163
     1.4762   1.4989   1.5224   1.5311   1.5406   1.5496   1.5676   1.5788
     1.6025   1.6298   1.6638   1.6839   1.6992   1.7185   1.7249   1.7598
     1.7767   1.7841   1.7903   1.7978   1.8098   1.8429   1.8657   1.8794
     1.8824   1.8877   1.9178   1.9319   1.9424   1.9543   1.9682   1.9847
     1.9892   2.0244   2.0308   2.0397   2.0558   2.0589   2.0699   2.0917
     2.0965   2.1203   2.1260   2.1479   2.2129   2.2266   2.2392   2.2505
     2.3073   2.3297

          k = 0.2000 0.1155 0.0000 ( 51134 PWs)   bands (ev):

   -21.3004  -9.9314  -7.4625  -6.5728  -6.0770  -5.5274  -5.3182  -5.0395
    -4.7514  -4.7318  -4.2486  -4.1319  -3.8324  -3.8257  -3.7314  -3.6806
    -3.5405  -3.2914  -3.1609  -3.1364  -3.0620  -2.7923  -2.5650  -2.5390
    -2.5043  -2.4545  -2.4331  -2.2179  -2.1299  -2.1200  -2.1145  -2.0794
    -2.0738  -2.0397  -2.0305  -1.9945  -1.9855  -1.8551  -1.8418  -1.7716
    -1.7598  -1.7090  -1.6528  -1.5860  -1.5770  -1.5632  -1.4893  -1.4350
    -1.4170  -1.3913  -1.3509  -1.3189  -1.3059  -1.2926  -1.2690  -1.2626
    -1.2536  -1.1857  -1.1663  -1.1593  -1.1243  -1.0839  -1.0726  -1.0549
    -0.9474  -0.8913  -0.6890  -0.6538  -0.6445  -0.6244  -0.6005  -0.5506
    -0.4964  -0.4819  -0.4321  -0.4062  -0.3112  -0.2887  -0.2838  -0.2681
    -0.2434  -0.2336  -0.2232  -0.2138  -0.2034  -0.1865  -0.1395  -0.1129
    -0.0795  -0.0696  -0.0612  -0.0495  -0.0282  -0.0015   0.0052   0.0147
     0.0253   0.0275   0.0353   0.0407   0.0512   0.0627   0.0884   0.0965
     0.1092   0.1378   0.1451   0.1477   0.1642   0.1887   0.2154   0.2259
     0.2512   0.2640   0.3154   0.3265   0.3505   0.3603   0.3680   0.3887
     0.4162   0.5504   0.5831   0.6046   0.6060   0.6508   0.6625   0.6861
     0.7005   0.7080   0.7099   0.7154   0.7323   0.9144   1.0194   1.0355
     1.0482   1.0678   1.0766   1.0830   1.0962   1.1554   1.2038   1.2300
     1.2476   1.2756   1.3244   1.3297   1.3587   1.3850   1.4043   1.4168
     1.4735   1.4851   1.5136   1.5311   1.5394   1.5511   1.5669   1.5771
     1.6073   1.6358   1.6688   1.6766   1.6962   1.7201   1.7298   1.7567
     1.7748   1.7857   1.7908   1.7983   1.8132   1.8415   1.8717   1.8784
     1.8806   1.8971   1.9119   1.9329   1.9423   1.9506   1.9666   1.9853
     1.9900   2.0239   2.0295   2.0416   2.0551   2.0603   2.0690   2.0913
     2.0938   2.1205   2.1243   2.1487   2.2122   2.2263   2.2403   2.2455
     2.3155   2.3261

          k = 0.2000 0.3464 0.0000 ( 51202 PWs)   bands (ev):

   -21.3004  -9.9312  -7.1738  -6.5318  -5.9305  -5.7598  -5.7321  -5.3674
    -5.0135  -4.5098  -4.3809  -4.0231  -4.0160  -3.9135  -3.2005  -3.1853
    -3.1753  -3.1715  -3.0642  -2.9828  -2.9055  -2.8766  -2.8377  -2.5102
    -2.4341  -2.4268  -2.4107  -2.3539  -2.3319  -2.3147  -2.2267  -2.2141
    -2.2061  -2.2004  -2.1825  -2.0657  -2.0017  -1.8498  -1.8288  -1.8163
    -1.7436  -1.7319  -1.7040  -1.6920  -1.5744  -1.5030  -1.4765  -1.4321
    -1.3615  -1.3454  -1.3164  -1.3053  -1.2889  -1.2862  -1.2517  -1.2424
    -1.2317  -1.1849  -1.1311  -1.1280  -1.0591  -0.9930  -0.9629  -0.9144
    -0.8505  -0.8385  -0.7414  -0.6955  -0.6175  -0.6047  -0.5750  -0.5515
    -0.5365  -0.5300  -0.5132  -0.5059  -0.4468  -0.4191  -0.4007  -0.3816
    -0.3736  -0.3435  -0.3339  -0.3191  -0.2763  -0.2366  -0.1741  -0.1598
    -0.1397  -0.1147  -0.0981  -0.0649  -0.0362  -0.0262  -0.0151   0.0021
     0.0148   0.0272   0.0395   0.0531   0.0683   0.0843   0.1005   0.1249
[...]
     atom    8 type  1   force =     0.00018674   -0.00190487   -0.10232297
     atom    9 type  1   force =     0.00322820   -0.00191936   -0.10511196
     atom   10 type  1   force =     0.00204872    0.00095833   -0.00870924
     atom   11 type  1   force =     0.00093874    0.00009588   -0.01319143
     atom   12 type  1   force =    -0.00303923    0.00125884   -0.00984081
     atom   13 type  1   force =     0.00043207   -0.00094332   -0.01019695
     atom   14 type  1   force =     0.00021022   -0.00159392   -0.01004167
     atom   15 type  1   force =    -0.00038547   -0.00035556   -0.01214042
     atom   16 type  1   force =     0.00060054   -0.00120620   -0.01870846
     atom   17 type  1   force =     0.00020239    0.00040634   -0.01037396
     atom   18 type  1   force =    -0.00053693    0.00178214   -0.01183914
     atom   19 type  1   force =     0.00046130    0.00939424    0.00298536
     atom   20 type  1   force =    -0.00198703    0.01029835    0.00954453
     atom   21 type  1   force =     0.00132168   -0.00075263    0.01589199
     atom   22 type  1   force =    -0.00088714   -0.00193421    0.01726040
     atom   23 type  1   force =     0.00234125   -0.00075586    0.01723694
     atom   24 type  1   force =    -0.00081958   -0.00181260    0.01838070
     atom   25 type  1   force =    -0.01154158   -0.00282369    0.00377194
     atom   26 type  1   force =    -0.00171363   -0.00830798   -0.00163697
     atom   27 type  1   force =     0.00880996   -0.00275223    0.01149715
     atom   28 type  1   force =     0.05107587    0.01024135    0.09346078
     atom   29 type  1   force =    -0.02064769    0.00222945   -0.00865421
     atom   30 type  1   force =     0.00549829    0.00011309    0.11770961
     atom   31 type  1   force =    -0.01787565   -0.05633568    0.17126883
     atom   32 type  1   force =    -0.00492658   -0.00343693    0.11412398
     atom   33 type  1   force =     0.01114519   -0.01278644    0.12259920
     atom   34 type  1   force =     0.00249944    0.00736035    0.11236783
     atom   35 type  1   force =    -0.00882088    0.03232401    0.14289443
     atom   36 type  1   force =     0.00241535   -0.00097054    0.10325142
     atom   37 type  2   force =    -0.42349087    0.05720323    0.21717285
     atom   38 type  3   force =     2.13747676    0.03695628   -1.05590230
     atom   39 type  4   force =    -0.04777981   -0.01113289   -0.05956005
     The ionic contribution  to forces
     atom    1 type  1   force =    -0.00658626    0.00705801 -111.18306262
     atom    2 type  1   force =     0.00662117    0.00693064 -111.18299634
     atom    3 type  1   force =    -0.00003490    0.00272325 -111.16986379
     atom    4 type  1   force =    -0.00009442    0.00464029 -111.16947687
     atom    5 type  1   force =    -0.00031870   -0.00318486 -111.17027325
     atom    6 type  1   force =     0.00041312   -0.00308893 -111.17008619
     atom    7 type  1   force =    -0.00701362   -0.00379184 -111.17506974
     atom    8 type  1   force =     0.00012874   -0.00745890 -111.18887784
     atom    9 type  1   force =     0.00688487   -0.00382766 -111.17480929
     atom   10 type  1   force =    -0.05563710   -0.01354237  -40.22411275
     atom   11 type  1   force =     0.05643884   -0.01414892  -40.22263488
     atom   12 type  1   force =    -0.00079843   -0.00619634  -40.11204821
     atom   13 type  1   force =    -0.00009513    0.07199097  -40.17678306
     atom   14 type  1   force =     0.03314934    0.02665015  -40.11039756
     atom   15 type  1   force =    -0.03305575    0.02755758  -40.11028678
     atom   16 type  1   force =    -0.02122638   -0.01402842  -40.10014832
     atom   17 type  1   force =     0.00086168   -0.06471468  -40.14093837
     atom   18 type  1   force =     0.02036412   -0.01357080  -40.09839856
     atom   19 type  1   force =    -0.33962178    0.37266080   30.98235899
     atom   20 type  1   force =     0.34231642    0.36819021   30.98301362
     atom   21 type  1   force =    -0.00224720    0.11912830   31.62341071
     atom   22 type  1   force =    -0.00438976    0.20960430   31.64144610
     atom   23 type  1   force =    -0.01741341   -0.14733357   31.61176463
     atom   24 type  1   force =     0.02179546   -0.14123458   31.62030232
     atom   25 type  1   force =    -0.34566773   -0.18256530   31.38138754
     atom   26 type  1   force =     0.00611505   -0.41402136   30.66085323
     atom   27 type  1   force =     0.33911725   -0.18484789   31.39683156
     atom   28 type  1   force =    -3.72843477   -1.01063858   97.84395861
     atom   29 type  1   force =     3.94239609   -1.17391054   97.81074014
     atom   30 type  1   force =    -0.05210997   -0.19008454  103.98479430
     atom   31 type  1   force =    -0.00652245    3.67183476  101.71259483
     atom   32 type  1   force =     1.18152176    1.02237549  103.93634748
     atom   33 type  1   force =    -1.18618694    1.06112513  103.91823847
     atom   34 type  1   force =    -0.69512727   -0.56570174  104.21477683
     atom   35 type  1   force =     0.05416841   -2.66817225  103.14377940
     atom   36 type  1   force =     0.64188140   -0.51168045  104.28344189
     atom   37 type  2   force =     6.35876863    0.21880849   56.17998536
     atom   38 type  3   force =    -8.31773687   -0.20455585   87.89265236
     atom   39 type  4   force =     1.80737650    0.35102202   15.05758604
     The local contribution  to forces
     atom    1 type  1   force =     0.00376552   -0.00916154  111.28567455
     atom    2 type  1   force =    -0.00508756   -0.01014418  111.28945521
     atom    3 type  1   force =     0.00162451   -0.00215540  111.27615478
     atom    4 type  1   force =     0.00162617   -0.00357431  111.27736913
     atom    5 type  1   force =    -0.00225656    0.00478011  111.27798958
     atom    6 type  1   force =     0.00043301    0.00128254  111.27722341
     atom    7 type  1   force =     0.01048113    0.00326280  111.27744529
     atom    8 type  1   force =    -0.00009343    0.00999809  111.29386465
     atom    9 type  1   force =    -0.01023985    0.00589126  111.28261622
     atom   10 type  1   force =     0.05318363    0.01277354   40.21225450
     atom   11 type  1   force =    -0.05703723    0.01374236   40.21345089
     atom   12 type  1   force =     0.00391810    0.00505384   40.10113845
     atom   13 type  1   force =    -0.00012633   -0.07097060   40.16635372
     atom   14 type  1   force =    -0.03393884   -0.02478717   40.09996337
     atom   15 type  1   force =     0.03410859   -0.02715827   40.10062746
     atom   16 type  1   force =     0.02023841    0.01554526   40.09622628
     atom   17 type  1   force =    -0.00154045    0.06462152   40.13071831
     atom   18 type  1   force =    -0.01966059    0.01216669   40.08845993
     atom   19 type  1   force =     0.33799764   -0.38436795  -30.96355064
     atom   20 type  1   force =    -0.33986160   -0.37935143  -30.97347143
     atom   21 type  1   force =     0.00114383   -0.11950716  -31.61662925
     atom   22 type  1   force =     0.00501972   -0.20879642  -31.63326384
     atom   23 type  1   force =     0.01544450    0.14815400  -31.60521784
     atom   24 type  1   force =    -0.02024730    0.14254197  -31.61468986
     atom   25 type  1   force =     0.35991782    0.18726127  -31.36342376
     atom   26 type  1   force =    -0.00490140    0.42338379  -30.63828505
     atom   27 type  1   force =    -0.34733556    0.18760629  -31.39208151
     atom   28 type  1   force =     3.66187311    0.99742097  -97.93779457
     atom   29 type  1   force =    -3.91486041    1.16966005  -97.78784269
     atom   30 type  1   force =     0.04481620    0.18941421 -104.11298469
     atom   31 type  1   force =     0.02719748   -3.60365158 -101.89502820
     atom   32 type  1   force =    -1.17112561   -1.01342117 -104.05814878
     atom   33 type  1   force =     1.16983581   -1.04316765 -104.05243041
     atom   34 type  1   force =     0.69018303    0.55565428 -104.33447545
     atom   35 type  1   force =    -0.04345119    2.62585763 -103.29839677
     atom   36 type  1   force =    -0.64307210    0.51148139 -104.39298641
     atom   37 type  2   force =    -5.94125145   -0.27607399  -56.39231688
     atom   38 type  3   force =     6.19518751    0.16689525  -86.84756604
     atom   39 type  4   force =    -1.75664839   -0.34050862  -14.99729724
     The core correction contribution to forces
     atom    1 type  1   force =    -0.00019433   -0.00032671    0.01023714
     atom    2 type  1   force =    -0.00001256   -0.00027895    0.01052371
     atom    3 type  1   force =     0.00008698    0.00006719    0.01002278
     atom    4 type  1   force =     0.00001349    0.00006971    0.01009765
     atom    5 type  1   force =    -0.00001469    0.00018847    0.01028772
     atom    6 type  1   force =    -0.00006172   -0.00012750    0.01013918
     atom    7 type  1   force =     0.00034569    0.00007551    0.01057838
     atom    8 type  1   force =    -0.00003100    0.00027453    0.01045883
     atom    9 type  1   force =    -0.00016747    0.00022610    0.01031441
     atom   10 type  1   force =    -0.00000427    0.00003297   -0.00155534
     atom   11 type  1   force =    -0.00015874    0.00001886   -0.00166005
     atom   12 type  1   force =     0.00011216    0.00015359   -0.00163986
     atom   13 type  1   force =    -0.00001066   -0.00007258   -0.00185792
     atom   14 type  1   force =    -0.00012374    0.00001215   -0.00173677
     atom   15 type  1   force =     0.00007628   -0.00002467   -0.00193274
     atom   16 type  1   force =     0.00017073    0.00003975   -0.00184916
     atom   17 type  1   force =     0.00001403    0.00015539   -0.00184234
     atom   18 type  1   force =    -0.00024080   -0.00010637   -0.00170678
     atom   19 type  1   force =     0.00002601   -0.00005356    0.00091117
     atom   20 type  1   force =    -0.00053530    0.00072211    0.00063624
     atom   21 type  1   force =     0.00040135   -0.00002617    0.00162107
     atom   22 type  1   force =     0.00014713   -0.00049767    0.00221545
     atom   23 type  1   force =    -0.00016971    0.00014243    0.00171828
     atom   24 type  1   force =    -0.00001997   -0.00016224    0.00209504
     atom   25 type  1   force =     0.00018266   -0.00001896    0.00140756
     atom   26 type  1   force =    -0.00046767   -0.00012306    0.00054079
     atom   27 type  1   force =     0.00139529   -0.00092500   -0.00012877
     atom   28 type  1   force =     0.00855728    0.00247120    0.00274293
     atom   29 type  1   force =    -0.00313338    0.00344153   -0.00821607
     atom   30 type  1   force =    -0.00119788    0.00005144   -0.00918766
     atom   31 type  1   force =     0.00196017   -0.00597776   -0.00541751
     atom   32 type  1   force =    -0.00293376   -0.00262785   -0.00870003
     atom   33 type  1   force =     0.00031073   -0.00028323   -0.00974659
     atom   34 type  1   force =     0.00017172    0.00017049   -0.01004513
     atom   35 type  1   force =     0.00139025    0.00313740   -0.00756878
     atom   36 type  1   force =    -0.00169220    0.00159080   -0.00907617
     atom   37 type  2   force =     0.00467162   -0.00073234   -0.00228628
     atom   38 type  3   force =    -0.01724241   -0.00023446    0.00955397
     atom   39 type  4   force =     0.00000000    0.00000000    0.00000000
     The Hubbard contrib.    to forces
     atom    1 type  1   force =     0.00000000    0.00000000    0.00000000
     atom    2 type  1   force =     0.00000000    0.00000000    0.00000000
     atom    3 type  1   force =     0.00000000    0.00000000    0.00000000
     atom    4 type  1   force =     0.00000000    0.00000000    0.00000000
     atom    5 type  1   force =     0.00000000    0.00000000    0.00000000
     atom    6 type  1   force =     0.00000000    0.00000000    0.00000000
     atom    7 type  1   force =     0.00000000    0.00000000    0.00000000
     atom    8 type  1   force =     0.00000000    0.00000000    0.00000000
     atom    9 type  1   force =     0.00000000    0.00000000    0.00000000
     atom   10 type  1   force =     0.00000000    0.00000000    0.00000000
     atom   11 type  1   force =     0.00000000    0.00000000    0.00000000
     atom   12 type  1   force =     0.00000000    0.00000000    0.00000000
     atom   13 type  1   force =     0.00000000    0.00000000    0.00000000
     atom   14 type  1   force =     0.00000000    0.00000000    0.00000000
     atom   15 type  1   force =     0.00000000    0.00000000    0.00000000
     atom   16 type  1   force =     0.00000000    0.00000000    0.00000000
     atom   17 type  1   force =     0.00000000    0.00000000    0.00000000
     atom   18 type  1   force =     0.00000000    0.00000000    0.00000000
     atom   19 type  1   force =     0.00000000    0.00000000    0.00000000
     atom   20 type  1   force =     0.00000000    0.00000000    0.00000000
     atom   21 type  1   force =     0.00000000    0.00000000    0.00000000
     atom   22 type  1   force =     0.00000000    0.00000000    0.00000000
     atom   23 type  1   force =     0.00000000    0.00000000    0.00000000
     atom   24 type  1   force =     0.00000000    0.00000000    0.00000000
     atom   25 type  1   force =     0.00000000    0.00000000    0.00000000
     atom   26 type  1   force =     0.00000000    0.00000000    0.00000000
     atom   27 type  1   force =     0.00000000    0.00000000    0.00000000
     atom   28 type  1   force =     0.00000000    0.00000000    0.00000000
     atom   29 type  1   force =     0.00000000    0.00000000    0.00000000
     atom   30 type  1   force =     0.00000000    0.00000000    0.00000000
     atom   31 type  1   force =     0.00000000    0.00000000    0.00000000
     atom   32 type  1   force =     0.00000000    0.00000000    0.00000000
     atom   33 type  1   force =     0.00000000    0.00000000    0.00000000
     atom   34 type  1   force =     0.00000000    0.00000000    0.00000000
     atom   35 type  1   force =     0.00000000    0.00000000    0.00000000
     atom   36 type  1   force =     0.00000000    0.00000000    0.00000000
     atom   37 type  2   force =     0.00000000    0.00000000    0.00000000
     atom   38 type  3   force =     0.00000000    0.00000000    0.00000000
     atom   39 type  4   force =     0.00000000    0.00000000    0.00000000
     The SCF correction term to forces
     atom    1 type  1   force =    -0.00000000    0.00000000    0.00000000
     atom    2 type  1   force =    -0.00000000   -0.00000000    0.00000000
     atom    3 type  1   force =     0.00000000    0.00000000    0.00000000
     atom    4 type  1   force =    -0.00000000   -0.00000000    0.00000000
     atom    5 type  1   force =     0.00000000   -0.00000000    0.00000000
     atom    6 type  1   force =     0.00000000   -0.00000000    0.00000000
     atom    7 type  1   force =     0.00000000    0.00000000    0.00000000
     atom    8 type  1   force =     0.00000000    0.00000000    0.00000000
     atom    9 type  1   force =    -0.00000000    0.00000000    0.00000000
     atom   10 type  1   force =     0.00000000    0.00000000    0.00000000
     atom   11 type  1   force =     0.00000000    0.00000000    0.00000000
     atom   12 type  1   force =    -0.00000000    0.00000000    0.00000000
     atom   13 type  1   force =     0.00000000    0.00000000    0.00000000
     atom   14 type  1   force =    -0.00000000    0.00000000    0.00000000
     atom   15 type  1   force =     0.00000000    0.00000000   -0.00000000
     atom   16 type  1   force =    -0.00000000   -0.00000000    0.00000000
     atom   17 type  1   force =     0.00000000   -0.00000000    0.00000000
     atom   18 type  1   force =     0.00000000   -0.00000000    0.00000000
     atom   19 type  1   force =     0.00000000    0.00000000   -0.00000000
     atom   20 type  1   force =     0.00000000    0.00000000   -0.00000000
     atom   21 type  1   force =    -0.00000000   -0.00000000   -0.00000000
     atom   22 type  1   force =     0.00000000    0.00000000   -0.00000000
     atom   23 type  1   force =    -0.00000000    0.00000000   -0.00000000
     atom   24 type  1   force =     0.00000000    0.00000000   -0.00000000
     atom   25 type  1   force =    -0.00000000   -0.00000000   -0.00000000
     atom   26 type  1   force =     0.00000000   -0.00000000   -0.00000000
     atom   27 type  1   force =     0.00000000   -0.00000000   -0.00000000
     atom   28 type  1   force =     0.00000000   -0.00000000   -0.00000000
     atom   29 type  1   force =    -0.00000000   -0.00000000   -0.00000000
     atom   30 type  1   force =    -0.00000000   -0.00000000   -0.00000000
     atom   31 type  1   force =     0.00000000   -0.00000000   -0.00000000
     atom   32 type  1   force =    -0.00000000    0.00000000   -0.00000000
     atom   33 type  1   force =     0.00000000    0.00000000   -0.00000000
     atom   34 type  1   force =     0.00000000   -0.00000000   -0.00000000
     atom   35 type  1   force =    -0.00000000    0.00000000   -0.00000000
     atom   36 type  1   force =    -0.00000000    0.00000000   -0.00000000
     atom   37 type  2   force =     0.00000205   -0.00000063   -0.00002077
     atom   38 type  3   force =     0.00000861   -0.00000318   -0.00001975
     atom   39 type  4   force =     0.00000012    0.00000015   -0.00000176

     Total force =     0.005118     Total SCF correction =     0.000030

     Writing all to output data dir ./pwscf.save/

     init_run     :     15.08s CPU     15.68s WALL (       1 calls)
     electrons    :   1002.59s CPU   1022.57s WALL (       1 calls)
     forces       :      3.51s CPU      3.62s WALL (       1 calls)

     Called by init_run:
     wfcinit      :      8.35s CPU      8.73s WALL (       1 calls)
     potinit      :      5.49s CPU      5.65s WALL (       1 calls)
     hinit0       :      0.99s CPU      1.02s WALL (       1 calls)

     Called by electrons:
     c_bands      :    837.50s CPU    852.84s WALL (      56 calls)
     sum_band     :    116.58s CPU    119.35s WALL (      56 calls)
     v_of_rho     :     12.94s CPU     13.52s WALL (      57 calls)
     newd         :      3.86s CPU      3.97s WALL (      57 calls)
     PAW_pot      :     14.62s CPU     15.08s WALL (      57 calls)
     mix_rho      :     21.65s CPU     22.31s WALL (      56 calls)
     vdW_kernel   :      4.63s CPU      4.70s WALL (       1 calls)

     Called by c_bands:
     init_us_2    :     10.06s CPU     10.41s WALL (    2964 calls)
     init_us_2:cp :     10.04s CPU     10.40s WALL (    2964 calls)
     cegterg      :    808.44s CPU    822.76s WALL (    1456 calls)

     Called by *egterg:
     cdiaghg      :    220.94s CPU    223.55s WALL (    5092 calls)
     h_psi        :    396.73s CPU    404.83s WALL (    5118 calls)
     s_psi        :     42.25s CPU     43.12s WALL (    5118 calls)
     g_psi        :      1.05s CPU      1.08s WALL (    3636 calls)

     Called by h_psi:
     h_psi:calbec :     60.06s CPU     61.51s WALL (    5118 calls)
     vloc_psi     :    290.61s CPU    296.22s WALL (    5118 calls)
     add_vuspsi   :     43.40s CPU     44.36s WALL (    5118 calls)

     General routines
     calbec       :     90.87s CPU     93.03s WALL (    6678 calls)
     fft          :      6.14s CPU      6.65s WALL (    5150 calls)
     ffts         :     12.62s CPU     13.00s WALL (   22865 calls)
     fftw         :    342.23s CPU    348.89s WALL ( 1506242 calls)
     interpolate  :      0.62s CPU      0.64s WALL (     114 calls)

     Parallel routines

     PWSCF        :  17m11.05s CPU  17m37.19s WALL


   This run was terminated on:  10:50: 5  14Dec2025            

=------------------------------------------------------------------------------=
   JOB DONE.
=------------------------------------------------------------------------------=
