
     Program PWSCF v.7.1 starts on 28Jan2025 at  6:15:15 
        Git branch: heads/qe-7.1
        Last git commit: 48ba0178f8fede6d020eb786884699a9f063f55d-dirty
        Last git commit date: Fri Jan 27 14:22:33 2023 +0000
        Last git commit subject: Merge branch 'fix_hubbard' into 'develop'

     This program is part of the open-source Quantum ESPRESSO suite
     for quantum simulation of materials; please cite
         "P. Giannozzi et al., J. Phys.:Condens. Matter 21 395502 (2009);
         "P. Giannozzi et al., J. Phys.:Condens. Matter 29 465901 (2017);
         "P. Giannozzi et al., J. Chem. Phys. 152 154105 (2020);
          URL http://www.quantum-espresso.org", 
     in publications or presentations arising from this work. More details at
     http://www.quantum-espresso.org/quote

     Parallel version (MPI), running on    48 processors

     MPI processes distributed on     1 nodes
     209300 MiB available memory on the printing compute node when the environment starts

     Reading input from espresso.pwi
Warning: card &CELL ignored
Warning: card / ignored
Warning: card &FCP ignored
Warning: card / ignored
Warning: card &RISM ignored
Warning: card / ignored

     Current dimensions of program PWSCF are:
     Max number of different atomic species (ntypx) = 10
     Max number of k-points (npk) =  40000
     Max angular momentum in pseudopotentials (lmaxx) =  4
     file Pt.pbe-n-kjpaw_psl.1.0.0.UPF: wavefunction(s)  6S 5D renormalized
     file H.pbe-kjpaw_psl.1.0.0.UPF: wavefunction(s)  1S renormalized

     **************************************************************************
     Initializing libbeef V0.1.2 with the BEEF-vdW functional.
     Citation: Wellendorff et al., PRB 85, 235149 (2012).
     **************************************************************************


     IMPORTANT: XC functional enforced from input :
     Exchange-correlation= BEEF-VDW
                           (   1   4  43  14   2   0   0)
     Any further DFT definition will be discarded
     Please, verify this is what you really want


     R & G space division:  proc/nbgrp/npool/nimage =      48
     Subspace diagonalization in iterative solution of the eigenvalue problem:
     one sub-group per band group will be used
     custom distributed-memory algorithm (size of sub-group:  2*  2 procs)


     Parallelization info
     --------------------
     sticks:   dense  smooth     PW     G-vecs:    dense   smooth      PW
     Min         150      59     16                30552     7447    1068
     Max         151      60     17                30571     7456    1081
     Sum        7243    2839    769              1467143   357639   51591

     Using Slab Decomposition



     bravais-lattice index     =            0
     lattice parameter (alat)  =      16.0028  a.u.
     unit-cell volume          =   10463.1828 (a.u.)^3
     number of atoms/cell      =           37
     number of atomic types    =            2
     number of electrons       =       361.00
     number of Kohn-Sham states=          217
     kinetic-energy cutoff     =      40.0000  Ry
     charge density cutoff     =     410.0000  Ry
     scf convergence threshold =      1.0E-06
     mixing beta               =       0.7000
     number of iterations used =            8  local-TF  mixing
     Exchange-correlation= BEEF-VDW
                           (   1   4  43  14   2   0   0)

     celldm(1)=  16.002787  celldm(2)=   0.000000  celldm(3)=   0.000000
     celldm(4)=   0.000000  celldm(5)=   0.000000  celldm(6)=   0.000000

     crystal axes: (cart. coord. in units of alat)
               a(1) = (   1.000000   0.000000   0.000000 )  
               a(2) = (   0.500000   0.866025   0.000000 )  
               a(3) = (   0.000000   0.000000   2.948128 )  

     reciprocal axes: (cart. coord. in units 2 pi/alat)
               b(1) = (  1.000000 -0.577350  0.000000 )  
               b(2) = (  0.000000  1.154701  0.000000 )  
               b(3) = (  0.000000  0.000000  0.339198 )  


     PseudoPot. # 1 for Pt read from file:
     /users/kbadger1/espresso/pseudo/pslibrary.1.0.0/pbe/PSEUDOPOTENTIALS/Pt.pbe-n-kjpaw_psl.1.0.0.UPF
     MD5 check sum: 2e24a0b5bf98a4ed1a57fa81bca8c143
     Pseudo is Projector augmented-wave + core cor, Zval = 10.0
     Generated using 'atomic' code by A. Dal Corso  v.7.0
     Shape of augmentation charge: PSQ
     Using radial grid of 1277 points,  6 beta functions with: 
                l(1) =   0
                l(2) =   0
                l(3) =   1
                l(4) =   1
                l(5) =   2
                l(6) =   2
     Q(r) pseudized with 0 coefficients 


     PseudoPot. # 2 for H  read from file:
     /users/kbadger1/espresso/pseudo/pslibrary.1.0.0/pbe/PSEUDOPOTENTIALS/H.pbe-kjpaw_psl.1.0.0.UPF
     MD5 check sum: fe4c6fa958fa6d3815bf5d2419cbf1df
     Pseudo is Projector augmented-wave, Zval =  1.0
     Generated using 'atomic' code by A. Dal Corso  v.7.0
     Shape of augmentation charge: PSQ
     Using radial grid of  929 points,  2 beta functions with: 
                l(1) =   0
                l(2) =   0
     Q(r) pseudized with 0 coefficients 


     atomic species   valence    mass     pseudopotential
        Pt            10.00   195.08400     Pt( 1.00)
        H              1.00     1.00800     H ( 1.00)

     No symmetry found



   Cartesian axes

     site n.     atom                  positions (alat units)
         1           Pt  tau(   1) = (   0.0000000   0.0000000   1.0037422  )
         2           Pt  tau(   2) = (   0.3340014   0.0000000   1.0037422  )
         3           Pt  tau(   3) = (   0.6680027   0.0000000   1.0037422  )
         4           Pt  tau(   4) = (   0.1670007   0.2892537   1.0037422  )
         5           Pt  tau(   5) = (   0.5010021   0.2892537   1.0037422  )
         6           Pt  tau(   6) = (   0.8350034   0.2892537   1.0037422  )
         7           Pt  tau(   7) = (   0.3340014   0.5785073   1.0037422  )
         8           Pt  tau(   8) = (   0.6680027   0.5785073   1.0037422  )
         9           Pt  tau(   9) = (   1.0020041   0.5785073   1.0037422  )
        10           Pt  tau(  10) = (   0.1670007   0.0964179   1.2764532  )
        11           Pt  tau(  11) = (   0.5010021   0.0964179   1.2764532  )
        12           Pt  tau(  12) = (   0.8350034   0.0964179   1.2764532  )
        13           Pt  tau(  13) = (   0.3340014   0.3856716   1.2764532  )
        14           Pt  tau(  14) = (   0.6680027   0.3856716   1.2764532  )
        15           Pt  tau(  15) = (   1.0020041   0.3856716   1.2764532  )
        16           Pt  tau(  16) = (   0.5010021   0.6749252   1.2764532  )
        17           Pt  tau(  17) = (   0.8350034   0.6749252   1.2764532  )
        18           Pt  tau(  18) = (   1.1690048   0.6749252   1.2764532  )
        19           Pt  tau(  19) = (   0.0024919   0.1915138   1.5488102  )
        20           Pt  tau(  20) = (   0.3336811   0.1913897   1.5484749  )
        21           Pt  tau(  21) = (   0.6681332   0.1911152   1.5458158  )
        22           Pt  tau(  22) = (   0.1681728   0.4775286   1.5498366  )
        23           Pt  tau(  23) = (   0.5012860   0.4795891   1.5463220  )
        24           Pt  tau(  24) = (   0.8349842   0.4796230   1.5462380  )
        25           Pt  tau(  25) = (   0.3349499   0.7679539   1.5464229  )
        26           Pt  tau(  26) = (   0.6681909   0.7683276   1.5466057  )
        27           Pt  tau(  27) = (   1.0016417   0.7678518   1.5460114  )
        28           Pt  tau(  28) = (   0.0007905  -0.0050746   1.8212419  )
        29           Pt  tau(  29) = (   0.3357947  -0.0050573   1.8210076  )
        30           Pt  tau(  30) = (   0.6682227  -0.0043095   1.8213670  )
        31           Pt  tau(  31) = (   0.1682672   0.2831258   1.8372983  )
        32           Pt  tau(  32) = (   0.5020659   0.2841582   1.8211488  )
        33           Pt  tau(  33) = (   0.8344318   0.2841771   1.8212298  )
        34           Pt  tau(  34) = (   0.3348190   0.5732300   1.8218750  )
        35           Pt  tau(  35) = (   0.6682696   0.5728436   1.8210968  )
        36           Pt  tau(  36) = (   1.0016929   0.5732584   1.8217486  )
        37           H   tau(  37) = (   0.1684522   0.2646041   2.0201244  )

     number of k points=    13  Marzari-Vanderbilt smearing, width (Ry)=  0.0200
                       cart. coord. in units 2pi/alat
        k(    1) = (   0.0000000   0.0000000   0.0000000), wk =   0.0800000
        k(    2) = (   0.0000000   0.2309401   0.0000000), wk =   0.1600000
        k(    3) = (   0.0000000   0.4618802   0.0000000), wk =   0.1600000
        k(    4) = (   0.2000000  -0.1154701   0.0000000), wk =   0.1600000
        k(    5) = (   0.2000000   0.1154701   0.0000000), wk =   0.1600000
        k(    6) = (   0.2000000   0.3464102   0.0000000), wk =   0.1600000
        k(    7) = (   0.2000000  -0.5773503   0.0000000), wk =   0.1600000
        k(    8) = (   0.2000000  -0.3464102   0.0000000), wk =   0.1600000
        k(    9) = (   0.4000000  -0.2309401   0.0000000), wk =   0.1600000
        k(   10) = (   0.4000000   0.0000000   0.0000000), wk =   0.1600000
        k(   11) = (   0.4000000   0.2309401   0.0000000), wk =   0.1600000
        k(   12) = (   0.4000000  -0.6928203   0.0000000), wk =   0.1600000
        k(   13) = (   0.4000000  -0.4618802   0.0000000), wk =   0.1600000

     Dense  grid:  1467143 G-vectors     FFT dimensions: ( 108, 108, 320)

     Smooth grid:   357639 G-vectors     FFT dimensions: (  72,  72, 192)

     Estimated max dynamical RAM per process >     211.30 MB

     Estimated total dynamical RAM >       9.90 GB

     Initial potential from superposition of free atoms

     starting charge     360.9939, renormalised to     361.0000

     negative rho (up, down):  3.563E-03 0.000E+00


     %%%%%%%%%%%%%%%%%%%%%%%%%%%%%%%%%%%%%%%%%%%%%%%%%%%%%%%%%%%%%%%%%%%%%%%%
     %                                                                      %
     % You are using vdW-DF, which was implemented by the Thonhauser group. %
     % Please cite the following two papers that made this development      %
     % possible and the two reviews that describe the various versions:     %
     %                                                                      %
     %   T. Thonhauser et al., PRL 115, 136402 (2015).                      %
     %   T. Thonhauser et al., PRB 76, 125112 (2007).                       %
     %   K. Berland et al., Rep. Prog. Phys. 78, 066501 (2015).             %
     %   D.C. Langreth et al., J. Phys.: Condens. Matter 21, 084203 (2009). %
     %                                                                      %
     % If you are calculating stress with vdW-DF, please also cite:         %
     %                                                                      %
     %   R. Sabatini et al., J. Phys.: Condens. Matter 24, 424209 (2012).   %
     %                                                                      %
     %%%%%%%%%%%%%%%%%%%%%%%%%%%%%%%%%%%%%%%%%%%%%%%%%%%%%%%%%%%%%%%%%%%%%%%%

     %%%%%%%%%%%%%%%%%%%%%%%%%%%%%%%%%%%%%%%%%%%%%%%%%%%%%%%%%%%%%%%%%%%%%%%%
     %                                                                      %
     %  vdW-DF NEWS:                                                        %
     %                                                                      %
     %  * vdW-DF3 is now available. DOI: 10.1021/acs.jctc.0c00471           %
     %    use with input_dft = 'vdW-DF3-opt1' or 'vdW-DF3-opt2'             %
     %                                                                      %
     %  * Unscreened and range-separated hybrid vdW-DF-cx functionals       %
     %    DOI: 10.1063/1.4986522 and 10.1088/1361-648X/ac2ad2               %
     %    use with input_dft = 'vdW-DF-cx0'    and 'vdW-DF-ahcx'            %
     %  * Unscreened and range-separated hybrid vdW-DF2-b86r functionals    %
     %    DOI: 10.1063/1.4986522 and DOI: 10.1103/PhysRevX.12.041003        %
     %    use with input_dft = 'vdW-DF2-br0' and 'vdW-DF2-ahbr'             %
     %                                                                      %
     %%%%%%%%%%%%%%%%%%%%%%%%%%%%%%%%%%%%%%%%%%%%%%%%%%%%%%%%%%%%%%%%%%%%%%%%


     Starting wfcs are  325 randomized atomic wfcs
     Checking if some PAW data can be deallocated... 

     total cpu time spent up to now is       11.1 secs

     per-process dynamical memory:   208.7 Mb

     Self-consistent Calculation

     iteration #  1     ecut=    40.00 Ry     beta= 0.70
     Davidson diagonalization with overlap
     ethr =  1.00E-02,  avg # of iterations =  2.0

     Threshold (ethr) on eigenvalues was too large:
     Diagonalizing with lowered threshold

     Davidson diagonalization with overlap
     ethr =  3.98E-04,  avg # of iterations =  3.6

     negative rho (up, down):  1.731E-02 0.000E+00

     total cpu time spent up to now is       42.3 secs

     total energy              =  -27755.28645738 Ry
     estimated scf accuracy    <       1.63396078 Ry

     iteration #  2     ecut=    40.00 Ry     beta= 0.70
     Davidson diagonalization with overlap
     ethr =  4.53E-04,  avg # of iterations =  2.0

     negative rho (up, down):  1.542E-02 0.000E+00

     total cpu time spent up to now is       55.3 secs

     total energy              =  -27755.39026744 Ry
     estimated scf accuracy    <       0.82046951 Ry

     iteration #  3     ecut=    40.00 Ry     beta= 0.70
     Davidson diagonalization with overlap
     ethr =  2.27E-04,  avg # of iterations =  2.0

     negative rho (up, down):  1.005E-02 0.000E+00

     total cpu time spent up to now is       68.3 secs

     total energy              =  -27755.44488018 Ry
     estimated scf accuracy    <       0.10170473 Ry

     iteration #  4     ecut=    40.00 Ry     beta= 0.70
     Davidson diagonalization with overlap
     c_bands:  1 eigenvalues not converged
     ethr =  2.82E-05,  avg # of iterations = 11.5

     negative rho (up, down):  7.455E-03 0.000E+00

     total cpu time spent up to now is       98.5 secs

     total energy              =  -27755.49525677 Ry
     estimated scf accuracy    <       0.08749949 Ry

     iteration #  5     ecut=    40.00 Ry     beta= 0.70
     Davidson diagonalization with overlap
     ethr =  2.42E-05,  avg # of iterations =  1.2

     negative rho (up, down):  3.672E-03 0.000E+00

     total cpu time spent up to now is      111.2 secs

     total energy              =  -27755.49553683 Ry
     estimated scf accuracy    <       0.02950771 Ry

     iteration #  6     ecut=    40.00 Ry     beta= 0.70
     Davidson diagonalization with overlap
     c_bands:  2 eigenvalues not converged
     c_bands:  1 eigenvalues not converged
     ethr =  8.17E-06,  avg # of iterations = 10.8

     negative rho (up, down):  1.789E-03 0.000E+00

     total cpu time spent up to now is      128.2 secs

     total energy              =  -27755.49761885 Ry
     estimated scf accuracy    <       0.00260602 Ry

     iteration #  7     ecut=    40.00 Ry     beta= 0.70
     Davidson diagonalization with overlap
     c_bands:  2 eigenvalues not converged
     c_bands:  2 eigenvalues not converged
     c_bands:  2 eigenvalues not converged
     c_bands:  2 eigenvalues not converged
     ethr =  7.22E-07,  avg # of iterations = 13.5

     negative rho (up, down):  1.360E-03 0.000E+00

     total cpu time spent up to now is      160.2 secs

     total energy              =  -27755.49836764 Ry
     estimated scf accuracy    <       0.00212122 Ry

     iteration #  8     ecut=    40.00 Ry     beta= 0.70
     Davidson diagonalization with overlap
     ethr =  5.88E-07,  avg # of iterations =  2.2

     negative rho (up, down):  1.147E-03 0.000E+00

     total cpu time spent up to now is      173.3 secs

     total energy              =  -27755.49850239 Ry
     estimated scf accuracy    <       0.00023082 Ry

     iteration #  9     ecut=    40.00 Ry     beta= 0.70
     Davidson diagonalization with overlap
     ethr =  6.39E-08,  avg # of iterations =  5.1

     negative rho (up, down):  8.636E-04 0.000E+00

     total cpu time spent up to now is      196.9 secs

     total energy              =  -27755.49861526 Ry
     estimated scf accuracy    <       0.00010587 Ry

     iteration # 10     ecut=    40.00 Ry     beta= 0.70
     Davidson diagonalization with overlap
     ethr =  2.93E-08,  avg # of iterations =  3.8

     negative rho (up, down):  8.305E-04 0.000E+00

     total cpu time spent up to now is      216.4 secs

     total energy              =  -27755.49863403 Ry
     estimated scf accuracy    <       0.00010724 Ry

     iteration # 11     ecut=    40.00 Ry     beta= 0.70
     Davidson diagonalization with overlap
     ethr =  2.93E-08,  avg # of iterations =  1.3

     negative rho (up, down):  8.995E-04 0.000E+00

     total cpu time spent up to now is      228.5 secs

     total energy              =  -27755.49863831 Ry
     estimated scf accuracy    <       0.00007046 Ry

     iteration # 12     ecut=    40.00 Ry     beta= 0.70
     Davidson diagonalization with overlap
     ethr =  1.95E-08,  avg # of iterations =  1.2

     negative rho (up, down):  1.109E-03 0.000E+00

     total cpu time spent up to now is      240.4 secs

     total energy              =  -27755.49864409 Ry
     estimated scf accuracy    <       0.00002777 Ry

     iteration # 13     ecut=    40.00 Ry     beta= 0.70
     Davidson diagonalization with overlap
     ethr =  7.69E-09,  avg # of iterations =  2.0

     negative rho (up, down):  1.641E-03 0.000E+00

     total cpu time spent up to now is      253.3 secs

     total energy              =  -27755.49864977 Ry
     estimated scf accuracy    <       0.00001636 Ry

     iteration # 14     ecut=    40.00 Ry     beta= 0.70
     Davidson diagonalization with overlap
     ethr =  4.53E-09,  avg # of iterations =  2.0

     negative rho (up, down):  1.980E-03 0.000E+00

     total cpu time spent up to now is      267.8 secs

     total energy              =  -27755.49865708 Ry
     estimated scf accuracy    <       0.00000865 Ry

     iteration # 15     ecut=    40.00 Ry     beta= 0.70
     Davidson diagonalization with overlap
     ethr =  2.40E-09,  avg # of iterations =  2.0

     negative rho (up, down):  2.672E-03 0.000E+00

     total cpu time spent up to now is      280.9 secs

     total energy              =  -27755.49865550 Ry
     estimated scf accuracy    <       0.00000811 Ry

     iteration # 16     ecut=    40.00 Ry     beta= 0.70
     Davidson diagonalization with overlap
     ethr =  2.25E-09,  avg # of iterations =  1.2

     negative rho (up, down):  2.938E-03 0.000E+00

     total cpu time spent up to now is      293.6 secs

     total energy              =  -27755.49865516 Ry
     estimated scf accuracy    <       0.00000254 Ry

     iteration # 17     ecut=    40.00 Ry     beta= 0.70
     Davidson diagonalization with overlap
     ethr =  7.04E-10,  avg # of iterations =  2.0

     negative rho (up, down):  3.382E-03 0.000E+00

     total cpu time spent up to now is      306.9 secs

     End of self-consistent calculation

          k = 0.0000 0.0000 0.0000 ( 44645 PWs)   bands (ev):

    -6.6332  -5.3573  -4.2830  -4.2330  -4.2144  -4.2070  -4.2035  -4.1995
    -4.1887  -4.1787  -3.7417  -3.6577  -3.6545  -3.6517  -3.6453  -3.6416
    -3.3102  -3.1851  -3.1827  -3.1773  -3.1737  -3.1729  -3.1072  -2.9685
    -2.9647  -2.9621  -2.9545  -2.9529  -2.7852  -2.7429  -2.7354  -2.7344
    -2.7301  -2.7283  -2.7100  -2.7091  -2.7068  -2.6969  -2.6953  -2.6551
    -2.5327  -2.1172  -2.1168  -2.0837  -2.0825  -2.0451  -2.0414  -2.0410
    -2.0301  -2.0278  -1.9826  -1.8791  -1.8612  -1.7899  -1.6485  -1.3258
    -1.3190  -1.3060  -1.3018  -1.2921  -1.2855  -1.2334  -1.1197  -1.1165
    -1.1088  -1.1079  -1.0931  -1.0852  -1.0644  -1.0579  -1.0565  -1.0373
    -1.0332  -1.0287  -1.0003  -0.9965  -0.9748  -0.9023  -0.8872  -0.8807
    -0.8796  -0.8625  -0.6926  -0.6890  -0.6705  -0.6630  -0.6528  -0.6462
    -0.6307  -0.6189  -0.6133  -0.5408  -0.5387  -0.4836  -0.4832  -0.4510
    -0.4500  -0.4172  -0.4121  -0.4011  -0.3968  -0.2796  -0.2633  -0.2531
    -0.2389  -0.2309  -0.2165   0.1241   0.2368   0.2415   0.2707   0.2720
     0.2735   0.2775   0.2818   0.3269   0.3292   0.3370   0.3389   0.3463
     0.3985   0.4016   0.5393   0.5671   0.5716   0.5852   0.5871   0.6632
     0.6671   0.6820   0.7199   0.7360   0.7397   0.7727   0.9689   0.9760
     1.0066   1.0104   1.0207   1.0310   1.0739   1.0838   1.2427   1.2498
     1.2522   1.2596   1.2623   1.3173   1.4202   1.4270   1.4355   1.4430
     1.4478   1.4607   1.4630   1.4663   1.4689   1.4713   1.4762   1.5650
     1.5861   1.5902   1.6107   1.6126   1.6166   1.6367   1.6478   1.7045
     1.7073   1.7190   1.7255   1.7367   1.7430   1.7462   1.7497   1.7981
     1.8247   1.8297   1.8376   1.8425   1.8459   1.8610   1.9154   1.9398
     1.9435   1.9464   1.9639   1.9655   2.1370   2.1664   2.2385   2.2477
     2.2719   2.2729   2.2778   2.2826   2.5926   3.0900   3.1477   3.1578
     3.1628   3.1678   3.1713   4.6840   5.4404   5.4514   5.4860   5.4969
     5.5038   6.6440   7.0767   7.0813   7.1141   7.1160   7.1370   7.1384
     7.2463

          k = 0.0000 0.2309 0.0000 ( 44694 PWs)   bands (ev):

    -6.4856  -5.2128  -4.7234  -4.3261  -4.3073  -4.1285  -4.0742  -4.0236
    -3.9768  -3.9565  -3.8108  -3.7422  -3.6381  -3.5886  -3.5864  -3.5713
    -3.3183  -3.2147  -3.1491  -3.1448  -3.1345  -3.0997  -3.0590  -3.0413
    -3.0004  -2.9749  -2.9638  -2.9319  -2.9069  -2.8575  -2.8223  -2.7724
    -2.7563  -2.7232  -2.7162  -2.6146  -2.5266  -2.5225  -2.5061  -2.5036
    -2.4370  -2.2363  -2.2250  -2.1811  -2.1614  -2.1413  -2.1216  -2.0770
    -1.9308  -1.9278  -1.8620  -1.8529  -1.8132  -1.7915  -1.7143  -1.5383
    -1.4754  -1.4494  -1.4098  -1.4037  -1.3715  -1.3117  -1.3113  -1.2772
    -1.2652  -1.2485  -1.2223  -1.1836  -1.1381  -1.1136  -1.0914  -1.0754
    -1.0360  -1.0130  -1.0026  -0.9176  -0.9107  -0.8938  -0.8415  -0.8111
    -0.8088  -0.7926  -0.7553  -0.7085  -0.6999  -0.6952  -0.6796  -0.6563
    -0.6413  -0.6180  -0.5794  -0.5547  -0.5242  -0.5134  -0.4935  -0.4887
    -0.4631  -0.4293  -0.4257  -0.4150  -0.3038  -0.2661  -0.2566  -0.2438
    -0.2425  -0.2198  -0.2153  -0.2006  -0.1530  -0.1511  -0.1299  -0.1155
    -0.0159   0.1399   0.1898   0.2232   0.2549   0.2722   0.2867   0.2933
     0.3252   0.3398   0.4738   0.4811   0.4930   0.5853   0.6137   0.6585
     0.6797   0.6936   0.7250   0.7377   0.7680   0.7715   0.8551   0.8684
     0.8800   0.8913   0.8967   1.0719   1.0747   1.1163   1.1272   1.1397
     1.1569   1.1876   1.2364   1.2696   1.2777   1.2955   1.3249   1.3676
     1.3743   1.3837   1.4103   1.4908   1.4980   1.5263   1.5646   1.6207
     1.6505   1.6545   1.6678   1.6818   1.6868   1.7315   1.7807   1.8126
     1.8144   1.8657   1.8770   1.8846   1.9211   1.9271   1.9327   1.9374
     1.9437   1.9865   1.9970   2.1199   2.1408   2.1736   2.1914   2.1961
     2.2109   2.2394   2.2697   2.2808   2.2965   2.3556   2.3977   2.4101
     2.4165   2.5747   2.5843   2.5936   2.6180   2.9184   3.0381   3.4425
     3.7522   3.7531   3.8856   4.5130   4.9863   5.1986   5.7000   5.9351
     5.9408   6.0423   6.2420   6.6216   6.9033   6.9312   7.2288   7.2985
     7.3150

          k = 0.0000 0.4619 0.0000 ( 44748 PWs)   bands (ev):

    -6.0609  -5.4245  -4.8071  -4.3615  -4.3401  -4.2517  -3.9970  -3.8343
    -3.7318  -3.6925  -3.6531  -3.6142  -3.5441  -3.4585  -3.4201  -3.4054
    -3.3971  -3.2994  -3.2534  -3.2260  -3.2044  -3.1844  -3.1607  -3.1326
    -3.0720  -3.0499  -3.0476  -2.9246  -2.7844  -2.7787  -2.7737  -2.7582
    -2.7468  -2.7008  -2.5320  -2.5150  -2.4990  -2.4956  -2.4700  -2.4003
    -2.2817  -2.2032  -2.1884  -2.1749  -2.1493  -2.1271  -2.1037  -2.0436
    -2.0417  -2.0020  -1.9841  -1.9343  -1.8222  -1.8213  -1.7865  -1.7762
    -1.6708  -1.6170  -1.6009  -1.5994  -1.5373  -1.4554  -1.4018  -1.3828
    -1.3806  -1.3655  -1.2901  -1.2732  -1.2533  -1.1592  -1.1570  -1.1367
    -1.1290  -1.0202  -0.9998  -0.9888  -0.9853  -0.9615  -0.9236  -0.8991
    -0.8901  -0.8678  -0.8629  -0.8608  -0.8554  -0.8371  -0.8029  -0.7334
    -0.7115  -0.6979  -0.6921  -0.6774  -0.6660  -0.5884  -0.5327  -0.5181
    -0.5052  -0.4647  -0.4420  -0.4186  -0.4088  -0.4042  -0.3279  -0.2549
    -0.2259  -0.1967  -0.1831  -0.1397  -0.1284  -0.0006   0.0064   0.0405
     0.0974   0.1550   0.1791   0.1853   0.2081   0.2203   0.2400   0.2648
     0.3130   0.3185   0.3343   0.3435   0.3535   0.3662   0.3842   0.4025
     0.4435   0.5239   0.5562   0.5758   0.5879   0.6574   0.7300   0.7647
     0.7751   0.8762   0.8857   0.9776   1.0302   1.0451   1.0813   1.0972
     1.1005   1.1445   1.1543   1.2148   1.2254   1.2571   1.2892   1.3140
     1.3781   1.4009   1.4213   1.4313   1.4493   1.4637   1.5464   1.6186
     1.6666   1.6931   1.7089   1.7260   1.7306   1.8143   1.8399   1.8416
     1.9161   1.9202   1.9302   1.9900   1.9987   2.0155   2.0363   2.1118
     2.1515   2.1742   2.1758   2.1943   2.2022   2.2241   2.2319   2.3994
     2.4111   2.4351   2.4503   2.4531   2.6266   2.6641   2.8281   3.0475
     3.0927   3.2210   3.4921   3.4983   3.8147   3.8852   3.9042   4.2327
     4.4051   4.7159   4.7229   4.7430   4.8994   4.9689   5.0318   5.0968
     5.3658   5.3760   5.7225   6.0080   6.3229   6.5412   6.6920   7.0144
     7.2172

          k = 0.2000-0.1155 0.0000 ( 44694 PWs)   bands (ev):

    -6.4854  -5.2125  -4.7172  -4.3317  -4.3100  -4.1284  -4.0733  -4.0168
    -3.9781  -3.9618  -3.8114  -3.7450  -3.6406  -3.5830  -3.5800  -3.5692
    -3.3115  -3.2318  -3.1521  -3.1435  -3.1305  -3.0958  -3.0595  -3.0451
    -3.0007  -2.9778  -2.9590  -2.9302  -2.8931  -2.8620  -2.8277  -2.7622
    -2.7549  -2.7263  -2.7195  -2.6110  -2.5260  -2.5223  -2.5095  -2.5000
    -2.4512  -2.2400  -2.2202  -2.2045  -2.1568  -2.1427  -2.1224  -2.0709
    -1.9368  -1.9243  -1.8626  -1.8470  -1.8182  -1.7889  -1.7121  -1.5555
    -1.4755  -1.4467  -1.4278  -1.4140  -1.3796  -1.3105  -1.2928  -1.2826
    -1.2527  -1.2469  -1.2262  -1.1843  -1.1411  -1.1257  -1.0976  -1.0747
    -1.0041  -0.9944  -0.9845  -0.9211  -0.9141  -0.8947  -0.8442  -0.8326
    -0.8159  -0.7719  -0.7647  -0.7064  -0.7014  -0.6856  -0.6805  -0.6599
    -0.6417  -0.6277  -0.5760  -0.5433  -0.5245  -0.5180  -0.4921  -0.4836
    -0.4709  -0.4297  -0.4223  -0.4106  -0.3067  -0.2641  -0.2491  -0.2416
    -0.2336  -0.2255  -0.2139  -0.2038  -0.1567  -0.1480  -0.1320  -0.1187
    -0.0409   0.1493   0.1811   0.2296   0.2571   0.2727   0.2869   0.2986
     0.3278   0.3421   0.4765   0.4880   0.4969   0.5960   0.6216   0.6423
     0.6926   0.6946   0.7298   0.7398   0.7708   0.7849   0.8541   0.8610
     0.8790   0.8895   0.8982   1.0601   1.0911   1.1159   1.1277   1.1394
     1.1587   1.1850   1.2373   1.2659   1.2705   1.2960   1.3166   1.3662
     1.3701   1.3874   1.4060   1.4896   1.4958   1.5213   1.5678   1.6256
     1.6522   1.6550   1.6700   1.6888   1.6941   1.7323   1.7855   1.8121
     1.8140   1.8679   1.8762   1.8844   1.9186   1.9297   1.9342   1.9377
     1.9393   1.9932   2.0084   2.1357   2.1379   2.1689   2.1821   2.1930
     2.2022   2.2253   2.2495   2.2694   2.2959   2.3552   2.3976   2.4175
     2.4201   2.5638   2.5855   2.5918   2.6278   2.9050   3.0220   3.4487
     3.7536   3.7618   3.8875   4.5242   4.9825   5.1861   5.6970   5.9370
     5.9421   6.0394   6.2439   6.6300   6.9070   6.9370   7.2384   7.2908
     7.3107

          k = 0.2000 0.1155 0.0000 ( 44694 PWs)   bands (ev):

    -6.4854  -5.2126  -4.7178  -4.3314  -4.3097  -4.1283  -4.0734  -4.0172
    -3.9785  -3.9607  -3.8125  -3.7447  -3.6382  -3.5845  -3.5822  -3.5681
    -3.3113  -3.2313  -3.1525  -3.1435  -3.1296  -3.0971  -3.0595  -3.0446
    -3.0013  -2.9784  -2.9591  -2.9310  -2.8946  -2.8611  -2.8258  -2.7637
    -2.7550  -2.7251  -2.7187  -2.6111  -2.5276  -2.5223  -2.5093  -2.4992
    -2.4499  -2.2405  -2.2212  -2.2023  -2.1577  -2.1419  -2.1214  -2.0728
    -1.9364  -1.9244  -1.8637  -1.8463  -1.8179  -1.7891  -1.7113  -1.5538
    -1.4745  -1.4458  -1.4282  -1.4127  -1.3776  -1.3099  -1.2954  -1.2822
    -1.2545  -1.2469  -1.2272  -1.1838  -1.1395  -1.1258  -1.0977  -1.0738
    -1.0059  -0.9965  -0.9871  -0.9207  -0.9143  -0.8939  -0.8444  -0.8292
    -0.8136  -0.7730  -0.7619  -0.7079  -0.7020  -0.6875  -0.6795  -0.6602
    -0.6426  -0.6277  -0.5760  -0.5438  -0.5244  -0.5176  -0.4908  -0.4832
    -0.4726  -0.4319  -0.4220  -0.4109  -0.3070  -0.2659  -0.2496  -0.2410
    -0.2357  -0.2237  -0.2153  -0.2009  -0.1560  -0.1505  -0.1325  -0.1182
    -0.0392   0.1501   0.1832   0.2270   0.2545   0.2741   0.2882   0.2973
     0.3282   0.3434   0.4762   0.4873   0.4968   0.5929   0.6212   0.6429
     0.6901   0.6970   0.7295   0.7387   0.7704   0.7844   0.8527   0.8638
     0.8820   0.8884   0.8976   1.0626   1.0886   1.1157   1.1262   1.1394
     1.1586   1.1852   1.2368   1.2671   1.2710   1.2946   1.3149   1.3674
     1.3703   1.3858   1.4085   1.4905   1.4959   1.5221   1.5690   1.6244
     1.6517   1.6538   1.6698   1.6877   1.6933   1.7320   1.7860   1.8126
     1.8153   1.8677   1.8745   1.8848   1.9190   1.9289   1.9336   1.9385
     1.9395   1.9918   2.0070   2.1349   2.1375   2.1696   2.1832   2.1939
     2.2032   2.2264   2.2517   2.2712   2.2959   2.3547   2.3988   2.4165
     2.4193   2.5652   2.5852   2.5922   2.6265   2.9072   3.0239   3.4478
     3.7522   3.7615   3.8874   4.5227   4.9841   5.1879   5.6957   5.9363
     5.9421   6.0397   6.2449   6.6286   6.9065   6.9358   7.2367   7.2915
     7.3110

          k = 0.2000 0.3464 0.0000 ( 44714 PWs)   bands (ev):

    -6.1985  -4.9836  -4.9590  -4.9283  -3.9751  -3.8932  -3.8828  -3.8670
    -3.8402  -3.8152  -3.8110  -3.7951  -3.7031  -3.6987  -3.4130  -3.3189
    -3.3073  -3.2974  -3.2413  -3.2194  -3.0969  -3.0659  -3.0531  -3.0497
    -3.0450  -2.9970  -2.9204  -2.8996  -2.8893  -2.8874  -2.8617  -2.8085
    -2.7875  -2.7742  -2.7304  -2.6621  -2.5676  -2.3971  -2.3045  -2.2932
    -2.2675  -2.2491  -2.2467  -2.2361  -2.1898  -2.1724  -2.0845  -2.0085
    -1.9999  -1.9737  -1.8978  -1.8740  -1.8276  -1.8112  -1.7974  -1.7264
    -1.6758  -1.5632  -1.5562  -1.5042  -1.4691  -1.4455  -1.4185  -1.4093
    -1.3614  -1.3461  -1.3328  -1.2056  -1.1892  -1.1711  -1.1473  -1.1189
    -1.1033  -1.0506  -1.0376  -1.0241  -0.9938  -0.8846  -0.8727  -0.8610
    -0.8421  -0.8352  -0.8213  -0.8120  -0.7751  -0.7596  -0.7412  -0.7176
    -0.6852  -0.6363  -0.5929  -0.5807  -0.5673  -0.5294  -0.5032  -0.4912
    -0.4766  -0.4478  -0.4340  -0.4205  -0.4114  -0.3991  -0.3936  -0.3725
    -0.3274  -0.3139  -0.2656  -0.2141  -0.1715  -0.1643  -0.1071  -0.0905
    -0.0786  -0.0045   0.1134   0.1511   0.2135   0.2499   0.2690   0.2794
     0.3051   0.3381   0.3568   0.3752   0.4011   0.4078   0.4554   0.4889
     0.5255   0.6089   0.6741   0.6992   0.7308   0.7454   0.7712   0.8015
     0.8159   0.9200   0.9365   0.9538   0.9996   1.0196   1.0604   1.1336
     1.1575   1.1590   1.1784   1.2243   1.2359   1.2547   1.2568   1.2748
     1.2870   1.2900   1.3076   1.3861   1.4661   1.5038   1.5491   1.6245
     1.6445   1.7225   1.8040   1.8162   1.8210   1.8572   1.9245   1.9431
     1.9620   1.9735   1.9903   2.0115   2.0220   2.0231   2.0349   2.0664
     2.0920   2.1089   2.1682   2.1936   2.2165   2.2484   2.2583   2.2897
     2.3889   2.4506   2.4922   2.5022   2.5586   2.5707   2.5791   2.7092
     2.7199   2.9698   3.2404   3.2563   3.6081   3.7825   3.7989   3.8162
     4.1076   4.4928   4.5056   4.7155   4.7338   4.7646   5.3825   5.5496
     5.9215   5.9377   6.1656   6.2254   6.6320   6.6931   6.7071   6.7315
     6.7558

          k = 0.2000-0.5774 0.0000 ( 44692 PWs)   bands (ev):

    -5.6654  -5.6577  -5.0490  -4.4620  -4.4247  -3.9389  -3.8915  -3.7511
    -3.7099  -3.6278  -3.5957  -3.5024  -3.4932  -3.4258  -3.3855  -3.3819
    -3.3457  -3.3322  -3.3206  -3.3054  -3.2520  -3.1669  -3.1609  -3.1358
    -3.1130  -3.0505  -2.9672  -2.9094  -2.9035  -2.8404  -2.7637  -2.7570
    -2.7417  -2.7354  -2.6735  -2.6267  -2.5958  -2.5117  -2.4339  -2.3243
    -2.3128  -2.2526  -2.1877  -2.1701  -2.1269  -2.0966  -2.0052  -1.9445
    -1.9265  -1.9095  -1.8731  -1.8281  -1.8137  -1.7760  -1.7106  -1.7047
    -1.6817  -1.6714  -1.6640  -1.6562  -1.6114  -1.5951  -1.5504  -1.4752
    -1.4449  -1.3928  -1.3712  -1.2915  -1.2488  -1.2353  -1.2189  -1.1836
    -1.1750  -1.1578  -1.0899  -1.0526  -1.0357  -1.0208  -1.0056  -0.9794
    -0.9206  -0.9063  -0.8586  -0.8130  -0.8063  -0.7922  -0.7480  -0.6919
    -0.6182  -0.6128  -0.5968  -0.5899  -0.5528  -0.5465  -0.5375  -0.5110
    -0.5028  -0.5008  -0.4717  -0.4563  -0.4145  -0.4013  -0.3817  -0.3739
    -0.3662  -0.3448  -0.3270  -0.3047  -0.2849  -0.2040  -0.0819  -0.0355
     0.0307   0.0430   0.1335   0.1560   0.1698   0.1873   0.2168   0.2256
     0.2521   0.2677   0.3026   0.3659   0.3767   0.3981   0.4386   0.4615
     0.5141   0.5299   0.5684   0.6559   0.7321   0.7868   0.7962   0.8115
     0.8313   0.8969   0.9134   0.9344   0.9511   0.9602   0.9880   1.0046
     1.0294   1.0997   1.1258   1.1642   1.1844   1.2042   1.2051   1.2329
     1.2349   1.3313   1.3972   1.4485   1.4942   1.5662   1.6194   1.6464
     1.6577   1.7337   1.7763   1.7854   1.8147   1.8791   1.9352   1.9535
     1.9686   2.0011   2.0101   2.0253   2.0524   2.0906   2.1583   2.1671
     2.1704   2.1857   2.2192   2.2224   2.2274   2.2901   2.4131   2.4190
     2.4417   2.4492   2.4542   2.5101   2.5464   2.6357   2.7613   3.3366
     3.6067   3.6085   3.7862   3.8575   3.9847   3.9910   3.9986   4.2771
     4.6139   4.6233   4.8344   5.0671   5.0927   5.1994   5.2209   5.2647
     5.4513   5.5248   5.5806   5.8304   6.0205   6.0520   6.3063   6.6729
     6.6994

          k = 0.2000-0.3464 0.0000 ( 44714 PWs)   bands (ev):

    -6.1985  -4.9791  -4.9627  -4.9291  -3.9717  -3.8927  -3.8810  -3.8722
    -3.8393  -3.8160  -3.8120  -3.7955  -3.7031  -3.6986  -3.4123  -3.3154
    -3.3089  -3.2983  -3.2401  -3.2192  -3.1004  -3.0632  -3.0553  -3.0517
    -3.0424  -2.9965  -2.9204  -2.8989  -2.8899  -2.8872  -2.8626  -2.8085
    -2.7863  -2.7737  -2.7331  -2.6600  -2.5678  -2.3977  -2.3017  -2.2943
    -2.2707  -2.2485  -2.2454  -2.2361  -2.1906  -2.1720  -2.0861  -2.0092
    -1.9973  -1.9767  -1.8972  -1.8741  -1.8264  -1.8158  -1.7938  -1.7251
    -1.6771  -1.5654  -1.5565  -1.5047  -1.4707  -1.4473  -1.4197  -1.4100
    -1.3597  -1.3454  -1.3338  -1.2064  -1.1889  -1.1678  -1.1486  -1.1166
    -1.1029  -1.0540  -1.0368  -1.0248  -0.9928  -0.8879  -0.8734  -0.8607
    -0.8428  -0.8351  -0.8213  -0.8107  -0.7763  -0.7583  -0.7427  -0.7140
    -0.6832  -0.6346  -0.5920  -0.5799  -0.5671  -0.5282  -0.5021  -0.4891
    -0.4780  -0.4477  -0.4340  -0.4202  -0.4136  -0.3976  -0.3942  -0.3722
    -0.3276  -0.3136  -0.2657  -0.2134  -0.1715  -0.1643  -0.1059  -0.0904
    -0.0783  -0.0050   0.1180   0.1450   0.2161   0.2504   0.2702   0.2793
     0.3054   0.3369   0.3554   0.3766   0.4005   0.4058   0.4552   0.4874
     0.5244   0.6123   0.6740   0.6982   0.7310   0.7461   0.7725   0.8015
     0.8161   0.9219   0.9407   0.9502   0.9992   1.0180   1.0599   1.1319
     1.1575   1.1599   1.1789   1.2250   1.2365   1.2553   1.2578   1.2746
     1.2849   1.2899   1.3078   1.3846   1.4690   1.5025   1.5485   1.6258
     1.6442   1.7218   1.8053   1.8155   1.8204   1.8584   1.9250   1.9414
     1.9628   1.9734   1.9897   2.0117   2.0226   2.0239   2.0361   2.0675
     2.0919   2.1062   2.1689   2.1931   2.2175   2.2487   2.2580   2.2907
     2.3871   2.4487   2.4906   2.5012   2.5575   2.5715   2.5765   2.7102
     2.7194   2.9709   3.2412   3.2568   3.6086   3.7809   3.7981   3.8162
     4.1078   4.4926   4.5041   4.7166   4.7336   4.7645   5.3826   5.5488
     5.9213   5.9373   6.1661   6.2243   6.6331   6.6909   6.7093   6.7326
     6.7560

          k = 0.4000-0.2309 0.0000 ( 44748 PWs)   bands (ev):

    -6.0600  -5.4215  -4.8079  -4.3667  -4.3419  -4.2486  -3.9890  -3.8346
    -3.7292  -3.6886  -3.6505  -3.6206  -3.5462  -3.4533  -3.4162  -3.4027
    -3.3916  -3.2933  -3.2558  -3.2312  -3.2045  -3.1790  -3.1599  -3.1243
    -3.0831  -3.0510  -3.0479  -2.9231  -2.7852  -2.7813  -2.7738  -2.7663
    -2.7588  -2.6929  -2.5352  -2.5142  -2.5032  -2.4981  -2.4726  -2.4057
    -2.3014  -2.1972  -2.1909  -2.1810  -2.1564  -2.1265  -2.0934  -2.0558
    -2.0378  -2.0134  -1.9810  -1.9186  -1.8301  -1.8255  -1.7882  -1.7778
    -1.6795  -1.6342  -1.6142  -1.6104  -1.5679  -1.4544  -1.4079  -1.3768
    -1.3689  -1.3565  -1.2866  -1.2780  -1.2459  -1.1454  -1.1282  -1.1232
    -1.0969  -1.0177  -1.0050  -0.9944  -0.9868  -0.9638  -0.9308  -0.9099
    -0.8983  -0.8742  -0.8632  -0.8592  -0.8413  -0.8384  -0.7946  -0.7341
    -0.7093  -0.7060  -0.6988  -0.6898  -0.6802  -0.5802  -0.5192  -0.5138
    -0.4851  -0.4533  -0.4430  -0.4289  -0.3998  -0.3818  -0.3097  -0.2547
    -0.2292  -0.2044  -0.1858  -0.1355  -0.1271   0.0002   0.0096   0.0272
     0.1012   0.1542   0.1794   0.1867   0.2071   0.2185   0.2265   0.2386
     0.3120   0.3233   0.3330   0.3477   0.3547   0.3757   0.4002   0.4168
     0.4284   0.5345   0.5711   0.5811   0.5974   0.6597   0.7449   0.7742
     0.7792   0.8784   0.8807   0.9556   1.0228   1.0531   1.0880   1.0949
     1.1170   1.1343   1.1498   1.2120   1.2211   1.2508   1.2787   1.3116
     1.3728   1.3976   1.4234   1.4250   1.4516   1.4783   1.5477   1.6211
     1.6673   1.6984   1.7115   1.7300   1.7344   1.8163   1.8400   1.8417
     1.9222   1.9231   1.9341   1.9873   2.0077   2.0247   2.0414   2.1152
     2.1457   2.1705   2.1789   2.1906   2.1956   2.2089   2.2204   2.3956
     2.4014   2.4238   2.4307   2.4462   2.6285   2.6650   2.8237   3.0297
     3.1121   3.2234   3.4904   3.5004   3.8236   3.8865   3.9062   4.2135
     4.3967   4.7110   4.7236   4.7302   4.9112   4.9745   5.0255   5.0832
     5.3662   5.3774   5.7314   5.9895   6.3276   6.5487   6.6978   7.0160
     7.2144

          k = 0.4000 0.0000 0.0000 ( 44714 PWs)   bands (ev):

    -6.1979  -4.9709  -4.9673  -4.9304  -3.9685  -3.8823  -3.8812  -3.8773
    -3.8382  -3.8246  -3.8126  -3.7999  -3.7036  -3.6987  -3.4042  -3.3103
    -3.3042  -3.2941  -3.2397  -3.2143  -3.1084  -3.0631  -3.0548  -3.0513
    -3.0432  -3.0058  -2.9332  -2.8984  -2.8939  -2.8867  -2.8627  -2.8082
    -2.7822  -2.7702  -2.7366  -2.6456  -2.5589  -2.3968  -2.3066  -2.2935
    -2.2751  -2.2499  -2.2444  -2.2410  -2.2114  -2.1725  -2.1122  -2.0071
    -1.9957  -1.9562  -1.9013  -1.8734  -1.8292  -1.8175  -1.7895  -1.7254
    -1.6870  -1.5718  -1.5544  -1.5056  -1.4879  -1.4533  -1.4220  -1.4190
    -1.3613  -1.3441  -1.3359  -1.1924  -1.1895  -1.1630  -1.1371  -1.1078
    -1.0909  -1.0556  -1.0411  -1.0127  -0.9957  -0.9022  -0.8736  -0.8640
    -0.8483  -0.8258  -0.8193  -0.8121  -0.7690  -0.7596  -0.7403  -0.7011
    -0.6771  -0.6313  -0.5895  -0.5818  -0.5671  -0.5316  -0.4994  -0.4826
    -0.4730  -0.4512  -0.4422  -0.4240  -0.4159  -0.3968  -0.3925  -0.3774
    -0.3231  -0.3136  -0.2794  -0.2118  -0.1764  -0.1679  -0.0965  -0.0805
    -0.0775   0.0078   0.1153   0.1389   0.2332   0.2516   0.2783   0.2871
     0.3039   0.3327   0.3619   0.3714   0.3954   0.4093   0.4505   0.4879
     0.5106   0.6289   0.6775   0.7027   0.7298   0.7453   0.7779   0.8041
     0.8201   0.9209   0.9455   0.9494   0.9970   1.0186   1.0663   1.1273
     1.1491   1.1580   1.1814   1.2247   1.2365   1.2475   1.2569   1.2742
     1.2771   1.2862   1.3020   1.3821   1.4789   1.5007   1.5446   1.6320
     1.6467   1.7223   1.8058   1.8154   1.8195   1.8641   1.9237   1.9379
     1.9634   1.9690   1.9949   2.0120   2.0230   2.0325   2.0437   2.0721
     2.0888   2.0946   2.1745   2.2050   2.2146   2.2487   2.2571   2.2948
     2.3731   2.4330   2.4791   2.4888   2.5496   2.5706   2.5766   2.7128
     2.7239   2.9823   3.2486   3.2604   3.6034   3.7740   3.7872   3.8110
     4.1074   4.4940   4.5074   4.7183   4.7320   4.7624   5.3841   5.5419
     5.9191   5.9279   6.1719   6.2234   6.6375   6.6994   6.7052   6.7327
     6.7546

          k = 0.4000 0.2309 0.0000 ( 44748 PWs)   bands (ev):

    -6.0601  -5.4219  -4.8073  -4.3659  -4.3419  -4.2497  -3.9900  -3.8347
    -3.7293  -3.6889  -3.6483  -3.6201  -3.5458  -3.4538  -3.4181  -3.4030
    -3.3917  -3.2943  -3.2551  -3.2308  -3.2064  -3.1795  -3.1593  -3.1259
    -3.0835  -3.0512  -3.0482  -2.9177  -2.7864  -2.7768  -2.7751  -2.7692
    -2.7556  -2.6942  -2.5339  -2.5141  -2.5050  -2.4988  -2.4727  -2.4043
    -2.3015  -2.1988  -2.1875  -2.1801  -2.1589  -2.1265  -2.0928  -2.0547
    -2.0382  -2.0111  -1.9811  -1.9215  -1.8294  -1.8252  -1.7876  -1.7771
    -1.6776  -1.6328  -1.6143  -1.6085  -1.5645  -1.4558  -1.4069  -1.3805
    -1.3681  -1.3541  -1.2862  -1.2783  -1.2479  -1.1481  -1.1301  -1.1251
    -1.0972  -1.0202  -1.0047  -0.9923  -0.9855  -0.9640  -0.9301  -0.9086
    -0.8950  -0.8740  -0.8624  -0.8569  -0.8420  -0.8402  -0.7951  -0.7325
    -0.7104  -0.7069  -0.6988  -0.6898  -0.6736  -0.5837  -0.5216  -0.5149
    -0.4892  -0.4549  -0.4417  -0.4306  -0.3992  -0.3854  -0.3118  -0.2520
    -0.2314  -0.2055  -0.1879  -0.1347  -0.1284   0.0005   0.0088   0.0282
     0.1001   0.1545   0.1787   0.1871   0.2052   0.2210   0.2270   0.2424
     0.3113   0.3261   0.3322   0.3493   0.3557   0.3751   0.3957   0.4169
     0.4302   0.5329   0.5699   0.5809   0.5972   0.6586   0.7438   0.7738
     0.7784   0.8778   0.8810   0.9587   1.0235   1.0524   1.0863   1.0956
     1.1140   1.1347   1.1503   1.2117   1.2194   1.2509   1.2818   1.3131
     1.3738   1.3979   1.4230   1.4275   1.4498   1.4769   1.5463   1.6211
     1.6660   1.6971   1.7110   1.7298   1.7338   1.8164   1.8403   1.8434
     1.9211   1.9223   1.9338   1.9878   2.0060   2.0244   2.0409   2.1146
     2.1468   2.1708   2.1784   2.1911   2.1967   2.2115   2.2214   2.3968
     2.4020   2.4261   2.4315   2.4486   2.6284   2.6644   2.8257   3.0319
     3.1089   3.2223   3.4904   3.5004   3.8223   3.8863   3.9058   4.2147
     4.3983   4.7120   4.7234   4.7323   4.9095   4.9738   5.0273   5.0852
     5.3657   5.3775   5.7297   5.9910   6.3279   6.5481   6.6966   7.0158
     7.2144

          k = 0.4000-0.6928 0.0000 ( 44692 PWs)   bands (ev):

    -5.6646  -5.6559  -5.0512  -4.4682  -4.4170  -3.9406  -3.8837  -3.7521
    -3.7103  -3.6251  -3.6008  -3.5036  -3.4908  -3.4152  -3.3877  -3.3750
    -3.3462  -3.3290  -3.3201  -3.3092  -3.2589  -3.1675  -3.1624  -3.1327
    -3.1093  -3.0488  -2.9761  -2.9079  -2.9013  -2.8436  -2.7641  -2.7564
    -2.7392  -2.7371  -2.6753  -2.6292  -2.6010  -2.5178  -2.4421  -2.3223
    -2.3062  -2.2779  -2.1902  -2.1602  -2.1204  -2.0957  -1.9981  -1.9402
    -1.9244  -1.9058  -1.8753  -1.8408  -1.8167  -1.7891  -1.7149  -1.7063
    -1.6845  -1.6768  -1.6668  -1.6587  -1.6198  -1.5969  -1.5620  -1.4687
    -1.4385  -1.3954  -1.3614  -1.2873  -1.2643  -1.2309  -1.2137  -1.1738
    -1.1580  -1.1461  -1.0821  -1.0522  -1.0409  -1.0247  -1.0068  -0.9803
    -0.9292  -0.9112  -0.8487  -0.8208  -0.8119  -0.7979  -0.7402  -0.6686
    -0.6378  -0.6117  -0.6051  -0.5931  -0.5491  -0.5431  -0.5290  -0.5109
    -0.5040  -0.4718  -0.4563  -0.4427  -0.4185  -0.4048  -0.3850  -0.3803
    -0.3689  -0.3600  -0.3279  -0.2980  -0.2769  -0.2251  -0.0696  -0.0163
     0.0329   0.0389   0.1397   0.1536   0.1605   0.1829   0.2142   0.2316
     0.2474   0.2628   0.3038   0.3589   0.3774   0.4012   0.4463   0.4561
     0.5111   0.5365   0.5825   0.6667   0.7387   0.7854   0.7914   0.8112
     0.8275   0.8845   0.9109   0.9348   0.9497   0.9597   0.9873   1.0010
     1.0351   1.0987   1.1211   1.1655   1.1815   1.2029   1.2073   1.2312
     1.2424   1.3464   1.3887   1.4537   1.4961   1.5661   1.6156   1.6435
     1.6584   1.7333   1.7748   1.7827   1.8186   1.8812   1.9381   1.9545
     1.9810   2.0051   2.0080   2.0238   2.0512   2.0835   2.1527   2.1666
     2.1727   2.2012   2.2157   2.2227   2.2301   2.2922   2.4036   2.4160
     2.4323   2.4376   2.4517   2.5069   2.5333   2.6349   2.7637   3.3428
     3.6065   3.6096   3.7965   3.8502   3.9891   3.9961   4.0068   4.2621
     4.6081   4.6214   4.8384   5.0643   5.0926   5.2018   5.2183   5.2559
     5.4065   5.5210   5.5945   5.8290   6.0267   6.0619   6.3036   6.6811
     6.7163

          k = 0.4000-0.4619 0.0000 ( 44692 PWs)   bands (ev):

    -5.6679  -5.6522  -5.0516  -4.4731  -4.4112  -3.9416  -3.8829  -3.7521
    -3.7097  -3.6271  -3.6008  -3.5034  -3.4905  -3.4130  -3.3918  -3.3731
    -3.3465  -3.3296  -3.3159  -3.3110  -3.2574  -3.1682  -3.1630  -3.1319
    -3.1078  -3.0490  -2.9755  -2.9103  -2.9051  -2.8435  -2.7626  -2.7556
    -2.7399  -2.7344  -2.6795  -2.6285  -2.6019  -2.5168  -2.4427  -2.3228
    -2.3054  -2.2775  -2.1910  -2.1595  -2.1179  -2.0976  -1.9988  -1.9395
    -1.9239  -1.9036  -1.8774  -1.8444  -1.8157  -1.7906  -1.7161  -1.7056
    -1.6849  -1.6749  -1.6681  -1.6610  -1.6176  -1.6016  -1.5590  -1.4703
    -1.4375  -1.3941  -1.3622  -1.2877  -1.2666  -1.2305  -1.2117  -1.1742
    -1.1562  -1.1461  -1.0817  -1.0512  -1.0409  -1.0263  -1.0050  -0.9805
    -0.9332  -0.9107  -0.8482  -0.8219  -0.8144  -0.7963  -0.7406  -0.6658
    -0.6362  -0.6130  -0.6055  -0.5947  -0.5484  -0.5433  -0.5287  -0.5088
    -0.5013  -0.4700  -0.4555  -0.4432  -0.4216  -0.4037  -0.3835  -0.3811
    -0.3684  -0.3618  -0.3250  -0.2956  -0.2779  -0.2247  -0.0684  -0.0144
     0.0274   0.0455   0.1371   0.1533   0.1624   0.1827   0.2117   0.2303
     0.2488   0.2627   0.3042   0.3566   0.3770   0.4025   0.4449   0.4555
     0.5064   0.5421   0.5850   0.6679   0.7390   0.7842   0.7919   0.8127
     0.8268   0.8816   0.9119   0.9360   0.9499   0.9583   0.9870   0.9984
     1.0347   1.0972   1.1210   1.1663   1.1821   1.2028   1.2083   1.2317
     1.2443   1.3460   1.3886   1.4566   1.4978   1.5653   1.6160   1.6431
     1.6570   1.7324   1.7745   1.7806   1.8198   1.8824   1.9390   1.9537
     1.9836   2.0048   2.0087   2.0240   2.0501   2.0826   2.1523   2.1671
     2.1724   2.2028   2.2163   2.2228   2.2292   2.2922   2.4022   2.4146
     2.4324   2.4368   2.4491   2.5069   2.5319   2.6346   2.7640   3.3431
     3.6067   3.6095   3.7995   3.8486   3.9883   3.9964   4.0097   4.2595
     4.6074   4.6216   4.8376   5.0659   5.0925   5.2054   5.2144   5.2556
     5.4004   5.5168   5.6004   5.8270   6.0274   6.0626   6.3036   6.6838
     6.7176

     the Fermi energy is     2.2047 ev

!    total energy              =  -27755.49865276 Ry
     total all-electron energy =  -1326642.264069 Ry
     estimated scf accuracy    <       0.00000095 Ry
     smearing contrib. (-TS)   =       0.00284281 Ry
     internal energy E=F+TS    =  -27755.50149557 Ry

     The total energy is F=E-TS. E is the sum of the following terms:
     one-electron contribution =  -22788.96060169 Ry
     hartree contribution      =   11697.37581265 Ry
     xc contribution           =    -890.75950066 Ry
     ewald contribution        =    9700.83779217 Ry
     one-center paw contrib.   =  -25473.99499805 Ry

     convergence has been achieved in  17 iterations

     negative rho (up, down):  3.382E-03 0.000E+00

     Forces acting on atoms (cartesian axes, Ry/au):

     atom    1 type  1   force =     0.00208001    0.00200307   -0.00583420
     atom    2 type  1   force =     0.00079713    0.00282074   -0.00444510
     atom    3 type  1   force =    -0.00158946    0.00364449   -0.00839656
     atom    4 type  1   force =     0.00218527   -0.00035120   -0.00491718
     atom    5 type  1   force =     0.00017304    0.00001795   -0.00310560
     atom    6 type  1   force =    -0.00215099    0.00064892   -0.00369631
     atom    7 type  1   force =     0.00145325   -0.00221777   -0.00486447
     atom    8 type  1   force =    -0.00045018   -0.00170745   -0.00374733
     atom    9 type  1   force =    -0.00201154   -0.00070969   -0.00407103
     atom   10 type  1   force =     0.00301247    0.00189320    0.00857670
     atom   11 type  1   force =     0.00217337    0.00086582   -0.00022665
     atom   12 type  1   force =    -0.00385527    0.00182134    0.00121401
     atom   13 type  1   force =     0.00125736   -0.00192576    0.00875895
     atom   14 type  1   force =    -0.00005872   -0.00107058    0.00279239
     atom   15 type  1   force =    -0.00141369   -0.00012893    0.00969869
     atom   16 type  1   force =     0.00184360   -0.00451543    0.00466613
     atom   17 type  1   force =    -0.00030646   -0.00359584    0.00422984
     atom   18 type  1   force =    -0.00312551   -0.00136713    0.00320893
     atom   19 type  1   force =     0.00002355    0.00002715   -0.00000221
     atom   20 type  1   force =    -0.00000512    0.00003611    0.00000029
     atom   21 type  1   force =    -0.00001199    0.00000730   -0.00002240
     atom   22 type  1   force =     0.00001290    0.00012154   -0.00012106
     atom   23 type  1   force =    -0.00001313   -0.00002377   -0.00007773
     atom   24 type  1   force =     0.00000049   -0.00003000   -0.00009303
     atom   25 type  1   force =     0.00002927    0.00009383   -0.00000321
     atom   26 type  1   force =    -0.00001185    0.00004984   -0.00001427
     atom   27 type  1   force =    -0.00002554    0.00010175   -0.00000031
     atom   28 type  1   force =     0.00004027    0.00009962    0.00001245
     atom   29 type  1   force =    -0.00004642    0.00010924    0.00001869
     atom   30 type  1   force =    -0.00000432    0.00003589   -0.00005595
     atom   31 type  1   force =     0.00000791    0.00020105    0.00021785
     atom   32 type  1   force =    -0.00001150   -0.00000303   -0.00002547
     atom   33 type  1   force =    -0.00000088   -0.00000383   -0.00001702
     atom   34 type  1   force =     0.00001789    0.00009255   -0.00008783
     atom   35 type  1   force =    -0.00000474    0.00005735    0.00001223
     atom   36 type  1   force =    -0.00001648    0.00010558   -0.00006864
     atom   37 type  2   force =     0.00000602    0.00279608    0.00048641
     The non-local contrib.  to forces
     atom    1 type  1   force =     0.00223883    0.00086009   -0.01691452
     atom    2 type  1   force =     0.00056703    0.00146522   -0.01751324
     atom    3 type  1   force =    -0.00086275    0.00159955   -0.01429511
     atom    4 type  1   force =     0.00195095   -0.00077947   -0.01823331
     atom    5 type  1   force =     0.00031196    0.00007432   -0.01822762
     atom    6 type  1   force =    -0.00188185    0.00027569   -0.01734484
     atom    7 type  1   force =     0.00184797   -0.00146370   -0.01689193
     atom    8 type  1   force =    -0.00058232   -0.00150724   -0.01797173
     atom    9 type  1   force =    -0.00225485   -0.00065914   -0.01658628
     atom   10 type  1   force =     0.00179248   -0.00033077    0.00154912
     atom   11 type  1   force =    -0.00157922    0.00138872    0.00043592
     atom   12 type  1   force =     0.00106480    0.00179630    0.00085873
     atom   13 type  1   force =     0.00147737   -0.00096485    0.00213534
     atom   14 type  1   force =     0.00006991   -0.00020768    0.00002283
     atom   15 type  1   force =    -0.00174614   -0.00042637    0.00265672
     atom   16 type  1   force =     0.00155313   -0.00314765    0.00035192
     atom   17 type  1   force =    -0.00109551   -0.00303930    0.00039214
     atom   18 type  1   force =    -0.00199779   -0.00473462    0.00113269
     atom   19 type  1   force =    -0.00987128   -0.00645693   -0.00200055
     atom   20 type  1   force =     0.00967915   -0.00628320   -0.00154523
     atom   21 type  1   force =     0.00005774    0.00005813    0.00396981
     atom   22 type  1   force =     0.00005398    0.01415411   -0.00548487
     atom   23 type  1   force =     0.00189230    0.00120330    0.00160713
     atom   24 type  1   force =    -0.00198113    0.00103070    0.00194108
     atom   25 type  1   force =     0.00076981   -0.00013005    0.00314080
     atom   26 type  1   force =    -0.00022606   -0.00254977    0.00045284
     atom   27 type  1   force =    -0.00069321   -0.00014319    0.00396869
     atom   28 type  1   force =     0.00560532    0.00679809    0.02016553
     atom   29 type  1   force =    -0.00572909    0.00670503    0.02001401
     atom   30 type  1   force =     0.00008147    0.00091811    0.01606690
     atom   31 type  1   force =    -0.00017322    0.00654225   -0.13568205
     atom   32 type  1   force =    -0.00563701    0.00147710    0.01875112
     atom   33 type  1   force =     0.00541908    0.00147196    0.01884093
     atom   34 type  1   force =    -0.00094752   -0.00349974    0.01822045
     atom   35 type  1   force =    -0.00007906    0.00138748    0.01566660
     atom   36 type  1   force =     0.00086988   -0.00358273    0.01817873
     atom   37 type  2   force =    -0.00003974    0.00438462   -0.04221347
     The ionic contribution  to forces
     atom    1 type  1   force =     0.13813387    0.08779270  -96.26145007
     atom    2 type  1   force =     0.01569203    0.15100772  -96.20008961
     atom    3 type  1   force =    -0.13339723    0.21874574  -96.21617028
     atom    4 type  1   force =     0.13165967   -0.05264291  -96.18014166
     atom    5 type  1   force =     0.00241754    0.00591402  -96.13764981
     atom    6 type  1   force =    -0.12709296    0.08398368  -96.14901759
     atom    7 type  1   force =     0.11508266   -0.23395081  -96.20618780
     atom    8 type  1   force =     0.00527351   -0.16247219  -96.16167126
     atom    9 type  1   force =    -0.13573558   -0.09183640  -96.15638829
     atom   10 type  1   force =     0.13991284    0.14736056  -32.40462165
     atom   11 type  1   force =    -0.07496918    0.18431701  -32.44798651
     atom   12 type  1   force =    -0.04552443    0.24120687  -32.37041350
     atom   13 type  1   force =     0.05025010   -0.10715729  -32.40567825
     atom   14 type  1   force =    -0.01402842   -0.02825172  -32.54417226
     atom   15 type  1   force =    -0.04077995    0.02348396  -32.35174216
     atom   16 type  1   force =     0.10873062   -0.21669990  -32.44804357
     atom   17 type  1   force =    -0.00141041   -0.14062634  -32.47139222
     atom   18 type  1   force =    -0.12830213   -0.20422902  -32.29104939
     atom   19 type  1   force =     0.07548521    0.08275434   32.35856847
     atom   20 type  1   force =    -0.05841393    0.06149006   32.24846511
     atom   21 type  1   force =    -0.01888824   -0.01676518   31.62140494
     atom   22 type  1   force =    -0.00733773   -0.06594474   32.53065219
     atom   23 type  1   force =    -0.02510349   -0.05949291   31.72924851
     atom   24 type  1   force =     0.03127639   -0.03407844   31.70748633
     atom   25 type  1   force =    -0.06814201    0.00081537   31.83024460
     atom   26 type  1   force =     0.02811720    0.01553653   31.83541820
     atom   27 type  1   force =     0.04160356    0.00413089   31.69733041
     atom   28 type  1   force =    -0.10187666   -0.27759659   95.12832482
     atom   29 type  1   force =     0.11128621   -0.27783964   95.07149212
     atom   30 type  1   force =    -0.00906610    0.02135251   95.39942970
     atom   31 type  1   force =     0.00461701    0.25294825   95.34888867
     atom   32 type  1   force =     0.28855631    0.06259175   95.10427742
     atom   33 type  1   force =    -0.29771742    0.07154018   95.12806430
     atom   34 type  1   force =     0.16771633    0.19290610   95.27394730
     atom   35 type  1   force =     0.00471872   -0.00210949   95.40698589
     atom   36 type  1   force =    -0.17448735    0.20142620   95.24601586
     atom   37 type  2   force =     0.00174343   -0.13961085   12.73762105
     The local contribution  to forces
     atom    1 type  1   force =    -0.13774401   -0.08636999   96.25439548
     atom    2 type  1   force =    -0.01547788   -0.14941021   96.19517077
     atom    3 type  1   force =     0.13224288   -0.21606943   96.20362136
     atom    4 type  1   force =    -0.13118696    0.05289364   96.17544141
     atom    5 type  1   force =    -0.00248508   -0.00593658   96.13490983
     atom    6 type  1   force =     0.12654728   -0.08322581   96.14480243
     atom    7 type  1   force =    -0.11516026    0.23260289   96.20024292
     atom    8 type  1   force =    -0.00493789    0.16191660   96.15815527
     atom    9 type  1   force =     0.13535863    0.09151037   96.15107672
     atom   10 type  1   force =    -0.13827375   -0.14491923   32.41006539
     atom   11 type  1   force =     0.07855357   -0.18450826   32.44558708
     atom   12 type  1   force =     0.04046316   -0.24052080   32.36924500
     atom   13 type  1   force =    -0.05030310    0.10601508   32.41080657
     atom   14 type  1   force =     0.01404933    0.02762827   32.54493066
     atom   15 type  1   force =     0.04076098   -0.02290991   32.35734598
     atom   16 type  1   force =    -0.10783959    0.21465503   32.45062434
     atom   17 type  1   force =     0.00203280    0.13944598   32.47334849
     atom   18 type  1   force =     0.12659669    0.20687470   32.29192208
     atom   19 type  1   force =    -0.06509200   -0.07599433  -32.35423700
     atom   20 type  1   force =     0.04822604   -0.05499726  -32.24457515
     atom   21 type  1   force =     0.01883223    0.01662567  -31.62364482
     atom   22 type  1   force =     0.00720748    0.05150801  -32.52321002
     atom   23 type  1   force =     0.02336298    0.05833867  -31.72927137
     atom   24 type  1   force =    -0.02936728    0.03313664  -31.70791537
     atom   25 type  1   force =     0.06728845   -0.00066391  -31.83157007
     atom   26 type  1   force =    -0.02780997   -0.01319003  -31.83425938
     atom   27 type  1   force =    -0.04090455   -0.00404441  -31.69953413
     atom   28 type  1   force =     0.09657532    0.27054854  -95.13124099
     atom   29 type  1   force =    -0.10584410    0.27088854  -95.07429628
     atom   30 type  1   force =     0.00896454   -0.02225068  -95.39808469
     atom   31 type  1   force =    -0.00443302   -0.25662949  -95.21540354
     atom   32 type  1   force =    -0.28283275   -0.06374576  -95.10579144
     atom   33 type  1   force =     0.29217704   -0.07263482  -95.12968116
     atom   34 type  1   force =    -0.16647303   -0.18939118  -95.27488511
     atom   35 type  1   force =    -0.00460655    0.00086647  -95.40523137
     atom   36 type  1   force =     0.17327248   -0.19781224  -95.24695775
     atom   37 type  2   force =    -0.00169681    0.13802378  -12.69481881
     The core correction contribution to forces
     atom    1 type  1   force =    -0.00040675   -0.00024568    0.01751023
     atom    2 type  1   force =    -0.00002657   -0.00043332    0.01737819
     atom    3 type  1   force =     0.00033031   -0.00063308    0.01782310
     atom    4 type  1   force =    -0.00038049    0.00018594    0.01733628
     atom    5 type  1   force =    -0.00000188   -0.00001626    0.01723818
     atom    6 type  1   force =     0.00034836   -0.00017152    0.01724017
     atom    7 type  1   force =    -0.00032793    0.00056169    0.01736091
     atom    8 type  1   force =     0.00003885    0.00037424    0.01721897
     atom    9 type  1   force =     0.00038379    0.00021434    0.01722972
     atom   10 type  1   force =    -0.00039078   -0.00036849    0.00093568
     atom   11 type  1   force =     0.00007455   -0.00040280    0.00101838
     atom   12 type  1   force =     0.00020534   -0.00057230    0.00081226
     atom   13 type  1   force =    -0.00015035    0.00021823    0.00092113
     atom   14 type  1   force =     0.00000869    0.00002789    0.00139760
     atom   15 type  1   force =     0.00017397   -0.00009568    0.00077229
     atom   16 type  1   force =    -0.00032797    0.00060627    0.00118680
     atom   17 type  1   force =     0.00006136    0.00044775    0.00123702
     atom   18 type  1   force =     0.00041095    0.00061636    0.00054021
     atom   19 type  1   force =    -0.00037563   -0.00014101   -0.00240064
     atom   20 type  1   force =     0.00036076   -0.00012057   -0.00237561
     atom   21 type  1   force =     0.00000696    0.00029363   -0.00184941
     atom   22 type  1   force =    -0.00000070    0.00030592   -0.00211121
     atom   23 type  1   force =     0.00002866    0.00007527   -0.00175740
     atom   24 type  1   force =    -0.00002983    0.00006775   -0.00178555
     atom   25 type  1   force =     0.00026858   -0.00007171   -0.00188984
     atom   26 type  1   force =    -0.00002517   -0.00001720   -0.00177600
     atom   27 type  1   force =    -0.00025442   -0.00005789   -0.00188485
     atom   28 type  1   force =    -0.00021694    0.00016961   -0.01644137
     atom   29 type  1   force =     0.00021681    0.00017320   -0.01639872
     atom   30 type  1   force =    -0.00000650   -0.00004558   -0.01650094
     atom   31 type  1   force =     0.00000776   -0.00258657    0.00283538
     atom   32 type  1   force =    -0.00002719   -0.00021385   -0.01642862
     atom   33 type  1   force =     0.00004062   -0.00021387   -0.01644834
     atom   34 type  1   force =    -0.00018844    0.00010154   -0.01657394
     atom   35 type  1   force =     0.00000483   -0.00007177   -0.01668289
     atom   36 type  1   force =     0.00019472    0.00010320   -0.01655278
     atom   37 type  2   force =     0.00000000    0.00000000    0.00000000
     The Hubbard contrib.    to forces
     atom    1 type  1   force =     0.00000000    0.00000000    0.00000000
     atom    2 type  1   force =     0.00000000    0.00000000    0.00000000
     atom    3 type  1   force =     0.00000000    0.00000000    0.00000000
     atom    4 type  1   force =     0.00000000    0.00000000    0.00000000
     atom    5 type  1   force =     0.00000000    0.00000000    0.00000000
     atom    6 type  1   force =     0.00000000    0.00000000    0.00000000
     atom    7 type  1   force =     0.00000000    0.00000000    0.00000000
     atom    8 type  1   force =     0.00000000    0.00000000    0.00000000
     atom    9 type  1   force =     0.00000000    0.00000000    0.00000000
     atom   10 type  1   force =     0.00000000    0.00000000    0.00000000
     atom   11 type  1   force =     0.00000000    0.00000000    0.00000000
     atom   12 type  1   force =     0.00000000    0.00000000    0.00000000
     atom   13 type  1   force =     0.00000000    0.00000000    0.00000000
     atom   14 type  1   force =     0.00000000    0.00000000    0.00000000
     atom   15 type  1   force =     0.00000000    0.00000000    0.00000000
     atom   16 type  1   force =     0.00000000    0.00000000    0.00000000
     atom   17 type  1   force =     0.00000000    0.00000000    0.00000000
     atom   18 type  1   force =     0.00000000    0.00000000    0.00000000
     atom   19 type  1   force =     0.00000000    0.00000000    0.00000000
     atom   20 type  1   force =     0.00000000    0.00000000    0.00000000
     atom   21 type  1   force =     0.00000000    0.00000000    0.00000000
     atom   22 type  1   force =     0.00000000    0.00000000    0.00000000
     atom   23 type  1   force =     0.00000000    0.00000000    0.00000000
     atom   24 type  1   force =     0.00000000    0.00000000    0.00000000
     atom   25 type  1   force =     0.00000000    0.00000000    0.00000000
     atom   26 type  1   force =     0.00000000    0.00000000    0.00000000
     atom   27 type  1   force =     0.00000000    0.00000000    0.00000000
     atom   28 type  1   force =     0.00000000    0.00000000    0.00000000
     atom   29 type  1   force =     0.00000000    0.00000000    0.00000000
     atom   30 type  1   force =     0.00000000    0.00000000    0.00000000
     atom   31 type  1   force =     0.00000000    0.00000000    0.00000000
     atom   32 type  1   force =     0.00000000    0.00000000    0.00000000
     atom   33 type  1   force =     0.00000000    0.00000000    0.00000000
     atom   34 type  1   force =     0.00000000    0.00000000    0.00000000
     atom   35 type  1   force =     0.00000000    0.00000000    0.00000000
     atom   36 type  1   force =     0.00000000    0.00000000    0.00000000
     atom   37 type  2   force =     0.00000000    0.00000000    0.00000000
     The SCF correction term to forces
     atom    1 type  1   force =    -0.00000000   -0.00000000    0.00000000
     atom    2 type  1   force =     0.00000000    0.00000000    0.00000000
     atom    3 type  1   force =     0.00000000    0.00000000    0.00000000
     atom    4 type  1   force =     0.00000000   -0.00000000    0.00000000
     atom    5 type  1   force =    -0.00000000   -0.00000000    0.00000000
     atom    6 type  1   force =    -0.00000000   -0.00000000    0.00000000
     atom    7 type  1   force =     0.00000000    0.00000000    0.00000000
     atom    8 type  1   force =    -0.00000000   -0.00000000    0.00000000
     atom    9 type  1   force =     0.00000000    0.00000000    0.00000000
     atom   10 type  1   force =    -0.00000000    0.00000000    0.00000000
     atom   11 type  1   force =     0.00000000    0.00000000    0.00000000
     atom   12 type  1   force =    -0.00000000   -0.00000000    0.00000000
     atom   13 type  1   force =    -0.00000000   -0.00000000    0.00000000
     atom   14 type  1   force =    -0.00000000   -0.00000000    0.00000000
     atom   15 type  1   force =     0.00000000   -0.00000000    0.00000000
     atom   16 type  1   force =    -0.00000000    0.00000000    0.00000000
     atom   17 type  1   force =     0.00000000    0.00000000    0.00000000
     atom   18 type  1   force =     0.00000000    0.00000000    0.00000000
     atom   19 type  1   force =    -0.00012302   -0.00013479    0.00011959
     atom   20 type  1   force =     0.00014260   -0.00005278    0.00008325
     atom   21 type  1   force =    -0.00002095   -0.00020481    0.00014917
     atom   22 type  1   force =     0.00008961    0.00009837    0.00008494
     atom   23 type  1   force =    -0.00019384   -0.00014796    0.00014749
     atom   24 type  1   force =     0.00010208   -0.00018653    0.00023257
     atom   25 type  1   force =    -0.00015582    0.00014426    0.00012338
     atom   26 type  1   force =    -0.00006811    0.00027045    0.00020215
     atom   27 type  1   force =     0.00022283    0.00021648    0.00017165
     atom   28 type  1   force =    -0.00004704    0.00018011   -0.00074345
     atom   29 type  1   force =     0.00002348    0.00018225   -0.00074035
     atom   30 type  1   force =     0.00002200    0.00006166   -0.00091484
     atom   31 type  1   force =    -0.00001088   -0.00007324   -0.00036853
     atom   32 type  1   force =    -0.00007112   -0.00011214   -0.00078187
     atom   33 type  1   force =     0.00007955   -0.00016714   -0.00074067
     atom   34 type  1   force =    -0.00008972   -0.00002404   -0.00074445
     atom   35 type  1   force =    -0.00004294   -0.00001521   -0.00067393
     atom   36 type  1   force =     0.00013352   -0.00002871   -0.00070061
     atom   37 type  2   force =    -0.00000113   -0.00000133   -0.00005027

     Total force =     0.002878     Total SCF correction =     0.002355
     SCF correction compared to forces is large: reduce conv_thr to get better values

     Writing all to output data dir ./pwscf.save/

     init_run     :     10.61s CPU     10.93s WALL (       1 calls)
     electrons    :    285.86s CPU    296.06s WALL (       1 calls)
     forces       :      3.71s CPU      4.58s WALL (       1 calls)

     Called by init_run:
     wfcinit      :      5.82s CPU      6.00s WALL (       1 calls)
     potinit      :      3.09s CPU      3.17s WALL (       1 calls)
     hinit0       :      1.10s CPU      1.12s WALL (       1 calls)

     Called by electrons:
     c_bands      :    242.27s CPU    248.27s WALL (      18 calls)
     sum_band     :     27.06s CPU     28.12s WALL (      18 calls)
     v_of_rho     :      7.97s CPU      9.98s WALL (      18 calls)
     newd         :      2.89s CPU      3.51s WALL (      18 calls)
     PAW_pot      :      3.98s CPU      4.11s WALL (      18 calls)
     mix_rho      :      3.83s CPU      4.03s WALL (      18 calls)
     vdW_kernel   :      1.71s CPU      1.72s WALL (       1 calls)

     Called by c_bands:
     init_us_2    :      2.58s CPU      2.63s WALL (     494 calls)
     init_us_2:cp :      2.57s CPU      2.62s WALL (     494 calls)
     cegterg      :    235.53s CPU    241.26s WALL (     234 calls)

     Called by *egterg:
     cdiaghg      :     61.55s CPU     62.11s WALL (    1125 calls)
     h_psi        :    111.37s CPU    114.68s WALL (    1151 calls)
     s_psi        :     14.12s CPU     14.29s WALL (    1151 calls)
     g_psi        :      0.44s CPU      0.45s WALL (     904 calls)

     Called by h_psi:
     h_psi:calbec :     18.07s CPU     18.97s WALL (    1151 calls)
     vloc_psi     :     77.93s CPU     80.03s WALL (    1151 calls)
     add_vuspsi   :     14.26s CPU     14.54s WALL (    1151 calls)

     General routines
     calbec       :     25.41s CPU     26.55s WALL (    1437 calls)
     fft          :      4.80s CPU      6.81s WALL (    1194 calls)
     ffts         :      2.23s CPU      2.26s WALL (    4520 calls)
     fftw         :     75.75s CPU     77.69s WALL (  304494 calls)
     interpolate  :      0.60s CPU      0.61s WALL (      18 calls)

     Parallel routines

     PWSCF        :   5m 2.19s CPU   5m16.48s WALL


   This run was terminated on:   6:20:31  28Jan2025            

=------------------------------------------------------------------------------=
   JOB DONE.
=------------------------------------------------------------------------------=
