
     Program PWSCF v.7.1 starts on 23Feb2025 at 17:23:28 
        Git branch: heads/qe-7.1
        Last git commit: 48ba0178f8fede6d020eb786884699a9f063f55d-dirty
        Last git commit date: Fri Jan 27 14:22:33 2023 +0000
        Last git commit subject: Merge branch 'fix_hubbard' into 'develop'

     This program is part of the open-source Quantum ESPRESSO suite
     for quantum simulation of materials; please cite
         "P. Giannozzi et al., J. Phys.:Condens. Matter 21 395502 (2009);
         "P. Giannozzi et al., J. Phys.:Condens. Matter 29 465901 (2017);
         "P. Giannozzi et al., J. Chem. Phys. 152 154105 (2020);
          URL http://www.quantum-espresso.org", 
     in publications or presentations arising from this work. More details at
     http://www.quantum-espresso.org/quote

     Parallel version (MPI), running on    48 processors

     MPI processes distributed on     1 nodes
     252233 MiB available memory on the printing compute node when the environment starts

     Reading input from espresso.pwi
Warning: card &CELL ignored
Warning: card / ignored
Warning: card &FCP ignored
Warning: card / ignored
Warning: card &RISM ignored
Warning: card / ignored

     Current dimensions of program PWSCF are:
     Max number of different atomic species (ntypx) = 10
     Max number of k-points (npk) =  40000
     Max angular momentum in pseudopotentials (lmaxx) =  4
     file Pt.pbe-n-kjpaw_psl.1.0.0.UPF: wavefunction(s)  6S 5D renormalized
     file H.pbe-kjpaw_psl.1.0.0.UPF: wavefunction(s)  1S renormalized

     **************************************************************************
     Initializing libbeef V0.1.2 with the BEEF-vdW functional.
     Citation: Wellendorff et al., PRB 85, 235149 (2012).
     **************************************************************************


     IMPORTANT: XC functional enforced from input :
     Exchange-correlation= BEEF-VDW
                           (   1   4  43  14   2   0   0)
     Any further DFT definition will be discarded
     Please, verify this is what you really want


     R & G space division:  proc/nbgrp/npool/nimage =      48
     Subspace diagonalization in iterative solution of the eigenvalue problem:
     one sub-group per band group will be used
     custom distributed-memory algorithm (size of sub-group:  2*  2 procs)


     Parallelization info
     --------------------
     sticks:   dense  smooth     PW     G-vecs:    dense   smooth      PW
     Min         151      59     16                29407     7165    1028
     Max         152      60     17                29420     7176    1042
     Sum        7267    2839    769              1411785   344073   49691

     Using Slab Decomposition



     bravais-lattice index     =            0
     lattice parameter (alat)  =      16.0349  a.u.
     unit-cell volume          =   10068.6169 (a.u.)^3
     number of atoms/cell      =           37
     number of atomic types    =            2
     number of electrons       =       361.00
     number of Kohn-Sham states=          217
     kinetic-energy cutoff     =      40.0000  Ry
     charge density cutoff     =     410.0000  Ry
     scf convergence threshold =      1.0E-08
     mixing beta               =       0.7000
     number of iterations used =            8  local-TF  mixing
     Exchange-correlation= BEEF-VDW
                           (   1   4  43  14   2   0   0)

     celldm(1)=  16.034858  celldm(2)=   0.000000  celldm(3)=   0.000000
     celldm(4)=   0.000000  celldm(5)=   0.000000  celldm(6)=   0.000000

     crystal axes: (cart. coord. in units of alat)
               a(1) = (   1.000000   0.000000   0.000000 )  
               a(2) = (   0.500000   0.866025   0.000000 )  
               a(3) = (   0.000000   0.000000   2.819966 )  

     reciprocal axes: (cart. coord. in units 2 pi/alat)
               b(1) = (  1.000000 -0.577350  0.000000 )  
               b(2) = (  0.000000  1.154701  0.000000 )  
               b(3) = (  0.000000  0.000000  0.354614 )  


     PseudoPot. # 1 for Pt read from file:
     /users/kbadger1/espresso/pseudo/pslibrary.1.0.0/pbe/PSEUDOPOTENTIALS/Pt.pbe-n-kjpaw_psl.1.0.0.UPF
     MD5 check sum: 2e24a0b5bf98a4ed1a57fa81bca8c143
     Pseudo is Projector augmented-wave + core cor, Zval = 10.0
     Generated using 'atomic' code by A. Dal Corso  v.7.0
     Shape of augmentation charge: PSQ
     Using radial grid of 1277 points,  6 beta functions with: 
                l(1) =   0
                l(2) =   0
                l(3) =   1
                l(4) =   1
                l(5) =   2
                l(6) =   2
     Q(r) pseudized with 0 coefficients 


     PseudoPot. # 2 for H  read from file:
     /users/kbadger1/espresso/pseudo/pslibrary.1.0.0/pbe/PSEUDOPOTENTIALS/H.pbe-kjpaw_psl.1.0.0.UPF
     MD5 check sum: fe4c6fa958fa6d3815bf5d2419cbf1df
     Pseudo is Projector augmented-wave, Zval =  1.0
     Generated using 'atomic' code by A. Dal Corso  v.7.0
     Shape of augmentation charge: PSQ
     Using radial grid of  929 points,  2 beta functions with: 
                l(1) =   0
                l(2) =   0
     Q(r) pseudized with 0 coefficients 


     atomic species   valence    mass     pseudopotential
        Pt            10.00   195.08400     Pt( 1.00)
        H              1.00     1.00800     H ( 1.00)

     No symmetry found



   Cartesian axes

     site n.     atom                  positions (alat units)
         1           Pt  tau(   1) = (   0.0000000   0.0000000   1.0017346  )
         2           Pt  tau(   2) = (   0.3333333   0.0000000   1.0017346  )
         3           Pt  tau(   3) = (   0.6666667   0.0000000   1.0017346  )
         4           Pt  tau(   4) = (   0.1666667   0.2886751   1.0017346  )
         5           Pt  tau(   5) = (   0.5000000   0.2886751   1.0017346  )
         6           Pt  tau(   6) = (   0.8333333   0.2886751   1.0017346  )
         7           Pt  tau(   7) = (   0.3333333   0.5773503   1.0017346  )
         8           Pt  tau(   8) = (   0.6666667   0.5773503   1.0017346  )
         9           Pt  tau(   9) = (   1.0000000   0.5773503   1.0017346  )
        10           Pt  tau(  10) = (   0.1666667   0.0962250   1.2739001  )
        11           Pt  tau(  11) = (   0.5000000   0.0962250   1.2739001  )
        12           Pt  tau(  12) = (   0.8333333   0.0962250   1.2739001  )
        13           Pt  tau(  13) = (   0.3333333   0.3849002   1.2739001  )
        14           Pt  tau(  14) = (   0.6666667   0.3849002   1.2739001  )
        15           Pt  tau(  15) = (   1.0000000   0.3849002   1.2739001  )
        16           Pt  tau(  16) = (   0.5000000   0.6735753   1.2739001  )
        17           Pt  tau(  17) = (   0.8333333   0.6735753   1.2739001  )
        18           Pt  tau(  18) = (   1.1666667   0.6735753   1.2739001  )
        19           Pt  tau(  19) = (   0.0010323   0.1905632   1.5449048  )
        20           Pt  tau(  20) = (   0.3322768   0.1905701   1.5449123  )
        21           Pt  tau(  21) = (   0.6666592   0.1902528   1.5424674  )
        22           Pt  tau(  22) = (   0.1666598   0.4765068   1.5460547  )
        23           Pt  tau(  23) = (   0.4998607   0.4787000   1.5428933  )
        24           Pt  tau(  24) = (   0.8334563   0.4786983   1.5428795  )
        25           Pt  tau(  25) = (   0.3333254   0.7669911   1.5423229  )
        26           Pt  tau(  26) = (   0.6666559   0.7674874   1.5427870  )
        27           Pt  tau(  27) = (   0.9999939   0.7669954   1.5423173  )
        28           Pt  tau(  28) = (  -0.0008904  -0.0061568   1.8163576  )
        29           Pt  tau(  29) = (   0.3341903  -0.0061514   1.8163686  )
        30           Pt  tau(  30) = (   0.6666469  -0.0054357   1.8167250  )
        31           Pt  tau(  31) = (   0.1666350   0.2821444   1.8321512  )
        32           Pt  tau(  32) = (   0.5004708   0.2831119   1.8167104  )
        33           Pt  tau(  33) = (   0.8328168   0.2831183   1.8167023  )
        34           Pt  tau(  34) = (   0.3331978   0.5723078   1.8171545  )
        35           Pt  tau(  35) = (   0.6666533   0.5718474   1.8166197  )
        36           Pt  tau(  36) = (   1.0000909   0.5723106   1.8171558  )
        37           H   tau(  37) = (   0.1665037   0.2632276   2.0145821  )

     number of k points=    13  Marzari-Vanderbilt smearing, width (Ry)=  0.0200
                       cart. coord. in units 2pi/alat
        k(    1) = (   0.0000000   0.0000000   0.0000000), wk =   0.0800000
        k(    2) = (   0.0000000   0.2309401   0.0000000), wk =   0.1600000
        k(    3) = (   0.0000000   0.4618802   0.0000000), wk =   0.1600000
        k(    4) = (   0.2000000  -0.1154701   0.0000000), wk =   0.1600000
        k(    5) = (   0.2000000   0.1154701   0.0000000), wk =   0.1600000
        k(    6) = (   0.2000000   0.3464102   0.0000000), wk =   0.1600000
        k(    7) = (   0.2000000  -0.5773503   0.0000000), wk =   0.1600000
        k(    8) = (   0.2000000  -0.3464102   0.0000000), wk =   0.1600000
        k(    9) = (   0.4000000  -0.2309401   0.0000000), wk =   0.1600000
        k(   10) = (   0.4000000  -0.0000000   0.0000000), wk =   0.1600000
        k(   11) = (   0.4000000   0.2309401   0.0000000), wk =   0.1600000
        k(   12) = (   0.4000000  -0.6928203   0.0000000), wk =   0.1600000
        k(   13) = (   0.4000000  -0.4618802   0.0000000), wk =   0.1600000

     Dense  grid:  1411785 G-vectors     FFT dimensions: ( 108, 108, 300)

     Smooth grid:   344073 G-vectors     FFT dimensions: (  72,  72, 192)

     Estimated max dynamical RAM per process >     203.68 MB

     Estimated total dynamical RAM >       9.55 GB

     Initial potential from superposition of free atoms

     starting charge     360.9939, renormalised to     361.0000

     negative rho (up, down):  3.345E-03 0.000E+00


     %%%%%%%%%%%%%%%%%%%%%%%%%%%%%%%%%%%%%%%%%%%%%%%%%%%%%%%%%%%%%%%%%%%%%%%%
     %                                                                      %
     % You are using vdW-DF, which was implemented by the Thonhauser group. %
     % Please cite the following two papers that made this development      %
     % possible and the two reviews that describe the various versions:     %
     %                                                                      %
     %   T. Thonhauser et al., PRL 115, 136402 (2015).                      %
     %   T. Thonhauser et al., PRB 76, 125112 (2007).                       %
     %   K. Berland et al., Rep. Prog. Phys. 78, 066501 (2015).             %
     %   D.C. Langreth et al., J. Phys.: Condens. Matter 21, 084203 (2009). %
     %                                                                      %
     % If you are calculating stress with vdW-DF, please also cite:         %
     %                                                                      %
     %   R. Sabatini et al., J. Phys.: Condens. Matter 24, 424209 (2012).   %
     %                                                                      %
     %%%%%%%%%%%%%%%%%%%%%%%%%%%%%%%%%%%%%%%%%%%%%%%%%%%%%%%%%%%%%%%%%%%%%%%%

     %%%%%%%%%%%%%%%%%%%%%%%%%%%%%%%%%%%%%%%%%%%%%%%%%%%%%%%%%%%%%%%%%%%%%%%%
     %                                                                      %
     %  vdW-DF NEWS:                                                        %
     %                                                                      %
     %  * vdW-DF3 is now available. DOI: 10.1021/acs.jctc.0c00471           %
     %    use with input_dft = 'vdW-DF3-opt1' or 'vdW-DF3-opt2'             %
     %                                                                      %
     %  * Unscreened and range-separated hybrid vdW-DF-cx functionals       %
     %    DOI: 10.1063/1.4986522 and 10.1088/1361-648X/ac2ad2               %
     %    use with input_dft = 'vdW-DF-cx0'    and 'vdW-DF-ahcx'            %
     %  * Unscreened and range-separated hybrid vdW-DF2-b86r functionals    %
     %    DOI: 10.1063/1.4986522 and DOI: 10.1103/PhysRevX.12.041003        %
     %    use with input_dft = 'vdW-DF2-br0' and 'vdW-DF2-ahbr'             %
     %                                                                      %
     %%%%%%%%%%%%%%%%%%%%%%%%%%%%%%%%%%%%%%%%%%%%%%%%%%%%%%%%%%%%%%%%%%%%%%%%


     Starting wfcs are  325 randomized atomic wfcs
     Checking if some PAW data can be deallocated... 

     total cpu time spent up to now is       10.6 secs

     per-process dynamical memory:   207.7 Mb

     Self-consistent Calculation

     iteration #  1     ecut=    40.00 Ry     beta= 0.70
     Davidson diagonalization with overlap
     ethr =  1.00E-02,  avg # of iterations =  2.0

     Threshold (ethr) on eigenvalues was too large:
     Diagonalizing with lowered threshold

     Davidson diagonalization with overlap
     ethr =  3.97E-04,  avg # of iterations =  3.9

     negative rho (up, down):  1.695E-02 0.000E+00

     total cpu time spent up to now is       41.1 secs

     total energy              =  -27755.27719332 Ry
     estimated scf accuracy    <       1.63007564 Ry

     iteration #  2     ecut=    40.00 Ry     beta= 0.70
     Davidson diagonalization with overlap
     ethr =  4.52E-04,  avg # of iterations =  2.0

     negative rho (up, down):  1.497E-02 0.000E+00

     total cpu time spent up to now is       53.5 secs

     total energy              =  -27755.38061615 Ry
     estimated scf accuracy    <       0.85462971 Ry

     iteration #  3     ecut=    40.00 Ry     beta= 0.70
     Davidson diagonalization with overlap
     ethr =  2.37E-04,  avg # of iterations =  2.0

     negative rho (up, down):  9.511E-03 0.000E+00

     total cpu time spent up to now is       66.1 secs

     total energy              =  -27755.43486644 Ry
     estimated scf accuracy    <       0.10431987 Ry

     iteration #  4     ecut=    40.00 Ry     beta= 0.70
     Davidson diagonalization with overlap
     c_bands:  1 eigenvalues not converged
     c_bands:  1 eigenvalues not converged
     c_bands:  1 eigenvalues not converged
     ethr =  2.89E-05,  avg # of iterations = 13.7

     negative rho (up, down):  6.928E-03 0.000E+00

     total cpu time spent up to now is       97.5 secs

     total energy              =  -27755.48682283 Ry
     estimated scf accuracy    <       0.09693922 Ry

     iteration #  5     ecut=    40.00 Ry     beta= 0.70
     Davidson diagonalization with overlap
     ethr =  2.69E-05,  avg # of iterations =  1.9

     negative rho (up, down):  3.075E-03 0.000E+00

     total cpu time spent up to now is      110.1 secs

     total energy              =  -27755.48697961 Ry
     estimated scf accuracy    <       0.03118059 Ry

     iteration #  6     ecut=    40.00 Ry     beta= 0.70
     Davidson diagonalization with overlap
     c_bands:  1 eigenvalues not converged
     c_bands:  1 eigenvalues not converged
     ethr =  8.64E-06,  avg # of iterations =  9.8

     negative rho (up, down):  1.314E-03 0.000E+00

     total cpu time spent up to now is      126.3 secs

     total energy              =  -27755.48914203 Ry
     estimated scf accuracy    <       0.00273429 Ry

     iteration #  7     ecut=    40.00 Ry     beta= 0.70
     Davidson diagonalization with overlap
     c_bands:  1 eigenvalues not converged
     c_bands:  1 eigenvalues not converged
     c_bands:  2 eigenvalues not converged
     ethr =  7.57E-07,  avg # of iterations = 12.6

     negative rho (up, down):  9.824E-04 0.000E+00

     total cpu time spent up to now is      157.1 secs

     total energy              =  -27755.48991770 Ry
     estimated scf accuracy    <       0.00221001 Ry

     iteration #  8     ecut=    40.00 Ry     beta= 0.70
     Davidson diagonalization with overlap
     ethr =  6.12E-07,  avg # of iterations =  2.5

     negative rho (up, down):  8.474E-04 0.000E+00

     total cpu time spent up to now is      169.9 secs

     total energy              =  -27755.49005176 Ry
     estimated scf accuracy    <       0.00025276 Ry

     iteration #  9     ecut=    40.00 Ry     beta= 0.70
     Davidson diagonalization with overlap
     ethr =  7.00E-08,  avg # of iterations =  4.7

     negative rho (up, down):  6.864E-04 0.000E+00

     total cpu time spent up to now is      191.7 secs

     total energy              =  -27755.49016007 Ry
     estimated scf accuracy    <       0.00011187 Ry

     iteration # 10     ecut=    40.00 Ry     beta= 0.70
     Davidson diagonalization with overlap
     ethr =  3.10E-08,  avg # of iterations =  3.2

     negative rho (up, down):  6.881E-04 0.000E+00

     total cpu time spent up to now is      209.4 secs

     total energy              =  -27755.49018000 Ry
     estimated scf accuracy    <       0.00011393 Ry

     iteration # 11     ecut=    40.00 Ry     beta= 0.70
     Davidson diagonalization with overlap
     ethr =  3.10E-08,  avg # of iterations =  1.2

     negative rho (up, down):  7.741E-04 0.000E+00

     total cpu time spent up to now is      220.7 secs

     total energy              =  -27755.49018572 Ry
     estimated scf accuracy    <       0.00007642 Ry

     iteration # 12     ecut=    40.00 Ry     beta= 0.70
     Davidson diagonalization with overlap
     ethr =  2.12E-08,  avg # of iterations =  1.3

     negative rho (up, down):  1.006E-03 0.000E+00

     total cpu time spent up to now is      232.4 secs

     total energy              =  -27755.49019586 Ry
     estimated scf accuracy    <       0.00002845 Ry

     iteration # 13     ecut=    40.00 Ry     beta= 0.70
     Davidson diagonalization with overlap
     ethr =  7.88E-09,  avg # of iterations =  2.0

     negative rho (up, down):  1.512E-03 0.000E+00

     total cpu time spent up to now is      245.3 secs

     total energy              =  -27755.49020560 Ry
     estimated scf accuracy    <       0.00001531 Ry

     iteration # 14     ecut=    40.00 Ry     beta= 0.70
     Davidson diagonalization with overlap
     ethr =  4.24E-09,  avg # of iterations =  2.0

     negative rho (up, down):  1.854E-03 0.000E+00

     total cpu time spent up to now is      258.6 secs

     total energy              =  -27755.49021228 Ry
     estimated scf accuracy    <       0.00000784 Ry

     iteration # 15     ecut=    40.00 Ry     beta= 0.70
     Davidson diagonalization with overlap
     ethr =  2.17E-09,  avg # of iterations =  2.0

     negative rho (up, down):  2.505E-03 0.000E+00

     total cpu time spent up to now is      271.2 secs

     total energy              =  -27755.49021145 Ry
     estimated scf accuracy    <       0.00000739 Ry

     iteration # 16     ecut=    40.00 Ry     beta= 0.70
     Davidson diagonalization with overlap
     ethr =  2.05E-09,  avg # of iterations =  1.2

     negative rho (up, down):  2.773E-03 0.000E+00

     total cpu time spent up to now is      282.3 secs

     total energy              =  -27755.49021068 Ry
     estimated scf accuracy    <       0.00000212 Ry

     iteration # 17     ecut=    40.00 Ry     beta= 0.70
     Davidson diagonalization with overlap
     ethr =  5.88E-10,  avg # of iterations =  3.5

     negative rho (up, down):  2.941E-03 0.000E+00

     total cpu time spent up to now is      297.6 secs

     total energy              =  -27755.49021031 Ry
     estimated scf accuracy    <       0.00000056 Ry

     iteration # 18     ecut=    40.00 Ry     beta= 0.70
     Davidson diagonalization with overlap
     ethr =  1.54E-10,  avg # of iterations =  5.5

     negative rho (up, down):  3.027E-03 0.000E+00

     total cpu time spent up to now is      321.3 secs

     total energy              =  -27755.49021010 Ry
     estimated scf accuracy    <       0.00000046 Ry

     iteration # 19     ecut=    40.00 Ry     beta= 0.70
     Davidson diagonalization with overlap
     ethr =  1.27E-10,  avg # of iterations =  2.0

     negative rho (up, down):  3.139E-03 0.000E+00

     total cpu time spent up to now is      333.5 secs

     total energy              =  -27755.49020948 Ry
     estimated scf accuracy    <       0.00000009 Ry

     iteration # 20     ecut=    40.00 Ry     beta= 0.70
     Davidson diagonalization with overlap
     ethr =  2.51E-11,  avg # of iterations =  3.5

     negative rho (up, down):  3.165E-03 0.000E+00

     total cpu time spent up to now is      351.8 secs

     total energy              =  -27755.49020937 Ry
     estimated scf accuracy    <       0.00000002 Ry

     iteration # 21     ecut=    40.00 Ry     beta= 0.70
     Davidson diagonalization with overlap
     ethr =  6.35E-12,  avg # of iterations =  3.5

     negative rho (up, down):  3.165E-03 0.000E+00

     total cpu time spent up to now is      368.7 secs

     total energy              =  -27755.49020937 Ry
     estimated scf accuracy    <       0.00000001 Ry

     iteration # 22     ecut=    40.00 Ry     beta= 0.70
     Davidson diagonalization with overlap
     ethr =  2.99E-12,  avg # of iterations =  1.9

     negative rho (up, down):  3.167E-03 0.000E+00

     total cpu time spent up to now is      380.7 secs

     End of self-consistent calculation

          k = 0.0000 0.0000 0.0000 ( 42913 PWs)   bands (ev):

    -6.2857  -5.0029  -3.9306  -3.8914  -3.8719  -3.8626  -3.8620  -3.8555
    -3.8465  -3.8414  -3.4016  -3.3097  -3.3094  -3.3058  -3.3013  -3.2977
    -2.9709  -2.8401  -2.8388  -2.8308  -2.8294  -2.8292  -2.7656  -2.6191
    -2.6187  -2.6181  -2.6142  -2.6131  -2.4428  -2.3893  -2.3892  -2.3866
    -2.3816  -2.3814  -2.3793  -2.3758  -2.3653  -2.3632  -2.3621  -2.3246
    -2.1937  -1.7783  -1.7774  -1.7519  -1.7479  -1.7065  -1.7011  -1.6982
    -1.6884  -1.6878  -1.6449  -1.5442  -1.5235  -1.4551  -1.3135  -0.9776
    -0.9729  -0.9575  -0.9536  -0.9450  -0.9373  -0.8816  -0.7818  -0.7808
    -0.7755  -0.7748  -0.7556  -0.7496  -0.7291  -0.7264  -0.7247  -0.7085
    -0.7058  -0.7004  -0.6719  -0.6701  -0.6363  -0.5598  -0.5439  -0.5418
    -0.5388  -0.5173  -0.3809  -0.3643  -0.3640  -0.3488  -0.3438  -0.3312
    -0.3087  -0.2875  -0.2822  -0.2050  -0.2025  -0.1481  -0.1481  -0.1123
    -0.1114  -0.0824  -0.0747  -0.0648  -0.0626   0.0537   0.0678   0.0793
     0.0900   0.1034   0.1175   0.4550   0.5583   0.5594   0.5863   0.5917
     0.5940   0.5961   0.6024   0.6554   0.6581   0.6646   0.6662   0.6783
     0.7378   0.7432   0.8687   0.8955   0.9002   0.9128   0.9143   0.9939
     1.0008   1.0157   1.0399   1.0702   1.0738   1.0950   1.2879   1.2920
     1.3240   1.3278   1.3279   1.3436   1.3884   1.3999   1.5719   1.5784
     1.5792   1.5884   1.5924   1.6458   1.7391   1.7427   1.7538   1.7608
     1.7623   1.7826   1.7845   1.7907   1.7972   1.7980   1.8019   1.8875
     1.9064   1.9082   1.9261   1.9327   1.9337   1.9522   1.9646   2.0190
     2.0218   2.0341   2.0408   2.0546   2.0598   2.0640   2.0657   2.1260
     2.1417   2.1449   2.1590   2.1601   2.1614   2.1772   2.2397   2.2606
     2.2655   2.2674   2.2857   2.2858   2.4569   2.4896   2.5621   2.5717
     2.5949   2.5955   2.6029   2.6069   2.9214   3.4264   3.4725   3.4846
     3.4887   3.4945   3.4968   5.0100   5.7689   5.7820   5.8128   5.8245
     5.8320   6.9665   7.3630   7.3695   7.3993   7.4016   7.4241   7.4251
     7.5572

          k = 0.0000 0.2309 0.0000 ( 42996 PWs)   bands (ev):

    -6.1390  -4.8594  -4.3855  -3.9889  -3.9693  -3.7728  -3.7215  -3.6834
    -3.6367  -3.6167  -3.4665  -3.3964  -3.2998  -3.2419  -3.2408  -3.2291
    -2.9787  -2.8721  -2.8077  -2.8011  -2.7897  -2.7537  -2.7150  -2.6981
    -2.6537  -2.6393  -2.6296  -2.5834  -2.5634  -2.5259  -2.4865  -2.4273
    -2.4148  -2.3732  -2.3644  -2.2752  -2.1880  -2.1822  -2.1642  -2.1611
    -2.0958  -1.8986  -1.8823  -1.8395  -1.8244  -1.8058  -1.7809  -1.7389
    -1.5911  -1.5886  -1.5249  -1.5181  -1.4763  -1.4547  -1.3773  -1.2061
    -1.1451  -1.1163  -1.0658  -1.0590  -1.0255  -0.9697  -0.9694  -0.9363
    -0.9221  -0.9104  -0.8843  -0.8489  -0.7919  -0.7634  -0.7553  -0.7387
    -0.6972  -0.6758  -0.6715  -0.5924  -0.5848  -0.5654  -0.5034  -0.4873
    -0.4668  -0.4631  -0.4195  -0.3864  -0.3745  -0.3645  -0.3567  -0.3277
    -0.3068  -0.2844  -0.2459  -0.2448  -0.1921  -0.1800  -0.1556  -0.1546
    -0.1291  -0.0985  -0.0935  -0.0820   0.0329   0.0650   0.0728   0.0877
     0.0903   0.1165   0.1185   0.1303   0.1808   0.1819   0.2032   0.2160
     0.3140   0.4687   0.5065   0.5435   0.5877   0.5988   0.6204   0.6205
     0.6451   0.6598   0.8007   0.8009   0.8197   0.9222   0.9440   0.9792
     1.0055   1.0193   1.0574   1.0694   1.0970   1.0977   1.1767   1.1930
     1.1986   1.2196   1.2283   1.3907   1.3931   1.4380   1.4477   1.4581
     1.4810   1.5138   1.5590   1.5903   1.6003   1.6167   1.6504   1.6871
     1.6981   1.7025   1.7326   1.8132   1.8202   1.8487   1.8893   1.9426
     1.9697   1.9728   1.9850   2.0053   2.0058   2.0473   2.1023   2.1315
     2.1326   2.1845   2.1974   2.1977   2.2432   2.2443   2.2468   2.2542
     2.2556   2.3063   2.3168   2.4431   2.4650   2.4959   2.5111   2.5118
     2.5306   2.5630   2.5913   2.5980   2.6115   2.6751   2.7087   2.7254
     2.7327   2.8904   2.8957   2.9111   2.9401   3.2428   3.3640   3.7687
     4.0739   4.0786   4.2094   4.8386   5.3110   5.5267   6.0266   6.2222
     6.2267   6.3692   6.5670   6.9441   7.1924   7.2283   7.5455   7.5849
     7.5981

          k = 0.0000 0.4619 0.0000 ( 43046 PWs)   bands (ev):

    -5.7168  -5.0837  -4.4575  -4.0265  -4.0040  -3.9042  -3.6546  -3.4866
    -3.3826  -3.3439  -3.3147  -3.2760  -3.2072  -3.1175  -3.0780  -3.0631
    -3.0570  -2.9544  -2.9177  -2.8911  -2.8672  -2.8478  -2.8079  -2.7853
    -2.7290  -2.7063  -2.6989  -2.5881  -2.4394  -2.4355  -2.4300  -2.4181
    -2.4118  -2.3571  -2.1938  -2.1719  -2.1496  -2.1491  -2.1287  -2.0594
    -1.9403  -1.8588  -1.8464  -1.8351  -1.8086  -1.7855  -1.7599  -1.7042
    -1.7025  -1.6626  -1.6427  -1.5924  -1.4894  -1.4878  -1.4468  -1.4391
    -1.3338  -1.2812  -1.2652  -1.2644  -1.2021  -1.1162  -1.0577  -1.0442
    -1.0421  -1.0251  -0.9550  -0.9350  -0.9031  -0.8243  -0.8213  -0.8003
    -0.7882  -0.6794  -0.6608  -0.6546  -0.6480  -0.6289  -0.5802  -0.5661
    -0.5552  -0.5503  -0.5350  -0.5337  -0.5256  -0.4958  -0.4621  -0.4028
    -0.3918  -0.3641  -0.3610  -0.3407  -0.3291  -0.2479  -0.2241  -0.1766
    -0.1690  -0.1294  -0.1015  -0.0781  -0.0760  -0.0756   0.0057   0.0754
     0.0965   0.1356   0.1467   0.1891   0.2025   0.3296   0.3377   0.3739
     0.4231   0.4870   0.5042   0.5118   0.5369   0.5471   0.5696   0.5930
     0.6387   0.6496   0.6627   0.6700   0.6821   0.6932   0.7123   0.7309
     0.7727   0.8513   0.8780   0.9035   0.9154   0.9816   1.0553   1.0810
     1.0979   1.2049   1.2121   1.3020   1.3552   1.3661   1.4026   1.4222
     1.4226   1.4728   1.4819   1.5367   1.5504   1.5858   1.6159   1.6316
     1.7041   1.7257   1.7411   1.7533   1.7673   1.7871   1.8706   1.9417
     1.9835   2.0138   2.0285   2.0425   2.0466   2.1350   2.1587   2.1617
     2.2405   2.2436   2.2534   2.3121   2.3204   2.3377   2.3562   2.4330
     2.4712   2.4939   2.4948   2.5127   2.5223   2.5377   2.5469   2.7097
     2.7277   2.7513   2.7673   2.7697   2.9320   2.9725   3.1488   3.3725
     3.4097   3.5436   3.7935   3.7993   4.1312   4.1884   4.2146   4.5434
     4.7238   5.0084   5.0146   5.0620   5.2195   5.2798   5.3506   5.4231
     5.6629   5.6717   6.0455   6.3196   6.6292   6.8415   7.0050   7.3337
     7.5362

          k = 0.2000-0.1155 0.0000 ( 42996 PWs)   bands (ev):

    -6.1388  -4.8593  -4.3789  -3.9946  -3.9722  -3.7726  -3.7206  -3.6758
    -3.6391  -3.6219  -3.4702  -3.3981  -3.2953  -3.2395  -3.2374  -3.2258
    -2.9719  -2.8905  -2.8098  -2.7987  -2.7827  -2.7528  -2.7168  -2.7007
    -2.6538  -2.6409  -2.6247  -2.5832  -2.5555  -2.5299  -2.4887  -2.4165
    -2.4127  -2.3754  -2.3677  -2.2686  -2.1931  -2.1797  -2.1665  -2.1587
    -2.1098  -1.9024  -1.8812  -1.8614  -1.8215  -1.8048  -1.7802  -1.7341
    -1.5969  -1.5858  -1.5276  -1.5114  -1.4789  -1.4525  -1.3746  -1.2226
    -1.1434  -1.1128  -1.0871  -1.0714  -1.0330  -0.9687  -0.9519  -0.9376
    -0.9127  -0.9080  -0.8895  -0.8485  -0.7922  -0.7813  -0.7625  -0.7386
    -0.6724  -0.6530  -0.6430  -0.5956  -0.5886  -0.5664  -0.5074  -0.4935
    -0.4762  -0.4589  -0.4335  -0.3822  -0.3691  -0.3603  -0.3558  -0.3332
    -0.3071  -0.2934  -0.2405  -0.2245  -0.1948  -0.1885  -0.1579  -0.1453
    -0.1396  -0.0994  -0.0887  -0.0796   0.0302   0.0673   0.0821   0.0911
     0.0953   0.1109   0.1190   0.1313   0.1744   0.1814   0.2018   0.2156
     0.2899   0.4759   0.5011   0.5479   0.5832   0.5970   0.6187   0.6322
     0.6485   0.6679   0.8035   0.8089   0.8238   0.9292   0.9516   0.9638
     1.0160   1.0262   1.0621   1.0710   1.0972   1.1115   1.1765   1.1878
     1.2027   1.2133   1.2265   1.3838   1.4076   1.4375   1.4470   1.4576
     1.4839   1.5092   1.5599   1.5884   1.5919   1.6175   1.6384   1.6866
     1.6945   1.7043   1.7322   1.8117   1.8168   1.8438   1.8920   1.9471
     1.9705   1.9730   1.9883   2.0065   2.0185   2.0474   2.1067   2.1320
     2.1353   2.1860   2.1944   2.1997   2.2393   2.2449   2.2475   2.2527
     2.2570   2.3133   2.3282   2.4584   2.4611   2.4917   2.5028   2.5082
     2.5221   2.5479   2.5711   2.5906   2.6069   2.6725   2.7112   2.7315
     2.7355   2.8829   2.8973   2.9055   2.9514   3.2296   3.3477   3.7744
     4.0764   4.0871   4.2111   4.8497   5.3091   5.5140   6.0209   6.2229
     6.2284   6.3661   6.5714   6.9508   7.1964   7.2335   7.5561   7.5771
     7.5940

          k = 0.2000 0.1155 0.0000 ( 42996 PWs)   bands (ev):

    -6.1388  -4.8593  -4.3789  -3.9946  -3.9722  -3.7726  -3.7206  -3.6758
    -3.6391  -3.6219  -3.4702  -3.3981  -3.2953  -3.2395  -3.2374  -3.2258
    -2.9718  -2.8906  -2.8098  -2.7987  -2.7827  -2.7528  -2.7168  -2.7007
    -2.6538  -2.6409  -2.6247  -2.5832  -2.5554  -2.5299  -2.4888  -2.4164
    -2.4127  -2.3754  -2.3677  -2.2686  -2.1931  -2.1797  -2.1666  -2.1587
    -2.1099  -1.9024  -1.8812  -1.8615  -1.8214  -1.8048  -1.7802  -1.7340
    -1.5970  -1.5858  -1.5276  -1.5114  -1.4789  -1.4525  -1.3746  -1.2227
    -1.1434  -1.1128  -1.0872  -1.0715  -1.0329  -0.9687  -0.9519  -0.9376
    -0.9126  -0.9079  -0.8896  -0.8484  -0.7922  -0.7813  -0.7625  -0.7387
    -0.6724  -0.6529  -0.6429  -0.5956  -0.5886  -0.5663  -0.5075  -0.4936
    -0.4763  -0.4589  -0.4335  -0.3821  -0.3691  -0.3602  -0.3558  -0.3333
    -0.3071  -0.2935  -0.2405  -0.2244  -0.1949  -0.1885  -0.1578  -0.1453
    -0.1397  -0.0994  -0.0888  -0.0796   0.0302   0.0673   0.0821   0.0911
     0.0954   0.1109   0.1190   0.1312   0.1744   0.1814   0.2019   0.2156
     0.2897   0.4760   0.5010   0.5479   0.5832   0.5970   0.6188   0.6322
     0.6486   0.6680   0.8036   0.8089   0.8238   0.9292   0.9516   0.9638
     1.0160   1.0262   1.0621   1.0710   1.0973   1.1115   1.1765   1.1878
     1.2027   1.2133   1.2265   1.3838   1.4076   1.4375   1.4470   1.4576
     1.4839   1.5091   1.5599   1.5884   1.5918   1.6175   1.6383   1.6866
     1.6945   1.7043   1.7322   1.8117   1.8168   1.8438   1.8920   1.9471
     1.9706   1.9730   1.9883   2.0065   2.0186   2.0474   2.1068   2.1320
     2.1353   2.1860   2.1944   2.1997   2.2393   2.2449   2.2475   2.2527
     2.2571   2.3133   2.3283   2.4584   2.4612   2.4917   2.5028   2.5082
     2.5221   2.5479   2.5710   2.5905   2.6069   2.6725   2.7112   2.7315
     2.7356   2.8829   2.8973   2.9055   2.9515   3.2295   3.3477   3.7744
     4.0764   4.0871   4.2111   4.8497   5.3091   5.5139   6.0209   6.2229
     6.2284   6.3661   6.5714   6.9509   7.1964   7.2335   7.5561   7.5771
     7.5940

          k = 0.2000 0.3464 0.0000 ( 43046 PWs)   bands (ev):

    -5.8536  -4.6400  -4.6231  -4.5796  -3.6314  -3.5508  -3.5386  -3.5270
    -3.4880  -3.4764  -3.4649  -3.4589  -3.3573  -3.3529  -3.0758  -2.9759
    -2.9683  -2.9566  -2.9045  -2.8831  -2.7590  -2.7223  -2.7116  -2.7055
    -2.6953  -2.6574  -2.5792  -2.5568  -2.5446  -2.5378  -2.5171  -2.4677
    -2.4424  -2.4289  -2.3908  -2.3248  -2.2292  -2.0524  -1.9529  -1.9470
    -1.9307  -1.9072  -1.9053  -1.8950  -1.8522  -1.8327  -1.7481  -1.6665
    -1.6567  -1.6375  -1.5644  -1.5413  -1.4898  -1.4776  -1.4568  -1.3884
    -1.3421  -1.2265  -1.2179  -1.1693  -1.1299  -1.1067  -1.0860  -1.0700
    -1.0238  -1.0084  -0.9956  -0.8596  -0.8522  -0.8219  -0.8113  -0.7747
    -0.7613  -0.7141  -0.7019  -0.6888  -0.6633  -0.5546  -0.5403  -0.5252
    -0.5089  -0.5051  -0.4915  -0.4868  -0.4485  -0.4309  -0.4026  -0.3720
    -0.3510  -0.2954  -0.2722  -0.2589  -0.2324  -0.1897  -0.1706  -0.1557
    -0.1398  -0.1138  -0.0999  -0.0916  -0.0785  -0.0622  -0.0546  -0.0409
     0.0062   0.0191   0.0656   0.1180   0.1587   0.1665   0.2206   0.2386
     0.2457   0.3221   0.4392   0.4662   0.5480   0.5878   0.6014   0.6096
     0.6361   0.6651   0.6806   0.6998   0.7224   0.7326   0.7846   0.8138
     0.8477   0.9357   1.0053   1.0278   1.0558   1.0700   1.1012   1.1294
     1.1455   1.2472   1.2651   1.2741   1.3213   1.3384   1.3847   1.4557
     1.4797   1.4809   1.5040   1.5493   1.5593   1.5786   1.5802   1.5988
     1.6064   1.6126   1.6341   1.7045   1.7894   1.8236   1.8712   1.9451
     1.9638   2.0424   2.1272   2.1352   2.1391   2.1794   2.2464   2.2653
     2.2779   2.2898   2.3091   2.3299   2.3401   2.3436   2.3572   2.3908
     2.4157   2.4300   2.4870   2.5108   2.5361   2.5611   2.5706   2.6086
     2.7069   2.7676   2.8065   2.8198   2.8751   2.8850   2.8898   3.0194
     3.0285   3.2917   3.5480   3.5634   3.9276   4.0889   4.1088   4.1331
     4.4308   4.8151   4.8327   5.0238   5.0331   5.0803   5.6830   5.8661
     6.2117   6.2634   6.4527   6.5475   6.9342   7.0111   7.0237   7.0304
     7.0682

          k = 0.2000-0.5774 0.0000 ( 43014 PWs)   bands (ev):

    -5.3231  -5.3163  -4.7105  -4.1213  -4.0696  -3.5975  -3.5494  -3.4047
    -3.3769  -3.2892  -3.2571  -3.1614  -3.1510  -3.0843  -3.0427  -3.0322
    -3.0036  -2.9887  -2.9790  -2.9693  -2.9146  -2.8276  -2.8191  -2.7983
    -2.7770  -2.6974  -2.6178  -2.5710  -2.5618  -2.4960  -2.4185  -2.4083
    -2.3987  -2.3945  -2.3327  -2.2780  -2.2506  -2.1701  -2.0953  -1.9845
    -1.9752  -1.9111  -1.8460  -1.8277  -1.7811  -1.7598  -1.6661  -1.6064
    -1.5880  -1.5676  -1.5364  -1.4868  -1.4734  -1.4423  -1.3756  -1.3672
    -1.3397  -1.3379  -1.3264  -1.3208  -1.2769  -1.2587  -1.2148  -1.1372
    -1.1035  -1.0587  -1.0397  -0.9522  -0.9089  -0.8887  -0.8824  -0.8468
    -0.8338  -0.8215  -0.7498  -0.7099  -0.6995  -0.6838  -0.6670  -0.6390
    -0.5810  -0.5619  -0.5393  -0.4803  -0.4662  -0.4613  -0.4120  -0.3621
    -0.2877  -0.2815  -0.2633  -0.2552  -0.2192  -0.2127  -0.2079  -0.1794
    -0.1721  -0.1709  -0.1301  -0.1229  -0.0821  -0.0689  -0.0524  -0.0459
    -0.0374  -0.0075   0.0045   0.0281   0.0502   0.1232   0.2462   0.2900
     0.3628   0.3684   0.4637   0.4787   0.4922   0.5189   0.5478   0.5587
     0.5852   0.6001   0.6313   0.6912   0.7034   0.7223   0.7675   0.7871
     0.8392   0.8590   0.8944   0.9813   1.0569   1.1119   1.1239   1.1372
     1.1609   1.2210   1.2375   1.2613   1.2726   1.2842   1.3157   1.3285
     1.3568   1.4247   1.4509   1.4896   1.5064   1.5248   1.5276   1.5540
     1.5556   1.6538   1.7169   1.7722   1.8158   1.8844   1.9415   1.9697
     1.9792   2.0510   2.0988   2.1047   2.1380   2.2041   2.2582   2.2749
     2.2926   2.3222   2.3259   2.3470   2.3764   2.4071   2.4763   2.4860
     2.4889   2.5032   2.5382   2.5416   2.5465   2.6057   2.7267   2.7345
     2.7566   2.7655   2.7703   2.8226   2.8682   2.9446   3.0698   3.6559
     3.9054   3.9075   4.1109   4.1765   4.2892   4.2965   4.3007   4.5986
     4.9139   4.9199   5.1489   5.3731   5.3983   5.5022   5.5165   5.5782
     5.7650   5.8260   5.9066   6.1498   6.3262   6.3531   6.6262   6.9680
     6.9909

          k = 0.2000-0.3464 0.0000 ( 43046 PWs)   bands (ev):

    -5.8536  -4.6400  -4.6231  -4.5796  -3.6314  -3.5508  -3.5387  -3.5271
    -3.4881  -3.4764  -3.4649  -3.4589  -3.3573  -3.3529  -3.0758  -2.9759
    -2.9683  -2.9566  -2.9045  -2.8831  -2.7590  -2.7223  -2.7116  -2.7055
    -2.6953  -2.6572  -2.5791  -2.5569  -2.5445  -2.5378  -2.5171  -2.4677
    -2.4423  -2.4289  -2.3908  -2.3248  -2.2293  -2.0524  -1.9529  -1.9470
    -1.9306  -1.9072  -1.9053  -1.8950  -1.8521  -1.8327  -1.7479  -1.6665
    -1.6567  -1.6376  -1.5644  -1.5413  -1.4897  -1.4777  -1.4569  -1.3884
    -1.3420  -1.2265  -1.2179  -1.1693  -1.1299  -1.1067  -1.0860  -1.0700
    -1.0238  -1.0085  -0.9956  -0.8596  -0.8522  -0.8221  -0.8114  -0.7748
    -0.7614  -0.7140  -0.7019  -0.6888  -0.6634  -0.5545  -0.5403  -0.5252
    -0.5089  -0.5050  -0.4915  -0.4868  -0.4485  -0.4309  -0.4025  -0.3720
    -0.3511  -0.2955  -0.2722  -0.2589  -0.2324  -0.1897  -0.1706  -0.1558
    -0.1398  -0.1139  -0.0998  -0.0916  -0.0785  -0.0621  -0.0546  -0.0409
     0.0063   0.0190   0.0656   0.1180   0.1588   0.1665   0.2205   0.2386
     0.2457   0.3220   0.4393   0.4662   0.5479   0.5878   0.6014   0.6096
     0.6361   0.6651   0.6805   0.6999   0.7224   0.7327   0.7846   0.8138
     0.8478   0.9357   1.0053   1.0278   1.0559   1.0699   1.1012   1.1294
     1.1455   1.2472   1.2650   1.2741   1.3213   1.3384   1.3846   1.4557
     1.4797   1.4809   1.5040   1.5493   1.5593   1.5786   1.5802   1.5988
     1.6064   1.6126   1.6341   1.7045   1.7893   1.8236   1.8713   1.9451
     1.9638   2.0424   2.1272   2.1352   2.1391   2.1793   2.2464   2.2653
     2.2779   2.2898   2.3091   2.3299   2.3401   2.3436   2.3572   2.3908
     2.4156   2.4301   2.4870   2.5108   2.5360   2.5611   2.5705   2.6086
     2.7070   2.7677   2.8066   2.8198   2.8751   2.8849   2.8898   3.0194
     3.0284   3.2916   3.5480   3.5633   3.9277   4.0890   4.1088   4.1331
     4.4308   4.8151   4.8327   5.0238   5.0331   5.0803   5.6830   5.8661
     6.2117   6.2634   6.4526   6.5475   6.9341   7.0111   7.0238   7.0304
     7.0682

          k = 0.4000-0.2309 0.0000 ( 43046 PWs)   bands (ev):

    -5.7159  -5.0809  -4.4570  -4.0307  -4.0060  -3.9044  -3.6464  -3.4869
    -3.3781  -3.3399  -3.3106  -3.2828  -3.2074  -3.1128  -3.0764  -3.0621
    -3.0506  -2.9488  -2.9184  -2.8965  -2.8701  -2.8422  -2.8072  -2.7779
    -2.7406  -2.7097  -2.6977  -2.5769  -2.4414  -2.4383  -2.4343  -2.4280
    -2.4162  -2.3534  -2.1953  -2.1746  -2.1545  -2.1511  -2.1326  -2.0642
    -1.9583  -1.8582  -1.8463  -1.8374  -1.8172  -1.7841  -1.7521  -1.7161
    -1.6982  -1.6735  -1.6396  -1.5799  -1.4974  -1.4920  -1.4476  -1.4387
    -1.3418  -1.2997  -1.2794  -1.2752  -1.2293  -1.1178  -1.0654  -1.0370
    -1.0288  -1.0143  -0.9468  -0.9350  -0.9095  -0.8089  -0.7920  -0.7848
    -0.7594  -0.6804  -0.6652  -0.6583  -0.6531  -0.6308  -0.5879  -0.5741
    -0.5595  -0.5410  -0.5358  -0.5273  -0.5264  -0.5037  -0.4569  -0.4024
    -0.3860  -0.3745  -0.3659  -0.3600  -0.3423  -0.2410  -0.2049  -0.1757
    -0.1491  -0.1151  -0.1024  -0.0887  -0.0612  -0.0527   0.0202   0.0778
     0.0912   0.1248   0.1455   0.1949   0.2030   0.3310   0.3417   0.3585
     0.4260   0.4866   0.5053   0.5153   0.5337   0.5476   0.5524   0.5681
     0.6372   0.6556   0.6627   0.6773   0.6831   0.7033   0.7242   0.7461
     0.7552   0.8627   0.8939   0.9089   0.9242   0.9841   1.0673   1.0921
     1.1025   1.2062   1.2085   1.2838   1.3475   1.3747   1.4095   1.4198
     1.4384   1.4612   1.4788   1.5337   1.5427   1.5783   1.6086   1.6323
     1.6977   1.7206   1.7423   1.7486   1.7680   1.8024   1.8717   1.9448
     1.9844   2.0155   2.0332   2.0452   2.0506   2.1351   2.1583   2.1660
     2.2460   2.2471   2.2583   2.3074   2.3310   2.3468   2.3632   2.4359
     2.4659   2.4891   2.4974   2.5099   2.5137   2.5256   2.5321   2.7107
     2.7133   2.7410   2.7450   2.7632   2.9340   2.9734   3.1466   3.3545
     3.4288   3.5453   3.7919   3.8017   4.1383   4.1898   4.2163   4.5237
     4.7206   5.0067   5.0157   5.0448   5.2301   5.2863   5.3457   5.4089
     5.6624   5.6733   6.0523   6.2978   6.6379   6.8494   7.0076   7.3354
     7.5351

          k = 0.4000-0.0000 0.0000 ( 43046 PWs)   bands (ev):

    -5.8530  -4.6382  -4.6224  -4.5789  -3.6330  -3.5403  -3.5381  -3.5279
    -3.4889  -3.4827  -3.4680  -3.4619  -3.3582  -3.3523  -3.0673  -2.9686
    -2.9636  -2.9561  -2.9036  -2.8784  -2.7626  -2.7261  -2.7090  -2.7069
    -2.6953  -2.6659  -2.5948  -2.5587  -2.5505  -2.5353  -2.5153  -2.4683
    -2.4324  -2.4293  -2.3941  -2.3088  -2.2205  -2.0506  -1.9563  -1.9511
    -1.9372  -1.9098  -1.9026  -1.8990  -1.8725  -1.8329  -1.7734  -1.6660
    -1.6597  -1.6135  -1.5681  -1.5407  -1.4900  -1.4831  -1.4515  -1.3896
    -1.3500  -1.2314  -1.2202  -1.1705  -1.1496  -1.1156  -1.0872  -1.0796
    -1.0263  -1.0064  -0.9991  -0.8535  -0.8416  -0.8184  -0.7972  -0.7663
    -0.7477  -0.7119  -0.7031  -0.6846  -0.6677  -0.5719  -0.5342  -0.5304
    -0.5122  -0.5008  -0.4935  -0.4887  -0.4450  -0.4255  -0.3939  -0.3625
    -0.3440  -0.2910  -0.2682  -0.2648  -0.2322  -0.1909  -0.1629  -0.1448
    -0.1400  -0.1154  -0.1036  -0.0901  -0.0881  -0.0639  -0.0558  -0.0430
     0.0117   0.0192   0.0515   0.1194   0.1534   0.1627   0.2310   0.2479
     0.2479   0.3354   0.4347   0.4612   0.5659   0.5914   0.6090   0.6171
     0.6356   0.6577   0.6873   0.6953   0.7200   0.7310   0.7793   0.8136
     0.8355   0.9539   1.0091   1.0313   1.0530   1.0715   1.1065   1.1336
     1.1493   1.2467   1.2690   1.2734   1.3205   1.3398   1.3917   1.4507
     1.4717   1.4805   1.5035   1.5483   1.5600   1.5704   1.5780   1.5958
     1.6034   1.6078   1.6281   1.7023   1.7988   1.8212   1.8665   1.9521
     1.9663   2.0430   2.1273   2.1356   2.1376   2.1861   2.2453   2.2602
     2.2787   2.2871   2.3138   2.3288   2.3426   2.3551   2.3654   2.3940
     2.4104   2.4196   2.4932   2.5256   2.5319   2.5610   2.5691   2.6128
     2.6907   2.7485   2.7922   2.8064   2.8698   2.8832   2.8867   3.0243
     3.0314   3.3051   3.5554   3.5686   3.9216   4.0811   4.0970   4.1257
     4.4314   4.8193   4.8364   5.0219   5.0346   5.0776   5.6838   5.8586
     6.2103   6.2503   6.4603   6.5440   6.9392   7.0179   7.0244   7.0325
     7.0627

          k = 0.4000 0.2309 0.0000 ( 43046 PWs)   bands (ev):

    -5.7159  -5.0809  -4.4570  -4.0307  -4.0060  -3.9044  -3.6463  -3.4869
    -3.3780  -3.3399  -3.3105  -3.2828  -3.2074  -3.1128  -3.0764  -3.0621
    -3.0506  -2.9488  -2.9184  -2.8966  -2.8701  -2.8422  -2.8072  -2.7779
    -2.7406  -2.7098  -2.6977  -2.5769  -2.4414  -2.4383  -2.4343  -2.4281
    -2.4162  -2.3533  -2.1953  -2.1746  -2.1545  -2.1511  -2.1326  -2.0642
    -1.9584  -1.8582  -1.8464  -1.8374  -1.8172  -1.7841  -1.7521  -1.7162
    -1.6982  -1.6736  -1.6397  -1.5798  -1.4974  -1.4920  -1.4476  -1.4387
    -1.3418  -1.2997  -1.2795  -1.2753  -1.2295  -1.1178  -1.0654  -1.0369
    -1.0288  -1.0143  -0.9468  -0.9351  -0.9094  -0.8088  -0.7918  -0.7848
    -0.7592  -0.6804  -0.6652  -0.6583  -0.6531  -0.6307  -0.5879  -0.5742
    -0.5596  -0.5411  -0.5359  -0.5273  -0.5264  -0.5037  -0.4568  -0.4024
    -0.3860  -0.3746  -0.3659  -0.3601  -0.3425  -0.2410  -0.2048  -0.1757
    -0.1491  -0.1151  -0.1024  -0.0888  -0.0611  -0.0526   0.0202   0.0778
     0.0912   0.1247   0.1455   0.1950   0.2029   0.3311   0.3417   0.3585
     0.4260   0.4866   0.5052   0.5154   0.5337   0.5475   0.5524   0.5680
     0.6372   0.6556   0.6627   0.6773   0.6831   0.7033   0.7242   0.7461
     0.7551   0.8628   0.8939   0.9090   0.9242   0.9841   1.0674   1.0922
     1.1025   1.2062   1.2085   1.2837   1.3474   1.3748   1.4095   1.4198
     1.4385   1.4612   1.4788   1.5337   1.5427   1.5783   1.6086   1.6323
     1.6977   1.7205   1.7424   1.7486   1.7680   1.8024   1.8717   1.9448
     1.9844   2.0156   2.0332   2.0452   2.0506   2.1351   2.1583   2.1660
     2.2460   2.2471   2.2583   2.3074   2.3311   2.3468   2.3632   2.4360
     2.4659   2.4891   2.4974   2.5098   2.5137   2.5255   2.5320   2.7107
     2.7133   2.7409   2.7450   2.7631   2.9340   2.9734   3.1466   3.3544
     3.4289   3.5453   3.7919   3.8017   4.1383   4.1897   4.2163   4.5236
     4.7206   5.0067   5.0157   5.0448   5.2302   5.2863   5.3457   5.4088
     5.6624   5.6733   6.0523   6.2977   6.6380   6.8495   7.0076   7.3354
     7.5351

          k = 0.4000-0.6928 0.0000 ( 43014 PWs)   bands (ev):

    -5.3230  -5.3136  -4.7128  -4.1217  -4.0684  -3.5982  -3.5404  -3.4058
    -3.3779  -3.2873  -3.2620  -3.1620  -3.1491  -3.0724  -3.0405  -3.0287
    -3.0062  -2.9919  -2.9744  -2.9707  -2.9211  -2.8268  -2.8207  -2.7964
    -2.7741  -2.6952  -2.6270  -2.5678  -2.5575  -2.5008  -2.4196  -2.4098
    -2.3994  -2.3940  -2.3335  -2.2819  -2.2553  -2.1773  -2.1029  -1.9858
    -1.9650  -1.9359  -1.8483  -1.8189  -1.7798  -1.7547  -1.6559  -1.6027
    -1.5842  -1.5656  -1.5389  -1.5056  -1.4771  -1.4526  -1.3787  -1.3706
    -1.3476  -1.3410  -1.3323  -1.3215  -1.2831  -1.2599  -1.2268  -1.1305
    -1.0987  -1.0617  -1.0280  -0.9467  -0.9156  -0.8963  -0.8788  -0.8444
    -0.8115  -0.8028  -0.7408  -0.7131  -0.7043  -0.6861  -0.6674  -0.6393
    -0.5875  -0.5717  -0.5246  -0.4956  -0.4837  -0.4586  -0.4025  -0.3377
    -0.3066  -0.2781  -0.2723  -0.2603  -0.2137  -0.2078  -0.2004  -0.1792
    -0.1716  -0.1370  -0.1185  -0.1054  -0.0876  -0.0726  -0.0544  -0.0483
    -0.0424  -0.0219   0.0037   0.0347   0.0576   0.1030   0.2588   0.3132
     0.3620   0.3674   0.4663   0.4806   0.4868   0.5087   0.5470   0.5631
     0.5789   0.5943   0.6309   0.6837   0.7035   0.7263   0.7742   0.7805
     0.8385   0.8636   0.9109   0.9949   1.0634   1.1127   1.1172   1.1363
     1.1564   1.2100   1.2356   1.2584   1.2753   1.2819   1.3132   1.3270
     1.3610   1.4232   1.4456   1.4893   1.5038   1.5241   1.5287   1.5529
     1.5658   1.6698   1.7084   1.7801   1.8188   1.8835   1.9361   1.9655
     1.9803   2.0496   2.0970   2.1023   2.1417   2.2065   2.2612   2.2766
     2.3068   2.3229   2.3299   2.3462   2.3730   2.3990   2.4713   2.4852
     2.4916   2.5203   2.5353   2.5405   2.5484   2.6072   2.7183   2.7302
     2.7458   2.7511   2.7655   2.8203   2.8528   2.9435   3.0726   3.6635
     3.9054   3.9086   4.1209   4.1677   4.2912   4.2977   4.3181   4.5835
     4.9068   4.9193   5.1537   5.3686   5.4005   5.5034   5.5173   5.5687
     5.7140   5.8174   5.9190   6.1485   6.3326   6.3655   6.6230   6.9784
     7.0114

          k = 0.4000-0.4619 0.0000 ( 43014 PWs)   bands (ev):

    -5.3230  -5.3136  -4.7128  -4.1217  -4.0683  -3.5982  -3.5405  -3.4058
    -3.3779  -3.2874  -3.2620  -3.1619  -3.1491  -3.0725  -3.0405  -3.0287
    -3.0062  -2.9919  -2.9744  -2.9707  -2.9210  -2.8268  -2.8207  -2.7964
    -2.7741  -2.6953  -2.6269  -2.5678  -2.5575  -2.5008  -2.4197  -2.4098
    -2.3994  -2.3940  -2.3335  -2.2819  -2.2553  -2.1773  -2.1029  -1.9858
    -1.9651  -1.9358  -1.8483  -1.8190  -1.7798  -1.7547  -1.6559  -1.6027
    -1.5842  -1.5656  -1.5389  -1.5055  -1.4771  -1.4526  -1.3787  -1.3706
    -1.3475  -1.3411  -1.3323  -1.3214  -1.2831  -1.2599  -1.2267  -1.1306
    -1.0988  -1.0618  -1.0281  -0.9468  -0.9156  -0.8963  -0.8788  -0.8444
    -0.8116  -0.8029  -0.7409  -0.7131  -0.7042  -0.6861  -0.6674  -0.6393
    -0.5875  -0.5717  -0.5246  -0.4955  -0.4837  -0.4587  -0.4025  -0.3377
    -0.3066  -0.2780  -0.2723  -0.2603  -0.2137  -0.2078  -0.2005  -0.1792
    -0.1717  -0.1370  -0.1185  -0.1055  -0.0874  -0.0726  -0.0544  -0.0483
    -0.0424  -0.0219   0.0036   0.0347   0.0576   0.1032   0.2588   0.3131
     0.3620   0.3674   0.4663   0.4807   0.4868   0.5088   0.5469   0.5631
     0.5789   0.5943   0.6309   0.6838   0.7036   0.7263   0.7742   0.7805
     0.8385   0.8636   0.9108   0.9948   1.0633   1.1127   1.1172   1.1363
     1.1564   1.2101   1.2356   1.2583   1.2753   1.2819   1.3132   1.3271
     1.3610   1.4232   1.4456   1.4893   1.5038   1.5241   1.5286   1.5529
     1.5658   1.6697   1.7084   1.7801   1.8188   1.8835   1.9361   1.9655
     1.9803   2.0496   2.0970   2.1023   2.1417   2.2065   2.2612   2.2766
     2.3068   2.3229   2.3299   2.3462   2.3730   2.3990   2.4713   2.4852
     2.4916   2.5202   2.5353   2.5405   2.5484   2.6072   2.7183   2.7302
     2.7458   2.7512   2.7656   2.8203   2.8529   2.9435   3.0725   3.6635
     3.9054   3.9086   4.1208   4.1677   4.2912   4.2977   4.3180   4.5835
     4.9068   4.9193   5.1537   5.3686   5.4005   5.5034   5.5174   5.5687
     5.7142   5.8174   5.9189   6.1486   6.3325   6.3655   6.6230   6.9783
     7.0114

     the Fermi energy is     2.5238 ev

!    total energy              =  -27755.49020936 Ry
     total all-electron energy =  -1326642.255626 Ry
     estimated scf accuracy    <          7.6E-09 Ry
     smearing contrib. (-TS)   =       0.00183426 Ry
     internal energy E=F+TS    =  -27755.49204362 Ry

     The total energy is F=E-TS. E is the sum of the following terms:
     one-electron contribution =  -20663.60178440 Ry
     hartree contribution      =   10639.03362418 Ry
     xc contribution           =    -890.66766576 Ry
     ewald contribution        =    8633.71745503 Ry
     one-center paw contrib.   =  -25473.97367266 Ry

     convergence has been achieved in  22 iterations

     negative rho (up, down):  3.167E-03 0.000E+00

     Forces acting on atoms (cartesian axes, Ry/au):

     atom    1 type  1   force =    -0.00038096    0.00051832   -0.00337053
     atom    2 type  1   force =     0.00038087    0.00051630   -0.00337060
     atom    3 type  1   force =     0.00000624    0.00071909   -0.00663591
     atom    4 type  1   force =    -0.00000153    0.00044421   -0.00380603
     atom    5 type  1   force =     0.00018460    0.00004368   -0.00345657
     atom    6 type  1   force =    -0.00017922    0.00004127   -0.00345821
     atom    7 type  1   force =    -0.00026814    0.00065662   -0.00321911
     atom    8 type  1   force =     0.00000086    0.00035028   -0.00346430
     atom    9 type  1   force =     0.00027139    0.00065418   -0.00322096
     atom   10 type  1   force =    -0.00000363   -0.00005068    0.00785460
     atom   11 type  1   force =     0.00170059   -0.00181001   -0.00027585
     atom   12 type  1   force =    -0.00170535   -0.00181760   -0.00027998
     atom   13 type  1   force =    -0.00127923   -0.00106463    0.00850475
     atom   14 type  1   force =    -0.00000867   -0.00106707    0.00312616
     atom   15 type  1   force =     0.00127872   -0.00106889    0.00849488
     atom   16 type  1   force =    -0.00019213   -0.00077703    0.00313044
     atom   17 type  1   force =     0.00017911   -0.00077380    0.00312559
     atom   18 type  1   force =     0.00000267    0.00044731    0.00072465
     atom   19 type  1   force =     0.00010817    0.00009057   -0.00003484
     atom   20 type  1   force =    -0.00010430    0.00007878   -0.00002972
     atom   21 type  1   force =    -0.00000632    0.00007048   -0.00014754
     atom   22 type  1   force =    -0.00000835    0.00003945   -0.00017325
     atom   23 type  1   force =     0.00001800    0.00003155   -0.00006997
     atom   24 type  1   force =    -0.00001123    0.00004056   -0.00003935
     atom   25 type  1   force =     0.00003273    0.00004081   -0.00011347
     atom   26 type  1   force =     0.00001320   -0.00000884   -0.00009188
     atom   27 type  1   force =    -0.00004447    0.00003370   -0.00009264
     atom   28 type  1   force =     0.00005624    0.00016005   -0.00001560
     atom   29 type  1   force =    -0.00006980    0.00015669   -0.00003493
     atom   30 type  1   force =     0.00000569    0.00010634   -0.00006070
     atom   31 type  1   force =     0.00000303    0.00014070    0.00016371
     atom   32 type  1   force =    -0.00004151    0.00002010   -0.00005680
     atom   33 type  1   force =     0.00004275    0.00000506   -0.00005328
     atom   34 type  1   force =    -0.00002920    0.00005829   -0.00010281
     atom   35 type  1   force =    -0.00001034    0.00011769   -0.00009034
     atom   36 type  1   force =     0.00003964    0.00005917   -0.00011621
     atom   37 type  2   force =     0.00001990    0.00279733    0.00075661
     The non-local contrib.  to forces
     atom    1 type  1   force =    -0.00010962   -0.00052452   -0.01844755
     atom    2 type  1   force =     0.00010874   -0.00052569   -0.01845117
     atom    3 type  1   force =    -0.00000207   -0.00063863   -0.01626600
     atom    4 type  1   force =    -0.00000160   -0.00021504   -0.01918140
     atom    5 type  1   force =     0.00039953    0.00012738   -0.01859048
     atom    6 type  1   force =    -0.00039826    0.00012574   -0.01858428
     atom    7 type  1   force =     0.00042989    0.00042641   -0.01875014
     atom    8 type  1   force =    -0.00000128   -0.00013307   -0.01917229
     atom    9 type  1   force =    -0.00042938    0.00042552   -0.01874744
     atom   10 type  1   force =    -0.00000855   -0.00148829    0.00097518
     atom   11 type  1   force =    -0.00224882    0.00022198   -0.00010721
     atom   12 type  1   force =     0.00224577    0.00021947   -0.00010258
     atom   13 type  1   force =     0.00015487   -0.00092581    0.00155236
     atom   14 type  1   force =    -0.00000253   -0.00025294   -0.00051881
     atom   15 type  1   force =    -0.00016333   -0.00093127    0.00154547
     atom   16 type  1   force =     0.00076606   -0.00140459   -0.00061086
     atom   17 type  1   force =    -0.00077721   -0.00140761   -0.00061885
     atom   18 type  1   force =    -0.00000041   -0.00366567   -0.00032048
     atom   19 type  1   force =    -0.00978154   -0.00615600   -0.00127352
     atom   20 type  1   force =     0.00979381   -0.00617432   -0.00129714
     atom   21 type  1   force =    -0.00000081    0.00036482    0.00369685
     atom   22 type  1   force =    -0.00000956    0.01406381   -0.00521816
     atom   23 type  1   force =     0.00206638    0.00100742    0.00150529
     atom   24 type  1   force =    -0.00206529    0.00100911    0.00153271
     atom   25 type  1   force =     0.00078032   -0.00018989    0.00423934
     atom   26 type  1   force =     0.00000428   -0.00272381    0.00106614
     atom   27 type  1   force =    -0.00078581   -0.00019962    0.00426096
     atom   28 type  1   force =     0.00581360    0.00705352    0.02160214
     atom   29 type  1   force =    -0.00582872    0.00702756    0.02158786
     atom   30 type  1   force =     0.00001487    0.00118031    0.01746761
     atom   31 type  1   force =     0.00004845    0.00666114   -0.13480083
     atom   32 type  1   force =    -0.00557854    0.00160254    0.02048786
     atom   33 type  1   force =     0.00561868    0.00157468    0.02049771
     atom   34 type  1   force =    -0.00091124   -0.00371502    0.01962269
     atom   35 type  1   force =    -0.00001177    0.00145349    0.01718119
     atom   36 type  1   force =     0.00093449   -0.00373072    0.01961886
     atom   37 type  2   force =     0.00003098    0.00448357   -0.04217659
     The ionic contribution  to forces
     atom    1 type  1   force =     0.00118571    0.00875536  -93.39616411
     atom    2 type  1   force =    -0.00116639    0.00880160  -93.39611678
     atom    3 type  1   force =    -0.00001949   -0.00193037  -93.39999951
     atom    4 type  1   force =     0.00004855    0.00345767  -93.37701954
     atom    5 type  1   force =    -0.00981984   -0.00164593  -93.39469329
     atom    6 type  1   force =     0.00977070   -0.00165206  -93.39479590
     atom    7 type  1   force =    -0.00943131   -0.00762167  -93.39080034
     atom    8 type  1   force =    -0.00003071   -0.00087859  -93.40744760
     atom    9 type  1   force =     0.00946183   -0.00758222  -93.39085380
     atom   10 type  1   force =     0.00029497    0.06243340  -31.48583479
     atom   11 type  1   force =    -0.06511181    0.02662858  -31.49891659
     atom   12 type  1   force =     0.06465161    0.02625868  -31.49933547
     atom   13 type  1   force =    -0.07916474   -0.02275458  -31.46294390
     atom   14 type  1   force =    -0.00050122   -0.02296751  -31.57266066
     atom   15 type  1   force =     0.07958253   -0.02265530  -31.46333730
     atom   16 type  1   force =    -0.01946704   -0.01110143  -31.57839888
     atom   17 type  1   force =     0.01929039   -0.01063782  -31.57845650
     atom   18 type  1   force =     0.00005051   -0.12778164  -31.47342538
     atom   19 type  1   force =     0.07395200    0.04167387   31.38221784
     atom   20 type  1   force =    -0.07322179    0.04096993   31.38368969
     atom   21 type  1   force =    -0.00072769   -0.06006872   30.82002818
     atom   22 type  1   force =    -0.00027047   -0.04045587   31.57416973
     atom   23 type  1   force =    -0.04822755   -0.02328134   30.91442109
     atom   24 type  1   force =     0.04841551   -0.02244410   30.91203790
     atom   25 type  1   force =    -0.06363018    0.00750201   30.78302677
     atom   26 type  1   force =     0.00084679    0.03960906   30.89328526
     atom   27 type  1   force =     0.06275612    0.00767639   30.78241314
     atom   28 type  1   force =    -0.09873339   -0.26826589   92.34209990
     atom   29 type  1   force =     0.09839866   -0.26791107   92.34322014
     atom   30 type  1   force =     0.00024928    0.01767750   92.65107858
     atom   31 type  1   force =     0.00217109    0.24898800   92.45274234
     atom   32 type  1   force =     0.27695873    0.06039258   92.42440893
     atom   33 type  1   force =    -0.27761299    0.05955683   92.42276471
     atom   34 type  1   force =     0.16136624    0.19544322   92.51869956
     atom   35 type  1   force =    -0.00062550    0.01326578   92.70453429
     atom   36 type  1   force =    -0.16070709    0.19605010   92.51787018
     atom   37 type  2   force =    -0.00098205   -0.14350444   12.33849213
     The local contribution  to forces
     atom    1 type  1   force =    -0.00144244   -0.00769689   93.39408958
     atom    2 type  1   force =     0.00143236   -0.00774222   93.39405355
     atom    3 type  1   force =     0.00001990    0.00333698   93.39203184
     atom    4 type  1   force =    -0.00004260   -0.00279749   93.37528604
     atom    5 type  1   force =     0.00958753    0.00157729   93.39268789
     atom    6 type  1   force =    -0.00953999    0.00158866   93.39277499
     atom    7 type  1   force =     0.00871420    0.00785427   93.38920319
     atom    8 type  1   force =     0.00003521    0.00137260   93.40602911
     atom    9 type  1   force =    -0.00874420    0.00782142   93.38925213
     atom   10 type  1   force =    -0.00027294   -0.06084779   31.49177114
     atom   11 type  1   force =     0.06893414   -0.02864200   31.49778432
     atom   12 type  1   force =    -0.06849377   -0.02827542   31.49818538
     atom   13 type  1   force =     0.07752694    0.02254700   31.46902474
     atom   14 type  1   force =     0.00048685    0.02213802   31.57502424
     atom   15 type  1   force =    -0.07792862    0.02246381   31.46941320
     atom   16 type  1   force =     0.01853221    0.01166315   31.58080841
     atom   17 type  1   force =    -0.01834708    0.01122123   31.58087503
     atom   18 type  1   force =    -0.00005821    0.13149433   31.47363481
     atom   19 type  1   force =    -0.06368092   -0.03530692  -31.37849763
     atom   20 type  1   force =     0.06296108   -0.03461104  -31.37994156
     atom   21 type  1   force =     0.00070274    0.05947228  -30.82195820
     atom   22 type  1   force =     0.00026846    0.02613408  -31.56697216
     atom   23 type  1   force =     0.04613776    0.02224675  -30.91413639
     atom   24 type  1   force =    -0.04631763    0.02143995  -30.91174707
     atom   25 type  1   force =     0.06261389   -0.00722449  -30.78545752
     atom   26 type  1   force =    -0.00081643   -0.03687328  -30.89257173
     atom   27 type  1   force =    -0.06176772   -0.00738713  -30.78484209
     atom   28 type  1   force =     0.09323115    0.26122242  -92.34733870
     atom   29 type  1   force =    -0.09288034    0.26089467  -92.34847449
     atom   30 type  1   force =    -0.00027376   -0.01868973  -92.65214550
     atom   31 type  1   force =    -0.00218539   -0.25288701  -92.32059305
     atom   32 type  1   force =    -0.27142532   -0.06174665  -92.42851181
     atom   33 type  1   force =     0.27202786   -0.06089058  -92.42687245
     atom   34 type  1   force =    -0.16029754   -0.19181996  -92.52189501
     atom   35 type  1   force =     0.00062809   -0.01452247  -92.70514915
     atom   36 type  1   force =     0.15962409   -0.19239195  -92.52108431
     atom   37 type  2   force =     0.00097164    0.14181808  -12.29557273
     The core correction contribution to forces
     atom    1 type  1   force =    -0.00000326   -0.00001039    0.01720754
     atom    2 type  1   force =     0.00000303   -0.00001049    0.01720746
     atom    3 type  1   force =    -0.00000024   -0.00005323    0.01765210
     atom    4 type  1   force =     0.00000004   -0.00000005    0.01717347
     atom    5 type  1   force =     0.00000284   -0.00001559    0.01720255
     atom    6 type  1   force =    -0.00000286   -0.00001579    0.01720275
     atom    7 type  1   force =     0.00001231   -0.00001540    0.01719070
     atom    8 type  1   force =    -0.00000003   -0.00000908    0.01718847
     atom    9 type  1   force =    -0.00001235   -0.00001544    0.01719082
     atom   10 type  1   force =    -0.00000056   -0.00014063    0.00103326
     atom   11 type  1   force =     0.00010265   -0.00001648    0.00104962
     atom   12 type  1   force =    -0.00010093   -0.00001510    0.00105086
     atom   13 type  1   force =     0.00019614    0.00006279    0.00096554
     atom   14 type  1   force =     0.00000129    0.00002986    0.00137731
     atom   15 type  1   force =    -0.00019734    0.00006289    0.00096702
     atom   16 type  1   force =    -0.00001227    0.00005193    0.00142581
     atom   17 type  1   force =     0.00001297    0.00005083    0.00142694
     atom   18 type  1   force =    -0.00000020    0.00037822    0.00092240
     atom   19 type  1   force =    -0.00035381   -0.00010316   -0.00244097
     atom   20 type  1   force =     0.00035254   -0.00010015   -0.00244014
     atom   21 type  1   force =     0.00000215    0.00032396   -0.00186898
     atom   22 type  1   force =     0.00000211    0.00028589   -0.00211166
     atom   23 type  1   force =     0.00004341    0.00005793   -0.00181172
     atom   24 type  1   force =    -0.00004450    0.00005580   -0.00181607
     atom   25 type  1   force =     0.00027716   -0.00007315   -0.00187619
     atom   26 type  1   force =    -0.00000267   -0.00003277   -0.00182425
     atom   27 type  1   force =    -0.00027403   -0.00007296   -0.00187935
     atom   28 type  1   force =    -0.00023544    0.00013719   -0.01641230
     atom   29 type  1   force =     0.00023725    0.00013696   -0.01641049
     atom   30 type  1   force =    -0.00000115   -0.00007096   -0.01648517
     atom   31 type  1   force =    -0.00001973   -0.00261516    0.00276613
     atom   32 type  1   force =    -0.00000693   -0.00021719   -0.01647964
     atom   33 type  1   force =     0.00000818   -0.00021392   -0.01647824
     atom   34 type  1   force =    -0.00018187    0.00013436   -0.01656820
     atom   35 type  1   force =     0.00000222   -0.00007673   -0.01670265
     atom   36 type  1   force =     0.00017971    0.00013281   -0.01656495
     atom   37 type  2   force =     0.00000000    0.00000000    0.00000000
     The Hubbard contrib.    to forces
     atom    1 type  1   force =     0.00000000    0.00000000    0.00000000
     atom    2 type  1   force =     0.00000000    0.00000000    0.00000000
     atom    3 type  1   force =     0.00000000    0.00000000    0.00000000
     atom    4 type  1   force =     0.00000000    0.00000000    0.00000000
     atom    5 type  1   force =     0.00000000    0.00000000    0.00000000
     atom    6 type  1   force =     0.00000000    0.00000000    0.00000000
     atom    7 type  1   force =     0.00000000    0.00000000    0.00000000
     atom    8 type  1   force =     0.00000000    0.00000000    0.00000000
     atom    9 type  1   force =     0.00000000    0.00000000    0.00000000
     atom   10 type  1   force =     0.00000000    0.00000000    0.00000000
     atom   11 type  1   force =     0.00000000    0.00000000    0.00000000
     atom   12 type  1   force =     0.00000000    0.00000000    0.00000000
     atom   13 type  1   force =     0.00000000    0.00000000    0.00000000
     atom   14 type  1   force =     0.00000000    0.00000000    0.00000000
     atom   15 type  1   force =     0.00000000    0.00000000    0.00000000
     atom   16 type  1   force =     0.00000000    0.00000000    0.00000000
     atom   17 type  1   force =     0.00000000    0.00000000    0.00000000
     atom   18 type  1   force =     0.00000000    0.00000000    0.00000000
     atom   19 type  1   force =     0.00000000    0.00000000    0.00000000
     atom   20 type  1   force =     0.00000000    0.00000000    0.00000000
     atom   21 type  1   force =     0.00000000    0.00000000    0.00000000
     atom   22 type  1   force =     0.00000000    0.00000000    0.00000000
     atom   23 type  1   force =     0.00000000    0.00000000    0.00000000
     atom   24 type  1   force =     0.00000000    0.00000000    0.00000000
     atom   25 type  1   force =     0.00000000    0.00000000    0.00000000
     atom   26 type  1   force =     0.00000000    0.00000000    0.00000000
     atom   27 type  1   force =     0.00000000    0.00000000    0.00000000
     atom   28 type  1   force =     0.00000000    0.00000000    0.00000000
     atom   29 type  1   force =     0.00000000    0.00000000    0.00000000
     atom   30 type  1   force =     0.00000000    0.00000000    0.00000000
     atom   31 type  1   force =     0.00000000    0.00000000    0.00000000
     atom   32 type  1   force =     0.00000000    0.00000000    0.00000000
     atom   33 type  1   force =     0.00000000    0.00000000    0.00000000
     atom   34 type  1   force =     0.00000000    0.00000000    0.00000000
     atom   35 type  1   force =     0.00000000    0.00000000    0.00000000
     atom   36 type  1   force =     0.00000000    0.00000000    0.00000000
     atom   37 type  2   force =     0.00000000    0.00000000    0.00000000
     The SCF correction term to forces
     atom    1 type  1   force =    -0.00000000   -0.00000000   -0.00000000
     atom    2 type  1   force =     0.00000000   -0.00000000   -0.00000000
     atom    3 type  1   force =     0.00000000    0.00000000   -0.00000000
     atom    4 type  1   force =    -0.00000000   -0.00000000   -0.00000000
     atom    5 type  1   force =     0.00000000    0.00000000   -0.00000000
     atom    6 type  1   force =    -0.00000000   -0.00000000   -0.00000000
     atom    7 type  1   force =     0.00000000    0.00000000   -0.00000000
     atom    8 type  1   force =    -0.00000000   -0.00000000   -0.00000000
     atom    9 type  1   force =    -0.00000000    0.00000000   -0.00000000
     atom   10 type  1   force =    -0.00000000   -0.00000000   -0.00000000
     atom   11 type  1   force =     0.00000000   -0.00000000   -0.00000000
     atom   12 type  1   force =    -0.00000000   -0.00000000   -0.00000000
     atom   13 type  1   force =     0.00000000    0.00000000   -0.00000000
     atom   14 type  1   force =     0.00000000   -0.00000000   -0.00000000
     atom   15 type  1   force =    -0.00000000   -0.00000000   -0.00000000
     atom   16 type  1   force =    -0.00000000    0.00000000   -0.00000000
     atom   17 type  1   force =     0.00000000   -0.00000000   -0.00000000
     atom   18 type  1   force =     0.00000000    0.00000000   -0.00000000
     atom   19 type  1   force =    -0.00002755   -0.00001755   -0.00005254
     atom   20 type  1   force =     0.00001007   -0.00000596   -0.00005254
     atom   21 type  1   force =     0.00001731   -0.00002219   -0.00005736
     atom   22 type  1   force =     0.00000112    0.00001121   -0.00005297
     atom   23 type  1   force =    -0.00000199    0.00000046   -0.00006021
     atom   24 type  1   force =     0.00000070   -0.00002053   -0.00005880
     atom   25 type  1   force =    -0.00000844    0.00002600   -0.00005783
     atom   26 type  1   force =    -0.00001876    0.00001164   -0.00005927
     atom   27 type  1   force =     0.00002698    0.00001669   -0.00005727
     atom   28 type  1   force =    -0.00001966    0.00001249    0.00002140
     atom   29 type  1   force =     0.00000336    0.00000824    0.00003008
     atom   30 type  1   force =     0.00001645    0.00000889    0.00001180
     atom   31 type  1   force =    -0.00001138   -0.00000661    0.00003715
     atom   32 type  1   force =     0.00001056   -0.00001151    0.00002589
     atom   33 type  1   force =     0.00000102   -0.00002229    0.00002303
     atom   34 type  1   force =    -0.00000479    0.00001537    0.00002617
     atom   35 type  1   force =    -0.00000337   -0.00000272    0.00003400
     atom   36 type  1   force =     0.00000845   -0.00000140    0.00003203
     atom   37 type  2   force =    -0.00000066   -0.00000021    0.00000183

     Total force =     0.002954     Total SCF correction =     0.000207

     Writing all to output data dir ./pwscf.save/

     init_run     :     10.13s CPU     10.45s WALL (       1 calls)
     electrons    :    361.34s CPU    370.26s WALL (       1 calls)
     forces       :      4.63s CPU      5.17s WALL (       1 calls)

     Called by init_run:
     wfcinit      :      5.68s CPU      5.86s WALL (       1 calls)
     potinit      :      3.05s CPU      3.13s WALL (       1 calls)
     hinit0       :      0.83s CPU      0.84s WALL (       1 calls)

     Called by electrons:
     c_bands      :    304.79s CPU    310.08s WALL (      23 calls)
     sum_band     :     35.62s CPU     36.69s WALL (      23 calls)
     v_of_rho     :     10.14s CPU     11.61s WALL (      23 calls)
     newd         :      3.11s CPU      3.88s WALL (      23 calls)
     PAW_pot      :      5.05s CPU      5.13s WALL (      23 calls)
     mix_rho      :      4.71s CPU      4.80s WALL (      23 calls)
     vdW_kernel   :      1.70s CPU      1.72s WALL (       1 calls)

     Called by c_bands:
     init_us_2    :      3.18s CPU      3.23s WALL (     624 calls)
     init_us_2:cp :      3.17s CPU      3.22s WALL (     624 calls)
     cegterg      :    296.54s CPU    301.47s WALL (     299 calls)

     Called by *egterg:
     cdiaghg      :     78.86s CPU     79.56s WALL (    1430 calls)
     h_psi        :    138.92s CPU    141.77s WALL (    1456 calls)
     s_psi        :     16.70s CPU     16.90s WALL (    1456 calls)
     g_psi        :      0.55s CPU      0.56s WALL (    1144 calls)

     Called by h_psi:
     h_psi:calbec :     21.75s CPU     22.59s WALL (    1456 calls)
     vloc_psi     :     98.29s CPU    100.07s WALL (    1456 calls)
     add_vuspsi   :     17.55s CPU     17.72s WALL (    1456 calls)

     General routines
     calbec       :     31.61s CPU     32.59s WALL (    1807 calls)
     fft          :      6.20s CPU      7.76s WALL (    1509 calls)
     ffts         :      2.71s CPU      2.74s WALL (    5709 calls)
     fftw         :     96.49s CPU     98.21s WALL (  392839 calls)
     interpolate  :      0.63s CPU      0.67s WALL (      23 calls)

     Parallel routines

     PWSCF        :   6m18.00s CPU   6m30.33s WALL


   This run was terminated on:  17:29:59  23Feb2025            

=------------------------------------------------------------------------------=
   JOB DONE.
=------------------------------------------------------------------------------=
