  37  37   0   0
  0.4190497E+02  0.8468310E-09  0.8468310E-09  0.2496566E-08  0.5000000E-15
  1.000000000000000E-004
  CAR 
 unknown system                          
      8.79190709     -9.88464211  301     -0.06934454      1.00000000
     -9.885  0.0000E+00  0.0000E+00
     -9.822  0.0000E+00  0.0000E+00
     -9.760  0.0000E+00  0.0000E+00
     -9.698 -0.5590E-28 -0.3480E-29
     -9.636 -0.8750E-24 -0.5448E-25
     -9.573 -0.6265E-20 -0.3901E-21
     -9.511 -0.2049E-16 -0.1276E-17
     -9.449 -0.2964E-13 -0.1846E-14
     -9.387 -0.1993E-10 -0.1243E-11
     -9.324 -0.6052E-08 -0.3780E-09
     -9.262 -0.8225E-06 -0.5158E-07
     -9.200 -0.4922E-04 -0.3116E-05
     -9.138 -0.1254E-02 -0.8121E-04
     -9.075 -0.1248E-01 -0.8584E-03
     -9.013 -0.3363E-01 -0.2952E-02
     -8.951  0.7943E-01  0.1993E-02
     -8.889  0.3622E+00  0.2454E-01
     -8.826  0.6917E+00  0.6760E-01
     -8.764  0.2370E+01  0.2151E+00
     -8.702  0.3809E+01  0.4523E+00
     -8.640  0.1817E+01  0.5654E+00
     -8.577 -0.1786E+00  0.5543E+00
     -8.515  0.4732E+00  0.5837E+00
     -8.453  0.2954E+01  0.7676E+00
     -8.391  0.3752E+01  0.1001E+01
     -8.328  0.3586E+01  0.1224E+01
     -8.266  0.3585E+01  0.1448E+01
     -8.204  0.1406E+01  0.1535E+01
     -8.141 -0.1356E+00  0.1527E+01
     -8.079 -0.3782E+00  0.1503E+01
     -8.017 -0.1967E+00  0.1491E+01
     -7.955  0.2924E+01  0.1673E+01
     -7.892  0.7408E+01  0.2134E+01
     -7.830  0.5155E+01  0.2455E+01
     -7.768  0.6677E+00  0.2497E+01
     -7.706  0.1637E+01  0.2599E+01
     -7.643  0.4100E+01  0.2854E+01
     -7.581  0.2982E+01  0.3040E+01
     -7.519  0.2709E+01  0.3208E+01
     -7.457  0.3379E+01  0.3419E+01
     -7.394  0.1312E+01  0.3500E+01
     -7.332  0.1915E+01  0.3619E+01
     -7.270  0.7490E+01  0.4086E+01
     -7.208  0.1171E+02  0.4815E+01
     -7.145  0.9753E+01  0.5422E+01
     -7.083  0.5507E+01  0.5765E+01
     -7.021  0.3484E+01  0.5982E+01
     -6.959  0.3612E+01  0.6206E+01
     -6.896  0.2669E+01  0.6373E+01
     -6.834  0.1892E+01  0.6490E+01
     -6.772  0.3145E+01  0.6686E+01
     -6.710  0.4185E+01  0.6947E+01
     -6.647  0.9231E+01  0.7521E+01
     -6.585  0.1636E+02  0.8540E+01
     -6.523  0.1713E+02  0.9606E+01
     -6.461  0.1287E+02  0.1041E+02
     -6.398  0.9387E+01  0.1099E+02
     -6.336  0.9130E+01  0.1156E+02
     -6.274  0.1330E+02  0.1239E+02
     -6.212  0.2005E+02  0.1364E+02
     -6.149  0.2828E+02  0.1540E+02
     -6.087  0.3603E+02  0.1764E+02
     -6.025  0.3359E+02  0.1973E+02
     -5.963  0.3041E+02  0.2162E+02
     -5.900  0.3380E+02  0.2373E+02
     -5.838  0.3535E+02  0.2593E+02
     -5.776  0.2742E+02  0.2764E+02
     -5.714  0.2379E+02  0.2912E+02
     -5.651  0.3386E+02  0.3123E+02
     -5.589  0.4250E+02  0.3387E+02
     -5.527  0.4459E+02  0.3665E+02
     -5.465  0.4911E+02  0.3971E+02
     -5.402  0.5877E+02  0.4336E+02
     -5.340  0.6245E+02  0.4725E+02
     -5.278  0.5805E+02  0.5087E+02
     -5.216  0.5072E+02  0.5402E+02
     -5.153  0.4535E+02  0.5685E+02
     -5.091  0.4644E+02  0.5974E+02
     -5.029  0.6537E+02  0.6381E+02
     -4.966  0.6789E+02  0.6803E+02
     -4.904  0.3906E+02  0.7047E+02
     -4.842  0.2616E+02  0.7209E+02
     -4.780  0.4043E+02  0.7461E+02
     -4.717  0.4224E+02  0.7724E+02
     -4.655  0.2303E+02  0.7867E+02
     -4.593  0.1888E+02  0.7985E+02
     -4.531  0.3768E+02  0.8220E+02
     -4.468  0.5849E+02  0.8584E+02
     -4.406  0.6371E+02  0.8980E+02
     -4.344  0.5359E+02  0.9314E+02
     -4.282  0.4600E+02  0.9600E+02
     -4.219  0.4541E+02  0.9883E+02
     -4.157  0.4595E+02  0.1017E+03
     -4.095  0.5563E+02  0.1052E+03
     -4.033  0.5880E+02  0.1088E+03
     -3.970  0.4671E+02  0.1117E+03
     -3.908  0.4089E+02  0.1143E+03
     -3.846  0.4009E+02  0.1168E+03
     -3.784  0.3633E+02  0.1190E+03
     -3.721  0.4053E+02  0.1215E+03
     -3.659  0.5804E+02  0.1252E+03
     -3.597  0.6477E+02  0.1292E+03
     -3.535  0.5864E+02  0.1328E+03
     -3.472  0.5763E+02  0.1364E+03
     -3.410  0.6798E+02  0.1407E+03
     -3.348  0.7763E+02  0.1455E+03
     -3.286  0.7606E+02  0.1502E+03
     -3.223  0.6805E+02  0.1545E+03
     -3.161  0.7105E+02  0.1589E+03
     -3.099  0.8567E+02  0.1642E+03
     -3.037  0.8282E+02  0.1694E+03
     -2.974  0.7555E+02  0.1741E+03
     -2.912  0.7754E+02  0.1789E+03
     -2.850  0.7554E+02  0.1836E+03
     -2.788  0.8604E+02  0.1890E+03
     -2.725  0.1041E+03  0.1955E+03
     -2.663  0.1027E+03  0.2018E+03
     -2.601  0.7730E+02  0.2067E+03
     -2.539  0.6141E+02  0.2105E+03
     -2.476  0.6571E+02  0.2146E+03
     -2.414  0.5980E+02  0.2183E+03
     -2.352  0.4183E+02  0.2209E+03
     -2.290  0.2909E+02  0.2227E+03
     -2.227  0.2870E+02  0.2245E+03
     -2.165  0.3399E+02  0.2266E+03
     -2.103  0.4658E+02  0.2295E+03
     -2.040  0.6819E+02  0.2338E+03
     -1.978  0.8807E+02  0.2392E+03
     -1.916  0.8962E+02  0.2448E+03
     -1.854  0.7508E+02  0.2495E+03
     -1.791  0.5593E+02  0.2530E+03
     -1.729  0.4559E+02  0.2558E+03
     -1.667  0.4412E+02  0.2586E+03
     -1.605  0.4611E+02  0.2614E+03
     -1.542  0.5500E+02  0.2649E+03
     -1.480  0.6117E+02  0.2687E+03
     -1.418  0.5983E+02  0.2724E+03
     -1.356  0.5973E+02  0.2761E+03
     -1.293  0.5606E+02  0.2796E+03
     -1.231  0.4970E+02  0.2827E+03
     -1.169  0.5899E+02  0.2864E+03
     -1.107  0.7734E+02  0.2912E+03
     -1.044  0.8540E+02  0.2965E+03
     -0.982  0.8183E+02  0.3016E+03
     -0.920  0.6519E+02  0.3056E+03
     -0.858  0.5621E+02  0.3091E+03
     -0.795  0.5490E+02  0.3126E+03
     -0.733  0.4598E+02  0.3154E+03
     -0.671  0.4371E+02  0.3181E+03
     -0.609  0.5838E+02  0.3218E+03
     -0.546  0.6527E+02  0.3258E+03
     -0.484  0.5974E+02  0.3296E+03
     -0.422  0.6154E+02  0.3334E+03
     -0.360  0.7366E+02  0.3380E+03
     -0.297  0.9100E+02  0.3436E+03
     -0.235  0.8721E+02  0.3491E+03
     -0.173  0.6200E+02  0.3529E+03
     -0.111  0.6734E+02  0.3571E+03
     -0.048  0.9571E+02  0.3631E+03
      0.014  0.7865E+02  0.3680E+03
      0.076  0.3923E+02  0.3704E+03
      0.138  0.4225E+02  0.3731E+03
      0.201  0.5799E+02  0.3767E+03
      0.263  0.4734E+02  0.3796E+03
      0.325  0.3909E+02  0.3820E+03
      0.387  0.3264E+02  0.3841E+03
      0.450  0.1960E+02  0.3853E+03
      0.512  0.9071E+01  0.3859E+03
      0.574  0.4284E+01  0.3861E+03
      0.636  0.4264E+01  0.3864E+03
      0.699  0.7723E+01  0.3869E+03
      0.761  0.1269E+02  0.3877E+03
      0.823  0.1249E+02  0.3884E+03
      0.886  0.8461E+01  0.3890E+03
      0.948  0.1017E+02  0.3896E+03
      1.010  0.1206E+02  0.3904E+03
      1.072  0.7007E+01  0.3908E+03
      1.135  0.4395E+01  0.3911E+03
      1.197  0.8164E+01  0.3916E+03
      1.259  0.1169E+02  0.3923E+03
      1.321  0.1145E+02  0.3930E+03
      1.384  0.1001E+02  0.3936E+03
      1.446  0.9838E+01  0.3942E+03
      1.508  0.2125E+02  0.3956E+03
      1.570  0.2823E+02  0.3973E+03
      1.633  0.2169E+02  0.3987E+03
      1.695  0.1723E+02  0.3998E+03
      1.757  0.1236E+02  0.4005E+03
      1.819  0.4074E+01  0.4008E+03
      1.882  0.3227E+01  0.4010E+03
      1.944  0.6901E+01  0.4014E+03
      2.006  0.6754E+01  0.4018E+03
      2.068  0.4135E+01  0.4021E+03
      2.131  0.3034E+01  0.4023E+03
      2.193  0.6696E+01  0.4027E+03
      2.255  0.1103E+02  0.4034E+03
      2.317  0.1222E+02  0.4041E+03
      2.380  0.1334E+02  0.4050E+03
      2.442  0.1939E+02  0.4062E+03
      2.504  0.2183E+02  0.4075E+03
      2.566  0.1271E+02  0.4083E+03
      2.629  0.6546E+01  0.4087E+03
      2.691  0.7611E+01  0.4092E+03
      2.753  0.1299E+02  0.4100E+03
      2.815  0.1737E+02  0.4111E+03
      2.878  0.1505E+02  0.4120E+03
      2.940  0.1176E+02  0.4128E+03
      3.002  0.8898E+01  0.4133E+03
      3.064  0.1159E+02  0.4140E+03
      3.127  0.1617E+02  0.4150E+03
      3.189  0.1229E+02  0.4158E+03
      3.251  0.8497E+01  0.4163E+03
      3.313  0.8279E+01  0.4169E+03
      3.376  0.7081E+01  0.4173E+03
      3.438  0.5915E+01  0.4177E+03
      3.500  0.7025E+01  0.4181E+03
      3.562  0.8189E+01  0.4186E+03
      3.625  0.1230E+02  0.4194E+03
      3.687  0.2008E+02  0.4206E+03
      3.749  0.2086E+02  0.4219E+03
      3.811  0.1314E+02  0.4227E+03
      3.874  0.5764E+01  0.4231E+03
      3.936  0.4994E+01  0.4234E+03
      3.998  0.7910E+01  0.4239E+03
      4.061  0.9595E+01  0.4245E+03
      4.123  0.7959E+01  0.4250E+03
      4.185  0.3342E+01  0.4252E+03
      4.247  0.1766E+01  0.4253E+03
      4.310  0.5317E+01  0.4256E+03
      4.372  0.1531E+02  0.4266E+03
      4.434  0.2635E+02  0.4282E+03
      4.496  0.2241E+02  0.4296E+03
      4.559  0.1033E+02  0.4303E+03
      4.621  0.7289E+01  0.4307E+03
      4.683  0.9629E+01  0.4313E+03
      4.745  0.1172E+02  0.4321E+03
      4.808  0.1071E+02  0.4327E+03
      4.870  0.7459E+01  0.4332E+03
      4.932  0.8103E+01  0.4337E+03
      4.994  0.1405E+02  0.4346E+03
      5.057  0.1220E+02  0.4353E+03
      5.119  0.7750E+01  0.4358E+03
      5.181  0.1094E+02  0.4365E+03
      5.243  0.1322E+02  0.4373E+03
      5.306  0.1177E+02  0.4381E+03
      5.368  0.8079E+01  0.4386E+03
      5.430  0.7501E+01  0.4390E+03
      5.492  0.1568E+02  0.4400E+03
      5.555  0.2206E+02  0.4414E+03
      5.617  0.2095E+02  0.4427E+03
      5.679  0.2209E+02  0.4441E+03
      5.741  0.2565E+02  0.4456E+03
      5.804  0.2142E+02  0.4470E+03
      5.866  0.1475E+02  0.4479E+03
      5.928  0.1793E+02  0.4490E+03
      5.990  0.2696E+02  0.4507E+03
      6.053  0.3138E+02  0.4526E+03
      6.115  0.2458E+02  0.4542E+03
      6.177  0.1653E+02  0.4552E+03
      6.239  0.1642E+02  0.4562E+03
      6.302  0.2110E+02  0.4575E+03
      6.364  0.2962E+02  0.4594E+03
      6.426  0.2518E+02  0.4610E+03
      6.488  0.1355E+02  0.4618E+03
      6.551  0.1743E+02  0.4629E+03
      6.613  0.2729E+02  0.4646E+03
      6.675  0.2822E+02  0.4663E+03
      6.737  0.2610E+02  0.4680E+03
      6.800  0.2213E+02  0.4693E+03
      6.862  0.2217E+02  0.4707E+03
      6.924  0.2012E+02  0.4720E+03
      6.987  0.1116E+02  0.4727E+03
      7.049  0.1164E+02  0.4734E+03
      7.111  0.1925E+02  0.4746E+03
      7.173  0.2135E+02  0.4759E+03
      7.236  0.2009E+02  0.4772E+03
      7.298  0.1463E+02  0.4781E+03
      7.360  0.5922E+01  0.4785E+03
      7.422  0.9216E+00  0.4785E+03
      7.485  0.3206E+01  0.4787E+03
      7.547  0.7975E+01  0.4792E+03
      7.609  0.7986E+01  0.4797E+03
      7.671  0.3544E+01  0.4799E+03
      7.734  0.4045E+00  0.4799E+03
      7.796  0.2960E+00  0.4800E+03
      7.858  0.4570E+00  0.4800E+03
      7.920  0.1080E+00  0.4800E+03
      7.983 -0.3145E-01  0.4800E+03
      8.045 -0.1242E-01  0.4800E+03
      8.107 -0.1254E-02  0.4800E+03
      8.169 -0.4922E-04  0.4800E+03
      8.232 -0.8225E-06  0.4800E+03
      8.294 -0.6052E-08  0.4800E+03
      8.356 -0.1993E-10  0.4800E+03
      8.418 -0.2967E-13  0.4800E+03
      8.481  0.0000E+00  0.4800E+03
      8.543  0.0000E+00  0.4800E+03
      8.605  0.0000E+00  0.4800E+03
      8.667  0.0000E+00  0.4800E+03
      8.730  0.0000E+00  0.4800E+03
      8.792  0.0000E+00  0.4800E+03
