   37   37    1    1
  0.4190497E+02  0.8468310E-09  0.8468310E-09  0.2496566E-08  0.5000000E-15
  1.000000000000000E-004
  CAR 
 unknown system                          
    361     13    240
 
  0.1276756E-14  0.1276756E-14  0.1276756E-14  0.4000000E-01
      1         -8.884642   1.000000
      2         -7.640801   1.000000
      3         -6.647156   1.000000
      4         -6.488370   1.000000
      5         -6.470999   1.000000
      6         -6.457585   1.000000
      7         -6.452919   1.000000
      8         -6.449254   1.000000
      9         -6.435012   1.000000
     10         -6.428662   1.000000
     11         -6.059221   1.000000
     12         -5.915426   1.000000
     13         -5.910008   1.000000
     14         -5.905843   1.000000
     15         -5.896401   1.000000
     16         -5.893822   1.000000
     17         -5.723056   1.000000
     18         -5.454320   1.000000
     19         -5.451965   1.000000
     20         -5.447297   1.000000
     21         -5.445069   1.000000
     22         -5.441436   1.000000
     23         -5.357658   1.000000
     24         -5.228320   1.000000
     25         -5.221662   1.000000
     26         -5.218402   1.000000
     27         -5.215598   1.000000
     28         -5.210566   1.000000
     29         -5.085314   1.000000
     30         -5.023928   1.000000
     31         -5.021387   1.000000
     32         -5.013444   1.000000
     33         -5.009519   1.000000
     34         -5.006347   1.000000
     35         -4.969749   1.000000
     36         -4.964817   1.000000
     37         -4.953917   1.000000
     38         -4.950650   1.000000
     39         -4.936492   1.000000
     40         -4.907909   1.000000
     41         -4.781416   1.000000
     42         -4.377396   1.000000
     43         -4.373634   1.000000
     44         -4.343991   1.000000
     45         -4.336436   1.000000
     46         -4.321469   1.000000
     47         -4.318814   1.000000
     48         -4.304943   1.000000
     49         -4.292528   1.000000
     50         -4.287822   1.000000
     51         -4.217113   1.000000
     52         -4.134275   1.000000
     53         -4.119279   1.000000
     54         -4.045750   1.000000
     55         -3.992991   1.000000
     56         -3.593600   1.000000
     57         -3.566051   1.000000
     58         -3.564372   1.000000
     59         -3.560113   1.000000
     60         -3.552928   1.000000
     61         -3.515201   1.000000
     62         -3.486051   1.000000
     63         -3.384536   1.000000
     64         -3.370859   1.000000
     65         -3.369796   1.000000
     66         -3.366613   1.000000
     67         -3.360103   1.000000
     68         -3.356837   1.000000
     69         -3.345493   1.000000
     70         -3.319151   1.000000
     71         -3.311493   1.000000
     72         -3.299739   1.000000
     73         -3.293885   1.000000
     74         -3.287880   1.000000
     75         -3.262020   1.000000
     76         -3.261053   1.000000
     77         -3.242496   1.000000
     78         -3.157955   1.000000
     79         -3.146138   1.000000
     80         -3.139048   1.000000
     81         -3.136176   1.000000
     82         -3.128853   1.000000
     83         -3.057623   1.000000
     84         -2.938638   1.000000
     85         -2.930562   1.000000
     86         -2.922036   1.000000
     87         -2.914720   1.000000
     88         -2.906609   1.000000
     89         -2.897052   1.000000
     90         -2.892967   1.000000
     91         -2.886872   1.000000
     92         -2.836262   1.000000
     93         -2.816742   1.000000
     94         -2.778326   1.000000
     95         -2.767138   1.000000
     96         -2.733708   1.000000
     97         -2.732730   1.000000
     98         -2.686970   1.000000
     99         -2.683723   1.000000
    100         -2.680926   1.000000
    101         -2.634691   1.000000
    102         -2.531785   1.000000
    103         -2.520971   1.000000
    104         -2.518712   1.000000
    105         -2.503907   1.000000
    106         -2.494968   1.000000
    107         -2.485287   1.000000
    108         -2.219681   1.000000
    109         -2.019365   1.000000
    110         -2.018648   1.000000
    111         -1.995332   1.000000
    112         -1.992022   1.000000
    113         -1.985960   1.000000
    114         -1.982131   1.000000
    115         -1.980037   1.000000
    116         -1.957200   1.000000
    117         -1.948820   1.000000
    118         -1.945058   1.000000
    119         -1.941161   1.000000
    120         -1.880126   1.000000
    121         -1.856444   1.000000
    122         -1.833256   1.000000
    123         -1.732298   1.000000
    124         -1.712894   1.000000
    125         -1.707027   1.000000
    126         -1.701958   1.000000
    127         -1.699634   1.000000
    128         -1.612243   1.000000
    129         -1.581142   1.000000
    130         -1.531169   1.000000
    131         -1.530500   1.000000
    132         -1.525706   1.000000
    133         -1.479369   1.000000
    134         -1.401308   1.000000
    135         -1.283946   1.000000
    136         -1.265711   1.000000
    137         -1.261440   1.000000
    138         -1.250140   1.000000
    139         -1.247863   1.000000
    140         -1.238763   1.000000
    141         -1.180449   1.000000
    142         -1.173517   1.000000
    143         -1.028938   1.000000
    144         -1.022434   1.000000
    145         -1.020560   1.000000
    146         -1.010623   1.000000
    147         -1.008599   1.000000
    148         -0.943096   1.000000
    149         -0.860544   1.000000
    150         -0.851740   1.000000
    151         -0.840348   1.000000
    152         -0.828864   1.000000
    153         -0.827898   1.000000
    154         -0.809427   1.000000
    155         -0.806070   1.000000
    156         -0.798764   1.000000
    157         -0.795788   1.000000
    158         -0.793701   1.000000
    159         -0.791317   1.000000
    160         -0.716228   1.000000
    161         -0.700668   1.000000
    162         -0.684858   1.000000
    163         -0.664864   1.000000
    164         -0.664165   1.000000
    165         -0.652584   1.000000
    166         -0.640532   1.000000
    167         -0.628783   1.000000
    168         -0.591093   1.000000
    169         -0.589653   1.000000
    170         -0.557512   1.000000
    171         -0.552868   1.000000
    172         -0.550345   1.000000
    173         -0.541349   1.000000
    174         -0.539672   1.000000
    175         -0.534901   1.000000
    176         -0.453914   1.000000
    177         -0.442539   1.000001
    178         -0.436616   1.000001
    179         -0.434253   1.000002
    180         -0.430829   1.000002
    181         -0.427160   1.000003
    182         -0.415967   1.000005
    183         -0.351077   1.000250
    184         -0.325872   1.000861
    185         -0.317458   1.001259
    186         -0.314367   1.001442
    187         -0.304671   1.002175
    188         -0.297638   1.002889
    189         -0.117336   0.858865
    190         -0.092467   0.689998
    191         -0.017856   0.121838
    192         -0.010954   0.087339
    193          0.008183   0.016551
    194          0.013091   0.003982
    195          0.015752  -0.001961
    196          0.019646  -0.009609
    197          0.397355  -0.000000
    198          0.814430  -0.000000
    199          0.878623  -0.000000
    200          0.883415  -0.000000
    201          0.905307  -0.000000
    202          0.907775  -0.000000
    203          0.911630  -0.000000
    204          2.550566  -0.000000
    205          3.165682   0.000000
    206          3.180413   0.000000
    207          3.201260   0.000000
    208          3.220880   0.000000
    209          3.234857   0.000000
    210          4.420890   0.000000
    211          4.761473   0.000000
    212          4.775220   0.000000
    213          4.815540   0.000000
    214          4.820598   0.000000
    215          4.836513   0.000000
    216          4.850819   0.000000
    217          4.983679   0.000000
    218          5.112350   0.000000
    219          5.493953   0.000000
    220          5.521445   0.000000
    221          5.809008   0.000000
    222          5.813375   0.000000
    223          5.843283   0.000000
    224          5.859118   0.000000
    225          5.879106   0.000000
    226          6.052907   0.000000
    227          6.449130   0.000000
    228          6.625281   0.000000
    229          6.630396   0.000000
    230          6.634601   0.000000
    231          6.752197   0.000000
    232          6.871744   0.000000
    233          7.117605   0.000000
    234          7.133494   0.000000
    235          7.155639   0.000000
    236          7.168576   0.000000
    237          7.175063   0.000000
    238          7.177146   0.000000
    239          7.305658   0.000000
    240          7.791907   0.000000
 
  0.2000000E+00  0.1278043E-14  0.1276756E-14  0.8000000E-01
      1         -8.736191   1.000000
      2         -7.496459   1.000000
      3         -6.963607   1.000000
      4         -6.604327   1.000000
      5         -6.556201   1.000000
      6         -6.476223   1.000000
      7         -6.346571   1.000000
      8         -6.267005   1.000000
      9         -6.225689   1.000000
     10         -6.214506   1.000000
     11         -6.084318   1.000000
     12         -6.005536   1.000000
     13         -5.947517   1.000000
     14         -5.838486   1.000000
     15         -5.831742   1.000000
     16         -5.822475   1.000000
     17         -5.638850   1.000000
     18         -5.537771   1.000000
     19         -5.414813   1.000000
     20         -5.410881   1.000000
     21         -5.404552   1.000000
     22         -5.383071   1.000000
     23         -5.328187   1.000000
     24         -5.305874   1.000000
     25         -5.269657   1.000000
     26         -5.230222   1.000000
     27         -5.210120   1.000000
     28         -5.205952   1.000000
     29         -5.150610   1.000000
     30         -5.116508   1.000000
     31         -5.099393   1.000000
     32         -5.023969   1.000000
     33         -5.012950   1.000000
     34         -5.005460   1.000000
     35         -5.004405   1.000000
     36         -4.851421   1.000000
     37         -4.804812   1.000000
     38         -4.788553   1.000000
     39         -4.765133   1.000000
     40         -4.759516   1.000000
     41         -4.725728   1.000000
     42         -4.497934   1.000000
     43         -4.495194   1.000000
     44         -4.462469   1.000000
     45         -4.414971   1.000000
     46         -4.398364   1.000000
     47         -4.390906   1.000000
     48         -4.330188   1.000000
     49         -4.212144   1.000000
     50         -4.201071   1.000000
     51         -4.117348   1.000000
     52         -4.100763   1.000000
     53         -4.080273   1.000000
     54         -4.052755   1.000000
     55         -4.012620   1.000000
     56         -3.835522   1.000000
     57         -3.741615   1.000000
     58         -3.732537   1.000000
     59         -3.682112   1.000000
     60         -3.668368   1.000000
     61         -3.609673   1.000000
     62         -3.581866   1.000000
     63         -3.555293   1.000000
     64         -3.549142   1.000000
     65         -3.526068   1.000000
     66         -3.516513   1.000000
     67         -3.497990   1.000000
     68         -3.444965   1.000000
     69         -3.399697   1.000000
     70         -3.368064   1.000000
     71         -3.360377   1.000000
     72         -3.324235   1.000000
     73         -3.263594   1.000000
     74         -3.248748   1.000000
     75         -3.243866   1.000000
     76         -3.182391   1.000000
     77         -3.171218   1.000000
     78         -3.143543   1.000000
     79         -3.123248   1.000000
     80         -3.093859   1.000000
     81         -3.086847   1.000000
     82         -3.081638   1.000000
     83         -3.021039   1.000000
     84         -2.983803   1.000000
     85         -2.961999   1.000000
     86         -2.956685   1.000000
     87         -2.936433   1.000000
     88         -2.932896   1.000000
     89         -2.916350   1.000000
     90         -2.894536   1.000000
     91         -2.854940   1.000000
     92         -2.816062   1.000000
     93         -2.808250   1.000000
     94         -2.780013   1.000000
     95         -2.768278   1.000000
     96         -2.753460   1.000000
     97         -2.725726   1.000000
     98         -2.718606   1.000000
     99         -2.703720   1.000000
    100         -2.685838   1.000000
    101         -2.597432   1.000000
    102         -2.542072   1.000000
    103         -2.535779   1.000000
    104         -2.511413   1.000000
    105         -2.500484   1.000000
    106         -2.495460   1.000000
    107         -2.487650   1.000000
    108         -2.484051   1.000000
    109         -2.437375   1.000000
    110         -2.425369   1.000000
    111         -2.411715   1.000000
    112         -2.407633   1.000000
    113         -2.274892   1.000000
    114         -2.084153   1.000000
    115         -2.071685   1.000000
    116         -2.028781   1.000000
    117         -1.990619   1.000000
    118         -1.983093   1.000000
    119         -1.969427   1.000000
    120         -1.963053   1.000000
    121         -1.933727   1.000000
    122         -1.870727   1.000000
    123         -1.787739   1.000000
    124         -1.778179   1.000000
    125         -1.761052   1.000000
    126         -1.665806   1.000000
    127         -1.642266   1.000000
    128         -1.615162   1.000000
    129         -1.580180   1.000000
    130         -1.560325   1.000000
    131         -1.532832   1.000000
    132         -1.527104   1.000000
    133         -1.507075   1.000000
    134         -1.441006   1.000000
    135         -1.431573   1.000000
    136         -1.387834   1.000000
    137         -1.384368   1.000000
    138         -1.370028   1.000000
    139         -1.347148   1.000000
    140         -1.183587   1.000000
    141         -1.180604   1.000000
    142         -1.157414   1.000000
    143         -1.139660   1.000000
    144         -1.132541   1.000000
    145         -1.116014   1.000000
    146         -1.077435   1.000000
    147         -1.025457   1.000000
    148         -1.002854   1.000000
    149         -0.995040   1.000000
    150         -0.977383   1.000000
    151         -0.960907   1.000000
    152         -0.909233   1.000000
    153         -0.902287   1.000000
    154         -0.887761   1.000000
    155         -0.852929   1.000000
    156         -0.779058   1.000000
    157         -0.770598   1.000000
    158         -0.750649   1.000000
    159         -0.714347   1.000000
    160         -0.645532   1.000000
    161         -0.627729   1.000000
    162         -0.626743   1.000000
    163         -0.595482   1.000000
    164         -0.580587   1.000000
    165         -0.556949   1.000000
    166         -0.537519   1.000000
    167         -0.481316   1.000000
    168         -0.461195   1.000000
    169         -0.422513   1.000004
    170         -0.393400   1.000023
    171         -0.386835   1.000034
    172         -0.379733   1.000052
    173         -0.347165   1.000306
    174         -0.345428   1.000334
    175         -0.337713   1.000490
    176         -0.333445   1.000603
    177         -0.327651   1.000793
    178         -0.265450   1.009048
    179         -0.255163   1.012297
    180         -0.121805   0.883313
    181         -0.112349   0.829292
    182         -0.092059   0.686836
    183         -0.084360   0.625501
    184         -0.078673   0.578568
    185         -0.064594   0.459847
    186         -0.033204   0.215174
    187         -0.024652   0.160428
    188         -0.007794   0.073151
    189          0.009738   0.012338
    190          0.072292  -0.031158
    191          0.114866  -0.012866
    192          0.140661  -0.005710
    193          0.172812  -0.001632
    194          0.293514  -0.000002
    195          0.303480  -0.000001
    196          0.316789  -0.000000
    197          0.363386  -0.000000
    198          0.646609  -0.000000
    199          0.758836  -0.000000
    200          1.205326  -0.000000
    201          1.483459  -0.000000
    202          1.491107  -0.000000
    203          1.612204  -0.000000
    204          2.323116  -0.000000
    205          2.728974   0.000000
    206          2.916475   0.000000
    207          3.455499   0.000000
    208          3.661269   0.000000
    209          3.662684   0.000000
    210          3.757991   0.000000
    211          3.986251   0.000000
    212          4.359342   0.000000
    213          4.623877   0.000000
    214          4.690321   0.000000
    215          4.958797   0.000000
    216          4.980399   0.000000
    217          5.002870   0.000000
    218          5.127709   0.000000
    219          5.232872   0.000000
    220          5.469198   0.000000
    221          5.638677   0.000000
    222          5.739547   0.000000
    223          5.801229   0.000000
    224          5.911202   0.000000
    225          6.080906   0.000000
    226          6.164929   0.000000
    227          6.223719   0.000000
    228          6.321240   0.000000
    229          6.343830   0.000000
    230          6.668895   0.000000
    231          6.704436   0.000000
    232          6.712137   0.000000
    233          6.788984   0.000000
    234          6.843404   0.000000
    235          6.891696   0.000000
    236          7.043113   0.000000
    237          7.213937   0.000000
    238          7.499413   0.000000
    239          7.537634   0.000000
    240          7.612627   0.000000
 
  0.2000000E+00  0.2000000E+00  0.1276756E-14  0.8000000E-01
      1         -8.736534   1.000000
      2         -7.497891   1.000000
      3         -6.972013   1.000000
      4         -6.596572   1.000000
      5         -6.555853   1.000000
      6         -6.477959   1.000000
      7         -6.347550   1.000000
      8         -6.271251   1.000000
      9         -6.228467   1.000000
     10         -6.210285   1.000000
     11         -6.101535   1.000000
     12         -6.000876   1.000000
     13         -5.910111   1.000000
     14         -5.844228   1.000000
     15         -5.833310   1.000000
     16         -5.823378   1.000000
     17         -5.670487   1.000000
     18         -5.520903   1.000000
     19         -5.414903   1.000000
     20         -5.409216   1.000000
     21         -5.403587   1.000000
     22         -5.364450   1.000000
     23         -5.323528   1.000000
     24         -5.300640   1.000000
     25         -5.268158   1.000000
     26         -5.237414   1.000000
     27         -5.222921   1.000000
     28         -5.207186   1.000000
     29         -5.161802   1.000000
     30         -5.113247   1.000000
     31         -5.095450   1.000000
     32         -5.031308   1.000000
     33         -5.013395   1.000000
     34         -5.004480   1.000000
     35         -4.996825   1.000000
     36         -4.868450   1.000000
     37         -4.804393   1.000000
     38         -4.784849   1.000000
     39         -4.768112   1.000000
     40         -4.754974   1.000000
     41         -4.720789   1.000000
     42         -4.495687   1.000000
     43         -4.484041   1.000000
     44         -4.456059   1.000000
     45         -4.415858   1.000000
     46         -4.400765   1.000000
     47         -4.386713   1.000000
     48         -4.320910   1.000000
     49         -4.207993   1.000000
     50         -4.183186   1.000000
     51         -4.127975   1.000000
     52         -4.110581   1.000000
     53         -4.084409   1.000000
     54         -4.050952   1.000000
     55         -4.022951   1.000000
     56         -3.820634   1.000000
     57         -3.736223   1.000000
     58         -3.729754   1.000000
     59         -3.667696   1.000000
     60         -3.646458   1.000000
     61         -3.626572   1.000000
     62         -3.581904   1.000000
     63         -3.569083   1.000000
     64         -3.538513   1.000000
     65         -3.526996   1.000000
     66         -3.522492   1.000000
     67         -3.492347   1.000000
     68         -3.445081   1.000000
     69         -3.407994   1.000000
     70         -3.376470   1.000000
     71         -3.356265   1.000000
     72         -3.343609   1.000000
     73         -3.286470   1.000000
     74         -3.265431   1.000000
     75         -3.256227   1.000000
     76         -3.181402   1.000000
     77         -3.169756   1.000000
     78         -3.150783   1.000000
     79         -3.125963   1.000000
     80         -3.084397   1.000000
     81         -3.060024   1.000000
     82         -3.051881   1.000000
     83         -3.038742   1.000000
     84         -2.991011   1.000000
     85         -2.962398   1.000000
     86         -2.955457   1.000000
     87         -2.933705   1.000000
     88         -2.929857   1.000000
     89         -2.907608   1.000000
     90         -2.890011   1.000000
     91         -2.860541   1.000000
     92         -2.815647   1.000000
     93         -2.800160   1.000000
     94         -2.785445   1.000000
     95         -2.770525   1.000000
     96         -2.752479   1.000000
     97         -2.726676   1.000000
     98         -2.712856   1.000000
     99         -2.705263   1.000000
    100         -2.687249   1.000000
    101         -2.599973   1.000000
    102         -2.553107   1.000000
    103         -2.532302   1.000000
    104         -2.517565   1.000000
    105         -2.512451   1.000000
    106         -2.502157   1.000000
    107         -2.491253   1.000000
    108         -2.478211   1.000000
    109         -2.438170   1.000000
    110         -2.424008   1.000000
    111         -2.419042   1.000000
    112         -2.408162   1.000000
    113         -2.173146   1.000000
    114         -2.129226   1.000000
    115         -2.060434   1.000000
    116         -2.024130   1.000000
    117         -2.001069   1.000000
    118         -1.990154   1.000000
    119         -1.974736   1.000000
    120         -1.947220   1.000000
    121         -1.939823   1.000000
    122         -1.894107   1.000000
    123         -1.811625   1.000000
    124         -1.787519   1.000000
    125         -1.752206   1.000000
    126         -1.672962   1.000000
    127         -1.646542   1.000000
    128         -1.607090   1.000000
    129         -1.589969   1.000000
    130         -1.567722   1.000000
    131         -1.536484   1.000000
    132         -1.527565   1.000000
    133         -1.517192   1.000000
    134         -1.455478   1.000000
    135         -1.426043   1.000000
    136         -1.390460   1.000000
    137         -1.379379   1.000000
    138         -1.369317   1.000000
    139         -1.353371   1.000000
    140         -1.194657   1.000000
    141         -1.175826   1.000000
    142         -1.171213   1.000000
    143         -1.144564   1.000000
    144         -1.129962   1.000000
    145         -1.109781   1.000000
    146         -1.073010   1.000000
    147         -1.026744   1.000000
    148         -1.001158   1.000000
    149         -0.982999   1.000000
    150         -0.974121   1.000000
    151         -0.933171   1.000000
    152         -0.907725   1.000000
    153         -0.899810   1.000000
    154         -0.894756   1.000000
    155         -0.843145   1.000000
    156         -0.781996   1.000000
    157         -0.769376   1.000000
    158         -0.745965   1.000000
    159         -0.706951   1.000000
    160         -0.663134   1.000000
    161         -0.627133   1.000000
    162         -0.620483   1.000000
    163         -0.611464   1.000000
    164         -0.586909   1.000000
    165         -0.570947   1.000000
    166         -0.536535   1.000000
    167         -0.480339   1.000000
    168         -0.461875   1.000000
    169         -0.438761   1.000001
    170         -0.395686   1.000020
    171         -0.386011   1.000036
    172         -0.377506   1.000059
    173         -0.345989   1.000325
    174         -0.342765   1.000382
    175         -0.338801   1.000465
    176         -0.335301   1.000551
    177         -0.323300   1.000969
    178         -0.273962   1.006867
    179         -0.265553   1.009019
    180         -0.139143   0.959170
    181         -0.118315   0.864391
    182         -0.090920   0.677961
    183         -0.076449   0.559958
    184         -0.063028   0.446663
    185         -0.052999   0.363697
    186         -0.022978   0.150505
    187         -0.006935   0.069467
    188          0.008701   0.015123
    189          0.018785  -0.008022
    190          0.088473  -0.024076
    191          0.115079  -0.012790
    192          0.135391  -0.006840
    193          0.161936  -0.002565
    194          0.300103  -0.000001
    195          0.307697  -0.000001
    196          0.315236  -0.000000
    197          0.355639  -0.000000
    198          0.680294  -0.000000
    199          0.767804  -0.000000
    200          1.198546  -0.000000
    201          1.472932  -0.000000
    202          1.486558  -0.000000
    203          1.612174  -0.000000
    204          2.299790  -0.000000
    205          2.754783   0.000000
    206          2.925147   0.000000
    207          3.462998   0.000000
    208          3.656135   0.000000
    209          3.663621   0.000000
    210          3.757013   0.000000
    211          3.956198   0.000000
    212          4.358918   0.000000
    213          4.615123   0.000000
    214          4.684562   0.000000
    215          4.963540   0.000000
    216          4.980003   0.000000
    217          5.006678   0.000000
    218          5.149130   0.000000
    219          5.232794   0.000000
    220          5.480659   0.000000
    221          5.640139   0.000000
    222          5.720966   0.000000
    223          5.868187   0.000000
    224          5.913506   0.000000
    225          6.044224   0.000000
    226          6.164532   0.000000
    227          6.192017   0.000000
    228          6.326767   0.000000
    229          6.363526   0.000000
    230          6.575201   0.000000
    231          6.717059   0.000000
    232          6.730493   0.000000
    233          6.781525   0.000000
    234          6.856930   0.000000
    235          6.895861   0.000000
    236          7.040897   0.000000
    237          7.222361   0.000000
    238          7.490612   0.000000
    239          7.547338   0.000000
    240          7.592262   0.000000
 
  0.1276756E-14  0.2000000E+00  0.1276756E-14  0.8000000E-01
      1         -8.736479   1.000000
      2         -7.498027   1.000000
      3         -6.969694   1.000000
      4         -6.596183   1.000000
      5         -6.558209   1.000000
      6         -6.479414   1.000000
      7         -6.347290   1.000000
      8         -6.267061   1.000000
      9         -6.230160   1.000000
     10         -6.213047   1.000000
     11         -6.105012   1.000000
     12         -6.000392   1.000000
     13         -5.903106   1.000000
     14         -5.844210   1.000000
     15         -5.834971   1.000000
     16         -5.821808   1.000000
     17         -5.671645   1.000000
     18         -5.524005   1.000000
     19         -5.414460   1.000000
     20         -5.408305   1.000000
     21         -5.400356   1.000000
     22         -5.362896   1.000000
     23         -5.324268   1.000000
     24         -5.302124   1.000000
     25         -5.268185   1.000000
     26         -5.239568   1.000000
     27         -5.224343   1.000000
     28         -5.204723   1.000000
     29         -5.158832   1.000000
     30         -5.115848   1.000000
     31         -5.095088   1.000000
     32         -5.027465   1.000000
     33         -5.011755   1.000000
     34         -5.004626   1.000000
     35         -4.997567   1.000000
     36         -4.864800   1.000000
     37         -4.804991   1.000000
     38         -4.786775   1.000000
     39         -4.769865   1.000000
     40         -4.756816   1.000000
     41         -4.723857   1.000000
     42         -4.498123   1.000000
     43         -4.487016   1.000000
     44         -4.456405   1.000000
     45         -4.415266   1.000000
     46         -4.399127   1.000000
     47         -4.385056   1.000000
     48         -4.321070   1.000000
     49         -4.209944   1.000000
     50         -4.183794   1.000000
     51         -4.131424   1.000000
     52         -4.108533   1.000000
     53         -4.083432   1.000000
     54         -4.049789   1.000000
     55         -4.021791   1.000000
     56         -3.825986   1.000000
     57         -3.735609   1.000000
     58         -3.728791   1.000000
     59         -3.672300   1.000000
     60         -3.650537   1.000000
     61         -3.631995   1.000000
     62         -3.581585   1.000000
     63         -3.565154   1.000000
     64         -3.536620   1.000000
     65         -3.526723   1.000000
     66         -3.520896   1.000000
     67         -3.492221   1.000000
     68         -3.444845   1.000000
     69         -3.410331   1.000000
     70         -3.384961   1.000000
     71         -3.360312   1.000000
     72         -3.341813   1.000000
     73         -3.272460   1.000000
     74         -3.263470   1.000000
     75         -3.241950   1.000000
     76         -3.181666   1.000000
     77         -3.171212   1.000000
     78         -3.154440   1.000000