<?xml version="1.0" encoding="ISO-8859-1"?>
<modeling>
 <generator>
  <i name="program" type="string">vasp </i>
  <i name="version" type="string">6.4.2  </i>
  <i name="subversion" type="string">20Jul23 (build Mar 01 2024 16:46:03) complex                          parallel </i>
  <i name="platform" type="string">LinuxIFC </i>
  <i name="date" type="string">2025 01 15 </i>
  <i name="time" type="string">05:10:48 </i>
 </generator>
 <incar>
  <i type="string" name="ALGO">Fast</i>
  <i type="int" name="ISPIN">     1</i>
  <i type="int" name="IBRION">    -1</i>
  <i name="EDIFF">      0.00001000</i>
  <i type="int" name="ISYM">     0</i>
  <i name="ENCUT">    680.29000000</i>
  <i type="string" name="LREAL">Auto</i>
  <i type="int" name="ISMEAR">     1</i>
  <i name="SIGMA">      0.10000000</i>
  <i type="string" name="GGA">BF</i>
  <i type="logical" name="LUSE_VDW"> T  </i>
  <i name="Zab_VDW">     -1.88670000</i>
 </incar>
 <primitive_cell>
  <structure name="primitive_cell" >
   <crystal>
    <varray name="basis" >
     <v>       8.46831000       0.00000000       0.00000000 </v>
     <v>       4.23415500       7.33377159       0.00000000 </v>
     <v>       0.00000000       0.00000000      24.96566199 </v>
    </varray>
    <i name="volume">   1550.48373159 </i>
    <varray name="rec_basis" >
     <v>       0.11808732      -0.06817774       0.00000000 </v>
     <v>       0.00000000       0.13635549       0.00000000 </v>
     <v>       0.00000000       0.00000000       0.04005502 </v>
    </varray>
   </crystal>
   <varray name="positions" >
    <v>       0.00000000       0.00000000       0.34046764 </v>
    <v>       0.33400137       0.00000000       0.34046764 </v>
    <v>       0.66800274       0.00000000       0.34046764 </v>
    <v>       1.00000000       0.33400137       0.34046764 </v>
    <v>       0.33400137       0.33400137       0.34046764 </v>
    <v>       0.66800274       0.33400137       0.34046764 </v>
    <v>       1.00000000       0.66800274       0.34046764 </v>
    <v>       0.33400137       0.66800274       0.34046764 </v>
    <v>       0.66800274       0.66800274       0.34046764 </v>
    <v>       0.11133379       0.11133379       0.43297074 </v>
    <v>       0.44533516       0.11133379       0.43297074 </v>
    <v>       0.77933653       0.11133379       0.43297074 </v>
    <v>       0.11133379       0.44533516       0.43297074 </v>
    <v>       0.44533516       0.44533516       0.43297074 </v>
    <v>       0.77933653       0.44533516       0.43297074 </v>
    <v>       0.11133379       0.77933653       0.43297074 </v>
    <v>       0.44533516       0.77933653       0.43297074 </v>
    <v>       0.77933653       0.77933653       0.43297074 </v>
    <v>       0.89247616       0.22447354       0.52573270 </v>
    <v>       0.22534005       0.22266693       0.52501135 </v>
    <v>       0.55876041       0.22298813       0.52433243 </v>
    <v>       0.89244649       0.55418659       0.52559657 </v>
    <v>       0.22510261       0.55597971       0.52441986 </v>
    <v>       0.55852346       0.55635570       0.52445228 </v>
    <v>       0.89215999       0.88958126       0.52432270 </v>
    <v>       0.22522074       0.88976110       0.52457403 </v>
    <v>       0.55869511       0.88942303       0.52441586 </v>
    <v>       0.00442886       0.99929988       0.61762408 </v>
    <v>       0.34125059       0.99697565       0.61814094 </v>
    <v>       0.67206452       0.99988427       0.61772651 </v>
    <v>       0.00864688       0.33138353       0.62179002 </v>
    <v>       0.34127584       0.33360454       0.61807620 </v>
    <v>       0.67155516       0.33326242       0.61780818 </v>
    <v>       0.00445133       0.66788109       0.61750139 </v>
    <v>       0.33866461       0.66658707       0.61749590 </v>
    <v>       0.67161429       0.66728057       0.61781879 </v>
    <v>       0.12227761       0.27721782       0.67525441 </v>
   </varray>
  </structure>
  <varray name="primitive_index" >
   <v type="int" >        1 </v>
   <v type="int" >        2 </v>
   <v type="int" >        3 </v>
   <v type="int" >        4 </v>
   <v type="int" >        5 </v>
   <v type="int" >        6 </v>
   <v type="int" >        7 </v>
   <v type="int" >        8 </v>
   <v type="int" >        9 </v>
   <v type="int" >       10 </v>
   <v type="int" >       11 </v>
   <v type="int" >       12 </v>
   <v type="int" >       13 </v>
   <v type="int" >       14 </v>
   <v type="int" >       15 </v>
   <v type="int" >       16 </v>
   <v type="int" >       17 </v>
   <v type="int" >       18 </v>
   <v type="int" >       19 </v>
   <v type="int" >       20 </v>
   <v type="int" >       21 </v>
   <v type="int" >       22 </v>
   <v type="int" >       23 </v>
   <v type="int" >       24 </v>
   <v type="int" >       25 </v>
   <v type="int" >       26 </v>
   <v type="int" >       27 </v>
   <v type="int" >       28 </v>
   <v type="int" >       29 </v>
   <v type="int" >       30 </v>
   <v type="int" >       31 </v>
   <v type="int" >       32 </v>
   <v type="int" >       33 </v>
   <v type="int" >       34 </v>
   <v type="int" >       35 </v>
   <v type="int" >       36 </v>
   <v type="int" >       37 </v>
  </varray>
 </primitive_cell>
 <kpoints>
  <generation param="Monkhorst-Pack">
   <v type="int" name="divisions">       5        5        1 </v>
   <v name="usershift">      0.00000000       0.00000000       0.00000000 </v>
   <v name="genvec1">      0.20000000      -0.00000000       0.00000000 </v>
   <v name="genvec2">      0.00000000       0.20000000       0.00000000 </v>
   <v name="genvec3">      0.00000000       0.00000000       1.00000000 </v>
   <v name="shift">      0.00000000       0.00000000       0.00000000 </v>
  </generation>
  <varray name="kpointlist" >
   <v>       0.00000000       0.00000000       0.00000000 </v>
   <v>       0.20000000       0.00000000       0.00000000 </v>
   <v>       0.20000000       0.20000000       0.00000000 </v>
   <v>       0.00000000       0.20000000       0.00000000 </v>
   <v>       0.40000000       0.00000000       0.00000000 </v>
   <v>       0.40000000       0.40000000       0.00000000 </v>
   <v>       0.00000000       0.40000000       0.00000000 </v>
   <v>       0.40000000       0.20000000       0.00000000 </v>
   <v>       0.20000000       0.40000000       0.00000000 </v>
   <v>      -0.20000000       0.20000000       0.00000000 </v>
   <v>      -0.40000000       0.20000000       0.00000000 </v>
   <v>       0.40000000      -0.40000000       0.00000000 </v>
   <v>      -0.20000000       0.40000000       0.00000000 </v>
  </varray>
  <varray name="weights" >
   <v>       0.04000000 </v>
   <v>       0.08000000 </v>
   <v>       0.08000000 </v>
   <v>       0.08000000 </v>
   <v>       0.08000000 </v>
   <v>       0.08000000 </v>
   <v>       0.08000000 </v>
   <v>       0.08000000 </v>
   <v>       0.08000000 </v>
   <v>       0.08000000 </v>
   <v>       0.08000000 </v>
   <v>       0.08000000 </v>
   <v>       0.08000000 </v>
  </varray>
 </kpoints>
 <parameters>
  <separator name="general" >
   <i type="string" name="SYSTEM">unknown system</i>
   <i type="logical" name="LCOMPAT"> F  </i>
  </separator>
  <separator name="electronic" >
   <i type="string" name="PREC">normal</i>
   <i name="ENMAX">    680.29000000</i>
   <i name="ENAUG">    400.00000000</i>
   <i name="EDIFF">      0.00001000</i>
   <i type="int" name="IALGO">    68</i>
   <i type="int" name="IWAVPR">    10</i>
   <i type="int" name="NBANDS">   240</i>
   <i type="int" name="NBANDSLOW">    -1</i>
   <i type="int" name="NBANDSHIGH">    -1</i>
   <i name="NELECT">    361.00000000</i>
   <i type="int" name="TURBO">     0</i>
   <i type="int" name="IRESTART">     0</i>
   <i type="int" name="NREBOOT">     0</i>
   <i type="int" name="NMIN">     0</i>
   <i name="EREF">      0.00000000</i>
   <separator name="electronic smearing" >
    <i type="int" name="ISMEAR">     1</i>
    <i name="SIGMA">      0.10000000</i>
    <i name="KSPACING">      0.50000000</i>
    <i type="logical" name="KGAMMA"> T  </i>
    <i type="logical" name="KBLOWUP"> T  </i>
   </separator>
   <separator name="electronic projectors" >
    <i type="logical" name="LREAL"> T  </i>
    <v name="ROPT">     -0.00050000     -0.00050000</v>
    <i type="int" name="LMAXPAW">  -100</i>
    <i type="int" name="LMAXMIX">     2</i>
    <i type="logical" name="NLSPLINE"> F  </i>
   </separator>
   <separator name="electronic startup" >
    <i type="int" name="ISTART">     1</i>
    <i type="int" name="ICHARG">     0</i>
    <i type="int" name="INIWAV">     1</i>
   </separator>
   <separator name="electronic spin" >
    <i type="int" name="ISPIN">     1</i>
    <i type="logical" name="LNONCOLLINEAR"> F  </i>
    <v name="MAGMOM">      1.00000000      1.00000000      1.00000000      1.00000000      1.00000000      1.00000000      1.00000000      1.00000000      1.00000000      1.00000000      1.00000000      1.00000000      1.00000000      1.00000000      1.00000000      1.00000000      1.00000000      1.00000000      1.00000000      1.00000000
      1.00000000      1.00000000      1.00000000      1.00000000      1.00000000      1.00000000      1.00000000      1.00000000      1.00000000      1.00000000      1.00000000      1.00000000      1.00000000      1.00000000      1.00000000      1.00000000      1.00000000</v>
    <i name="NUPDOWN">     -1.00000000</i>
    <i type="logical" name="LSORBIT"> F  </i>
    <v name="SAXIS">      0.00000000      0.00000000      1.00000000</v>
    <i type="logical" name="LSPIRAL"> F  </i>
    <v name="QSPIRAL">      0.00000000      0.00000000      0.00000000</v>
    <i type="logical" name="LZEROZ"> F  </i>
   </separator>
   <separator name="electronic exchange-correlation" >
    <i type="logical" name="LASPH"> F  </i>
    <i type="logical" name="LMETAGGA"> F  </i>
   </separator>
   <separator name="electronic convergence" >
    <i type="int" name="NELM">    60</i>
    <i type="int" name="NELMDL">     0</i>
    <i type="int" name="NELMIN">     2</i>
    <i name="ENINI">    680.29000000</i>
    <separator name="electronic convergence detail" >
     <i type="logical" name="LDIAG"> T  </i>
     <i type="logical" name="LSUBROT"> F  </i>
     <i name="WEIMIN">      0.00000000</i>
     <i name="EBREAK">      0.00000001</i>
     <i name="DEPER">      0.30000000</i>
     <i type="int" name="NRMM">     4</i>
     <i name="TIME">      0.40000000</i>
    </separator>
   </separator>
   <separator name="electronic mixer" >
    <i name="AMIX">      0.40000000</i>
    <i name="BMIX">      1.00000000</i>
    <i name="AMIN">      0.10000000</i>
    <i name="AMIX_MAG">      1.60000000</i>
    <i name="BMIX_MAG">      1.00000000</i>
    <separator name="electronic mixer details" >
     <i type="int" name="IMIX">     4</i>
     <i type="logical" name="MIXFIRST"> F  </i>
     <i type="int" name="MAXMIX">   -45</i>
     <i name="WC">    100.00000000</i>
     <i type="int" name="INIMIX">     1</i>
     <i type="int" name="MIXPRE">     1</i>
     <i type="int" name="MREMOVE">     5</i>
    </separator>
   </separator>
   <separator name="electronic dipolcorrection" >
    <i type="logical" name="LDIPOL"> F  </i>
    <i type="logical" name="LMONO"> F  </i>
    <i type="int" name="IDIPOL">     0</i>
    <i name="EPSILON">      1.00000000</i>
    <v name="DIPOL">   -100.00000000   -100.00000000   -100.00000000</v>
    <i name="EFIELD">      0.00000000</i>
   </separator>
  </separator>
  <separator name="grids" >
   <i type="int" name="NGX">    54</i>
   <i type="int" name="NGY">    54</i>
   <i type="int" name="NGZ">   160</i>
   <i type="int" name="NGXF">   108</i>
   <i type="int" name="NGYF">   108</i>
   <i type="int" name="NGZF">   320</i>
   <i type="logical" name="ADDGRID"> F  </i>
  </separator>
  <separator name="ionic" >
   <i type="int" name="NSW">     0</i>
   <i type="int" name="IBRION">    -1</i>
   <i type="int" name="MDALGO">     0</i>
   <i type="int" name="ISIF">     2</i>
   <i name="PSTRESS">      0.00000000</i>
   <i name="EDIFFG">      0.00010000</i>
   <i type="int" name="NFREE">     0</i>
   <i name="POTIM">      0.50000000</i>
   <i name="SMASS">     -3.00000000</i>
   <i name="SCALEE">      1.00000000</i>
  </separator>
  <separator name="ionic md" >
   <i name="TEBEG">      0.00010000</i>
   <i name="TEEND">      0.00010000</i>
   <i type="int" name="NBLOCK">     1</i>
   <i type="int" name="KBLOCK">     1</i>
   <i type="int" name="NPACO">   256</i>
   <i name="APACO">     10.00000000</i>
  </separator>
  <separator name="symmetry" >
   <i type="int" name="ISYM">     0</i>
   <i name="SYMPREC">      0.00001000</i>
  </separator>
  <separator name="dos" >
   <i type="int" name="LORBIT">     0</i>
   <v name="RWIGS">     -1.00000000     -1.00000000</v>
   <i type="int" name="NEDOS">   301</i>
   <i name="EMIN">     10.00000000</i>
   <i name="EMAX">    -10.00000000</i>
   <i name="EFERMI">      0.00000000</i>
  </separator>
  <separator name="writing" >
   <i type="int" name="NWRITE">     2</i>
   <i type="logical" name="LWAVE"> T  </i>
   <i type="logical" name="LDOWNSAMPLE"> F  </i>
   <i type="logical" name="LCHARG"> T  </i>
   <i type="logical" name="LPARD"> F  </i>
   <i type="logical" name="LVTOT"> F  </i>
   <i type="logical" name="LVHAR"> F  </i>
   <i type="logical" name="LELF"> F  </i>
   <i type="logical" name="LOPTICS"> F  </i>
   <v name="STM">      0.00000000      0.00000000      0.00000000      0.00000000      0.00000000      0.00000000      0.00000000</v>
  </separator>
  <separator name="performance" >
   <i type="int" name="NPAR">    48</i>
   <i type="int" name="NSIM">     4</i>
   <i type="int" name="NBLK">    -1</i>
   <i type="logical" name="LPLANE"> T  </i>
   <i type="logical" name="LSCALAPACK"> T  </i>
   <i type="logical" name="LSCAAWARE"> F  </i>
   <i type="logical" name="LSCALU"> F  </i>
   <i type="logical" name="LASYNC"> F  </i>
   <i type="logical" name="LORBITALREAL"> F  </i>
  </separator>
  <separator name="miscellaneous" >
   <i type="int" name="IDIOT">     3</i>
   <i type="int" name="PHON_NSTRUCT">    -1</i>
   <i type="logical" name="LMUSIC"> F  </i>
   <v name="POMASS">    195.08000000      1.00000000</v>
   <v name="DARWINR">      0.00000000      0.00000000</v>
   <v name="DARWINV">      1.00000000      1.00000000</v>
   <i type="logical" name="LCORR"> T  </i>
  </separator>
  <i type="logical" name="GGA_COMPAT"> T  </i>
  <i type="logical" name="LBERRY"> F  </i>
  <i type="int" name="ICORELEVEL">     0</i>
  <i type="logical" name="LDAU"> F  </i>
  <i type="int" name="I_CONSTRAINED_M">     0</i>
  <separator name="electronic exchange-correlation" >
   <i type="string" name="GGA">BF</i>
   <i type="int" name="VOSKOWN">     0</i>
   <i type="logical" name="LHFCALC"> F  </i>
   <i type="string" name="PRECFOCK"></i>
   <i type="logical" name="LSYMGRAD"> F  </i>
   <i type="logical" name="LHFONE"> F  </i>
   <i type="logical" name="LRHFCALC"> F  </i>
   <i type="logical" name="LTHOMAS"> F  </i>
   <i type="logical" name="LMODELHF"> F  </i>
   <i type="logical" name="LFOCKACE"> F  </i>
   <i name="ENCUT4O">     -1.00000000</i>
   <i type="int" name="EXXOEP">     0</i>
   <i type="int" name="FOURORBIT">     0</i>
   <i name="AEXX">      0.00000000</i>
   <i name="HFALPHA">      0.00000000</i>
   <i name="MCALPHA">      0.00000000</i>
   <i name="ALDAX">      1.00000000</i>
   <i name="AGGAX">      1.00000000</i>
   <i name="ALDAC">      1.00000000</i>
   <i name="AGGAC">      1.00000000</i>
   <i type="int" name="NKREDX">     1</i>
   <i type="int" name="NKREDY">     1</i>
   <i type="int" name="NKREDZ">     1</i>
   <i type="logical" name="SHIFTRED"> F  </i>
   <i type="logical" name="ODDONLY"> F  </i>
   <i type="logical" name="EVENONLY"> F  </i>
   <i type="int" name="LMAXFOCK">     0</i>
   <i type="int" name="NMAXFOCKAE">     0</i>
   <i type="logical" name="LFOCKAEDFT"> F  </i>
   <i name="HFSCREEN">      0.00000000</i>
   <i name="HFSCREENC">      0.00000000</i>
   <i type="int" name="NBANDSGWLOW">     0</i>
  </separator>
  <separator name="vdW DFT" >
   <i type="logical" name="LUSE_VDW"> T  </i>
   <i type="int" name="IVDW_NL">     1</i>
   <i type="logical" name="LSPIN_VDW"> F  </i>
   <i name="Zab_VDW">     -1.88670000</i>
   <i name="PARAM1">      0.12340000</i>
   <i name="PARAM2">      1.00000000</i>
   <i name="PARAM3">      0.00000000</i>
  </separator>
  <separator name="model GW" >
   <i type="int" name="MODEL_GW">     0</i>
   <i name="MODEL_EPS0">     25.14297943</i>
   <i name="MODEL_ALPHA">      1.00000000</i>
  </separator>
  <separator name="linear response parameters" >
   <i type="logical" name="LEPSILON"> F  </i>
   <i type="logical" name="LRPA"> F  </i>
   <i type="logical" name="LNABLA"> F  </i>
   <i type="logical" name="LVEL"> F  </i>
   <i name="CSHIFT">      0.10000000</i>
   <i name="OMEGAMAX">     -1.00000000</i>
   <i name="DEG_THRESHOLD">      0.00200000</i>
   <i name="RTIME">     -0.10000000</i>
   <i name="WPLASMAI">      0.00000000</i>
   <v name="DFIELD">      0.00000000      0.00000000      0.00000000</v>
   <v name="WPLASMA">      0.00000000      0.00000000      0.00000000      0.00000000      0.00000000      0.00000000      0.00000000      0.00000000      0.00000000</v>
  </separator>
  <separator name="orbital magnetization" >
   <i type="logical" name="NUCIND"> F  </i>
   <v name="MAGPOS">      0.00000000      0.00000000      0.00000000</v>
   <i type="logical" name="LNICSALL"> T  </i>
   <i type="logical" name="ORBITALMAG"> F  </i>
   <i type="logical" name="LMAGBLOCH"> F  </i>
   <i type="logical" name="LCHIMAG"> F  </i>
   <i type="logical" name="LGAUGE"> T  </i>
   <i type="int" name="MAGATOM">     0</i>
   <v name="MAGDIPOL">      0.00000000      0.00000000      0.00000000</v>
   <v name="AVECCONST">      0.00000000      0.00000000      0.00000000</v>
  </separator>
  <separator name="response functions" >
   <i type="logical" name="LALL_IN_ONE"> F  </i>
   <i type="int" name="IALL_IN_ONE">    -1</i>
   <i type="int" name="NBANDS_WAVE">    -1</i>
   <i type="logical" name="LFINITE_TEMPERATURE"> F  </i>
   <i type="logical" name="LADDER"> F  </i>
   <i type="logical" name="LRPAFORCE"> F  </i>
   <i type="logical" name="LFXC"> F  </i>
   <i type="logical" name="LHARTREE"> T  </i>
   <i type="int" name="IBSE">     0</i>
   <v type="int" name="KPOINT">    -1     0     0     0</v>
   <i type="logical" name="LTCTC"> F  </i>
   <i type="logical" name="LTCTE"> F  </i>
   <i type="logical" name="LTETE"> F  </i>
   <i type="logical" name="LTRIPLET"> F  </i>
   <i type="logical" name="LFXCEPS"> F  </i>
   <i type="logical" name="LFXHEG"> F  </i>
   <i type="int" name="NATURALO">     2</i>
   <i type="logical" name="LHOLEGF"> F  </i>
   <i type="logical" name="L2ORDER"> F  </i>
   <i type="logical" name="LDMP1"> F  </i>
   <i type="logical" name="LMP2LT"> F  </i>
   <i type="logical" name="LSMP2LT"> F  </i>
   <i type="logical" name="LGWLF"> F  </i>
   <i name="ENCUTGW">     -1.60000002</i>
   <i name="ENCUTGWSOFT">     -1.60000002</i>
   <i name="ENCUTLF">     -1.00000000</i>
   <i type="logical" name="LESF_SPLINES"> F  </i>
   <i type="int" name="LMAXMP2">    -1</i>
   <i name="SCISSOR">      0.00000000</i>
   <i type="int" name="NOMEGA">     0</i>
   <i type="int" name="NOMEGAR">     0</i>
   <i type="int" name="NBANDSGW">    -1</i>
   <i type="int" name="NBANDSO">    -1</i>
   <i type="int" name="NBANDSV">    -1</i>
   <i type="int" name="NELMGW">     1</i>
   <i type="int" name="NELMHF">     1</i>
   <i type="int" name="DIM">     3</i>
   <i type="int" name="IESPILON">     4</i>
   <i type="int" name="ANTIRES">     0</i>
   <i name="OMEGAMAX">    -30.00000000</i>
   <i name="OMEGAMIN">    -30.00000000</i>
   <i name="OMEGATL">   -200.00000000</i>
   <i type="int" name="OMEGAGRID">     0</i>
   <i name="CSHIFT">     -0.10000000</i>
   <i type="logical" name="LSELFENERGY"> F  </i>
   <i type="logical" name="LSPECTRAL"> F  </i>
   <i type="logical" name="LSPECTRALGW"> F  </i>
   <i type="logical" name="LSINGLES"> F  </i>
   <i type="logical" name="LFERMIGW"> F  </i>
   <i type="logical" name="ODDONLYGW"> F  </i>
   <i type="logical" name="EVENONLYGW"> F  </i>
   <i type="int" name="NKREDLFX">     1</i>
   <i type="int" name="NKREDLFY">     1</i>
   <i type="int" name="NKREDLFZ">     1</i>
   <i type="int" name="MAXMEM">  2800</i>
   <i type="int" name="TELESCOPE">     0</i>
   <i type="int" name="NTAUPAR">    -1</i>
   <i type="int" name="NOMEGAPAR">    -1</i>
   <i name="DAMP_NEWTON">      0.80000001</i>
   <i name="LAMBDA">      1.00000000</i>
  </separator>
  <separator name="External order field" >
   <i name="OFIELD_KAPPA">      0.00000000</i>
   <v name="OFIELD_K">      0.00000000      0.00000000      0.00000000</v>
   <i name="OFIELD_Q6_NEAR">      0.00000000</i>
   <i name="OFIELD_Q6_FAR">      0.00000000</i>
   <i name="OFIELD_A">      0.00000000</i>
  </separator>
  <separator name="optional k-points parameters" >
   <i type="int" name="KPOINTS_OPT_MODE">     1</i>
   <i type="logical" name="LKPOINTS_OPT"> F  </i>
  </separator>
 </parameters>
 <atominfo>
  <atoms>      37 </atoms>
  <types>       2 </types>
  <array name="atoms" >
   <dimension dim="1">ion</dimension>
   <field type="string">element</field>
   <field type="int">atomtype</field>
   <set>
    <rc><c>Pt</c><c>   1</c></rc>
    <rc><c>Pt</c><c>   1</c></rc>
    <rc><c>Pt</c><c>   1</c></rc>
    <rc><c>Pt</c><c>   1</c></rc>
    <rc><c>Pt</c><c>   1</c></rc>
    <rc><c>Pt</c><c>   1</c></rc>
    <rc><c>Pt</c><c>   1</c></rc>
    <rc><c>Pt</c><c>   1</c></rc>
    <rc><c>Pt</c><c>   1</c></rc>
    <rc><c>Pt</c><c>   1</c></rc>
    <rc><c>Pt</c><c>   1</c></rc>
    <rc><c>Pt</c><c>   1</c></rc>
    <rc><c>Pt</c><c>   1</c></rc>
    <rc><c>Pt</c><c>   1</c></rc>
    <rc><c>Pt</c><c>   1</c></rc>
    <rc><c>Pt</c><c>   1</c></rc>
    <rc><c>Pt</c><c>   1</c></rc>
    <rc><c>Pt</c><c>   1</c></rc>
    <rc><c>Pt</c><c>   1</c></rc>
    <rc><c>Pt</c><c>   1</c></rc>
    <rc><c>Pt</c><c>   1</c></rc>
    <rc><c>Pt</c><c>   1</c></rc>
    <rc><c>Pt</c><c>   1</c></rc>
    <rc><c>Pt</c><c>   1</c></rc>
    <rc><c>Pt</c><c>   1</c></rc>
    <rc><c>Pt</c><c>   1</c></rc>
    <rc><c>Pt</c><c>   1</c></rc>
    <rc><c>Pt</c><c>   1</c></rc>
    <rc><c>Pt</c><c>   1</c></rc>
    <rc><c>Pt</c><c>   1</c></rc>
    <rc><c>Pt</c><c>   1</c></rc>
    <rc><c>Pt</c><c>   1</c></rc>
    <rc><c>Pt</c><c>   1</c></rc>
    <rc><c>Pt</c><c>   1</c></rc>
    <rc><c>Pt</c><c>   1</c></rc>
    <rc><c>Pt</c><c>   1</c></rc>
    <rc><c>H </c><c>   2</c></rc>
   </set>
  </array>
  <array name="atomtypes" >
   <dimension dim="1">type</dimension>
   <field type="int">atomspertype</field>
   <field type="string">element</field>
   <field>mass</field>
   <field>valence</field>
   <field type="string">pseudopotential</field>
   <set>
    <rc><c>  36</c><c>Pt</c><c>    195.08000000</c><c>     10.00000000</c><c>  PAW_PBE Pt 04Feb2005                  </c></rc>
    <rc><c>   1</c><c>H </c><c>      1.00000000</c><c>      1.00000000</c><c>  PAW_PBE H 15Jun2001                   </c></rc>
   </set>
  </array>
 </atominfo>
 <structure name="initialpos" >
  <crystal>
   <varray name="basis" >
    <v>       8.46831000       0.00000000       0.00000000 </v>
    <v>       4.23415500       7.33377159       0.00000000 </v>
    <v>       0.00000000       0.00000000      24.96566199 </v>
   </varray>
   <i name="volume">   1550.48373159 </i>
   <varray name="rec_basis" >
    <v>       0.11808732      -0.06817774       0.00000000 </v>
    <v>       0.00000000       0.13635549       0.00000000 </v>
    <v>       0.00000000       0.00000000       0.04005502 </v>
   </varray>
  </crystal>
  <varray name="positions" >
   <v>       0.00000000       0.00000000       0.34046764 </v>
   <v>       0.33400137       0.00000000       0.34046764 </v>
   <v>       0.66800274       0.00000000       0.34046764 </v>
   <v>       0.00000000       0.33400137       0.34046764 </v>
   <v>       0.33400137       0.33400137       0.34046764 </v>
   <v>       0.66800274       0.33400137       0.34046764 </v>
   <v>       0.00000000       0.66800274       0.34046764 </v>
   <v>       0.33400137       0.66800274       0.34046764 </v>
   <v>       0.66800274       0.66800274       0.34046764 </v>
   <v>       0.11133379       0.11133379       0.43297074 </v>
   <v>       0.44533516       0.11133379       0.43297074 </v>
   <v>       0.77933653       0.11133379       0.43297074 </v>
   <v>       0.11133379       0.44533516       0.43297074 </v>
   <v>       0.44533516       0.44533516       0.43297074 </v>
   <v>       0.77933653       0.44533516       0.43297074 </v>
   <v>       0.11133379       0.77933653       0.43297074 </v>
   <v>       0.44533516       0.77933653       0.43297074 </v>
   <v>       0.77933653       0.77933653       0.43297074 </v>
   <v>       0.89247616       0.22447354       0.52573270 </v>
   <v>       0.22534005       0.22266693       0.52501135 </v>
   <v>       0.55876041       0.22298813       0.52433243 </v>
   <v>       0.89244649       0.55418659       0.52559657 </v>
   <v>       0.22510261       0.55597971       0.52441986 </v>
   <v>       0.55852346       0.55635570       0.52445228 </v>
   <v>       0.89215999       0.88958126       0.52432270 </v>
   <v>       0.22522074       0.88976110       0.52457403 </v>
   <v>       0.55869511       0.88942303       0.52441586 </v>
   <v>       0.00442886       0.99929988       0.61762408 </v>
   <v>       0.34125059       0.99697565       0.61814094 </v>
   <v>       0.67206452       0.99988427       0.61772651 </v>
   <v>       0.00864688       0.33138353       0.62179002 </v>
   <v>       0.34127584       0.33360454       0.61807620 </v>
   <v>       0.67155516       0.33326242       0.61780818 </v>
   <v>       0.00445133       0.66788109       0.61750139 </v>
   <v>       0.33866461       0.66658707       0.61749590 </v>
   <v>       0.67161429       0.66728057       0.61781879 </v>
   <v>       0.12227761       0.27721782       0.67525441 </v>
  </varray>
  <varray name="selective"  type="logical" >
   <v type="logical" >  F  F  F </v>
   <v type="logical" >  F  F  F </v>
   <v type="logical" >  F  F  F </v>
   <v type="logical" >  F  F  F </v>
   <v type="logical" >  F  F  F </v>
   <v type="logical" >  F  F  F </v>
   <v type="logical" >  F  F  F </v>
   <v type="logical" >  F  F  F </v>
   <v type="logical" >  F  F  F </v>
   <v type="logical" >  F  F  F </v>
   <v type="logical" >  F  F  F </v>
   <v type="logical" >  F  F  F </v>
   <v type="logical" >  F  F  F </v>
   <v type="logical" >  F  F  F </v>
   <v type="logical" >  F  F  F </v>
   <v type="logical" >  F  F  F </v>
   <v type="logical" >  F  F  F </v>
   <v type="logical" >  F  F  F </v>
   <v type="logical" >  T  T  T </v>
   <v type="logical" >  T  T  T </v>
   <v type="logical" >  T  T  T </v>
   <v type="logical" >  T  T  T </v>
   <v type="logical" >  T  T  T </v>
   <v type="logical" >  T  T  T </v>
   <v type="logical" >  T  T  T </v>
   <v type="logical" >  T  T  T </v>
   <v type="logical" >  T  T  T </v>
   <v type="logical" >  T  T  T </v>
   <v type="logical" >  T  T  T </v>
   <v type="logical" >  T  T  T </v>
   <v type="logical" >  T  T  T </v>
   <v type="logical" >  T  T  T </v>
   <v type="logical" >  T  T  T </v>
   <v type="logical" >  T  T  T </v>
   <v type="logical" >  T  T  T </v>
   <v type="logical" >  T  T  T </v>
   <v type="logical" >  T  T  T </v>
  </varray>
  <nose>
   <v>      -3.00000000       0.00000000       0.00010000       0.00010000 </v>
  </nose>
 </structure>
 <calculation>
  <scstep>
   <time name="dav">   16.72   17.08</time>
   <time name="total">   20.46   20.86</time>
   <energy>
    <i name="alphaZ">    797.33612757 </i>
    <i name="ewald"> 132165.70259730 </i>
    <i name="hartreedc">-159570.96022503 </i>
    <i name="XCdc">     89.49240080 </i>
    <i name="pawpsdc">  32160.47527649 </i>
    <i name="pawaedc"> -31162.96851305 </i>
    <i name="eentropy">     -0.08242479 </i>
    <i name="bandstr">  -1080.44731257 </i>
    <i name="atom">  26496.80315902 </i>
    <i name="e_fr_energy">   -104.64891427 </i>
    <i name="e_wo_entrp">   -104.56648948 </i>
    <i name="e_0_energy">   -104.62143934 </i>
   </energy>
  </scstep>
  <scstep>
   <time name="diag">    2.87    2.90</time>
   <time name="diis">    8.53    8.60</time>
   <time name="orth">    0.66    0.67</time>
   <time name="total">   15.37   15.50</time>
   <energy>
    <i name="e_fr_energy">   -119.59256025 </i>
    <i name="e_wo_entrp">   -119.61042300 </i>
    <i name="e_0_energy">   -119.59851450 </i>
   </energy>
  </scstep>
  <scstep>
   <time name="diag">    2.81    2.83</time>
   <time name="diis">    8.74    8.82</time>
   <time name="orth">    0.70    0.70</time>
   <time name="total">   15.46   15.64</time>
   <energy>
    <i name="e_fr_energy">   -104.64233905 </i>
    <i name="e_wo_entrp">   -104.55974959 </i>
    <i name="e_0_energy">   -104.61480923 </i>
   </energy>
  </scstep>
  <scstep>
   <time name="diag">    2.92    2.95</time>
   <time name="diis">    8.58    8.66</time>
   <time name="orth">    0.74    0.75</time>
   <time name="total">   15.53   15.69</time>
   <energy>
    <i name="e_fr_energy">   -104.49532035 </i>
    <i name="e_wo_entrp">   -104.40856818 </i>
    <i name="e_0_energy">   -104.46640296 </i>
   </energy>
  </scstep>
  <scstep>
   <time name="diag">    2.78    2.80</time>
   <time name="diis">    8.74    8.80</time>
   <time name="orth">    0.59    0.59</time>
   <time name="total">   15.31   15.45</time>
   <energy>
    <i name="e_fr_energy">   -104.49635420 </i>
    <i name="e_wo_entrp">   -104.41028286 </i>
    <i name="e_0_energy">   -104.46766376 </i>
   </energy>
  </scstep>
  <scstep>
   <time name="diag">    2.82    2.84</time>
   <time name="diis">    8.99    9.05</time>
   <time name="orth">    0.68    0.68</time>
   <time name="total">   15.59   15.72</time>
   <energy>
    <i name="e_fr_energy">   -104.48909062 </i>
    <i name="e_wo_entrp">   -104.40191838 </i>
    <i name="e_0_energy">   -104.46003321 </i>
   </energy>
  </scstep>
  <scstep>
   <time name="diag">    3.75    3.80</time>
   <time name="diis">    9.05    9.11</time>
   <time name="orth">    0.54    0.55</time>
   <time name="total">   16.62   16.80</time>
   <energy>
    <i name="e_fr_energy">   -104.48888082 </i>
    <i name="e_wo_entrp">   -104.40148598 </i>
    <i name="e_0_energy">   -104.45974921 </i>
   </energy>
  </scstep>
  <scstep>
   <time name="diag">    2.72    2.74</time>
   <time name="diis">    9.03    9.09</time>
   <time name="orth">    0.59    0.59</time>
   <time name="total">   15.56   15.68</time>
   <energy>
    <i name="e_fr_energy">   -104.48776465 </i>
    <i name="e_wo_entrp">   -104.39997279 </i>
    <i name="e_0_energy">   -104.45850070 </i>
   </energy>
  </scstep>
  <scstep>
   <time name="diag">    3.55    3.57</time>
   <time name="diis">    9.02    9.08</time>
   <time name="orth">    0.64    0.65</time>
   <time name="total">   16.40   16.58</time>
   <energy>
    <i name="e_fr_energy">   -104.48753537 </i>
    <i name="e_wo_entrp">   -104.39988725 </i>
    <i name="e_0_energy">   -104.45831933 </i>
   </energy>
  </scstep>
  <scstep>
   <time name="diag">    2.80    2.82</time>
   <time name="diis">    9.08    9.15</time>
   <time name="orth">    0.61    0.62</time>
   <time name="total">   15.80   15.93</time>
   <energy>
    <i name="e_fr_energy">   -104.48751233 </i>
    <i name="e_wo_entrp">   -104.39984673 </i>
    <i name="e_0_energy">   -104.45829046 </i>
   </energy>
  </scstep>
  <scstep>
   <time name="diag">    2.99    3.02</time>
   <time name="diis">    8.61    8.68</time>
   <time name="orth">    0.53    0.53</time>
   <time name="total">   15.80   15.99</time>
   <energy>
    <i name="e_fr_energy">   -104.48750211 </i>
    <i name="e_wo_entrp">   -104.39991863 </i>
    <i name="e_0_energy">   -104.45830762 </i>
   </energy>
  </scstep>
  <scstep>
   <time name="diag">    2.75    2.77</time>
   <time name="diis">    7.63    7.67</time>
   <time name="orth">    0.47    0.48</time>
   <time name="total">   13.42   13.52</time>
   <energy>
    <i name="alphaZ">    797.33612757 </i>
    <i name="ewald"> 132165.70259730 </i>
    <i name="hartreedc">-159565.31346723 </i>
    <i name="XCdc">     89.49302689 </i>
    <i name="pawpsdc">  32160.21508175 </i>
    <i name="pawaedc"> -31162.70806675 </i>
    <i name="eentropy">     -0.08765133 </i>
    <i name="bandstr">  -1085.92830720 </i>
    <i name="atom">  26496.80315902 </i>
    <i name="e_fr_energy">   -104.48749999 </i>
    <i name="e_wo_entrp">   -104.39984866 </i>
    <i name="e_0_energy">   -104.45828288 </i>
   </energy>
  </scstep>
  <structure>
   <crystal>
    <varray name="basis" >
     <v>       8.46831000       0.00000000       0.00000000 </v>
     <v>       4.23415500       7.33377159       0.00000000 </v>
     <v>       0.00000000       0.00000000      24.96566199 </v>
    </varray>
    <i name="volume">   1550.48373159 </i>
    <varray name="rec_basis" >
     <v>       0.11808732      -0.06817774       0.00000000 </v>
     <v>       0.00000000       0.13635549       0.00000000 </v>
     <v>       0.00000000       0.00000000       0.04005502 </v>
    </varray>
   </crystal>
   <varray name="positions" >
    <v>       0.00000000       0.00000000       0.34046764 </v>
    <v>       0.33400137       0.00000000       0.34046764 </v>
    <v>       0.66800274       0.00000000       0.34046764 </v>
    <v>       0.00000000       0.33400137       0.34046764 </v>
    <v>       0.33400137       0.33400137       0.34046764 </v>
    <v>       0.66800274       0.33400137       0.34046764 </v>
    <v>       0.00000000       0.66800274       0.34046764 </v>
    <v>       0.33400137       0.66800274       0.34046764 </v>
    <v>       0.66800274       0.66800274       0.34046764 </v>
    <v>       0.11133379       0.11133379       0.43297074 </v>
    <v>       0.44533516       0.11133379       0.43297074 </v>
    <v>       0.77933653       0.11133379       0.43297074 </v>
    <v>       0.11133379       0.44533516       0.43297074 </v>
    <v>       0.44533516       0.44533516       0.43297074 </v>
    <v>       0.77933653       0.44533516       0.43297074 </v>
    <v>       0.11133379       0.77933653       0.43297074 </v>
    <v>       0.44533516       0.77933653       0.43297074 </v>
    <v>       0.77933653       0.77933653       0.43297074 </v>
    <v>       0.89247616       0.22447354       0.52573270 </v>
    <v>       0.22534005       0.22266693       0.52501135 </v>
    <v>       0.55876041       0.22298813       0.52433243 </v>
    <v>       0.89244649       0.55418659       0.52559657 </v>
    <v>       0.22510261       0.55597971       0.52441986 </v>
    <v>       0.55852346       0.55635570       0.52445228 </v>
    <v>       0.89215999       0.88958126       0.52432270 </v>
    <v>       0.22522074       0.88976110       0.52457403 </v>
    <v>       0.55869511       0.88942303       0.52441586 </v>
    <v>       0.00442886       0.99929988       0.61762408 </v>
    <v>       0.34125059       0.99697565       0.61814094 </v>
    <v>       0.67206452       0.99988427       0.61772651 </v>
    <v>       0.00864688       0.33138353       0.62179002 </v>
    <v>       0.34127584       0.33360454       0.61807620 </v>
    <v>       0.67155516       0.33326242       0.61780818 </v>
    <v>       0.00445133       0.66788109       0.61750139 </v>
    <v>       0.33866461       0.66658707       0.61749590 </v>
    <v>       0.67161429       0.66728057       0.61781879 </v>
    <v>       0.12227761       0.27721782       0.67525441 </v>
   </varray>
  </structure>
  <varray name="forces" >
   <v>       0.04468155       0.04475846      -0.11967687 </v>
   <v>       0.01583212       0.05897836      -0.09907659 </v>
   <v>      -0.07445662       0.08995422      -0.20012306 </v>
   <v>       0.04691300      -0.01502077      -0.08414332 </v>
   <v>      -0.00457398      -0.00975083      -0.07261970 </v>
   <v>      -0.05383253       0.00662887      -0.07929822 </v>
   <v>       0.02531980      -0.05771557      -0.11108743 </v>
   <v>      -0.02182248      -0.04325704      -0.08968392 </v>
   <v>      -0.06581259      -0.03069838      -0.09578415 </v>
   <v>       0.05275684       0.07234746       0.19381601 </v>
   <v>       0.04201125       0.05399758       0.00739495 </v>
   <v>      -0.07390770       0.06900291       0.03968483 </v>
   <v>       0.03273936      -0.02140149       0.18056571 </v>
   <v>       0.00905679      -0.00247179       0.05665418 </v>
   <v>      -0.01866311      -0.00924530       0.24106018 </v>
   <v>       0.06618902      -0.10167318       0.07802638 </v>
   <v>      -0.00801868      -0.07682565       0.09035998 </v>
   <v>      -0.06352229      -0.01372518       0.06277677 </v>
   <v>       0.00145145      -0.00065453      -0.01963337 </v>
   <v>       0.01628172      -0.00434025      -0.00799828 </v>
   <v>       0.00882238       0.00049336       0.00701867 </v>
   <v>       0.01248736      -0.00538777      -0.00417011 </v>
   <v>       0.01223965      -0.00074043      -0.00302108 </v>
   <v>      -0.00390387      -0.00071154      -0.01672088 </v>
   <v>       0.00047787       0.00154079      -0.00860150 </v>
   <v>       0.00678496      -0.00478778      -0.00089897 </v>
   <v>       0.01818130      -0.00983097       0.01120023 </v>
   <v>       0.00450977      -0.00322365      -0.00595878 </v>
   <v>       0.02639710      -0.02010621      -0.03891598 </v>
   <v>       0.00363080       0.00156239       0.00306508 </v>
   <v>       0.00605278       0.00320972      -0.02921928 </v>
   <v>       0.02847117      -0.00975772      -0.03169450 </v>
   <v>       0.02297131      -0.00224376       0.01054404 </v>
   <v>       0.00638060       0.00203451      -0.00366176 </v>
   <v>      -0.01051961       0.00193478       0.01120149 </v>
   <v>       0.00411424      -0.03214893       0.00854692 </v>
   <v>      -0.11572070       0.06927532       0.12007231 </v>
  </varray>
  <varray name="stress" >
   <v>     -34.46395192       0.02361450       0.17938717 </v>
   <v>       0.02361460     -34.43017299      -0.08042578 </v>
   <v>       0.17938702      -0.08042594       2.75609943 </v>
  </varray>
  <energy>
   <i name="e_fr_energy">   -104.48749999 </i>
   <i name="e_wo_entrp">   -104.39984866 </i>
   <i name="e_0_energy">   -104.45828288 </i>
  </energy>
  <time name="totalsc">  218.82  221.54</time>
  <eigenvalues>
   <array>
    <dimension dim="1">band</dimension>
    <dimension dim="2">kpoint</dimension>
    <dimension dim="3">spin</dimension>
    <field>eigene</field>
    <field>occ</field>
    <set>
     <set comment="spin 1">
      <set comment="kpoint 1">
       <r>   -8.8846    1.0000 </r>
       <r>   -7.6408    1.0000 </r>
       <r>   -6.6472    1.0000 </r>
       <r>   -6.4884    1.0000 </r>
       <r>   -6.4710    1.0000 </r>
       <r>   -6.4576    1.0000 </r>
       <r>   -6.4529    1.0000 </r>
       <r>   -6.4493    1.0000 </r>
       <r>   -6.4350    1.0000 </r>
       <r>   -6.4287    1.0000 </r>
       <r>   -6.0592    1.0000 </r>
       <r>   -5.9154    1.0000 </r>
       <r>   -5.9100    1.0000 </r>
       <r>   -5.9058    1.0000 </r>
       <r>   -5.8964    1.0000 </r>
       <r>   -5.8938    1.0000 </r>
       <r>   -5.7231    1.0000 </r>
       <r>   -5.4543    1.0000 </r>
       <r>   -5.4520    1.0000 </r>
       <r>   -5.4473    1.0000 </r>
       <r>   -5.4451    1.0000 </r>
       <r>   -5.4414    1.0000 </r>
       <r>   -5.3577    1.0000 </r>
       <r>   -5.2283    1.0000 </r>
       <r>   -5.2217    1.0000 </r>
       <r>   -5.2184    1.0000 </r>
       <r>   -5.2156    1.0000 </r>
       <r>   -5.2106    1.0000 </r>
       <r>   -5.0853    1.0000 </r>
       <r>   -5.0239    1.0000 </r>
       <r>   -5.0214    1.0000 </r>
       <r>   -5.0134    1.0000 </r>
       <r>   -5.0095    1.0000 </r>
       <r>   -5.0063    1.0000 </r>
       <r>   -4.9697    1.0000 </r>
       <r>   -4.9648    1.0000 </r>
       <r>   -4.9539    1.0000 </r>
       <r>   -4.9507    1.0000 </r>
       <r>   -4.9365    1.0000 </r>
       <r>   -4.9079    1.0000 </r>
       <r>   -4.7814    1.0000 </r>
       <r>   -4.3774    1.0000 </r>
       <r>   -4.3736    1.0000 </r>
       <r>   -4.3440    1.0000 </r>
       <r>   -4.3364    1.0000 </r>
       <r>   -4.3215    1.0000 </r>
       <r>   -4.3188    1.0000 </r>
       <r>   -4.3049    1.0000 </r>
       <r>   -4.2925    1.0000 </r>
       <r>   -4.2878    1.0000 </r>
       <r>   -4.2171    1.0000 </r>
       <r>   -4.1343    1.0000 </r>
       <r>   -4.1193    1.0000 </r>
       <r>   -4.0458    1.0000 </r>
       <r>   -3.9930    1.0000 </r>
       <r>   -3.5936    1.0000 </r>
       <r>   -3.5661    1.0000 </r>
       <r>   -3.5644    1.0000 </r>
       <r>   -3.5601    1.0000 </r>
       <r>   -3.5529    1.0000 </r>
       <r>   -3.5152    1.0000 </r>
       <r>   -3.4861    1.0000 </r>
       <r>   -3.3845    1.0000 </r>
       <r>   -3.3709    1.0000 </r>
       <r>   -3.3698    1.0000 </r>
       <r>   -3.3666    1.0000 </r>
       <r>   -3.3601    1.0000 </r>
       <r>   -3.3568    1.0000 </r>
       <r>   -3.3455    1.0000 </r>
       <r>   -3.3192    1.0000 </r>
       <r>   -3.3115    1.0000 </r>
       <r>   -3.2997    1.0000 </r>
       <r>   -3.2939    1.0000 </r>
       <r>   -3.2879    1.0000 </r>
       <r>   -3.2620    1.0000 </r>
       <r>   -3.2611    1.0000 </r>
       <r>   -3.2425    1.0000 </r>
       <r>   -3.1580    1.0000 </r>
       <r>   -3.1461    1.0000 </r>
       <r>   -3.1390    1.0000 </r>
       <r>   -3.1362    1.0000 </r>
       <r>   -3.1289    1.0000 </r>
       <r>   -3.0576    1.0000 </r>
       <r>   -2.9386    1.0000 </r>
       <r>   -2.9306    1.0000 </r>
       <r>   -2.9220    1.0000 </r>
       <r>   -2.9147    1.0000 </r>
       <r>   -2.9066    1.0000 </r>
       <r>   -2.8971    1.0000 </r>
       <r>   -2.8930    1.0000 </r>
       <r>   -2.8869    1.0000 </r>
       <r>   -2.8363    1.0000 </r>
       <r>   -2.8167    1.0000 </r>
       <r>   -2.7783    1.0000 </r>
       <r>   -2.7671    1.0000 </r>
       <r>   -2.7337    1.0000 </r>
       <r>   -2.7327    1.0000 </r>
       <r>   -2.6870    1.0000 </r>
       <r>   -2.6837    1.0000 </r>
       <r>   -2.6809    1.0000 </r>
       <r>   -2.6347    1.0000 </r>
       <r>   -2.5318    1.0000 </r>
       <r>   -2.5210    1.0000 </r>
       <r>   -2.5187    1.0000 </r>
       <r>   -2.5039    1.0000 </r>
       <r>   -2.4950    1.0000 </r>
       <r>   -2.4853    1.0000 </r>
       <r>   -2.2197    1.0000 </r>
       <r>   -2.0194    1.0000 </r>
       <r>   -2.0186    1.0000 </r>
       <r>   -1.9953    1.0000 </r>
       <r>   -1.9920    1.0000 </r>
       <r>   -1.9860    1.0000 </r>
       <r>   -1.9821    1.0000 </r>
       <r>   -1.9800    1.0000 </r>
       <r>   -1.9572    1.0000 </r>
       <r>   -1.9488    1.0000 </r>
       <r>   -1.9451    1.0000 </r>
       <r>   -1.9412    1.0000 </r>
       <r>   -1.8801    1.0000 </r>
       <r>   -1.8564    1.0000 </r>
       <r>   -1.8333    1.0000 </r>
       <r>   -1.7323    1.0000 </r>
       <r>   -1.7129    1.0000 </r>
       <r>   -1.7070    1.0000 </r>
       <r>   -1.7020    1.0000 </r>
       <r>   -1.6996    1.0000 </r>
       <r>   -1.6122    1.0000 </r>
       <r>   -1.5811    1.0000 </r>
       <r>   -1.5312    1.0000 </r>
       <r>   -1.5305    1.0000 </r>
       <r>   -1.5257    1.0000 </r>
       <r>   -1.4794    1.0000 </r>
       <r>   -1.4013    1.0000 </r>
       <r>   -1.2839    1.0000 </r>
       <r>   -1.2657    1.0000 </r>
       <r>   -1.2614    1.0000 </r>
       <r>   -1.2501    1.0000 </r>
       <r>   -1.2479    1.0000 </r>
       <r>   -1.2388    1.0000 </r>
       <r>   -1.1804    1.0000 </r>
       <r>   -1.1735    1.0000 </r>
       <r>   -1.0289    1.0000 </r>
       <r>   -1.0224    1.0000 </r>
       <r>   -1.0206    1.0000 </r>
       <r>   -1.0106    1.0000 </r>
       <r>   -1.0086    1.0000 </r>
       <r>   -0.9431    1.0000 </r>
       <r>   -0.8605    1.0000 </r>
       <r>   -0.8517    1.0000 </r>
       <r>   -0.8403    1.0000 </r>
       <r>   -0.8289    1.0000 </r>
       <r>   -0.8279    1.0000 </r>
       <r>   -0.8094    1.0000 </r>
       <r>   -0.8061    1.0000 </r>
       <r>   -0.7988    1.0000 </r>
       <r>   -0.7958    1.0000 </r>
       <r>   -0.7937    1.0000 </r>
       <r>   -0.7913    1.0000 </r>
       <r>   -0.7162    1.0000 </r>
       <r>   -0.7007    1.0000 </r>
       <r>   -0.6849    1.0000 </r>
       <r>   -0.6649    1.0000 </r>
       <r>   -0.6642    1.0000 </r>
       <r>   -0.6526    1.0000 </r>
       <r>   -0.6405    1.0000 </r>
       <r>   -0.6288    1.0000 </r>
       <r>   -0.5911    1.0000 </r>
       <r>   -0.5897    1.0000 </r>
       <r>   -0.5575    1.0000 </r>
       <r>   -0.5529    1.0000 </r>
       <r>   -0.5503    1.0000 </r>
       <r>   -0.5413    1.0000 </r>
       <r>   -0.5397    1.0000 </r>
       <r>   -0.5349    1.0000 </r>
       <r>   -0.4539    1.0000 </r>
       <r>   -0.4425    1.0000 </r>
       <r>   -0.4366    1.0000 </r>
       <r>   -0.4343    1.0000 </r>
       <r>   -0.4308    1.0000 </r>
       <r>   -0.4272    1.0000 </r>
       <r>   -0.4160    1.0000 </r>
       <r>   -0.3511    1.0003 </r>
       <r>   -0.3259    1.0009 </r>
       <r>   -0.3175    1.0013 </r>
       <r>   -0.3144    1.0014 </r>
       <r>   -0.3047    1.0022 </r>
       <r>   -0.2976    1.0029 </r>
       <r>   -0.1173    0.8589 </r>
       <r>   -0.0925    0.6900 </r>
       <r>   -0.0179    0.1218 </r>
       <r>   -0.0110    0.0873 </r>
       <r>    0.0082    0.0166 </r>
       <r>    0.0131    0.0040 </r>
       <r>    0.0158   -0.0020 </r>
       <r>    0.0196   -0.0096 </r>
       <r>    0.3974   -0.0000 </r>
       <r>    0.8144   -0.0000 </r>
       <r>    0.8786   -0.0000 </r>
       <r>    0.8834   -0.0000 </r>
       <r>    0.9053   -0.0000 </r>
       <r>    0.9078   -0.0000 </r>
       <r>    0.9116   -0.0000 </r>
       <r>    2.5506   -0.0000 </r>
       <r>    3.1657    0.0000 </r>
       <r>    3.1804    0.0000 </r>
       <r>    3.2013    0.0000 </r>
       <r>    3.2209    0.0000 </r>
       <r>    3.2349    0.0000 </r>
       <r>    4.4209    0.0000 </r>
       <r>    4.7615    0.0000 </r>
       <r>    4.7752    0.0000 </r>
       <r>    4.8155    0.0000 </r>
       <r>    4.8206    0.0000 </r>
       <r>    4.8365    0.0000 </r>
       <r>    4.8508    0.0000 </r>
       <r>    4.9837    0.0000 </r>
       <r>    5.1123    0.0000 </r>
       <r>    5.4940    0.0000 </r>
       <r>    5.5214    0.0000 </r>
       <r>    5.8090    0.0000 </r>
       <r>    5.8134    0.0000 </r>
       <r>    5.8433    0.0000 </r>
       <r>    5.8591    0.0000 </r>
       <r>    5.8791    0.0000 </r>
       <r>    6.0529    0.0000 </r>
       <r>    6.4491    0.0000 </r>
       <r>    6.6253    0.0000 </r>
       <r>    6.6304    0.0000 </r>
       <r>    6.6346    0.0000 </r>
       <r>    6.7522    0.0000 </r>
       <r>    6.8717    0.0000 </r>
       <r>    7.1176    0.0000 </r>
       <r>    7.1335    0.0000 </r>
       <r>    7.1556    0.0000 </r>
       <r>    7.1686    0.0000 </r>
       <r>    7.1751    0.0000 </r>
       <r>    7.1771    0.0000 </r>
       <r>    7.3057    0.0000 </r>
       <r>    7.7919    0.0000 </r>
      </set>
      <set comment="kpoint 2">
       <r>   -8.7362    1.0000 </r>
       <r>   -7.4965    1.0000 </r>
       <r>   -6.9636    1.0000 </r>
       <r>   -6.6043    1.0000 </r>
       <r>   -6.5562    1.0000 </r>
       <r>   -6.4762    1.0000 </r>
       <r>   -6.3466    1.0000 </r>
       <r>   -6.2670    1.0000 </r>
       <r>   -6.2257    1.0000 </r>
       <r>   -6.2145    1.0000 </r>
       <r>   -6.0843    1.0000 </r>
       <r>   -6.0055    1.0000 </r>
       <r>   -5.9475    1.0000 </r>
       <r>   -5.8385    1.0000 </r>
       <r>   -5.8317    1.0000 </r>
       <r>   -5.8225    1.0000 </r>
       <r>   -5.6388    1.0000 </r>
       <r>   -5.5378    1.0000 </r>
       <r>   -5.4148    1.0000 </r>
       <r>   -5.4109    1.0000 </r>
       <r>   -5.4046    1.0000 </r>
       <r>   -5.3831    1.0000 </r>
       <r>   -5.3282    1.0000 </r>
       <r>   -5.3059    1.0000 </r>
       <r>   -5.2697    1.0000 </r>
       <r>   -5.2302    1.0000 </r>
       <r>   -5.2101    1.0000 </r>
       <r>   -5.2060    1.0000 </r>
       <r>   -5.1506    1.0000 </r>
       <r>   -5.1165    1.0000 </r>
       <r>   -5.0994    1.0000 </r>
       <r>   -5.0240    1.0000 </r>
       <r>   -5.0129    1.0000 </r>
       <r>   -5.0055    1.0000 </r>
       <r>   -5.0044    1.0000 </r>
       <r>   -4.8514    1.0000 </r>
       <r>   -4.8048    1.0000 </r>
       <r>   -4.7886    1.0000 </r>
       <r>   -4.7651    1.0000 </r>
       <r>   -4.7595    1.0000 </r>
       <r>   -4.7257    1.0000 </r>
       <r>   -4.4979    1.0000 </r>
       <r>   -4.4952    1.0000 </r>
       <r>   -4.4625    1.0000 </r>
       <r>   -4.4150    1.0000 </r>
       <r>   -4.3984    1.0000 </r>
       <r>   -4.3909    1.0000 </r>
       <r>   -4.3302    1.0000 </r>
       <r>   -4.2121    1.0000 </r>
       <r>   -4.2011    1.0000 </r>
       <r>   -4.1173    1.0000 </r>
       <r>   -4.1008    1.0000 </r>
       <r>   -4.0803    1.0000 </r>
       <r>   -4.0528    1.0000 </r>
       <r>   -4.0126    1.0000 </r>
       <r>   -3.8355    1.0000 </r>
       <r>   -3.7416    1.0000 </r>
       <r>   -3.7325    1.0000 </r>
       <r>   -3.6821    1.0000 </r>
       <r>   -3.6684    1.0000 </r>
       <r>   -3.6097    1.0000 </r>
       <r>   -3.5819    1.0000 </r>
       <r>   -3.5553    1.0000 </r>
       <r>   -3.5491    1.0000 </r>
       <r>   -3.5261    1.0000 </r>
       <r>   -3.5165    1.0000 </r>
       <r>   -3.4980    1.0000 </r>
       <r>   -3.4450    1.0000 </r>
       <r>   -3.3997    1.0000 </r>
       <r>   -3.3681    1.0000 </r>
       <r>   -3.3604    1.0000 </r>
       <r>   -3.3242    1.0000 </r>
       <r>   -3.2636    1.0000 </r>
       <r>   -3.2487    1.0000 </r>
       <r>   -3.2439    1.0000 </r>
       <r>   -3.1824    1.0000 </r>
       <r>   -3.1712    1.0000 </r>
       <r>   -3.1435    1.0000 </r>
       <r>   -3.1232    1.0000 </r>
       <r>   -3.0939    1.0000 </r>
       <r>   -3.0868    1.0000 </r>
       <r>   -3.0816    1.0000 </r>
       <r>   -3.0210    1.0000 </r>
       <r>   -2.9838    1.0000 </r>
       <r>   -2.9620    1.0000 </r>
       <r>   -2.9567    1.0000 </r>
       <r>   -2.9364    1.0000 </r>
       <r>   -2.9329    1.0000 </r>
       <r>   -2.9164    1.0000 </r>
       <r>   -2.8945    1.0000 </r>
       <r>   -2.8549    1.0000 </r>
       <r>   -2.8161    1.0000 </r>
       <r>   -2.8083    1.0000 </r>
       <r>   -2.7800    1.0000 </r>
       <r>   -2.7683    1.0000 </r>
       <r>   -2.7535    1.0000 </r>
       <r>   -2.7257    1.0000 </r>
       <r>   -2.7186    1.0000 </r>
       <r>   -2.7037    1.0000 </r>
       <r>   -2.6858    1.0000 </r>
       <r>   -2.5974    1.0000 </r>
       <r>   -2.5421    1.0000 </r>
       <r>   -2.5358    1.0000 </r>
       <r>   -2.5114    1.0000 </r>
       <r>   -2.5005    1.0000 </r>
       <r>   -2.4955    1.0000 </r>
       <r>   -2.4876    1.0000 </r>
       <r>   -2.4841    1.0000 </r>
       <r>   -2.4374    1.0000 </r>
       <r>   -2.4254    1.0000 </r>
       <r>   -2.4117    1.0000 </r>
       <r>   -2.4076    1.0000 </r>
       <r>   -2.2749    1.0000 </r>
       <r>   -2.0842    1.0000 </r>
       <r>   -2.0717    1.0000 </r>
       <r>   -2.0288    1.0000 </r>
       <r>   -1.9906    1.0000 </r>
       <r>   -1.9831    1.0000 </r>
       <r>   -1.9694    1.0000 </r>
       <r>   -1.9631    1.0000 </r>
       <r>   -1.9337    1.0000 </r>
       <r>   -1.8707    1.0000 </r>
       <r>   -1.7877    1.0000 </r>
       <r>   -1.7782    1.0000 </r>
       <r>   -1.7611    1.0000 </r>
       <r>   -1.6658    1.0000 </r>
       <r>   -1.6423    1.0000 </r>
       <r>   -1.6152    1.0000 </r>
       <r>   -1.5802    1.0000 </r>
       <r>   -1.5603    1.0000 </r>
       <r>   -1.5328    1.0000 </r>
       <r>   -1.5271    1.0000 </r>
       <r>   -1.5071    1.0000 </r>
       <r>   -1.4410    1.0000 </r>
       <r>   -1.4316    1.0000 </r>
       <r>   -1.3878    1.0000 </r>
       <r>   -1.3844    1.0000 </r>
       <r>   -1.3700    1.0000 </r>
       <r>   -1.3471    1.0000 </r>
       <r>   -1.1836    1.0000 </r>
       <r>   -1.1806    1.0000 </r>
       <r>   -1.1574    1.0000 </r>
       <r>   -1.1397    1.0000 </r>
       <r>   -1.1325    1.0000 </r>
       <r>   -1.1160    1.0000 </r>
       <r>   -1.0774    1.0000 </r>
       <r>   -1.0255    1.0000 </r>
       <r>   -1.0029    1.0000 </r>
       <r>   -0.9950    1.0000 </r>
       <r>   -0.9774    1.0000 </r>
       <r>   -0.9609    1.0000 </r>
       <r>   -0.9092    1.0000 </r>
       <r>   -0.9023    1.0000 </r>
       <r>   -0.8878    1.0000 </r>
       <r>   -0.8529    1.0000 </r>
       <r>   -0.7791    1.0000 </r>
       <r>   -0.7706    1.0000 </r>
       <r>   -0.7506    1.0000 </r>
       <r>   -0.7143    1.0000 </r>
       <r>   -0.6455    1.0000 </r>
       <r>   -0.6277    1.0000 </r>
       <r>   -0.6267    1.0000 </r>
       <r>   -0.5955    1.0000 </r>
       <r>   -0.5806    1.0000 </r>
       <r>   -0.5569    1.0000 </r>
       <r>   -0.5375    1.0000 </r>
       <r>   -0.4813    1.0000 </r>
       <r>   -0.4612    1.0000 </r>
       <r>   -0.4225    1.0000 </r>
       <r>   -0.3934    1.0000 </r>
       <r>   -0.3868    1.0000 </r>
       <r>   -0.3797    1.0001 </r>
       <r>   -0.3472    1.0003 </r>
       <r>   -0.3454    1.0003 </r>
       <r>   -0.3377    1.0005 </r>
       <r>   -0.3334    1.0006 </r>
       <r>   -0.3277    1.0008 </r>
       <r>   -0.2655    1.0090 </r>
       <r>   -0.2552    1.0123 </r>
       <r>   -0.1218    0.8833 </r>
       <r>   -0.1123    0.8293 </r>
       <r>   -0.0921    0.6868 </r>
       <r>   -0.0844    0.6255 </r>
       <r>   -0.0787    0.5786 </r>
       <r>   -0.0646    0.4598 </r>
       <r>   -0.0332    0.2152 </r>
       <r>   -0.0247    0.1604 </r>
       <r>   -0.0078    0.0732 </r>
       <r>    0.0097    0.0123 </r>
       <r>    0.0723   -0.0312 </r>
       <r>    0.1149   -0.0129 </r>
       <r>    0.1407   -0.0057 </r>
       <r>    0.1728   -0.0016 </r>
       <r>    0.2935   -0.0000 </r>
       <r>    0.3035   -0.0000 </r>
       <r>    0.3168   -0.0000 </r>
       <r>    0.3634   -0.0000 </r>
       <r>    0.6466   -0.0000 </r>
       <r>    0.7588   -0.0000 </r>
       <r>    1.2053   -0.0000 </r>
       <r>    1.4835   -0.0000 </r>
       <r>    1.4911   -0.0000 </r>
       <r>    1.6122   -0.0000 </r>
       <r>    2.3231   -0.0000 </r>
       <r>    2.7290    0.0000 </r>
       <r>    2.9165    0.0000 </r>
       <r>    3.4555    0.0000 </r>
       <r>    3.6613    0.0000 </r>
       <r>    3.6627    0.0000 </r>
       <r>    3.7580    0.0000 </r>
       <r>    3.9863    0.0000 </r>
       <r>    4.3593    0.0000 </r>
       <r>    4.6239    0.0000 </r>
       <r>    4.6903    0.0000 </r>
       <r>    4.9588    0.0000 </r>
       <r>    4.9804    0.0000 </r>
       <r>    5.0029    0.0000 </r>
       <r>    5.1277    0.0000 </r>
       <r>    5.2329    0.0000 </r>
       <r>    5.4692    0.0000 </r>
       <r>    5.6387    0.0000 </r>
       <r>    5.7395    0.0000 </r>
       <r>    5.8012    0.0000 </r>
       <r>    5.9112    0.0000 </r>
       <r>    6.0809    0.0000 </r>
       <r>    6.1649    0.0000 </r>
       <r>    6.2237    0.0000 </r>
       <r>    6.3212    0.0000 </r>
       <r>    6.3438    0.0000 </r>
       <r>    6.6689    0.0000 </r>
       <r>    6.7044    0.0000 </r>
       <r>    6.7121    0.0000 </r>
       <r>    6.7890    0.0000 </r>
       <r>    6.8434    0.0000 </r>
       <r>    6.8917    0.0000 </r>
       <r>    7.0431    0.0000 </r>
       <r>    7.2139    0.0000 </r>
       <r>    7.4994    0.0000 </r>
       <r>    7.5376    0.0000 </r>
       <r>    7.6126    0.0000 </r>
      </set>
      <set comment="kpoint 3">
       <r>   -8.7365    1.0000 </r>
       <r>   -7.4979    1.0000 </r>
       <r>   -6.9720    1.0000 </r>
       <r>   -6.5966    1.0000 </r>
       <r>   -6.5559    1.0000 </r>
       <r>   -6.4780    1.0000 </r>
       <r>   -6.3475    1.0000 </r>
       <r>   -6.2713    1.0000 </r>
       <r>   -6.2285    1.0000 </r>
       <r>   -6.2103    1.0000 </r>
       <r>   -6.1015    1.0000 </r>
       <r>   -6.0009    1.0000 </r>
       <r>   -5.9101    1.0000 </r>
       <r>   -5.8442    1.0000 </r>
       <r>   -5.8333    1.0000 </r>
       <r>   -5.8234    1.0000 </r>
       <r>   -5.6705    1.0000 </r>
       <r>   -5.5209    1.0000 </r>
       <r>   -5.4149    1.0000 </r>
       <r>   -5.4092    1.0000 </r>
       <r>   -5.4036    1.0000 </r>
       <r>   -5.3645    1.0000 </r>
       <r>   -5.3235    1.0000 </r>
       <r>   -5.3006    1.0000 </r>
       <r>   -5.2682    1.0000 </r>
       <r>   -5.2374    1.0000 </r>
       <r>   -5.2229    1.0000 </r>
       <r>   -5.2072    1.0000 </r>
       <r>   -5.1618    1.0000 </r>
       <r>   -5.1132    1.0000 </r>
       <r>   -5.0955    1.0000 </r>
       <r>   -5.0313    1.0000 </r>
       <r>   -5.0134    1.0000 </r>
       <r>   -5.0045    1.0000 </r>
       <r>   -4.9968    1.0000 </r>
       <r>   -4.8684    1.0000 </r>
       <r>   -4.8044    1.0000 </r>
       <r>   -4.7848    1.0000 </r>
       <r>   -4.7681    1.0000 </r>
       <r>   -4.7550    1.0000 </r>
       <r>   -4.7208    1.0000 </r>
       <r>   -4.4957    1.0000 </r>
       <r>   -4.4840    1.0000 </r>
       <r>   -4.4561    1.0000 </r>
       <r>   -4.4159    1.0000 </r>
       <r>   -4.4008    1.0000 </r>
       <r>   -4.3867    1.0000 </r>
       <r>   -4.3209    1.0000 </r>
       <r>   -4.2080    1.0000 </r>
       <r>   -4.1832    1.0000 </r>
       <r>   -4.1280    1.0000 </r>
       <r>   -4.1106    1.0000 </r>
       <r>   -4.0844    1.0000 </r>
       <r>   -4.0510    1.0000 </r>
       <r>   -4.0230    1.0000 </r>
       <r>   -3.8206    1.0000 </r>
       <r>   -3.7362    1.0000 </r>
       <r>   -3.7298    1.0000 </r>
       <r>   -3.6677    1.0000 </r>
       <r>   -3.6465    1.0000 </r>
       <r>   -3.6266    1.0000 </r>
       <r>   -3.5819    1.0000 </r>
       <r>   -3.5691    1.0000 </r>
       <r>   -3.5385    1.0000 </r>
       <r>   -3.5270    1.0000 </r>
       <r>   -3.5225    1.0000 </r>
       <r>   -3.4923    1.0000 </r>
       <r>   -3.4451    1.0000 </r>
       <r>   -3.4080    1.0000 </r>
       <r>   -3.3765    1.0000 </r>
       <r>   -3.3563    1.0000 </r>
       <r>   -3.3436    1.0000 </r>
       <r>   -3.2865    1.0000 </r>
       <r>   -3.2654    1.0000 </r>
       <r>   -3.2562    1.0000 </r>
       <r>   -3.1814    1.0000 </r>
       <r>   -3.1698    1.0000 </r>
       <r>   -3.1508    1.0000 </r>
       <r>   -3.1260    1.0000 </r>
       <r>   -3.0844    1.0000 </r>
       <r>   -3.0600    1.0000 </r>
       <r>   -3.0519    1.0000 </r>
       <r>   -3.0387    1.0000 </r>
       <r>   -2.9910    1.0000 </r>
       <r>   -2.9624    1.0000 </r>
       <r>   -2.9555    1.0000 </r>
       <r>   -2.9337    1.0000 </r>
       <r>   -2.9299    1.0000 </r>
       <r>   -2.9076    1.0000 </r>
       <r>   -2.8900    1.0000 </r>
       <r>   -2.8605    1.0000 </r>
       <r>   -2.8156    1.0000 </r>
       <r>   -2.8002    1.0000 </r>
       <r>   -2.7854    1.0000 </r>
       <r>   -2.7705    1.0000 </r>
       <r>   -2.7525    1.0000 </r>
       <r>   -2.7267    1.0000 </r>
       <r>   -2.7129    1.0000 </r>
       <r>   -2.7053    1.0000 </r>
       <r>   -2.6872    1.0000 </r>
       <r>   -2.6000    1.0000 </r>
       <r>   -2.5531    1.0000 </r>
       <r>   -2.5323    1.0000 </r>
       <r>   -2.5176    1.0000 </r>
       <r>   -2.5125    1.0000 </r>
       <r>   -2.5022    1.0000 </r>
       <r>   -2.4913    1.0000 </r>
       <r>   -2.4782    1.0000 </r>
       <r>   -2.4382    1.0000 </r>
       <r>   -2.4240    1.0000 </r>
       <r>   -2.4190    1.0000 </r>
       <r>   -2.4082    1.0000 </r>
       <r>   -2.1731    1.0000 </r>
       <r>   -2.1292    1.0000 </r>
       <r>   -2.0604    1.0000 </r>
       <r>   -2.0241    1.0000 </r>
       <r>   -2.0011    1.0000 </r>
       <r>   -1.9902    1.0000 </r>
       <r>   -1.9747    1.0000 </r>
       <r>   -1.9472    1.0000 </r>
       <r>   -1.9398    1.0000 </r>
       <r>   -1.8941    1.0000 </r>
       <r>   -1.8116    1.0000 </r>
       <r>   -1.7875    1.0000 </r>
       <r>   -1.7522    1.0000 </r>
       <r>   -1.6730    1.0000 </r>
       <r>   -1.6465    1.0000 </r>
       <r>   -1.6071    1.0000 </r>
       <r>   -1.5900    1.0000 </r>
       <r>   -1.5677    1.0000 </r>
       <r>   -1.5365    1.0000 </r>
       <r>   -1.5276    1.0000 </r>
       <r>   -1.5172    1.0000 </r>
       <r>   -1.4555    1.0000 </r>
       <r>   -1.4260    1.0000 </r>
       <r>   -1.3905    1.0000 </r>
       <r>   -1.3794    1.0000 </r>
       <r>   -1.3693    1.0000 </r>
       <r>   -1.3534    1.0000 </r>
       <r>   -1.1947    1.0000 </r>
       <r>   -1.1758    1.0000 </r>
       <r>   -1.1712    1.0000 </r>
       <r>   -1.1446    1.0000 </r>
       <r>   -1.1300    1.0000 </r>
       <r>   -1.1098    1.0000 </r>
       <r>   -1.0730    1.0000 </r>
       <r>   -1.0267    1.0000 </r>
       <r>   -1.0012    1.0000 </r>
       <r>   -0.9830    1.0000 </r>
       <r>   -0.9741    1.0000 </r>
       <r>   -0.9332    1.0000 </r>
       <r>   -0.9077    1.0000 </r>
       <r>   -0.8998    1.0000 </r>
       <r>   -0.8948    1.0000 </r>
       <r>   -0.8431    1.0000 </r>
       <r>   -0.7820    1.0000 </r>
       <r>   -0.7694    1.0000 </r>
       <r>   -0.7460    1.0000 </r>
       <r>   -0.7070    1.0000 </r>
       <r>   -0.6631    1.0000 </r>
       <r>   -0.6271    1.0000 </r>
       <r>   -0.6205    1.0000 </r>
       <r>   -0.6115    1.0000 </r>
       <r>   -0.5869    1.0000 </r>
       <r>   -0.5709    1.0000 </r>
       <r>   -0.5365    1.0000 </r>
       <r>   -0.4803    1.0000 </r>
       <r>   -0.4619    1.0000 </r>
       <r>   -0.4388    1.0000 </r>
       <r>   -0.3957    1.0000 </r>
       <r>   -0.3860    1.0000 </r>
       <r>   -0.3775    1.0001 </r>
       <r>   -0.3460    1.0003 </r>
       <r>   -0.3428    1.0004 </r>
       <r>   -0.3388    1.0005 </r>
       <r>   -0.3353    1.0006 </r>
       <r>   -0.3233    1.0010 </r>
       <r>   -0.2740    1.0069 </r>
       <r>   -0.2656    1.0090 </r>
       <r>   -0.1391    0.9592 </r>
       <r>   -0.1183    0.8644 </r>
       <r>   -0.0909    0.6780 </r>
       <r>   -0.0764    0.5600 </r>
       <r>   -0.0630    0.4467 </r>
       <r>   -0.0530    0.3637 </r>
       <r>   -0.0230    0.1505 </r>
       <r>   -0.0069    0.0695 </r>
       <r>    0.0087    0.0151 </r>
       <r>    0.0188   -0.0080 </r>
       <r>    0.0885   -0.0241 </r>
       <r>    0.1151   -0.0128 </r>
       <r>    0.1354   -0.0068 </r>
       <r>    0.1619   -0.0026 </r>
       <r>    0.3001   -0.0000 </r>
       <r>    0.3077   -0.0000 </r>
       <r>    0.3152   -0.0000 </r>
       <r>    0.3556   -0.0000 </r>
       <r>    0.6803   -0.0000 </r>
       <r>    0.7678   -0.0000 </r>
       <r>    1.1985   -0.0000 </r>
       <r>    1.4729   -0.0000 </r>
       <r>    1.4866   -0.0000 </r>
       <r>    1.6122   -0.0000 </r>
       <r>    2.2998   -0.0000 </r>
       <r>    2.7548    0.0000 </r>
       <r>    2.9251    0.0000 </r>
       <r>    3.4630    0.0000 </r>
       <r>    3.6561    0.0000 </r>
       <r>    3.6636    0.0000 </r>
       <r>    3.7570    0.0000 </r>
       <r>    3.9562    0.0000 </r>
       <r>    4.3589    0.0000 </r>
       <r>    4.6151    0.0000 </r>
       <r>    4.6846    0.0000 </r>
       <r>    4.9635    0.0000 </r>
       <r>    4.9800    0.0000 </r>
       <r>    5.0067    0.0000 </r>
       <r>    5.1491    0.0000 </r>
       <r>    5.2328    0.0000 </r>
       <r>    5.4807    0.0000 </r>
       <r>    5.6401    0.0000 </r>
       <r>    5.7210    0.0000 </r>
       <r>    5.8682    0.0000 </r>
       <r>    5.9135    0.0000 </r>
       <r>    6.0442    0.0000 </r>
       <r>    6.1645    0.0000 </r>
       <r>    6.1920    0.0000 </r>
       <r>    6.3268    0.0000 </r>
       <r>    6.3635    0.0000 </r>
       <r>    6.5752    0.0000 </r>
       <r>    6.7171    0.0000 </r>
       <r>    6.7305    0.0000 </r>
       <r>    6.7815    0.0000 </r>
       <r>    6.8569    0.0000 </r>
       <r>    6.8959    0.0000 </r>
       <r>    7.0409    0.0000 </r>
       <r>    7.2224    0.0000 </r>
       <r>    7.4906    0.0000 </r>
       <r>    7.5473    0.0000 </r>
       <r>    7.5923    0.0000 </r>
      </set>
      <set comment="kpoint 4">
       <r>   -8.7365    1.0000 </r>
       <r>   -7.4980    1.0000 </r>
       <r>   -6.9697    1.0000 </r>
       <r>   -6.5962    1.0000 </r>
       <r>   -6.5582    1.0000 </r>
       <r>   -6.4794    1.0000 </r>
       <r>   -6.3473    1.0000 </r>
       <r>   -6.2671    1.0000 </r>
       <r>   -6.2302    1.0000 </r>
       <r>   -6.2130    1.0000 </r>
       <r>   -6.1050    1.0000 </r>
       <r>   -6.0004    1.0000 </r>
       <r>   -5.9031    1.0000 </r>
       <r>   -5.8442    1.0000 </r>
       <r>   -5.8350    1.0000 </r>
       <r>   -5.8218    1.0000 </r>
       <r>   -5.6716    1.0000 </r>
       <r>   -5.5240    1.0000 </r>
       <r>   -5.4145    1.0000 </r>
       <r>   -5.4083    1.0000 </r>
       <r>   -5.4004    1.0000 </r>
       <r>   -5.3629    1.0000 </r>
       <r>   -5.3243    1.0000 </r>
       <r>   -5.3021    1.0000 </r>
       <r>   -5.2682    1.0000 </r>
       <r>   -5.2396    1.0000 </r>
       <r>   -5.2243    1.0000 </r>
       <r>   -5.2047    1.0000 </r>
       <r>   -5.1588    1.0000 </r>
       <r>   -5.1158    1.0000 </r>
       <r>   -5.0951    1.0000 </r>
       <r>   -5.0275    1.0000 </r>
       <r>   -5.0118    1.0000 </r>
       <r>   -5.0046    1.0000 </r>
       <r>   -4.9976    1.0000 </r>
       <r>   -4.8648    1.0000 </r>
       <r>   -4.8050    1.0000 </r>
       <r>   -4.7868    1.0000 </r>
       <r>   -4.7699    1.0000 </r>
       <r>   -4.7568    1.0000 </r>
       <r>   -4.7239    1.0000 </r>
       <r>   -4.4981    1.0000 </r>
       <r>   -4.4870    1.0000 </r>
       <r>   -4.4564    1.0000 </r>
       <r>   -4.4153    1.0000 </r>
       <r>   -4.3991    1.0000 </r>
       <r>   -4.3851    1.0000 </r>
       <r>   -4.3211    1.0000 </r>
       <r>   -4.2099    1.0000 </r>
       <r>   -4.1838    1.0000 </r>
       <r>   -4.1314    1.0000 </r>
       <r>   -4.1085    1.0000 </r>
       <r>   -4.0834    1.0000 </r>
       <r>   -4.0498    1.0000 </r>
       <r>   -4.0218    1.0000 </r>
       <r>   -3.8260    1.0000 </r>
       <r>   -3.7356    1.0000 </r>
       <r>   -3.7288    1.0000 </r>
       <r>   -3.6723    1.0000 </r>
       <r>   -3.6505    1.0000 </r>
       <r>   -3.6320    1.0000 </r>
       <r>   -3.5816    1.0000 </r>
       <r>   -3.5652    1.0000 </r>
       <r>   -3.5366    1.0000 </r>
       <r>   -3.5267    1.0000 </r>
       <r>   -3.5209    1.0000 </r>
       <r>   -3.4922    1.0000 </r>
       <r>   -3.4448    1.0000 </r>
       <r>   -3.4103    1.0000 </r>
       <r>   -3.3850    1.0000 </r>
       <r>   -3.3603    1.0000 </r>
       <r>   -3.3418    1.0000 </r>
       <r>   -3.2725    1.0000 </r>
       <r>   -3.2635    1.0000 </r>
       <r>   -3.2420    1.0000 </r>
       <r>   -3.1817    1.0000 </r>
       <r>   -3.1712    1.0000 </r>
       <r>   -3.1544    1.0000 </r>
       <r>   -3.1242    1.0000 </r>
       <r>   -3.0884    1.0000 </r>
       <r>   -3.0697    1.0000 </r>
       <r>   -3.0541    1.0000 </r>
       <r>   -3.0298    1.0000 </r>
       <r>   -2.9908    1.0000 </r>
       <r>   -2.9643    1.0000 </r>
       <r>   -2.9540    1.0000 </r>
       <r>   -2.9351    1.0000 </r>
       <r>   -2.9293    1.0000 </r>
       <r>   -2.9076    1.0000 </r>
       <r>   -2.8893    1.0000 </r>
       <r>   -2.8645    1.0000 </r>
       <r>   -2.8172    1.0000 </r>
       <r>   -2.7980    1.0000 </r>
       <r>   -2.7822    1.0000 </r>
       <r>   -2.7742    1.0000 </r>
       <r>   -2.7517    1.0000 </r>
       <r>   -2.7273    1.0000 </r>
       <r>   -2.7108    1.0000 </r>
       <r>   -2.7032    1.0000 </r>
       <r>   -2.6841    1.0000 </r>
       <r>   -2.5995    1.0000 </r>
       <r>   -2.5527    1.0000 </r>
       <r>   -2.5353    1.0000 </r>
       <r>   -2.5182    1.0000 </r>
       <r>   -2.5110    1.0000 </r>
       <r>   -2.4984    1.0000 </r>
       <r>   -2.4925    1.0000 </r>
       <r>   -2.4765    1.0000 </r>
       <r>   -2.4379    1.0000 </r>
       <r>   -2.4277    1.0000 </r>
       <r>   -2.4222    1.0000 </r>
       <r>   -2.4045    1.0000 </r>
       <r>   -2.1802    1.0000 </r>
       <r>   -2.1275    1.0000 </r>
       <r>   -2.0642    1.0000 </r>
       <r>   -2.0216    1.0000 </r>
       <r>   -2.0007    1.0000 </r>
       <r>   -1.9890    1.0000 </r>
       <r>   -1.9711    1.0000 </r>
       <r>   -1.9473    1.0000 </r>
       <r>   -1.9393    1.0000 </r>
       <r>   -1.8954    1.0000 </r>
       <r>   -1.8105    1.0000 </r>
       <r>   -1.7846    1.0000 </r>
       <r>   -1.7495    1.0000 </r>
       <r>   -1.6720    1.0000 </r>
       <r>   -1.6448    1.0000 </r>
       <r>   -1.6083    1.0000 </r>
       <r>   -1.5910    1.0000 </r>
       <r>   -1.5645    1.0000 </r>
       <r>   -1.5359    1.0000 </r>
       <r>   -1.5245    1.0000 </r>
       <r>   -1.5164    1.0000 </r>
       <r>   -1.4525    1.0000 </r>
       <r>   -1.4264    1.0000 </r>
       <r>   -1.3904    1.0000 </r>
       <r>   -1.3812    1.0000 </r>
       <r>   -1.3685    1.0000 </r>
       <r>   -1.3532    1.0000 </r>
       <r>   -1.1935    1.0000 </r>
       <r>   -1.1748    1.0000 </r>
       <r>   -1.1709    1.0000 </r>
       <r>   -1.1455    1.0000 </r>
       <r>   -1.1316    1.0000 </r>
       <r>   -1.1096    1.0000 </r>
       <r>   -1.0765    1.0000 </r>
       <r>   -1.0274    1.0000 </r>
       <r>   -1.0027    1.0000 </r>
       <r>   -0.9837    1.0000 </r>
       <r>   -0.9746    1.0000 </r>
       <r>   -0.9364    1.0000 </r>
       <r>   -0.9085    1.0000 </r>
       <r>   -0.9016    1.0000 </r>
       <r>   -0.8933    1.0000 </r>
       <r>   -0.8418    1.0000 </r>
       <r>   -0.7828    1.0000 </r>
       <r>   -0.7707    1.0000 </r>
       <r>   -0.7475    1.0000 </r>
       <r>   -0.7045    1.0000 </r>
       <r>   -0.6615    1.0000 </r>
       <r>   -0.6279    1.0000 </r>
       <r>   -0.6183    1.0000 </r>
       <r>   -0.6110    1.0000 </r>
       <r>   -0.5861    1.0000 </r>
       <r>   -0.5655    1.0000 </r>
       <r>   -0.5358    1.0000 </r>
       <r>   -0.4804    1.0000 </r>
       <r>   -0.4621    1.0000 </r>
       <r>   -0.4367    1.0000 </r>
       <r>   -0.3967    1.0000 </r>
       <r>   -0.3863    1.0000 </r>
       <r>   -0.3754    1.0001 </r>
       <r>   -0.3487    1.0003 </r>
       <r>   -0.3428    1.0004 </r>
       <r>   -0.3385    1.0005 </r>
       <r>   -0.3333    1.0006 </r>
       <r>   -0.3257    1.0009 </r>
       <r>   -0.2705    1.0077 </r>
       <r>   -0.2616    1.0102 </r>
       <r>   -0.1351    0.9443 </r>
       <r>   -0.1172    0.8578 </r>
       <r>   -0.0938    0.7005 </r>
       <r>   -0.0784    0.5765 </r>
       <r>   -0.0670    0.4804 </r>
       <r>   -0.0539    0.3713 </r>
       <r>   -0.0278    0.1796 </r>
       <r>   -0.0072    0.0705 </r>
       <r>    0.0020    0.0357 </r>
       <r>    0.0152   -0.0007 </r>
       <r>    0.0899   -0.0234 </r>
       <r>    0.1154   -0.0127 </r>
       <r>    0.1354   -0.0068 </r>
       <r>    0.1622   -0.0025 </r>
       <r>    0.2985   -0.0000 </r>
       <r>    0.3089   -0.0000 </r>
       <r>    0.3116   -0.0000 </r>
       <r>    0.3614   -0.0000 </r>
       <r>    0.6757   -0.0000 </r>
       <r>    0.7618   -0.0000 </r>
       <r>    1.2003   -0.0000 </r>
       <r>    1.4732   -0.0000 </r>
       <r>    1.4890   -0.0000 </r>
       <r>    1.6144   -0.0000 </r>
       <r>    2.3022   -0.0000 </r>
       <r>    2.7563    0.0000 </r>
       <r>    2.9207    0.0000 </r>
       <r>    3.4613    0.0000 </r>
       <r>    3.6564    0.0000 </r>
       <r>    3.6624    0.0000 </r>
       <r>    3.7561    0.0000 </r>
       <r>    3.9562    0.0000 </r>
       <r>    4.3609    0.0000 </r>
       <r>    4.6161    0.0000 </r>
       <r>    4.6875    0.0000 </r>
       <r>    4.9662    0.0000 </r>
       <r>    4.9796    0.0000 </r>
       <r>    5.0050    0.0000 </r>
       <r>    5.1531    0.0000 </r>
       <r>    5.2328    0.0000 </r>
       <r>    5.4743    0.0000 </r>
       <r>    5.6389    0.0000 </r>
       <r>    5.7250    0.0000 </r>
       <r>    5.8662    0.0000 </r>
       <r>    5.9088    0.0000 </r>
       <r>    6.0448    0.0000 </r>
       <r>    6.1656    0.0000 </r>
       <r>    6.1948    0.0000 </r>
       <r>    6.3238    0.0000 </r>
       <r>    6.3576    0.0000 </r>
       <r>    6.5734    0.0000 </r>
       <r>    6.7160    0.0000 </r>
       <r>    6.7318    0.0000 </r>
       <r>    6.7831    0.0000 </r>
       <r>    6.8567    0.0000 </r>
       <r>    6.8973    0.0000 </r>
       <r>    7.0415    0.0000 </r>
       <r>    7.2221    0.0000 </r>
       <r>    7.4953    0.0000 </r>
       <r>    7.5523    0.0000 </r>
       <r>    7.5918    0.0000 </r>
      </set>
      <set comment="kpoint 5">
       <r>   -8.3091    1.0000 </r>
       <r>   -7.6685    1.0000 </r>
       <r>   -7.0945    1.0000 </r>
       <r>   -6.6368    1.0000 </r>
       <r>   -6.5849    1.0000 </r>
       <r>   -6.5214    1.0000 </r>
       <r>   -6.2588    1.0000 </r>
       <r>   -6.1538    1.0000 </r>
       <r>   -6.0651    1.0000 </r>
       <r>   -5.9650    1.0000 </r>
       <r>   -5.8890    1.0000 </r>
       <r>   -5.8740    1.0000 </r>
       <r>   -5.8430    1.0000 </r>
       <r>   -5.7062    1.0000 </r>
       <r>   -5.6650    1.0000 </r>
       <r>   -5.6566    1.0000 </r>
       <r>   -5.6437    1.0000 </r>
       <r>   -5.5812    1.0000 </r>
       <r>   -5.5100    1.0000 </r>
       <r>   -5.4843    1.0000 </r>
       <r>   -5.4819    1.0000 </r>
       <r>   -5.4310    1.0000 </r>
       <r>   -5.4270    1.0000 </r>
       <r>   -5.4056    1.0000 </r>
       <r>   -5.3394    1.0000 </r>
       <r>   -5.3233    1.0000 </r>
       <r>   -5.3083    1.0000 </r>
       <r>   -5.2540    1.0000 </r>
       <r>   -5.0521    1.0000 </r>
       <r>   -5.0462    1.0000 </r>
       <r>   -5.0390    1.0000 </r>
       <r>   -5.0315    1.0000 </r>
       <r>   -5.0230    1.0000 </r>
       <r>   -4.9510    1.0000 </r>
       <r>   -4.7952    1.0000 </r>
       <r>   -4.7902    1.0000 </r>
       <r>   -4.7796    1.0000 </r>
       <r>   -4.7585    1.0000 </r>
       <r>   -4.7341    1.0000 </r>
       <r>   -4.6700    1.0000 </r>
       <r>   -4.5391    1.0000 </r>
       <r>   -4.4765    1.0000 </r>
       <r>   -4.4609    1.0000 </r>
       <r>   -4.4543    1.0000 </r>
       <r>   -4.4407    1.0000 </r>
       <r>   -4.3981    1.0000 </r>
       <r>   -4.3609    1.0000 </r>
       <r>   -4.3288    1.0000 </r>
       <r>   -4.3035    1.0000 </r>
       <r>   -4.2867    1.0000 </r>
       <r>   -4.2578    1.0000 </r>
       <r>   -4.2204    1.0000 </r>
       <r>   -4.0881    1.0000 </r>
       <r>   -4.0848    1.0000 </r>
       <r>   -4.0679    1.0000 </r>
       <r>   -4.0505    1.0000 </r>
       <r>   -3.9431    1.0000 </r>
       <r>   -3.9211    1.0000 </r>
       <r>   -3.8730    1.0000 </r>
       <r>   -3.8678    1.0000 </r>
       <r>   -3.8389    1.0000 </r>
       <r>   -3.7167    1.0000 </r>
       <r>   -3.6544    1.0000 </r>
       <r>   -3.6474    1.0000 </r>
       <r>   -3.6422    1.0000 </r>
       <r>   -3.6040    1.0000 </r>
       <r>   -3.5456    1.0000 </r>
       <r>   -3.5419    1.0000 </r>
       <r>   -3.4534    1.0000 </r>
       <r>   -3.4247    1.0000 </r>
       <r>   -3.4214    1.0000 </r>
       <r>   -3.3755    1.0000 </r>
       <r>   -3.3430    1.0000 </r>
       <r>   -3.3065    1.0000 </r>
       <r>   -3.2849    1.0000 </r>
       <r>   -3.2716    1.0000 </r>
       <r>   -3.2504    1.0000 </r>
       <r>   -3.2416    1.0000 </r>
       <r>   -3.1877    1.0000 </r>
       <r>   -3.1655    1.0000 </r>
       <r>   -3.1628    1.0000 </r>
       <r>   -3.1500    1.0000 </r>
       <r>   -3.1301    1.0000 </r>
       <r>   -3.1230    1.0000 </r>
       <r>   -3.1018    1.0000 </r>
       <r>   -3.0892    1.0000 </r>
       <r>   -3.0752    1.0000 </r>
       <r>   -2.9918    1.0000 </r>
       <r>   -2.9856    1.0000 </r>
       <r>   -2.9709    1.0000 </r>
       <r>   -2.9592    1.0000 </r>
       <r>   -2.9539    1.0000 </r>
       <r>   -2.9440    1.0000 </r>
       <r>   -2.8474    1.0000 </r>
       <r>   -2.7921    1.0000 </r>
       <r>   -2.7755    1.0000 </r>
       <r>   -2.7368    1.0000 </r>
       <r>   -2.7325    1.0000 </r>
       <r>   -2.7124    1.0000 </r>
       <r>   -2.7003    1.0000 </r>
       <r>   -2.6501    1.0000 </r>
       <r>   -2.6358    1.0000 </r>
       <r>   -2.5999    1.0000 </r>
       <r>   -2.5399    1.0000 </r>
       <r>   -2.4973    1.0000 </r>
       <r>   -2.4870    1.0000 </r>
       <r>   -2.4442    1.0000 </r>
       <r>   -2.4237    1.0000 </r>
       <r>   -2.3946    1.0000 </r>
       <r>   -2.2713    1.0000 </r>
       <r>   -2.2631    1.0000 </r>
       <r>   -2.1975    1.0000 </r>
       <r>   -2.1715    1.0000 </r>
       <r>   -2.1149    1.0000 </r>
       <r>   -2.1026    1.0000 </r>
       <r>   -2.0773    1.0000 </r>
       <r>   -2.0622    1.0000 </r>
       <r>   -2.0494    1.0000 </r>
       <r>   -2.0443    1.0000 </r>
       <r>   -2.0249    1.0000 </r>
       <r>   -1.9829    1.0000 </r>
       <r>   -1.9398    1.0000 </r>
       <r>   -1.9273    1.0000 </r>
       <r>   -1.9229    1.0000 </r>
       <r>   -1.9087    1.0000 </r>
       <r>   -1.9038    1.0000 </r>
       <r>   -1.8636    1.0000 </r>
       <r>   -1.8448    1.0000 </r>
       <r>   -1.8258    1.0000 </r>
       <r>   -1.7110    1.0000 </r>
       <r>   -1.6969    1.0000 </r>
       <r>   -1.6805    1.0000 </r>
       <r>   -1.6525    1.0000 </r>
       <r>   -1.6226    1.0000 </r>
       <r>   -1.5064    1.0000 </r>
       <r>   -1.4862    1.0000 </r>
       <r>   -1.4389    1.0000 </r>
       <r>   -1.3835    1.0000 </r>
       <r>   -1.3658    1.0000 </r>
       <r>   -1.3116    1.0000 </r>
       <r>   -1.2465    1.0000 </r>
       <r>   -1.2069    1.0000 </r>
       <r>   -1.1676    1.0000 </r>
       <r>   -1.1424    1.0000 </r>
       <r>   -1.1418    1.0000 </r>
       <r>   -1.1212    1.0000 </r>
       <r>   -1.1134    1.0000 </r>
       <r>   -1.0553    1.0000 </r>
       <r>   -1.0466    1.0000 </r>
       <r>   -1.0181    1.0000 </r>
       <r>   -0.9828    1.0000 </r>
       <r>   -0.9522    1.0000 </r>
       <r>   -0.8999    1.0000 </r>
       <r>   -0.8693    1.0000 </r>
       <r>   -0.8457    1.0000 </r>
       <r>   -0.8410    1.0000 </r>
       <r>   -0.8288    1.0000 </r>
       <r>   -0.7564    1.0000 </r>
       <r>   -0.7374    1.0000 </r>
       <r>   -0.6435    1.0000 </r>
       <r>   -0.5873    1.0000 </r>
       <r>   -0.5857    1.0000 </r>
       <r>   -0.5525    1.0000 </r>
       <r>   -0.5372    1.0000 </r>
       <r>   -0.5194    1.0000 </r>
       <r>   -0.4560    1.0000 </r>
       <r>   -0.4372    1.0000 </r>
       <r>   -0.4029    1.0000 </r>
       <r>   -0.3400    1.0004 </r>
       <r>   -0.3352    1.0006 </r>
       <r>   -0.3264    1.0008 </r>
       <r>   -0.2788    1.0058 </r>
       <r>   -0.2486    1.0147 </r>
       <r>   -0.2381    1.0191 </r>
       <r>   -0.2180    1.0283 </r>
       <r>   -0.1270    0.9092 </r>
       <r>   -0.1130    0.8335 </r>
[...]
       <r>    6.8416    0.0000 </r>
       <r>    6.8667    0.0000 </r>
       <r>    7.0346    0.0000 </r>
       <r>    7.2327    0.0000 </r>
       <r>    7.3099    0.0000 </r>
      </set>
     </set>
    </set>
   </array>
  </eigenvalues>
  <separator name="orbital magnetization" >
   <v name="MAGDIPOLOUT">      0.00000000      0.00000000      0.00000000</v>
  </separator>
  <dos>
   <i name="efermi">     -0.06934454 </i>
   <total>
    <array>
     <dimension dim="1">gridpoints</dimension>
     <dimension dim="2">spin</dimension>
     <field>energy</field>
     <field>total</field>
     <field>integrated</field>
     <set>
      <set comment="spin 1">
       <r>    -9.8846     0.0000     0.0000 </r>
       <r>    -9.8224     0.0000     0.0000 </r>
       <r>    -9.7601     0.0000     0.0000 </r>
       <r>    -9.6979    -0.0000    -0.0000 </r>
       <r>    -9.6356    -0.0000    -0.0000 </r>
       <r>    -9.5734    -0.0000    -0.0000 </r>
       <r>    -9.5111    -0.0000    -0.0000 </r>
       <r>    -9.4489    -0.0000    -0.0000 </r>
       <r>    -9.3866    -0.0000    -0.0000 </r>
       <r>    -9.3243    -0.0000    -0.0000 </r>
       <r>    -9.2621    -0.0000    -0.0000 </r>
       <r>    -9.1998    -0.0000    -0.0000 </r>
       <r>    -9.1376    -0.0013    -0.0001 </r>
       <r>    -9.0753    -0.0125    -0.0009 </r>
       <r>    -9.0131    -0.0336    -0.0030 </r>
       <r>    -8.9508     0.0794     0.0020 </r>
       <r>    -8.8886     0.3622     0.0245 </r>
       <r>    -8.8263     0.6917     0.0676 </r>
       <r>    -8.7640     2.3696     0.2151 </r>
       <r>    -8.7018     3.8093     0.4523 </r>
       <r>    -8.6395     1.8171     0.5654 </r>
       <r>    -8.5773    -0.1786     0.5543 </r>
       <r>    -8.5150     0.4732     0.5837 </r>
       <r>    -8.4528     2.9537     0.7676 </r>
       <r>    -8.3905     3.7520     1.0012 </r>
       <r>    -8.3283     3.5864     1.2245 </r>
       <r>    -8.2660     3.5855     1.4477 </r>
       <r>    -8.2038     1.4059     1.5352 </r>
       <r>    -8.1415    -0.1356     1.5268 </r>
       <r>    -8.0792    -0.3782     1.5032 </r>
       <r>    -8.0170    -0.1967     1.4910 </r>
       <r>    -7.9547     2.9241     1.6730 </r>
       <r>    -7.8925     7.4082     2.1342 </r>
       <r>    -7.8302     5.1547     2.4551 </r>
       <r>    -7.7680     0.6677     2.4967 </r>
       <r>    -7.7057     1.6367     2.5986 </r>
       <r>    -7.6435     4.1003     2.8539 </r>
       <r>    -7.5812     2.9820     3.0395 </r>
       <r>    -7.5189     2.7094     3.2082 </r>
       <r>    -7.4567     3.3790     3.4185 </r>
       <r>    -7.3944     1.3125     3.5002 </r>
       <r>    -7.3322     1.9146     3.6194 </r>
       <r>    -7.2699     7.4896     4.0857 </r>
       <r>    -7.2077    11.7092     4.8147 </r>
       <r>    -7.1454     9.7533     5.4219 </r>
       <r>    -7.0832     5.5069     5.7647 </r>
       <r>    -7.0209     3.4838     5.9816 </r>
       <r>    -6.9586     3.6124     6.2065 </r>
       <r>    -6.8964     2.6693     6.3727 </r>
       <r>    -6.8341     1.8920     6.4904 </r>
       <r>    -6.7719     3.1447     6.6862 </r>
       <r>    -6.7096     4.1851     6.9468 </r>
       <r>    -6.6474     9.2311     7.5214 </r>
       <r>    -6.5851    16.3580     8.5398 </r>
       <r>    -6.5229    17.1340     9.6065 </r>
       <r>    -6.4606    12.8656    10.4074 </r>
       <r>    -6.3984     9.3871    10.9918 </r>
       <r>    -6.3361     9.1300    11.5602 </r>
       <r>    -6.2738    13.3036    12.3884 </r>
       <r>    -6.2116    20.0486    13.6366 </r>
       <r>    -6.1493    28.2819    15.3973 </r>
       <r>    -6.0871    36.0340    17.6406 </r>
       <r>    -6.0248    33.5856    19.7314 </r>
       <r>    -5.9626    30.4108    21.6247 </r>
       <r>    -5.9003    33.8033    23.7291 </r>
       <r>    -5.8381    35.3507    25.9299 </r>
       <r>    -5.7758    27.4162    27.6367 </r>
       <r>    -5.7135    23.7938    29.1179 </r>
       <r>    -5.6513    33.8568    31.2257 </r>
       <r>    -5.5890    42.5023    33.8717 </r>
       <r>    -5.5268    44.5934    36.6479 </r>
       <r>    -5.4645    49.1138    39.7055 </r>
       <r>    -5.4023    58.7661    43.3639 </r>
       <r>    -5.3400    62.4499    47.2518 </r>
       <r>    -5.2778    58.0480    50.8656 </r>
       <r>    -5.2155    50.7194    54.0231 </r>
       <r>    -5.1532    45.3473    56.8462 </r>
       <r>    -5.0910    46.4432    59.7375 </r>
       <r>    -5.0287    65.3696    63.8071 </r>
       <r>    -4.9665    67.8945    68.0339 </r>
       <r>    -4.9042    39.0562    70.4654 </r>
       <r>    -4.8420    26.1567    72.0938 </r>
       <r>    -4.7797    40.4345    74.6110 </r>
       <r>    -4.7175    42.2425    77.2408 </r>
       <r>    -4.6552    23.0317    78.6747 </r>
       <r>    -4.5930    18.8780    79.8499 </r>
       <r>    -4.5307    37.6808    82.1957 </r>
       <r>    -4.4684    58.4908    85.8371 </r>
       <r>    -4.4062    63.7055    89.8031 </r>
       <r>    -4.3439    53.5950    93.1397 </r>
       <r>    -4.2817    46.0010    96.0035 </r>
       <r>    -4.2194    45.4140    98.8307 </r>
       <r>    -4.1572    45.9512   101.6914 </r>
       <r>    -4.0949    55.6256   105.1544 </r>
       <r>    -4.0327    58.8041   108.8153 </r>
       <r>    -3.9704    46.7052   111.7229 </r>
       <r>    -3.9081    40.8921   114.2686 </r>
       <r>    -3.8459    40.0874   116.7643 </r>
       <r>    -3.7836    36.3267   119.0258 </r>
       <r>    -3.7214    40.5287   121.5489 </r>
       <r>    -3.6591    58.0418   125.1623 </r>
       <r>    -3.5969    64.7678   129.1945 </r>
       <r>    -3.5346    58.6356   132.8448 </r>
       <r>    -3.4724    57.6330   136.4328 </r>
       <r>    -3.4101    67.9756   140.6646 </r>
       <r>    -3.3478    77.6270   145.4973 </r>
       <r>    -3.2856    76.0615   150.2325 </r>
       <r>    -3.2233    68.0457   154.4687 </r>
       <r>    -3.1611    71.0536   158.8922 </r>
       <r>    -3.0988    85.6728   164.2257 </r>
       <r>    -3.0366    82.8239   169.3820 </r>
       <r>    -2.9743    75.5483   174.0852 </r>
       <r>    -2.9121    77.5383   178.9124 </r>
       <r>    -2.8498    75.5392   183.6151 </r>
       <r>    -2.7876    86.0416   188.9716 </r>
       <r>    -2.7253   104.0862   195.4515 </r>
       <r>    -2.6630   102.7038   201.8454 </r>
       <r>    -2.6008    77.2955   206.6574 </r>
       <r>    -2.5385    61.4055   210.4802 </r>
       <r>    -2.4763    65.7055   214.5707 </r>
       <r>    -2.4140    59.8038   218.2938 </r>
       <r>    -2.3518    41.8264   220.8977 </r>
       <r>    -2.2895    29.0873   222.7086 </r>
       <r>    -2.2273    28.7012   224.4954 </r>
       <r>    -2.1650    33.9854   226.6111 </r>
       <r>    -2.1027    46.5798   229.5110 </r>
       <r>    -2.0405    68.1871   233.7560 </r>
       <r>    -1.9782    88.0734   239.2390 </r>
       <r>    -1.9160    89.6164   244.8181 </r>
       <r>    -1.8537    75.0828   249.4924 </r>
       <r>    -1.7915    55.9348   252.9746 </r>
       <r>    -1.7292    45.5869   255.8126 </r>
       <r>    -1.6670    44.1240   258.5596 </r>
       <r>    -1.6047    46.1055   261.4299 </r>
       <r>    -1.5425    55.0044   264.8542 </r>
       <r>    -1.4802    61.1720   268.6625 </r>
       <r>    -1.4179    59.8292   272.3871 </r>
       <r>    -1.3557    59.7259   276.1054 </r>
       <r>    -1.2934    56.0585   279.5953 </r>
       <r>    -1.2312    49.7020   282.6895 </r>
       <r>    -1.1689    58.9855   286.3617 </r>
       <r>    -1.1067    77.3414   291.1766 </r>
       <r>    -1.0444    85.4042   296.4934 </r>
       <r>    -0.9822    81.8273   301.5876 </r>
       <r>    -0.9199    65.1939   305.6463 </r>
       <r>    -0.8576    56.2092   309.1456 </r>
       <r>    -0.7954    54.9032   312.5636 </r>
       <r>    -0.7331    45.9817   315.4262 </r>
       <r>    -0.6709    43.7114   318.1474 </r>
       <r>    -0.6086    58.3760   321.7816 </r>
       <r>    -0.5464    65.2659   325.8448 </r>
       <r>    -0.4841    59.7404   329.5639 </r>
       <r>    -0.4219    61.5423   333.3953 </r>
       <r>    -0.3596    73.6639   337.9812 </r>
       <r>    -0.2973    90.9997   343.6464 </r>
       <r>    -0.2351    87.2055   349.0754 </r>
       <r>    -0.1728    61.9997   352.9352 </r>
       <r>    -0.1106    67.3421   357.1276 </r>
       <r>    -0.0483    95.7111   363.0861 </r>
       <r>     0.0139    78.6461   367.9822 </r>
       <r>     0.0762    39.2328   370.4247 </r>
       <r>     0.1384    42.2539   373.0552 </r>
       <r>     0.2007    57.9875   376.6652 </r>
       <r>     0.2629    47.3357   379.6121 </r>
       <r>     0.3252    39.0905   382.0457 </r>
       <r>     0.3875    32.6409   384.0778 </r>
       <r>     0.4497    19.6014   385.2981 </r>
       <r>     0.5120     9.0715   385.8628 </r>
       <r>     0.5742     4.2839   386.1295 </r>
       <r>     0.6365     4.2644   386.3950 </r>
       <r>     0.6987     7.7230   386.8758 </r>
       <r>     0.7610    12.6867   387.6656 </r>
       <r>     0.8232    12.4920   388.4433 </r>
       <r>     0.8855     8.4610   388.9700 </r>
       <r>     0.9478    10.1693   389.6031 </r>
       <r>     1.0100    12.0618   390.3540 </r>
       <r>     1.0723     7.0075   390.7903 </r>
       <r>     1.1345     4.3953   391.0639 </r>
       <r>     1.1968     8.1638   391.5722 </r>
       <r>     1.2590    11.6852   392.2996 </r>
       <r>     1.3213    11.4482   393.0123 </r>
       <r>     1.3835    10.0139   393.6357 </r>
       <r>     1.4458     9.8376   394.2482 </r>
       <r>     1.5081    21.2491   395.5711 </r>
       <r>     1.5703    28.2337   397.3287 </r>
       <r>     1.6326    21.6864   398.6788 </r>
       <r>     1.6948    17.2271   399.7513 </r>
       <r>     1.7571    12.3636   400.5210 </r>
       <r>     1.8193     4.0740   400.7746 </r>
       <r>     1.8816     3.2271   400.9755 </r>
       <r>     1.9438     6.9011   401.4052 </r>
       <r>     2.0061     6.7541   401.8256 </r>
       <r>     2.0683     4.1352   402.0831 </r>
       <r>     2.1306     3.0335   402.2719 </r>
       <r>     2.1929     6.6960   402.6888 </r>
       <r>     2.2551    11.0278   403.3753 </r>
       <r>     2.3174    12.2191   404.1360 </r>
       <r>     2.3796    13.3445   404.9668 </r>
       <r>     2.4419    19.3885   406.1738 </r>
       <r>     2.5041    21.8288   407.5328 </r>
       <r>     2.5664    12.7061   408.3238 </r>
       <r>     2.6286     6.5464   408.7313 </r>
       <r>     2.6909     7.6105   409.2051 </r>
       <r>     2.7532    12.9944   410.0141 </r>
       <r>     2.8154    17.3675   411.0953 </r>
       <r>     2.8777    15.0502   412.0323 </r>
       <r>     2.9399    11.7597   412.7644 </r>
       <r>     3.0022     8.8980   413.3183 </r>
       <r>     3.0644    11.5943   414.0401 </r>
       <r>     3.1267    16.1729   415.0470 </r>
       <r>     3.1889    12.2876   415.8120 </r>
       <r>     3.2512     8.4975   416.3410 </r>
       <r>     3.3135     8.2787   416.8564 </r>
       <r>     3.3757     7.0807   417.2972 </r>
       <r>     3.4380     5.9155   417.6654 </r>
       <r>     3.5002     7.0250   418.1028 </r>
       <r>     3.5625     8.1886   418.6126 </r>
       <r>     3.6247    12.2979   419.3782 </r>
       <r>     3.6870    20.0764   420.6280 </r>
       <r>     3.7492    20.8609   421.9267 </r>
       <r>     3.8115    13.1440   422.7450 </r>
       <r>     3.8737     5.7636   423.1038 </r>
       <r>     3.9360     4.9936   423.4147 </r>
       <r>     3.9983     7.9097   423.9071 </r>
       <r>     4.0605     9.5953   424.5045 </r>
       <r>     4.1228     7.9590   425.0000 </r>
       <r>     4.1850     3.3416   425.2080 </r>
       <r>     4.2473     1.7658   425.3179 </r>
       <r>     4.3095     5.3171   425.6489 </r>
       <r>     4.3718    15.3110   426.6021 </r>
       <r>     4.4340    26.3529   428.2427 </r>
       <r>     4.4963    22.4099   429.6379 </r>
       <r>     4.5586    10.3299   430.2810 </r>
       <r>     4.6208     7.2889   430.7347 </r>
       <r>     4.6831     9.6290   431.3342 </r>
       <r>     4.7453    11.7225   432.0640 </r>
       <r>     4.8076    10.7110   432.7308 </r>
       <r>     4.8698     7.4588   433.1951 </r>
       <r>     4.9321     8.1034   433.6996 </r>
       <r>     4.9943    14.0479   434.5742 </r>
       <r>     5.0566    12.1972   435.3335 </r>
       <r>     5.1189     7.7499   435.8160 </r>
       <r>     5.1811    10.9371   436.4969 </r>
       <r>     5.2434    13.2207   437.3199 </r>
       <r>     5.3056    11.7719   438.0528 </r>
       <r>     5.3679     8.0789   438.5557 </r>
       <r>     5.4301     7.5006   439.0227 </r>
       <r>     5.4924    15.6784   439.9988 </r>
       <r>     5.5546    22.0647   441.3724 </r>
       <r>     5.6169    20.9539   442.6769 </r>
       <r>     5.6791    22.0872   444.0519 </r>
       <r>     5.7414    25.6478   445.6486 </r>
       <r>     5.8037    21.4207   446.9822 </r>
       <r>     5.8659    14.7532   447.9006 </r>
       <r>     5.9282    17.9316   449.0170 </r>
       <r>     5.9904    26.9570   450.6952 </r>
       <r>     6.0527    31.3843   452.6490 </r>
       <r>     6.1149    24.5823   454.1794 </r>
       <r>     6.1772    16.5283   455.2084 </r>
       <r>     6.2394    16.4235   456.2308 </r>
       <r>     6.3017    21.1011   457.5445 </r>
       <r>     6.3640    29.6216   459.3886 </r>
       <r>     6.4262    25.1751   460.9559 </r>
       <r>     6.4885    13.5464   461.7992 </r>
       <r>     6.5507    17.4268   462.8841 </r>
       <r>     6.6130    27.2921   464.5832 </r>
       <r>     6.6752    28.2213   466.3401 </r>
       <r>     6.7375    26.0951   467.9647 </r>
       <r>     6.7997    22.1342   469.3426 </r>
       <r>     6.8620    22.1718   470.7229 </r>
       <r>     6.9243    20.1173   471.9753 </r>
       <r>     6.9865    11.1591   472.6701 </r>
       <r>     7.0488    11.6385   473.3946 </r>
       <r>     7.1110    19.2522   474.5932 </r>
       <r>     7.1733    21.3496   475.9223 </r>
       <r>     7.2355    20.0935   477.1732 </r>
       <r>     7.2978    14.6315   478.0841 </r>
       <r>     7.3600     5.9216   478.4528 </r>
       <r>     7.4223     0.9216   478.5101 </r>
       <r>     7.4845     3.2064   478.7097 </r>
       <r>     7.5468     7.9748   479.2062 </r>
       <r>     7.6091     7.9865   479.7034 </r>
       <r>     7.6713     3.5438   479.9240 </r>
       <r>     7.7336     0.4045   479.9492 </r>
       <r>     7.7958     0.2960   479.9676 </r>
       <r>     7.8581     0.4570   479.9961 </r>
       <r>     7.9203     0.1080   480.0028 </r>
       <r>     7.9826    -0.0314   480.0009 </r>
       <r>     8.0448    -0.0124   480.0001 </r>
       <r>     8.1071    -0.0013   480.0000 </r>
       <r>     8.1694    -0.0000   480.0000 </r>
       <r>     8.2316    -0.0000   480.0000 </r>
       <r>     8.2939    -0.0000   480.0000 </r>
       <r>     8.3561    -0.0000   480.0000 </r>
       <r>     8.4184    -0.0000   480.0000 </r>
       <r>     8.4806     0.0000   480.0000 </r>
       <r>     8.5429     0.0000   480.0000 </r>
       <r>     8.6051     0.0000   480.0000 </r>
       <r>     8.6674     0.0000   480.0000 </r>
       <r>     8.7297     0.0000   480.0000 </r>
       <r>     8.7919     0.0000   480.0000 </r>
      </set>
     </set>
    </array>
   </total>
  </dos>
 </calculation>
 <structure name="finalpos" >
  <crystal>
   <varray name="basis" >
    <v>       8.46831000       0.00000000       0.00000000 </v>
    <v>       4.23415500       7.33377159       0.00000000 </v>
    <v>       0.00000000       0.00000000      24.96566199 </v>
   </varray>
   <i name="volume">   1550.48373159 </i>
   <varray name="rec_basis" >
    <v>       0.11808732      -0.06817774       0.00000000 </v>
    <v>       0.00000000       0.13635549       0.00000000 </v>
    <v>       0.00000000       0.00000000       0.04005502 </v>
   </varray>
  </crystal>
  <varray name="positions" >
   <v>       0.00000000       0.00000000       0.34046764 </v>
   <v>       0.33400137       0.00000000       0.34046764 </v>
   <v>       0.66800274       0.00000000       0.34046764 </v>
   <v>       0.00000000       0.33400137       0.34046764 </v>
   <v>       0.33400137       0.33400137       0.34046764 </v>
   <v>       0.66800274       0.33400137       0.34046764 </v>
   <v>       0.00000000       0.66800274       0.34046764 </v>
   <v>       0.33400137       0.66800274       0.34046764 </v>
   <v>       0.66800274       0.66800274       0.34046764 </v>
   <v>       0.11133379       0.11133379       0.43297074 </v>
   <v>       0.44533516       0.11133379       0.43297074 </v>
   <v>       0.77933653       0.11133379       0.43297074 </v>
   <v>       0.11133379       0.44533516       0.43297074 </v>
   <v>       0.44533516       0.44533516       0.43297074 </v>
   <v>       0.77933653       0.44533516       0.43297074 </v>
   <v>       0.11133379       0.77933653       0.43297074 </v>
   <v>       0.44533516       0.77933653       0.43297074 </v>
   <v>       0.77933653       0.77933653       0.43297074 </v>
   <v>       0.89247616       0.22447354       0.52573270 </v>
   <v>       0.22534005       0.22266693       0.52501135 </v>
   <v>       0.55876041       0.22298813       0.52433243 </v>
   <v>       0.89244649       0.55418659       0.52559657 </v>
   <v>       0.22510261       0.55597971       0.52441986 </v>
   <v>       0.55852346       0.55635570       0.52445228 </v>
   <v>       0.89215999       0.88958126       0.52432270 </v>
   <v>       0.22522074       0.88976110       0.52457403 </v>
   <v>       0.55869511       0.88942303       0.52441586 </v>
   <v>       0.00442886       0.99929988       0.61762408 </v>
   <v>       0.34125059       0.99697565       0.61814094 </v>
   <v>       0.67206452       0.99988427       0.61772651 </v>
   <v>       0.00864688       0.33138353       0.62179002 </v>
   <v>       0.34127584       0.33360454       0.61807620 </v>
   <v>       0.67155516       0.33326242       0.61780818 </v>
   <v>       0.00445133       0.66788109       0.61750139 </v>
   <v>       0.33866461       0.66658707       0.61749590 </v>
   <v>       0.67161429       0.66728057       0.61781879 </v>
   <v>       0.12227761       0.27721782       0.67525441 </v>
  </varray>
  <varray name="selective"  type="logical" >
   <v type="logical" >  F  F  F </v>
   <v type="logical" >  F  F  F </v>
   <v type="logical" >  F  F  F </v>
   <v type="logical" >  F  F  F </v>
   <v type="logical" >  F  F  F </v>
   <v type="logical" >  F  F  F </v>
   <v type="logical" >  F  F  F </v>
   <v type="logical" >  F  F  F </v>
   <v type="logical" >  F  F  F </v>
   <v type="logical" >  F  F  F </v>
   <v type="logical" >  F  F  F </v>
   <v type="logical" >  F  F  F </v>
   <v type="logical" >  F  F  F </v>
   <v type="logical" >  F  F  F </v>
   <v type="logical" >  F  F  F </v>
   <v type="logical" >  F  F  F </v>
   <v type="logical" >  F  F  F </v>
   <v type="logical" >  F  F  F </v>
   <v type="logical" >  T  T  T </v>
   <v type="logical" >  T  T  T </v>
   <v type="logical" >  T  T  T </v>
   <v type="logical" >  T  T  T </v>
   <v type="logical" >  T  T  T </v>
   <v type="logical" >  T  T  T </v>
   <v type="logical" >  T  T  T </v>
   <v type="logical" >  T  T  T </v>
   <v type="logical" >  T  T  T </v>
   <v type="logical" >  T  T  T </v>
   <v type="logical" >  T  T  T </v>
   <v type="logical" >  T  T  T </v>
   <v type="logical" >  T  T  T </v>
   <v type="logical" >  T  T  T </v>
   <v type="logical" >  T  T  T </v>
   <v type="logical" >  T  T  T </v>
   <v type="logical" >  T  T  T </v>
   <v type="logical" >  T  T  T </v>
   <v type="logical" >  T  T  T </v>
  </varray>
  <nose>
   <v>      -3.00000000       0.00000000       0.00010000       0.00010000 </v>
  </nose>
 </structure>
</modeling>
