unknown system                          
           1
     8.468310    0.000000    0.000000
     4.234155    7.333772    0.000000
     0.000000    0.000000   24.965662
   Pt   H 
    36     1
Direct configuration=     1
   0.00000000  0.00000000  0.34046764
   0.33400137  0.00000000  0.34046764
   0.66800274  0.00000000  0.34046764
   0.00000000  0.33400137  0.34046764
   0.33400137  0.33400137  0.34046764
   0.66800274  0.33400137  0.34046764
   0.00000000  0.66800274  0.34046764
   0.33400137  0.66800274  0.34046764
   0.66800274  0.66800274  0.34046764
   0.11133379  0.11133379  0.43297074
   0.44533516  0.11133379  0.43297074
   0.77933653  0.11133379  0.43297074
   0.11133379  0.44533516  0.43297074
   0.44533516  0.44533516  0.43297074
   0.77933653  0.44533516  0.43297074
   0.11133379  0.77933653  0.43297074
   0.44533516  0.77933653  0.43297074
   0.77933653  0.77933653  0.43297074
   0.89247616  0.22447354  0.52573270
   0.22534005  0.22266693  0.52501135
   0.55876041  0.22298813  0.52433243
   0.89244649  0.55418659  0.52559657
   0.22510261  0.55597971  0.52441986
   0.55852346  0.55635570  0.52445228
   0.89215999  0.88958126  0.52432270
   0.22522074  0.88976110  0.52457403
   0.55869511  0.88942303  0.52441586
   0.00442886  0.99929988  0.61762408
   0.34125059  0.99697565  0.61814094
   0.67206452  0.99988427  0.61772651
   0.00864688  0.33138353  0.62179002
   0.34127584  0.33360454  0.61807620
   0.67155516  0.33326242  0.61780818
   0.00445133  0.66788109  0.61750139
   0.33866461  0.66658707  0.61749590
   0.67161429  0.66728057  0.61781879
   0.12227761  0.27721782  0.67525441
