
     Program PWSCF v.7.1 starts on  9Dec2025 at 13:35:19 
        Git branch: heads/qe-7.1
        Last git commit: 48ba0178f8fede6d020eb786884699a9f063f55d-dirty
        Last git commit date: Fri Jan 27 14:22:33 2023 +0000
        Last git commit subject: Merge branch 'fix_hubbard' into 'develop'

     This program is part of the open-source Quantum ESPRESSO suite
     for quantum simulation of materials; please cite
         "P. Giannozzi et al., J. Phys.:Condens. Matter 21 395502 (2009);
         "P. Giannozzi et al., J. Phys.:Condens. Matter 29 465901 (2017);
         "P. Giannozzi et al., J. Chem. Phys. 152 154105 (2020);
          URL http://www.quantum-espresso.org", 
     in publications or presentations arising from this work. More details at
     http://www.quantum-espresso.org/quote

     Parallel version (MPI), running on    96 processors

     MPI processes distributed on     2 nodes
     47982 MiB available memory on the printing compute node when the environment starts

     Reading input from espresso.pwi
Warning: card &CELL ignored
Warning: card / ignored
Warning: card &FCP ignored
Warning: card / ignored
Warning: card &RISM ignored
Warning: card / ignored

     Current dimensions of program PWSCF are:
     Max number of different atomic species (ntypx) = 10
     Max number of k-points (npk) =  40000
     Max angular momentum in pseudopotentials (lmaxx) =  4
     file Co.pbe-n-kjpaw_psl.1.0.0.UPF: wavefunction(s)  4S 3D renormalized
     file C.pbe-n-kjpaw_psl.1.0.0.UPF: wavefunction(s)  2S 2P renormalized
     file O.pbe-nl-kjpaw_psl.1.0.0.UPF: wavefunction(s)  2S 2P renormalized
     file H.pbe-kjpaw_psl.1.0.0.UPF: wavefunction(s)  1S renormalized

     **************************************************************************
     Initializing libbeef V0.1.2 with the BEEF-vdW functional.
     Citation: Wellendorff et al., PRB 85, 235149 (2012).
     **************************************************************************


     IMPORTANT: XC functional enforced from input :
     Exchange-correlation= BEEF-VDW
                           (   1   4  43  14   2   0   0)
     Any further DFT definition will be discarded
     Please, verify this is what you really want


     R & G space division:  proc/nbgrp/npool/nimage =      96
     Subspace diagonalization in iterative solution of the eigenvalue problem:
     one sub-group per band group will be used
     custom distributed-memory algorithm (size of sub-group:  2*  2 procs)


     Parallelization info
     --------------------
     sticks:   dense  smooth     PW     G-vecs:    dense   smooth      PW
     Min          43      28      7                 7829     4248     595
     Max          44      29      8                 7845     4281     630
     Sum        4153    2773    757               752179   409445   59217

     Using Slab Decomposition



     bravais-lattice index     =            0
     lattice parameter (alat)  =      14.1729  a.u.
     unit-cell volume          =    8574.3059 (a.u.)^3
     number of atoms/cell      =           39
     number of atomic types    =            4
     number of electrons       =       335.00
     number of Kohn-Sham states=          202
     kinetic-energy cutoff     =      50.0000  Ry
     charge density cutoff     =     300.0000  Ry
     scf convergence threshold =      1.0E-08
     mixing beta               =       0.7000
     number of iterations used =            8  local-TF  mixing
     Exchange-correlation= BEEF-VDW
                           (   1   4  43  14   2   0   0)

     celldm(1)=  14.172946  celldm(2)=   0.000000  celldm(3)=   0.000000
     celldm(4)=   0.000000  celldm(5)=   0.000000  celldm(6)=   0.000000

     crystal axes: (cart. coord. in units of alat)
               a(1) = (   1.000000   0.000000   0.000000 )  
               a(2) = (   0.500000   0.866025   0.000000 )  
               a(3) = (   0.000000   0.000000   3.477667 )  

     reciprocal axes: (cart. coord. in units 2 pi/alat)
               b(1) = (  1.000000 -0.577350  0.000000 )  
               b(2) = (  0.000000  1.154701  0.000000 )  
               b(3) = (  0.000000  0.000000  0.287549 )  


     PseudoPot. # 1 for Co read from file:
     /users/kbadger1/espresso/pseudo/pslibrary.1.0.0/pbe/PSEUDOPOTENTIALS/Co.pbe-n-kjpaw_psl.1.0.0.UPF
     MD5 check sum: 88af6ec42553d4236c267fdfcb472151
     Pseudo is Projector augmented-wave + core cor, Zval =  9.0
     Generated using 'atomic' code by A. Dal Corso  v.7.0
     Shape of augmentation charge: PSQ
     Using radial grid of 1193 points,  6 beta functions with: 
                l(1) =   0
                l(2) =   0
                l(3) =   1
                l(4) =   1
                l(5) =   2
                l(6) =   2
     Q(r) pseudized with 0 coefficients 


     PseudoPot. # 2 for C  read from file:
     /users/kbadger1/espresso/pseudo/pslibrary.1.0.0/pbe/PSEUDOPOTENTIALS/C.pbe-n-kjpaw_psl.1.0.0.UPF
     MD5 check sum: 6408e75cdba28732cea38a4db8498ce4
     Pseudo is Projector augmented-wave + core cor, Zval =  4.0
     Generated using 'atomic' code by A. Dal Corso  v.7.0
     Shape of augmentation charge: PSQ
     Using radial grid of 1073 points,  4 beta functions with: 
                l(1) =   0
                l(2) =   0
                l(3) =   1
                l(4) =   1
     Q(r) pseudized with 0 coefficients 


     PseudoPot. # 3 for O  read from file:
     /users/kbadger1/espresso/pseudo/pslibrary.1.0.0/pbe/PSEUDOPOTENTIALS/O.pbe-nl-kjpaw_psl.1.0.0.UPF
     MD5 check sum: f0439fab3598ca4e468f064226030408
     Pseudo is Projector augmented-wave + core cor, Zval =  6.0
     Generated using 'atomic' code by A. Dal Corso  v.7.0
     Shape of augmentation charge: PSQ
     Using radial grid of 1095 points,  4 beta functions with: 
                l(1) =   0
                l(2) =   0
                l(3) =   1
                l(4) =   1
     Q(r) pseudized with 0 coefficients 


     PseudoPot. # 4 for H  read from file:
     /users/kbadger1/espresso/pseudo/pslibrary.1.0.0/pbe/PSEUDOPOTENTIALS/H.pbe-kjpaw_psl.1.0.0.UPF
     MD5 check sum: fe4c6fa958fa6d3815bf5d2419cbf1df
     Pseudo is Projector augmented-wave, Zval =  1.0
     Generated using 'atomic' code by A. Dal Corso  v.7.0
     Shape of augmentation charge: PSQ
     Using radial grid of  929 points,  2 beta functions with: 
                l(1) =   0
                l(2) =   0
     Q(r) pseudized with 0 coefficients 


     atomic species   valence    mass     pseudopotential
        Co             9.00    58.93319     Co( 1.00)
        C              4.00    12.01100     C ( 1.00)
        O              6.00    15.99900     O ( 1.00)
        H              1.00     1.00800     H ( 1.00)

     Starting magnetic structure 
     atomic species   magnetization
        Co           1.000
        C            1.000
        O            0.000
        H            0.000

     No symmetry found



   Cartesian axes

     site n.     atom                  positions (alat units)
         1           Co  tau(   1) = (   0.0000000   0.1924501   1.3333333  )
         2           Co  tau(   2) = (   0.3333333   0.1924501   1.3333333  )
         3           Co  tau(   3) = (   0.6666667   0.1924501   1.3333333  )
         4           Co  tau(   4) = (   0.1666667   0.4811252   1.3333333  )
         5           Co  tau(   5) = (   0.5000000   0.4811252   1.3333333  )
         6           Co  tau(   6) = (   0.8333333   0.4811252   1.3333333  )
         7           Co  tau(   7) = (   0.3333333   0.7698004   1.3333333  )
         8           Co  tau(   8) = (   0.6666667   0.7698004   1.3333333  )
         9           Co  tau(   9) = (   1.0000000   0.7698004   1.3333333  )
        10           Co  tau(  10) = (   0.0000000   0.0000000   1.6036667  )
        11           Co  tau(  11) = (   0.3333333   0.0000000   1.6036667  )
        12           Co  tau(  12) = (   0.6666667   0.0000000   1.6036667  )
        13           Co  tau(  13) = (   0.1666667   0.2886751   1.6036667  )
        14           Co  tau(  14) = (   0.5000000   0.2886751   1.6036667  )
        15           Co  tau(  15) = (   0.8333333   0.2886751   1.6036667  )
        16           Co  tau(  16) = (   0.3333333   0.5773503   1.6036667  )
        17           Co  tau(  17) = (   0.6666667   0.5773503   1.6036667  )
        18           Co  tau(  18) = (   1.0000000   0.5773503   1.6036667  )
        19           Co  tau(  19) = (   0.0000000   0.1924501   1.8740000  )
        20           Co  tau(  20) = (   0.3333333   0.1924501   1.8740000  )
        21           Co  tau(  21) = (   0.6666667   0.1924501   1.8740000  )
        22           Co  tau(  22) = (   0.1666667   0.4811252   1.8740000  )
        23           Co  tau(  23) = (   0.5000000   0.4811252   1.8740000  )
        24           Co  tau(  24) = (   0.8333333   0.4811252   1.8740000  )
        25           Co  tau(  25) = (   0.3333333   0.7698004   1.8740000  )
        26           Co  tau(  26) = (   0.6666667   0.7698004   1.8740000  )
        27           Co  tau(  27) = (   1.0000000   0.7698004   1.8740000  )
        28           Co  tau(  28) = (   0.0000000   0.0000000   2.1443333  )
        29           Co  tau(  29) = (   0.3333333   0.0000000   2.1443333  )
        30           Co  tau(  30) = (   0.6666667   0.0000000   2.1443333  )
        31           Co  tau(  31) = (   0.1666667   0.2886751   2.1443333  )
        32           Co  tau(  32) = (   0.5000000   0.2886751   2.1443333  )
        33           Co  tau(  33) = (   0.8333333   0.2886751   2.1443333  )
        34           Co  tau(  34) = (   0.3333333   0.5773503   2.1443333  )
        35           Co  tau(  35) = (   0.6666667   0.5773503   2.1443333  )
        36           Co  tau(  36) = (   1.0000000   0.5773503   2.1443333  )
        37           C   tau(  37) = (   0.1657819  -0.0373669   2.3317729  )
        38           O   tau(  38) = (   0.1274204  -0.0484971   2.4857733  )
        39           H   tau(  39) = (   0.4114957   0.0175996   2.3295542  )

     number of k points=    13  Marzari-Vanderbilt smearing, width (Ry)=  0.0010
                       cart. coord. in units 2pi/alat
        k(    1) = (   0.0000000   0.0000000   0.0000000), wk =   0.0400000
        k(    2) = (   0.0000000   0.2309401   0.0000000), wk =   0.0800000
        k(    3) = (   0.0000000   0.4618802   0.0000000), wk =   0.0800000
        k(    4) = (   0.2000000  -0.1154701   0.0000000), wk =   0.0800000
        k(    5) = (   0.2000000   0.1154701   0.0000000), wk =   0.0800000
        k(    6) = (   0.2000000   0.3464102   0.0000000), wk =   0.0800000
        k(    7) = (   0.2000000  -0.5773503   0.0000000), wk =   0.0800000
        k(    8) = (   0.2000000  -0.3464102   0.0000000), wk =   0.0800000
        k(    9) = (   0.4000000  -0.2309401   0.0000000), wk =   0.0800000
        k(   10) = (   0.4000000   0.0000000   0.0000000), wk =   0.0800000
        k(   11) = (   0.4000000   0.2309401   0.0000000), wk =   0.0800000
        k(   12) = (   0.4000000  -0.6928203   0.0000000), wk =   0.0800000
        k(   13) = (   0.4000000  -0.4618802   0.0000000), wk =   0.0800000

     Dense  grid:   752179 G-vectors     FFT dimensions: (  80,  80, 288)

     Smooth grid:   409445 G-vectors     FFT dimensions: (  64,  64, 225)

     Estimated max dynamical RAM per process >      99.02 MB

     Estimated total dynamical RAM >       9.28 GB
     Generating pointlists ...
     new r_m :   0.0832 (alat units)  1.1798 (a.u.) for type    1
     new r_m :   0.0656 (alat units)  0.9301 (a.u.) for type    2
     new r_m :   0.0656 (alat units)  0.9301 (a.u.) for type    3
     new r_m :   0.0832 (alat units)  1.1798 (a.u.) for type    4

     Initial potential from superposition of free atoms

     starting charge     334.9897, renormalised to     335.0000

     negative rho (up, down):  3.047E-03 4.594E-04


     %%%%%%%%%%%%%%%%%%%%%%%%%%%%%%%%%%%%%%%%%%%%%%%%%%%%%%%%%%%%%%%%%%%%%%%%
     %                                                                      %
     % You are using vdW-DF, which was implemented by the Thonhauser group. %
     % Please cite the following two papers that made this development      %
     % possible and the two reviews that describe the various versions:     %
     %                                                                      %
     %   T. Thonhauser et al., PRL 115, 136402 (2015).                      %
     %   T. Thonhauser et al., PRB 76, 125112 (2007).                       %
     %   K. Berland et al., Rep. Prog. Phys. 78, 066501 (2015).             %
     %   D.C. Langreth et al., J. Phys.: Condens. Matter 21, 084203 (2009). %
     %                                                                      %
     % If you are calculating stress with vdW-DF, please also cite:         %
     %                                                                      %
     %   R. Sabatini et al., J. Phys.: Condens. Matter 24, 424209 (2012).   %
     %   C.M. Frostenson et al., Electr. Struct. 4, 014001 (2022).          %
     %                                                                      %
     %%%%%%%%%%%%%%%%%%%%%%%%%%%%%%%%%%%%%%%%%%%%%%%%%%%%%%%%%%%%%%%%%%%%%%%%

     %%%%%%%%%%%%%%%%%%%%%%%%%%%%%%%%%%%%%%%%%%%%%%%%%%%%%%%%%%%%%%%%%%%%%%%%
     %                                                                      %
     %  vdW-DF NEWS:                                                        %
     %                                                                      %
     %  * vdW-DF3 is now available. DOI: 10.1021/acs.jctc.0c00471           %
     %    use with input_dft = 'vdW-DF3-opt1' or 'vdW-DF3-opt2'             %
     %                                                                      %
     %  * Unscreened and range-separated hybrid vdW-DF-cx functionals       %
     %    DOI: 10.1063/1.4986522 and 10.1088/1361-648X/ac2ad2               %
     %    use with input_dft = 'vdW-DF-cx0'    and 'vdW-DF-ahcx'            %
     %  * Unscreened and range-separated hybrid vdW-DF2-b86r functionals    %
     %    DOI: 10.1063/1.4986522 and DOI: 10.1103/PhysRevX.12.041003        %
     %    use with input_dft = 'vdW-DF2-br0' and 'vdW-DF2-ahbr'             %
     %                                                                      %
     %%%%%%%%%%%%%%%%%%%%%%%%%%%%%%%%%%%%%%%%%%%%%%%%%%%%%%%%%%%%%%%%%%%%%%%%


     Starting wfcs are  333 randomized atomic wfcs
     Checking if some PAW data can be deallocated... 

     total cpu time spent up to now is       16.7 secs

     per-process dynamical memory:   233.7 Mb

     Self-consistent Calculation

     iteration #  1     ecut=    50.00 Ry     beta= 0.70
     Davidson diagonalization with overlap
     ethr =  1.00E-02,  avg # of iterations =  2.0

     negative rho (up, down):  3.264E-05 6.759E-08

     total cpu time spent up to now is       39.0 secs

     total energy              =   -6053.05405637 Ry
     estimated scf accuracy    <      39.33864465 Ry

     total magnetization       =    69.00 Bohr mag/cell
     absolute magnetization    =    81.21 Bohr mag/cell

     iteration #  2     ecut=    50.00 Ry     beta= 0.70
     Davidson diagonalization with overlap
     ethr =  1.00E-02,  avg # of iterations =  1.0

     negative rho (up, down):  4.970E-06 2.332E-08

     total cpu time spent up to now is       53.3 secs

     total energy              =   -6052.52115234 Ry
     estimated scf accuracy    <      25.03842851 Ry

     total magnetization       =    68.83 Bohr mag/cell
     absolute magnetization    =    76.66 Bohr mag/cell

     iteration #  3     ecut=    50.00 Ry     beta= 0.70
     Davidson diagonalization with overlap
     ethr =  7.47E-03,  avg # of iterations =  1.0

     negative rho (up, down):  3.515E-08 0.000E+00

     total cpu time spent up to now is       71.7 secs

     total energy              =   -6055.11298894 Ry
     estimated scf accuracy    <      84.12680949 Ry

     total magnetization       =    66.28 Bohr mag/cell
     absolute magnetization    =    73.58 Bohr mag/cell

     iteration #  4     ecut=    50.00 Ry     beta= 0.70
     Davidson diagonalization with overlap
     ethr =  7.47E-03,  avg # of iterations =  1.0

     total cpu time spent up to now is       85.8 secs

     total energy              =   -6056.37746640 Ry
     estimated scf accuracy    <       5.10405733 Ry

     total magnetization       =    60.37 Bohr mag/cell
     absolute magnetization    =    70.12 Bohr mag/cell

     iteration #  5     ecut=    50.00 Ry     beta= 0.70
     Davidson diagonalization with overlap
     ethr =  1.52E-03,  avg # of iterations =  1.2

     total cpu time spent up to now is      104.2 secs

     total energy              =   -6056.39912040 Ry
     estimated scf accuracy    <       2.30356034 Ry

     total magnetization       =    59.72 Bohr mag/cell
     absolute magnetization    =    69.20 Bohr mag/cell

     iteration #  6     ecut=    50.00 Ry     beta= 0.70
     Davidson diagonalization with overlap
     ethr =  6.88E-04,  avg # of iterations =  1.6

     total cpu time spent up to now is      119.0 secs

     total energy              =   -6056.50183252 Ry
     estimated scf accuracy    <       0.55998899 Ry

     total magnetization       =    59.72 Bohr mag/cell
     absolute magnetization    =    68.83 Bohr mag/cell

     iteration #  7     ecut=    50.00 Ry     beta= 0.70
     Davidson diagonalization with overlap
     ethr =  1.67E-04,  avg # of iterations =  6.2

     total cpu time spent up to now is      143.2 secs

     total energy              =   -6056.54835610 Ry
     estimated scf accuracy    <       0.86606508 Ry

     total magnetization       =    59.80 Bohr mag/cell
     absolute magnetization    =    68.55 Bohr mag/cell

     iteration #  8     ecut=    50.00 Ry     beta= 0.70
     Davidson diagonalization with overlap
     ethr =  1.67E-04,  avg # of iterations =  1.6

     total cpu time spent up to now is      161.6 secs

     total energy              =   -6056.56346342 Ry
     estimated scf accuracy    <       0.13597296 Ry

     total magnetization       =    59.80 Bohr mag/cell
     absolute magnetization    =    68.41 Bohr mag/cell

     iteration #  9     ecut=    50.00 Ry     beta= 0.70
     Davidson diagonalization with overlap
     c_bands:  1 eigenvalues not converged
     c_bands:  1 eigenvalues not converged
     c_bands:  2 eigenvalues not converged
     ethr =  4.06E-05,  avg # of iterations =  8.8

     total cpu time spent up to now is      190.8 secs

     total energy              =   -6056.56823581 Ry
     estimated scf accuracy    <       0.16459121 Ry

     total magnetization       =    60.12 Bohr mag/cell
     absolute magnetization    =    68.34 Bohr mag/cell

     iteration # 10     ecut=    50.00 Ry     beta= 0.70
     Davidson diagonalization with overlap
     ethr =  4.06E-05,  avg # of iterations =  2.4

     total cpu time spent up to now is      205.7 secs

     total energy              =   -6056.57483870 Ry
     estimated scf accuracy    <       0.20060959 Ry

     total magnetization       =    60.30 Bohr mag/cell
     absolute magnetization    =    68.30 Bohr mag/cell

     iteration # 11     ecut=    50.00 Ry     beta= 0.70
     Davidson diagonalization with overlap
     ethr =  4.06E-05,  avg # of iterations =  1.3

     total cpu time spent up to now is      223.5 secs

     total energy              =   -6056.56791571 Ry
     estimated scf accuracy    <       0.12135941 Ry

     total magnetization       =    60.29 Bohr mag/cell
     absolute magnetization    =    68.20 Bohr mag/cell

     iteration # 12     ecut=    50.00 Ry     beta= 0.70
     Davidson diagonalization with overlap
     ethr =  3.62E-05,  avg # of iterations =  2.0

     total cpu time spent up to now is      239.4 secs

     total energy              =   -6056.57172734 Ry
     estimated scf accuracy    <       0.08433655 Ry

     total magnetization       =    60.23 Bohr mag/cell
     absolute magnetization    =    67.99 Bohr mag/cell

     iteration # 13     ecut=    50.00 Ry     beta= 0.70
     Davidson diagonalization with overlap
     ethr =  2.52E-05,  avg # of iterations =  1.3

     total cpu time spent up to now is      257.1 secs

     total energy              =   -6056.57170798 Ry
     estimated scf accuracy    <       0.09136652 Ry

     total magnetization       =    60.23 Bohr mag/cell
     absolute magnetization    =    67.94 Bohr mag/cell

     iteration # 14     ecut=    50.00 Ry     beta= 0.70
     Davidson diagonalization with overlap
     ethr =  2.52E-05,  avg # of iterations =  1.7

     total cpu time spent up to now is      271.0 secs

     total energy              =   -6056.56639572 Ry
     estimated scf accuracy    <       0.10237504 Ry

     total magnetization       =    60.13 Bohr mag/cell
     absolute magnetization    =    67.92 Bohr mag/cell

     iteration # 15     ecut=    50.00 Ry     beta= 0.70
     Davidson diagonalization with overlap
     ethr =  2.52E-05,  avg # of iterations =  1.7

     negative rho (up, down):  4.035E-03 2.990E-03

     total cpu time spent up to now is      289.5 secs

     total energy              =   -6056.56307534 Ry
     estimated scf accuracy    <       0.10292603 Ry

     total magnetization       =    60.29 Bohr mag/cell
     absolute magnetization    =    68.01 Bohr mag/cell

     iteration # 16     ecut=    50.00 Ry     beta= 0.70
     Davidson diagonalization with overlap
     ethr =  2.52E-05,  avg # of iterations =  1.8

     negative rho (up, down):  1.587E-02 1.429E-02

     total cpu time spent up to now is      310.1 secs

     total energy              =   -6056.56181653 Ry
     estimated scf accuracy    <       0.06006013 Ry

     total magnetization       =    60.18 Bohr mag/cell
     absolute magnetization    =    67.82 Bohr mag/cell

     iteration # 17     ecut=    50.00 Ry     beta= 0.70
     Davidson diagonalization with overlap
     ethr =  1.79E-05,  avg # of iterations =  2.2

     negative rho (up, down):  3.599E-02 3.387E-02

     total cpu time spent up to now is      324.6 secs

     total energy              =   -6056.56071331 Ry
     estimated scf accuracy    <       0.03670176 Ry

     total magnetization       =    60.17 Bohr mag/cell
     absolute magnetization    =    67.76 Bohr mag/cell

     iteration # 18     ecut=    50.00 Ry     beta= 0.70
     Davidson diagonalization with overlap
     c_bands:  2 eigenvalues not converged
     c_bands:  3 eigenvalues not converged
     c_bands:  4 eigenvalues not converged
     c_bands:  3 eigenvalues not converged
     c_bands:  4 eigenvalues not converged
     ethr =  1.10E-05,  avg # of iterations =  5.8

     negative rho (up, down):  2.613E-02 2.447E-02

     total cpu time spent up to now is      347.4 secs

     total energy              =   -6056.56130968 Ry
     estimated scf accuracy    <       0.04915836 Ry

     total magnetization       =    60.15 Bohr mag/cell
     absolute magnetization    =    67.69 Bohr mag/cell

     iteration # 19     ecut=    50.00 Ry     beta= 0.70
     Davidson diagonalization with overlap
     ethr =  1.10E-05,  avg # of iterations =  1.8

     negative rho (up, down):  2.907E-02 2.728E-02

     total cpu time spent up to now is      362.8 secs

     total energy              =   -6056.56129492 Ry
     estimated scf accuracy    <       0.01865448 Ry

     total magnetization       =    60.17 Bohr mag/cell
     absolute magnetization    =    67.72 Bohr mag/cell

     iteration # 20     ecut=    50.00 Ry     beta= 0.70
     Davidson diagonalization with overlap
     ethr =  5.57E-06,  avg # of iterations =  4.4

     negative rho (up, down):  2.357E-02 2.196E-02

     total cpu time spent up to now is      384.0 secs

     total energy              =   -6056.56039199 Ry
     estimated scf accuracy    <       0.00885996 Ry

     total magnetization       =    60.29 Bohr mag/cell
     absolute magnetization    =    67.80 Bohr mag/cell

     iteration # 21     ecut=    50.00 Ry     beta= 0.70
     Davidson diagonalization with overlap
     c_bands:  1 eigenvalues not converged
     c_bands:  1 eigenvalues not converged
     c_bands:  2 eigenvalues not converged
     ethr =  2.64E-06,  avg # of iterations =  7.1

     negative rho (up, down):  2.027E-02 1.901E-02

     total cpu time spent up to now is      407.9 secs

     total energy              =   -6056.55921370 Ry
     estimated scf accuracy    <       0.01718366 Ry

     total magnetization       =    60.34 Bohr mag/cell
     absolute magnetization    =    67.84 Bohr mag/cell

     iteration # 22     ecut=    50.00 Ry     beta= 0.70
     Davidson diagonalization with overlap
     ethr =  2.64E-06,  avg # of iterations =  1.8

     negative rho (up, down):  1.882E-02 1.768E-02

     total cpu time spent up to now is      423.6 secs

     total energy              =   -6056.55943630 Ry
     estimated scf accuracy    <       0.00541452 Ry

     total magnetization       =    60.46 Bohr mag/cell
     absolute magnetization    =    67.95 Bohr mag/cell

     iteration # 23     ecut=    50.00 Ry     beta= 0.70
     Davidson diagonalization with overlap
     ethr =  1.62E-06,  avg # of iterations =  3.6

     negative rho (up, down):  1.561E-02 1.459E-02

     total cpu time spent up to now is      443.8 secs

     total energy              =   -6056.55945026 Ry
     estimated scf accuracy    <       0.00510753 Ry

     total magnetization       =    60.40 Bohr mag/cell
     absolute magnetization    =    67.91 Bohr mag/cell

     iteration # 24     ecut=    50.00 Ry     beta= 0.70
     Davidson diagonalization with overlap
     ethr =  1.52E-06,  avg # of iterations =  1.3

     negative rho (up, down):  8.665E-03 7.991E-03

     total cpu time spent up to now is      461.9 secs

     total energy              =   -6056.55960247 Ry
     estimated scf accuracy    <       0.00180051 Ry

     total magnetization       =    60.39 Bohr mag/cell
     absolute magnetization    =    67.90 Bohr mag/cell

     iteration # 25     ecut=    50.00 Ry     beta= 0.70
     Davidson diagonalization with overlap
     c_bands:  1 eigenvalues not converged
     c_bands:  1 eigenvalues not converged
     ethr =  5.37E-07,  avg # of iterations =  3.5

     negative rho (up, down):  7.746E-03 7.088E-03

     total cpu time spent up to now is      477.7 secs

     total energy              =   -6056.55969385 Ry
     estimated scf accuracy    <       0.00117610 Ry

     total magnetization       =    60.44 Bohr mag/cell
     absolute magnetization    =    67.95 Bohr mag/cell

     iteration # 26     ecut=    50.00 Ry     beta= 0.70
     Davidson diagonalization with overlap
     ethr =  3.51E-07,  avg # of iterations =  1.7

     negative rho (up, down):  4.527E-03 3.769E-03

     total cpu time spent up to now is      497.6 secs

     total energy              =   -6056.55962332 Ry
     estimated scf accuracy    <       0.00040615 Ry

     total magnetization       =    60.45 Bohr mag/cell
     absolute magnetization    =    67.96 Bohr mag/cell

     iteration # 27     ecut=    50.00 Ry     beta= 0.70
     Davidson diagonalization with overlap
     ethr =  1.21E-07,  avg # of iterations =  4.5

     negative rho (up, down):  2.534E-03 1.434E-03

     total cpu time spent up to now is      519.4 secs

     total energy              =   -6056.55977822 Ry
     estimated scf accuracy    <       0.00117091 Ry

     total magnetization       =    60.43 Bohr mag/cell
     absolute magnetization    =    67.95 Bohr mag/cell

     iteration # 28     ecut=    50.00 Ry     beta= 0.70
     Davidson diagonalization with overlap
     ethr =  1.21E-07,  avg # of iterations =  1.8

     negative rho (up, down):  3.572E-03 2.542E-03

     total cpu time spent up to now is      533.7 secs

     total energy              =   -6056.55981886 Ry
     estimated scf accuracy    <       0.00020452 Ry

     total magnetization       =    60.43 Bohr mag/cell
     absolute magnetization    =    67.95 Bohr mag/cell

     iteration # 29     ecut=    50.00 Ry     beta= 0.70
     Davidson diagonalization with overlap
     ethr =  6.11E-08,  avg # of iterations =  1.5

     negative rho (up, down):  3.425E-03 2.367E-03

     total cpu time spent up to now is      553.2 secs

     total energy              =   -6056.55982068 Ry
     estimated scf accuracy    <       0.00016189 Ry

     total magnetization       =    60.43 Bohr mag/cell
     absolute magnetization    =    67.95 Bohr mag/cell

     iteration # 30     ecut=    50.00 Ry     beta= 0.70
     Davidson diagonalization with overlap
     ethr =  4.83E-08,  avg # of iterations =  1.2

     negative rho (up, down):  3.011E-03 1.907E-03

     total cpu time spent up to now is      566.6 secs

     total energy              =   -6056.55982430 Ry
     estimated scf accuracy    <       0.00005150 Ry

     total magnetization       =    60.44 Bohr mag/cell
     absolute magnetization    =    67.95 Bohr mag/cell

     iteration # 31     ecut=    50.00 Ry     beta= 0.70
     Davidson diagonalization with overlap
     ethr =  1.54E-08,  avg # of iterations =  3.8

     negative rho (up, down):  3.309E-03 2.242E-03

     total cpu time spent up to now is      587.1 secs

     total energy              =   -6056.55982827 Ry
     estimated scf accuracy    <       0.00007120 Ry

     total magnetization       =    60.43 Bohr mag/cell
     absolute magnetization    =    67.95 Bohr mag/cell

     iteration # 32     ecut=    50.00 Ry     beta= 0.70
     Davidson diagonalization with overlap
     ethr =  1.54E-08,  avg # of iterations =  1.5

     negative rho (up, down):  3.113E-03 2.000E-03

     total cpu time spent up to now is      601.6 secs

     total energy              =   -6056.55982381 Ry
     estimated scf accuracy    <       0.00005703 Ry

     total magnetization       =    60.44 Bohr mag/cell
     absolute magnetization    =    67.95 Bohr mag/cell

     iteration # 33     ecut=    50.00 Ry     beta= 0.70
     Davidson diagonalization with overlap
     ethr =  1.54E-08,  avg # of iterations =  1.6

     negative rho (up, down):  3.262E-03 2.206E-03

     total cpu time spent up to now is      621.3 secs

     total energy              =   -6056.55982866 Ry
     estimated scf accuracy    <       0.00005130 Ry

     total magnetization       =    60.43 Bohr mag/cell
     absolute magnetization    =    67.95 Bohr mag/cell

     iteration # 34     ecut=    50.00 Ry     beta= 0.70
     Davidson diagonalization with overlap
     ethr =  1.53E-08,  avg # of iterations =  1.5

     negative rho (up, down):  3.220E-03 2.177E-03

     total cpu time spent up to now is      639.8 secs

     total energy              =   -6056.55983091 Ry
     estimated scf accuracy    <       0.00002287 Ry

     total magnetization       =    60.43 Bohr mag/cell
     absolute magnetization    =    67.95 Bohr mag/cell

     iteration # 35     ecut=    50.00 Ry     beta= 0.70
     Davidson diagonalization with overlap
     c_bands:  1 eigenvalues not converged
     c_bands:  1 eigenvalues not converged
     ethr =  6.83E-09,  avg # of iterations =  3.0

     negative rho (up, down):  3.092E-03 2.069E-03

     total cpu time spent up to now is      654.9 secs

     total energy              =   -6056.55983121 Ry
     estimated scf accuracy    <       0.00001915 Ry

     total magnetization       =    60.43 Bohr mag/cell
     absolute magnetization    =    67.95 Bohr mag/cell

     iteration # 36     ecut=    50.00 Ry     beta= 0.70
     Davidson diagonalization with overlap
     ethr =  5.72E-09,  avg # of iterations =  2.1

     negative rho (up, down):  2.948E-03 1.912E-03

     total cpu time spent up to now is      674.5 secs

     total energy              =   -6056.55982985 Ry
     estimated scf accuracy    <       0.00002411 Ry

     total magnetization       =    60.43 Bohr mag/cell
     absolute magnetization    =    67.94 Bohr mag/cell

     iteration # 37     ecut=    50.00 Ry     beta= 0.70
     Davidson diagonalization with overlap
     ethr =  5.72E-09,  avg # of iterations =  1.5

     negative rho (up, down):  2.953E-03 1.917E-03

     total cpu time spent up to now is      688.6 secs

     total energy              =   -6056.55982960 Ry
     estimated scf accuracy    <       0.00003335 Ry

     total magnetization       =    60.43 Bohr mag/cell
     absolute magnetization    =    67.94 Bohr mag/cell

     iteration # 38     ecut=    50.00 Ry     beta= 0.70
     Davidson diagonalization with overlap
     ethr =  5.72E-09,  avg # of iterations =  1.0

     negative rho (up, down):  2.723E-03 1.682E-03

     total cpu time spent up to now is      706.6 secs

     total energy              =   -6056.55982908 Ry
     estimated scf accuracy    <       0.00000896 Ry

     total magnetization       =    60.43 Bohr mag/cell
     absolute magnetization    =    67.94 Bohr mag/cell

     iteration # 39     ecut=    50.00 Ry     beta= 0.70
     Davidson diagonalization with overlap
     ethr =  2.68E-09,  avg # of iterations =  2.5

     negative rho (up, down):  2.607E-03 1.552E-03

     total cpu time spent up to now is      721.8 secs

     total energy              =   -6056.55982824 Ry
     estimated scf accuracy    <       0.00002270 Ry

     total magnetization       =    60.43 Bohr mag/cell
     absolute magnetization    =    67.94 Bohr mag/cell

     iteration # 40     ecut=    50.00 Ry     beta= 0.70
     Davidson diagonalization with overlap
     ethr =  2.68E-09,  avg # of iterations =  1.2

     negative rho (up, down):  2.628E-03 1.567E-03

     total cpu time spent up to now is      740.6 secs

     total energy              =   -6056.55982875 Ry
     estimated scf accuracy    <       0.00000603 Ry

     total magnetization       =    60.43 Bohr mag/cell
     absolute magnetization    =    67.94 Bohr mag/cell

     iteration # 41     ecut=    50.00 Ry     beta= 0.70
     Davidson diagonalization with overlap
     ethr =  1.80E-09,  avg # of iterations =  1.7

     negative rho (up, down):  2.521E-03 1.457E-03

     total cpu time spent up to now is      759.2 secs

     total energy              =   -6056.55982825 Ry
     estimated scf accuracy    <       0.00001928 Ry

     total magnetization       =    60.43 Bohr mag/cell
     absolute magnetization    =    67.94 Bohr mag/cell

     iteration # 42     ecut=    50.00 Ry     beta= 0.70
     Davidson diagonalization with overlap
     ethr =  1.80E-09,  avg # of iterations =  1.2

     negative rho (up, down):  2.381E-03 1.308E-03

     total cpu time spent up to now is      772.7 secs

     total energy              =   -6056.55982891 Ry
     estimated scf accuracy    <       0.00000464 Ry

     total magnetization       =    60.43 Bohr mag/cell
     absolute magnetization    =    67.94 Bohr mag/cell

     iteration # 43     ecut=    50.00 Ry     beta= 0.70
     Davidson diagonalization with overlap
     ethr =  1.38E-09,  avg # of iterations =  1.7

     negative rho (up, down):  2.343E-03 1.268E-03

     total cpu time spent up to now is      791.6 secs

     total energy              =   -6056.55982904 Ry
     estimated scf accuracy    <       0.00000124 Ry

     total magnetization       =    60.43 Bohr mag/cell
     absolute magnetization    =    67.94 Bohr mag/cell

     iteration # 44     ecut=    50.00 Ry     beta= 0.70
     Davidson diagonalization with overlap
     ethr =  3.69E-10,  avg # of iterations =  4.7

     negative rho (up, down):  2.305E-03 1.228E-03

     total cpu time spent up to now is      809.0 secs

     total energy              =   -6056.55982915 Ry
     estimated scf accuracy    <       0.00000066 Ry

     total magnetization       =    60.43 Bohr mag/cell
     absolute magnetization    =    67.94 Bohr mag/cell

     iteration # 45     ecut=    50.00 Ry     beta= 0.70
     Davidson diagonalization with overlap
     ethr =  1.97E-10,  avg # of iterations =  3.5

     negative rho (up, down):  2.284E-03 1.204E-03

     total cpu time spent up to now is      829.6 secs

     total energy              =   -6056.55982919 Ry
     estimated scf accuracy    <       0.00000034 Ry

     total magnetization       =    60.43 Bohr mag/cell
     absolute magnetization    =    67.94 Bohr mag/cell

     iteration # 46     ecut=    50.00 Ry     beta= 0.70
     Davidson diagonalization with overlap
     ethr =  1.03E-10,  avg # of iterations =  3.5

     negative rho (up, down):  2.267E-03 1.184E-03

     total cpu time spent up to now is      850.7 secs

     total energy              =   -6056.55982919 Ry
     estimated scf accuracy    <       0.00000038 Ry

     total magnetization       =    60.43 Bohr mag/cell
     absolute magnetization    =    67.94 Bohr mag/cell

     iteration # 47     ecut=    50.00 Ry     beta= 0.70
     Davidson diagonalization with overlap
     ethr =  1.03E-10,  avg # of iterations =  1.8

     negative rho (up, down):  2.258E-03 1.177E-03

     total cpu time spent up to now is      865.8 secs

     total energy              =   -6056.55982917 Ry
     estimated scf accuracy    <       0.00000036 Ry

     total magnetization       =    60.43 Bohr mag/cell
     absolute magnetization    =    67.94 Bohr mag/cell

     iteration # 48     ecut=    50.00 Ry     beta= 0.70
     Davidson diagonalization with overlap
     ethr =  1.03E-10,  avg # of iterations =  1.7

     negative rho (up, down):  2.279E-03 1.198E-03

     total cpu time spent up to now is      884.7 secs

     total energy              =   -6056.55982919 Ry
     estimated scf accuracy    <       0.00000059 Ry

     total magnetization       =    60.43 Bohr mag/cell
     absolute magnetization    =    67.94 Bohr mag/cell

     iteration # 49     ecut=    50.00 Ry     beta= 0.70
     Davidson diagonalization with overlap
     ethr =  1.03E-10,  avg # of iterations =  1.1

     negative rho (up, down):  2.265E-03 1.180E-03

     total cpu time spent up to now is      898.1 secs

     total energy              =   -6056.55982919 Ry
     estimated scf accuracy    <       0.00000030 Ry

     total magnetization       =    60.43 Bohr mag/cell
     absolute magnetization    =    67.94 Bohr mag/cell

     iteration # 50     ecut=    50.00 Ry     beta= 0.70
     Davidson diagonalization with overlap
     ethr =  8.81E-11,  avg # of iterations =  1.7

     negative rho (up, down):  2.243E-03 1.157E-03

     total cpu time spent up to now is      918.4 secs

     total energy              =   -6056.55982915 Ry
     estimated scf accuracy    <       0.00000019 Ry

     total magnetization       =    60.43 Bohr mag/cell
     absolute magnetization    =    67.94 Bohr mag/cell

     iteration # 51     ecut=    50.00 Ry     beta= 0.70
     Davidson diagonalization with overlap
     ethr =  5.64E-11,  avg # of iterations =  1.7

     negative rho (up, down):  2.250E-03 1.166E-03

     total cpu time spent up to now is      932.8 secs

     total energy              =   -6056.55982917 Ry
     estimated scf accuracy    <       0.00000012 Ry

     total magnetization       =    60.43 Bohr mag/cell
     absolute magnetization    =    67.94 Bohr mag/cell

     iteration # 52     ecut=    50.00 Ry     beta= 0.70
     Davidson diagonalization with overlap
     ethr =  3.67E-11,  avg # of iterations =  1.8

     negative rho (up, down):  2.249E-03 1.164E-03

     total cpu time spent up to now is      951.8 secs

     total energy              =   -6056.55982917 Ry
     estimated scf accuracy    <       0.00000010 Ry

     total magnetization       =    60.43 Bohr mag/cell
     absolute magnetization    =    67.94 Bohr mag/cell

     iteration # 53     ecut=    50.00 Ry     beta= 0.70
     Davidson diagonalization with overlap
     ethr =  2.94E-11,  avg # of iterations =  1.8

     negative rho (up, down):  2.247E-03 1.163E-03

     total cpu time spent up to now is      970.3 secs

     total energy              =   -6056.55982917 Ry
     estimated scf accuracy    <       0.00000007 Ry

     total magnetization       =    60.43 Bohr mag/cell
     absolute magnetization    =    67.94 Bohr mag/cell

     iteration # 54     ecut=    50.00 Ry     beta= 0.70
     Davidson diagonalization with overlap
     c_bands:  1 eigenvalues not converged
     ethr =  2.02E-11,  avg # of iterations =  2.7

     negative rho (up, down):  2.242E-03 1.157E-03

     total cpu time spent up to now is      986.5 secs

     total energy              =   -6056.55982916 Ry
     estimated scf accuracy    <       0.00000002 Ry

     total magnetization       =    60.43 Bohr mag/cell
     absolute magnetization    =    67.94 Bohr mag/cell

     iteration # 55     ecut=    50.00 Ry     beta= 0.70
     Davidson diagonalization with overlap
     ethr =  6.97E-12,  avg # of iterations =  3.3

     negative rho (up, down):  2.244E-03 1.160E-03

     total cpu time spent up to now is     1006.8 secs

     total energy              =   -6056.55982917 Ry
     estimated scf accuracy    <       0.00000002 Ry

     total magnetization       =    60.43 Bohr mag/cell
     absolute magnetization    =    67.94 Bohr mag/cell

     iteration # 56     ecut=    50.00 Ry     beta= 0.70
     Davidson diagonalization with overlap
     ethr =  4.70E-12,  avg # of iterations =  2.8

     negative rho (up, down):  2.243E-03 1.159E-03

     total cpu time spent up to now is     1022.3 secs

     total energy              =   -6056.55982917 Ry
     estimated scf accuracy    <       0.00000001 Ry

     total magnetization       =    60.43 Bohr mag/cell
     absolute magnetization    =    67.94 Bohr mag/cell

     iteration # 57     ecut=    50.00 Ry     beta= 0.70
     Davidson diagonalization with overlap
     ethr =  3.78E-12,  avg # of iterations =  1.5

     negative rho (up, down):  2.239E-03 1.155E-03

     Magnetic moment per site  (integrated on atomic sphere of radius R)
     atom   1 (R=0.083)  charge=  5.2985  magn=  1.5665
     atom   2 (R=0.083)  charge=  5.3003  magn=  1.5627
     atom   3 (R=0.083)  charge=  5.3000  magn=  1.5707
     atom   4 (R=0.083)  charge=  5.3009  magn=  1.5759
     atom   5 (R=0.083)  charge=  5.3002  magn=  1.5713
     atom   6 (R=0.083)  charge=  5.3010  magn=  1.5702
     atom   7 (R=0.083)  charge=  5.2985  magn=  1.5698
     atom   8 (R=0.083)  charge=  5.2996  magn=  1.5544
     atom   9 (R=0.083)  charge=  5.3011  magn=  1.5663
     atom  10 (R=0.083)  charge=  5.2922  magn=  1.5089
     atom  11 (R=0.083)  charge=  5.2933  magn=  1.5003
     atom  12 (R=0.083)  charge=  5.2932  magn=  1.5170
     atom  13 (R=0.083)  charge=  5.2925  magn=  1.5190
     atom  14 (R=0.083)  charge=  5.2939  magn=  1.5161
     atom  15 (R=0.083)  charge=  5.2928  magn=  1.5106
     atom  16 (R=0.083)  charge=  5.2926  magn=  1.5050
     atom  17 (R=0.083)  charge=  5.2928  magn=  1.5153
     atom  18 (R=0.083)  charge=  5.2938  magn=  1.5124
     atom  19 (R=0.083)  charge=  5.2914  magn=  1.5036
     atom  20 (R=0.083)  charge=  5.2924  magn=  1.4989
     atom  21 (R=0.083)  charge=  5.2921  magn=  1.5263
     atom  22 (R=0.083)  charge=  5.2929  magn=  1.5077
     atom  23 (R=0.083)  charge=  5.2929  magn=  1.4984
     atom  24 (R=0.083)  charge=  5.2927  magn=  1.5099
     atom  25 (R=0.083)  charge=  5.2909  magn=  1.4917
     atom  26 (R=0.083)  charge=  5.2900  magn=  1.5074
     atom  27 (R=0.083)  charge=  5.2918  magn=  1.5006
     atom  28 (R=0.083)  charge=  5.3059  magn=  1.2080
     atom  29 (R=0.083)  charge=  5.2979  magn=  0.7330
     atom  30 (R=0.083)  charge=  5.2989  magn=  1.5586
     atom  31 (R=0.083)  charge=  5.3020  magn=  1.5878
     atom  32 (R=0.083)  charge=  5.3014  magn=  1.5813
     atom  33 (R=0.083)  charge=  5.2982  magn=  1.5835
     atom  34 (R=0.083)  charge=  5.2992  magn=  1.5931
     atom  35 (R=0.083)  charge=  5.3044  magn=  1.5131
     atom  36 (R=0.083)  charge=  5.3016  magn=  1.5991
     atom  37 (R=0.066)  charge=  1.0501  magn= -0.0190
     atom  38 (R=0.066)  charge=  2.9355  magn= -0.0333
     atom  39 (R=0.083)  charge=  0.6978  magn= -0.0145

     total cpu time spent up to now is     1042.0 secs

     End of self-consistent calculation

 ------ SPIN UP ------------


          k = 0.0000 0.0000 0.0000 ( 51087 PWs)   bands (ev):

   -21.9547  -9.3514  -7.6214  -6.3981  -5.9652  -5.8086  -5.4163  -4.8204
    -4.7946  -4.7918  -4.7886  -4.7683  -4.7591  -4.7314  -4.4226  -4.2613
    -4.2591  -4.2558  -4.2262  -4.2126  -4.2054  -3.7795  -3.7442  -3.7379
    -3.7335  -3.7172  -3.6838  -3.6351  -3.6092  -3.6073  -3.5985  -3.5956
    -3.5607  -3.5325  -3.5232  -3.3730  -3.2253  -3.2215  -3.2173  -3.2149
    -3.1608  -3.1559  -3.1500  -3.1446  -3.1400  -3.1338  -3.1220  -3.1126
    -2.9894  -2.9880  -2.9205  -2.9182  -2.9107  -2.9073  -2.8987  -2.8904
    -2.8856  -2.8816  -2.8804  -2.8500  -2.7834  -2.7764  -2.7697  -2.7626
    -2.6885  -2.6501  -2.2724  -2.2438  -2.2396  -2.2358  -2.2323  -2.1380
    -2.1132  -2.1084  -2.0882  -2.0834  -2.0732  -2.0620  -2.0584  -2.0534
    -2.0117  -2.0085  -1.9861  -1.9620  -1.9581  -1.9520  -1.9381  -1.9312
    -1.9248  -1.9224  -1.9144  -1.9103  -1.9070  -1.8862  -1.8830  -1.8772
    -1.8739  -1.8709  -1.8682  -1.8664  -1.8633  -1.8626  -1.8579  -1.8541
    -1.8380  -1.8376  -1.8053  -1.7848  -1.7740  -1.7077  -1.7022  -1.5975
    -1.5244  -1.4197  -1.4188  -1.4166  -1.4102  -1.4011  -1.3868  -1.3766
    -1.3728  -1.3649  -1.3481  -1.3222  -1.3190  -1.2284  -1.1985  -1.1962
    -1.1694  -1.1586  -1.0729  -1.0218  -0.9963  -0.9857  -0.9752  -0.9529
    -0.9349  -0.9331  -0.9243  -0.9204  -0.9102  -0.8645  -0.8100  -0.7866
    -0.7053  -0.6804  -0.6774  -0.6724  -0.6530  -0.6346  -0.6153  -0.6112
    -0.6085  -0.6058  -0.6050  -0.6019  -0.5945  -0.5849  -0.5826  -0.5751
    -0.5691  -0.5620  -0.5532  -0.5414  -0.5337  -0.5322  -0.5211  -0.5124
    -0.5065  -0.4951  -0.4875  -0.4848  -0.4772  -0.4660  -0.4637  -0.4584
    -0.4535  -0.4484  -0.4268  -0.4034  -0.3854  -0.3792  -0.3754  -0.3675
    -0.3624  -0.3536  -0.3369  -0.3308  -0.3195  -0.2862  -0.2808  -0.2788
    -0.2731  -0.2652  -0.2156  -0.2114  -0.2040  -0.1948  -0.1546  -0.1363
     0.4636   0.8713

          k = 0.0000 0.2309 0.0000 ( 51134 PWs)   bands (ev):

   -21.9547  -9.3436  -7.4778  -6.3039  -5.9674  -5.8115  -5.5287  -5.3803
    -5.0319  -5.0164  -4.6707  -4.5372  -4.4502  -4.4458  -4.3817  -4.3298
    -4.2775  -4.2625  -4.1786  -4.1257  -4.1189  -3.8606  -3.7644  -3.7427
    -3.7066  -3.6671  -3.6250  -3.6152  -3.6128  -3.5983  -3.5890  -3.5745
    -3.5407  -3.4988  -3.4809  -3.4628  -3.4530  -3.3444  -3.2554  -3.2345
    -3.2279  -3.1802  -3.1775  -3.1698  -3.1472  -3.0783  -3.0484  -3.0410
    -3.0119  -3.0084  -3.0030  -2.9712  -2.9489  -2.8758  -2.8653  -2.8374
    -2.8034  -2.7970  -2.7718  -2.7656  -2.7402  -2.7131  -2.7030  -2.6875
    -2.6635  -2.6032  -2.3613  -2.3545  -2.3330  -2.3275  -2.2967  -2.2143
    -2.2043  -2.1941  -2.1859  -2.1759  -2.1705  -2.1598  -2.1377  -2.0825
    -2.0681  -2.0586  -2.0362  -2.0045  -2.0027  -1.9976  -1.9813  -1.9755
    -1.9636  -1.9566  -1.9513  -1.9475  -1.9389  -1.9158  -1.8977  -1.8644
    -1.8457  -1.8383  -1.7768  -1.7734  -1.7618  -1.7589  -1.7502  -1.7478
    -1.7335  -1.7247  -1.7152  -1.7130  -1.6992  -1.6888  -1.6708  -1.6614
    -1.6434  -1.6346  -1.6132  -1.5470  -1.5350  -1.4715  -1.4448  -1.4401
    -1.4328  -1.4197  -1.4117  -1.4026  -1.3863  -1.3688  -1.3384  -1.2441
    -1.2279  -1.2217  -1.1530  -1.1448  -1.1283  -1.0791  -1.0559  -1.0459
    -1.0239  -0.9580  -0.9465  -0.9292  -0.9039  -0.9020  -0.8709  -0.8599
    -0.8447  -0.8301  -0.8210  -0.7866  -0.7731  -0.7621  -0.7548  -0.7505
    -0.7116  -0.6895  -0.6773  -0.6725  -0.6643  -0.6375  -0.6171  -0.6074
    -0.5981  -0.5906  -0.5866  -0.5747  -0.5550  -0.5472  -0.5381  -0.5176
    -0.4914  -0.4803  -0.4620  -0.4257  -0.4108  -0.3905  -0.3778  -0.3552
    -0.3494  -0.3324  -0.3311  -0.3217  -0.3030  -0.2976  -0.2904  -0.2564
    -0.2169  -0.2122  -0.2019  -0.1803  -0.1743  -0.1589  -0.1349  -0.1206
    -0.0535   0.0136   0.1621   0.1777   0.2741   0.3519   0.4386   0.4529
     0.4775   0.7929

          k = 0.0000 0.4619 0.0000 ( 51204 PWs)   bands (ev):

   -21.9547  -9.3311  -7.0554  -6.4030  -6.1012  -5.9515  -5.6666  -5.3637
    -5.1777  -5.1413  -5.0314  -4.3526  -4.2779  -4.2738  -4.2589  -4.2051
    -4.0993  -4.0892  -4.0463  -3.9624  -3.9526  -3.9508  -3.8870  -3.7820
    -3.7743  -3.7655  -3.7597  -3.7117  -3.6790  -3.6508  -3.6250  -3.5197
    -3.4868  -3.4749  -3.4596  -3.4398  -3.4282  -3.3664  -3.3281  -3.3207
    -3.3097  -3.3016  -3.2532  -3.1878  -3.1072  -3.0878  -3.0124  -3.0064
    -2.9733  -2.9586  -2.9319  -2.9215  -2.9128  -2.8840  -2.8758  -2.8254
    -2.8142  -2.7817  -2.7563  -2.7548  -2.6206  -2.6130  -2.5853  -2.5706
    -2.5374  -2.5017  -2.4759  -2.4655  -2.4440  -2.3909  -2.3327  -2.3304
    -2.3239  -2.3180  -2.3084  -2.2883  -2.2753  -2.2641  -2.2474  -2.2310
    -2.1997  -2.1622  -2.1512  -2.1326  -2.1032  -2.0892  -2.0453  -2.0075
    -1.9986  -1.9930  -1.9698  -1.9519  -1.9424  -1.9009  -1.8888  -1.8797
    -1.8749  -1.8577  -1.8488  -1.8231  -1.8076  -1.8004  -1.7928  -1.7770
    -1.7625  -1.7360  -1.6976  -1.6937  -1.6257  -1.6129  -1.6027  -1.5944
    -1.5669  -1.5478  -1.5257  -1.4958  -1.4796  -1.4594  -1.4556  -1.4492
    -1.4459  -1.4422  -1.4329  -1.4210  -1.4169  -1.3982  -1.3908  -1.3808
    -1.3770  -1.3380  -1.2721  -1.2566  -1.2324  -1.2091  -1.1980  -1.1817
    -1.1472  -1.0906  -1.0834  -1.0768  -1.0582  -1.0290  -0.9910  -0.9494
    -0.9287  -0.9097  -0.9031  -0.8806  -0.8648  -0.8516  -0.8276  -0.7595
    -0.7279  -0.7148  -0.6955  -0.6908  -0.6752  -0.6688  -0.6608  -0.6500
    -0.6383  -0.6245  -0.5361  -0.5255  -0.5163  -0.5078  -0.4998  -0.4867
    -0.4763  -0.4645  -0.4422  -0.4344  -0.4069  -0.3930  -0.3475  -0.3276
    -0.3207  -0.2947  -0.2867  -0.2374  -0.2225  -0.1977  -0.1864  -0.1475
    -0.1158  -0.1057  -0.1032  -0.0849  -0.0780  -0.0731  -0.0629  -0.0042
     0.0290   0.0807   0.4778   0.6815   0.9666   1.1405   1.1629   1.3820
     1.5023   1.5390

          k = 0.2000-0.1155 0.0000 ( 51134 PWs)   bands (ev):

   -21.9547  -9.3423  -7.4790  -6.3093  -5.9944  -5.7746  -5.5331  -5.3792
    -5.0309  -5.0195  -4.6701  -4.5355  -4.4514  -4.4451  -4.3828  -4.3323
    -4.2850  -4.2531  -4.1804  -4.1246  -4.1204  -3.8617  -3.7738  -3.7383
    -3.6913  -3.6639  -3.6284  -3.6165  -3.6126  -3.6058  -3.5925  -3.5722
    -3.5417  -3.5000  -3.4806  -3.4645  -3.4547  -3.3548  -3.2551  -3.2375
    -3.2272  -3.1817  -3.1769  -3.1635  -3.1467  -3.0872  -3.0486  -3.0391
    -3.0127  -3.0072  -3.0015  -2.9683  -2.9381  -2.8757  -2.8666  -2.8402
    -2.8015  -2.7828  -2.7700  -2.7668  -2.7378  -2.7100  -2.7021  -2.6883
    -2.6601  -2.6101  -2.3652  -2.3533  -2.3302  -2.3189  -2.2959  -2.2131
    -2.2056  -2.1966  -2.1864  -2.1779  -2.1720  -2.1558  -2.1211  -2.0807
    -2.0723  -2.0580  -2.0376  -2.0031  -2.0006  -1.9952  -1.9930  -1.9702
    -1.9658  -1.9612  -1.9546  -1.9497  -1.9359  -1.9210  -1.8795  -1.8637
    -1.8495  -1.8222  -1.7954  -1.7740  -1.7684  -1.7599  -1.7509  -1.7435
    -1.7365  -1.7260  -1.7170  -1.7127  -1.7038  -1.6910  -1.6690  -1.6591
    -1.6454  -1.6317  -1.6208  -1.5604  -1.5383  -1.4881  -1.4400  -1.4376
    -1.4274  -1.4191  -1.4079  -1.4063  -1.3847  -1.3715  -1.2897  -1.2586
    -1.2359  -1.2158  -1.1555  -1.1450  -1.1224  -1.0873  -1.0625  -1.0473
    -0.9944  -0.9694  -0.9552  -0.9437  -0.9152  -0.9025  -0.8761  -0.8721
    -0.8542  -0.8249  -0.8055  -0.7809  -0.7741  -0.7667  -0.7570  -0.7414
    -0.7142  -0.6844  -0.6761  -0.6715  -0.6506  -0.6296  -0.6127  -0.6057
    -0.5981  -0.5927  -0.5852  -0.5761  -0.5615  -0.5490  -0.5343  -0.5281
    -0.4804  -0.4638  -0.4538  -0.4270  -0.4144  -0.3965  -0.3706  -0.3560
    -0.3464  -0.3332  -0.3256  -0.3237  -0.3036  -0.2965  -0.2917  -0.2495
    -0.2162  -0.2047  -0.2014  -0.1802  -0.1729  -0.1525  -0.1359  -0.1176
    -0.0599  -0.0009   0.1484   0.1775   0.2455   0.3257   0.4253   0.4542
     0.4866   0.7957

          k = 0.2000 0.1155 0.0000 ( 51134 PWs)   bands (ev):

   -21.9547  -9.3419  -7.4794  -6.3128  -6.0054  -5.7598  -5.5054  -5.4111
    -5.0298  -5.0157  -4.6698  -4.5336  -4.4506  -4.4442  -4.3862  -4.3309
    -4.2837  -4.2569  -4.1823  -4.1246  -4.1183  -3.8654  -3.7602  -3.7428
    -3.6965  -3.6620  -3.6244  -3.6182  -3.6128  -3.6087  -3.5876  -3.5804
    -3.5285  -3.5011  -3.4904  -3.4616  -3.4555  -3.3711  -3.2520  -3.2360
    -3.2272  -3.1818  -3.1765  -3.1635  -3.1495  -3.0667  -3.0485  -3.0417
    -3.0096  -3.0044  -2.9994  -2.9681  -2.9558  -2.8782  -2.8678  -2.8358
    -2.8051  -2.7813  -2.7704  -2.7600  -2.7422  -2.7099  -2.6998  -2.6953
    -2.6477  -2.6149  -2.3634  -2.3578  -2.3250  -2.3187  -2.2970  -2.2128
    -2.2074  -2.2005  -2.1841  -2.1806  -2.1688  -2.1541  -2.1187  -2.0807
    -2.0741  -2.0578  -2.0285  -2.0034  -1.9984  -1.9963  -1.9903  -1.9708
    -1.9655  -1.9613  -1.9541  -1.9500  -1.9367  -1.9161  -1.8897  -1.8648
    -1.8525  -1.8245  -1.7866  -1.7724  -1.7690  -1.7569  -1.7505  -1.7467
    -1.7370  -1.7277  -1.7201  -1.7125  -1.7104  -1.6886  -1.6666  -1.6609
    -1.6485  -1.6319  -1.6113  -1.5575  -1.5335  -1.4996  -1.4418  -1.4352
    -1.4246  -1.4155  -1.4108  -1.4041  -1.3852  -1.3720  -1.2782  -1.2593
    -1.2438  -1.2162  -1.1552  -1.1473  -1.1185  -1.0943  -1.0648  -1.0580
    -0.9943  -0.9706  -0.9578  -0.9325  -0.9216  -0.9041  -0.8747  -0.8696
    -0.8526  -0.8238  -0.8089  -0.7789  -0.7772  -0.7659  -0.7645  -0.7414
    -0.7135  -0.6812  -0.6728  -0.6711  -0.6522  -0.6193  -0.6163  -0.6059
    -0.5967  -0.5934  -0.5852  -0.5775  -0.5604  -0.5472  -0.5422  -0.5361
    -0.4775  -0.4585  -0.4490  -0.4304  -0.4101  -0.4064  -0.3687  -0.3561
    -0.3499  -0.3364  -0.3274  -0.3186  -0.3025  -0.2964  -0.2899  -0.2464
    -0.2132  -0.2052  -0.2004  -0.1783  -0.1741  -0.1320  -0.1275  -0.1162
    -0.0605  -0.0176   0.1528   0.1781   0.2157   0.3280   0.4264   0.4491
     0.4833   0.7785

          k = 0.2000 0.3464 0.0000 ( 51202 PWs)   bands (ev):

   -21.9547  -9.3318  -7.1966  -6.1900  -6.0635  -5.8989  -5.7496  -5.6144
    -5.3821  -4.7595  -4.6802  -4.4570  -4.4423  -4.4131  -4.2413  -4.2336
    -4.1407  -4.1325  -4.1209  -4.0047  -3.9873  -3.8667  -3.8514  -3.7910
    -3.7698  -3.7154  -3.6529  -3.6349  -3.6079  -3.5993  -3.5873  -3.5721
    -3.5530  -3.5384  -3.4947  -3.4696  -3.4380  -3.4079  -3.3859  -3.3415
    -3.2561  -3.2230  -3.1770  -3.1573  -3.1359  -3.1157  -3.0670  -3.0181
    -2.9783  -2.9617  -2.9436  -2.9270  -2.9211  -2.8810  -2.8713  -2.8483
    -2.8246  -2.8013  -2.7206  -2.6858  -2.6513  -2.6423  -2.6272  -2.5960
    -2.5704  -2.5605  -2.4688  -2.3980  -2.3831  -2.3584  -2.3373  -2.3104
    -2.2955  -2.2843  -2.2800  -2.2574  -2.2420  -2.2293  -2.2157  -2.2129
    -2.2058  -2.1638  -2.1273  -2.0839  -2.0353  -2.0304  -2.0039  -1.9918
    -1.9821  -1.9563  -1.9451  -1.9254  -1.9120  -1.8865  -1.8734  -1.8693
    -1.8626  -1.8496  -1.8365  -1.8285  -1.8165  -1.8087  -1.7913  -1.7830
    -1.7621  -1.7530  -1.7234  -1.6916  -1.6845  -1.6617  -1.6350  -1.6335
    -1.6234  -1.6006  -1.5900  -1.5565  -1.5344  -1.5235  -1.5048  -1.4756
    -1.4691  -1.4569  -1.4519  -1.4286  -1.4236  -1.3975  -1.3870  -1.3522
    -1.3159  -1.2963  -1.2798  -1.2292  -1.1850  -1.1572  -1.1384  -1.0734
    -1.0406  -1.0229  -1.0171  -0.9996  -0.9966  -0.9888  -0.9648  -0.9560
    -0.9405  -0.9257  -0.9021  -0.8636  -0.8589  -0.8407  -0.8188  -0.8130
    -0.7968  -0.7765  -0.7498  -0.7406  -0.7323  -0.7227  -0.6241  -0.5757
    -0.5721  -0.5502  -0.5373  -0.5282  -0.5161  -0.5078  -0.4881  -0.4815
    -0.4561  -0.4284  -0.3983  -0.3887  -0.3735  -0.3610  -0.3253  -0.3139
    -0.3028  -0.2959  -0.2936  -0.2688  -0.2581  -0.2528  -0.2484  -0.2204
    -0.2125  -0.1415  -0.1250  -0.1212  -0.0776  -0.0705  -0.0454   0.0521
     0.2339   0.2676   0.3081   0.4756   0.5766   0.6762   1.0620   1.1466
     1.2926   1.3923

          k = 0.2000-0.5774 0.0000 ( 51262 PWs)   bands (ev):

   -21.9547  -9.3259  -6.6593  -6.6465  -6.1454  -6.0012  -5.8148  -5.5691
    -5.2176  -5.1778  -4.7668  -4.4383  -4.1999  -4.1554  -4.0792  -4.0468
    -4.0184  -3.9946  -3.9918  -3.9772  -3.9189  -3.9107  -3.9048  -3.8971
    -3.8294  -3.8093  -3.7597  -3.7511  -3.7290  -3.7200  -3.6439  -3.5814
    -3.5691  -3.5524  -3.5428  -3.4760  -3.4194  -3.3902  -3.3279  -3.2798
    -3.2779  -3.2489  -3.1940  -3.1776  -3.1491  -3.1227  -3.0647  -3.0594
    -3.0268  -2.9925  -2.9566  -2.8959  -2.8630  -2.8445  -2.8257  -2.7821
    -2.7716  -2.7020  -2.6884  -2.6742  -2.6664  -2.6549  -2.6332  -2.6083
    -2.5298  -2.4850  -2.4707  -2.4572  -2.4534  -2.3992  -2.3860  -2.3382
    -2.3274  -2.2896  -2.2841  -2.2799  -2.2691  -2.2454  -2.2211  -2.2152
    -2.2000  -2.1908  -2.1700  -2.1482  -2.1442  -2.1174  -2.0716  -2.0502
    -2.0404  -2.0075  -1.9769  -1.9623  -1.9412  -1.9144  -1.8987  -1.8877
    -1.8673  -1.8549  -1.8478  -1.8432  -1.8279  -1.8135  -1.8022  -1.7929
    -1.7377  -1.7123  -1.7026  -1.6935  -1.6792  -1.6745  -1.6691  -1.6599
    -1.6550  -1.6444  -1.6262  -1.5879  -1.5778  -1.5519  -1.5404  -1.5099
    -1.4551  -1.4503  -1.4226  -1.4079  -1.3921  -1.3861  -1.3645  -1.3339
    -1.3084  -1.2908  -1.2623  -1.2285  -1.1916  -1.1571  -1.1463  -1.1317
    -1.1085  -1.1050  -1.0889  -1.0639  -1.0436  -1.0218  -1.0103  -1.0013
    -0.9529  -0.9288  -0.9196  -0.9155  -0.9099  -0.8674  -0.8362  -0.8209
    -0.8130  -0.7989  -0.7811  -0.7757  -0.7639  -0.7406  -0.6994  -0.5844
    -0.5441  -0.5390  -0.5304  -0.5191  -0.5065  -0.5012  -0.4815  -0.4741
    -0.4432  -0.4286  -0.4241  -0.4117  -0.3728  -0.3204  -0.3021  -0.2931
    -0.2784  -0.2677  -0.2492  -0.2382  -0.2053  -0.1947  -0.1886  -0.1721
    -0.1636  -0.1035  -0.0994  -0.0913  -0.0785  -0.0627  -0.0453   0.0054
     0.1819   0.2897   0.5293   0.8683   1.1578   1.2083   1.3639   1.5393
     1.7166   1.7549

          k = 0.2000-0.3464 0.0000 ( 51202 PWs)   bands (ev):

   -21.9547  -9.3323  -7.1951  -6.1872  -6.0413  -5.9094  -5.7687  -5.6242
    -5.3696  -4.7573  -4.6800  -4.4586  -4.4425  -4.4169  -4.2366  -4.2347
    -4.1402  -4.1329  -4.1231  -4.0044  -3.9866  -3.8646  -3.8499  -3.8018
    -3.7758  -3.7089  -3.6527  -3.6275  -3.6173  -3.6012  -3.5917  -3.5651
    -3.5517  -3.5392  -3.4896  -3.4603  -3.4401  -3.4029  -3.3862  -3.3324
    -3.2571  -3.2314  -3.1750  -3.1639  -3.1309  -3.1161  -3.0752  -3.0152
    -2.9736  -2.9668  -2.9427  -2.9286  -2.9195  -2.8828  -2.8627  -2.8431
    -2.8238  -2.8163  -2.7145  -2.7018  -2.6509  -2.6415  -2.6097  -2.5990
    -2.5786  -2.5637  -2.4648  -2.3973  -2.3787  -2.3563  -2.3377  -2.3090
    -2.2937  -2.2856  -2.2827  -2.2582  -2.2385  -2.2333  -2.2179  -2.2092
    -2.1988  -2.1716  -2.1326  -2.1051  -2.0346  -2.0276  -2.0054  -1.9899
    -1.9796  -1.9550  -1.9522  -1.9227  -1.9067  -1.8882  -1.8779  -1.8720
    -1.8611  -1.8491  -1.8448  -1.8265  -1.8147  -1.8101  -1.7920  -1.7753
    -1.7649  -1.7543  -1.7307  -1.6921  -1.6845  -1.6705  -1.6387  -1.6318
    -1.6275  -1.5966  -1.5893  -1.5588  -1.5318  -1.5091  -1.5035  -1.4785
    -1.4623  -1.4571  -1.4484  -1.4318  -1.4246  -1.3972  -1.3888  -1.3423
    -1.3182  -1.2847  -1.2746  -1.2298  -1.1821  -1.1495  -1.1470  -1.0607
    -1.0444  -1.0245  -1.0099  -1.0044  -0.9949  -0.9893  -0.9646  -0.9548
    -0.9399  -0.9300  -0.9047  -0.8636  -0.8549  -0.8428  -0.8221  -0.8049
    -0.7919  -0.7796  -0.7569  -0.7425  -0.7339  -0.7212  -0.6224  -0.5831
    -0.5725  -0.5518  -0.5399  -0.5286  -0.5165  -0.5024  -0.4909  -0.4799
    -0.4580  -0.4268  -0.3898  -0.3847  -0.3757  -0.3634  -0.3294  -0.3117
    -0.3015  -0.2979  -0.2922  -0.2671  -0.2606  -0.2515  -0.2430  -0.2247
    -0.2209  -0.1445  -0.1231  -0.1211  -0.0787  -0.0724  -0.0566   0.0647
     0.2193   0.2667   0.3026   0.4999   0.5552   0.6789   1.0974   1.1564
     1.3001   1.3618

          k = 0.4000-0.2309 0.0000 ( 51204 PWs)   bands (ev):

   -21.9547  -9.3276  -7.0610  -6.4202  -6.1168  -5.9487  -5.6084  -5.3940
    -5.1697  -5.1411  -5.0365  -4.3557  -4.2911  -4.2805  -4.2411  -4.2065
    -4.0971  -4.0893  -4.0563  -3.9640  -3.9547  -3.9481  -3.8660  -3.7813
    -3.7735  -3.7640  -3.7590  -3.7135  -3.6713  -3.6532  -3.6293  -3.5459
    -3.4879  -3.4804  -3.4656  -3.4423  -3.4264  -3.3692  -3.3337  -3.3239
    -3.3129  -3.3039  -3.2610  -3.1919  -3.0981  -3.0842  -3.0060  -2.9961
    -2.9711  -2.9507  -2.9295  -2.9241  -2.9081  -2.8972  -2.8583  -2.8266
    -2.8152  -2.7872  -2.7495  -2.7274  -2.6191  -2.6057  -2.5853  -2.5620
    -2.5345  -2.5000  -2.4789  -2.4635  -2.4439  -2.3898  -2.3312  -2.3302
    -2.3273  -2.3154  -2.3043  -2.2866  -2.2771  -2.2630  -2.2609  -2.2112
    -2.1951  -2.1660  -2.1506  -2.1318  -2.1065  -2.0878  -2.0629  -2.0085
    -1.9997  -1.9950  -1.9689  -1.9565  -1.9321  -1.8972  -1.8901  -1.8829
    -1.8734  -1.8506  -1.8445  -1.8254  -1.8154  -1.8016  -1.7992  -1.7727
    -1.7623  -1.7346  -1.6974  -1.6939  -1.6271  -1.6186  -1.5908  -1.5776
    -1.5689  -1.5478  -1.5358  -1.4905  -1.4797  -1.4653  -1.4585  -1.4513
    -1.4450  -1.4382  -1.4309  -1.4252  -1.4205  -1.4091  -1.3912  -1.3757
    -1.3533  -1.3427  -1.2927  -1.2472  -1.2315  -1.2148  -1.2010  -1.1692
    -1.1561  -1.1076  -1.0841  -1.0750  -1.0613  -1.0328  -1.0027  -0.9709
    -0.9528  -0.9150  -0.9000  -0.8891  -0.8617  -0.8331  -0.8067  -0.7729
    -0.7494  -0.7011  -0.6937  -0.6739  -0.6714  -0.6673  -0.6540  -0.6488
    -0.6269  -0.6216  -0.5332  -0.5213  -0.5181  -0.5093  -0.4934  -0.4844
    -0.4676  -0.4537  -0.4472  -0.4395  -0.4051  -0.3865  -0.3389  -0.3262
    -0.3140  -0.3010  -0.2730  -0.2328  -0.2249  -0.1950  -0.1842  -0.1480
    -0.1089  -0.1035  -0.0977  -0.0813  -0.0774  -0.0736  -0.0611  -0.0108
     0.0293   0.0761   0.4364   0.6930   0.9596   1.1111   1.1578   1.3104
     1.4694   1.5401

          k = 0.4000 0.0000 0.0000 ( 51202 PWs)   bands (ev):

   -21.9547  -9.3296  -7.2002  -6.1987  -6.0881  -5.8891  -5.7203  -5.6050
    -5.3994  -4.7458  -4.6847  -4.4596  -4.4548  -4.4070  -4.2406  -4.2345
    -4.1386  -4.1326  -4.1269  -4.0049  -3.9921  -3.8643  -3.8559  -3.7891
    -3.7484  -3.6981  -3.6546  -3.6470  -3.6084  -3.6037  -3.5876  -3.5789
    -3.5514  -3.5340  -3.5117  -3.4793  -3.4384  -3.4119  -3.3829  -3.3593
    -3.2689  -3.2154  -3.1759  -3.1469  -3.1334  -3.1180  -3.0607  -3.0156
    -2.9835  -2.9517  -2.9433  -2.9374  -2.9112  -2.8827  -2.8608  -2.8547
    -2.8315  -2.7847  -2.7293  -2.6603  -2.6503  -2.6369  -2.6237  -2.5886
    -2.5847  -2.5486  -2.4705  -2.3946  -2.3800  -2.3555  -2.3390  -2.3126
    -2.2949  -2.2861  -2.2808  -2.2583  -2.2420  -2.2312  -2.2270  -2.2091
    -2.1837  -2.1663  -2.1354  -2.0796  -2.0346  -2.0280  -2.0154  -1.9945
    -1.9763  -1.9629  -1.9418  -1.9237  -1.9155  -1.8846  -1.8716  -1.8645
    -1.8555  -1.8530  -1.8456  -1.8249  -1.8200  -1.8046  -1.7948  -1.7834
    -1.7557  -1.7293  -1.7102  -1.6904  -1.6824  -1.6697  -1.6380  -1.6354
    -1.6203  -1.6077  -1.5897  -1.5672  -1.5389  -1.5237  -1.5000  -1.4832
    -1.4704  -1.4617  -1.4496  -1.4312  -1.4197  -1.4119  -1.3903  -1.3598
    -1.3110  -1.3066  -1.2943  -1.2214  -1.1730  -1.1609  -1.1429  -1.0807
    -1.0346  -1.0250  -1.0183  -1.0113  -0.9940  -0.9850  -0.9710  -0.9659
    -0.9434  -0.9216  -0.9018  -0.8610  -0.8450  -0.8391  -0.8175  -0.8104
    -0.7886  -0.7721  -0.7510  -0.7440  -0.7360  -0.7236  -0.6220  -0.5776
    -0.5699  -0.5453  -0.5370  -0.5280  -0.5149  -0.5071  -0.4876  -0.4799
    -0.4620  -0.4250  -0.4048  -0.3863  -0.3729  -0.3558  -0.3161  -0.3121
    -0.2999  -0.2981  -0.2892  -0.2693  -0.2584  -0.2535  -0.2452  -0.2215
    -0.2103  -0.1401  -0.1252  -0.1224  -0.0819  -0.0777  -0.0292   0.0541
     0.2612   0.2683   0.3282   0.4390   0.5881   0.6515   0.9821   1.1552
     1.2582   1.3989

          k = 0.4000 0.2309 0.0000 ( 51204 PWs)   bands (ev):

   -21.9547  -9.3268  -7.0632  -6.4279  -6.1258  -5.9461  -5.5604  -5.4276
    -5.1707  -5.1325  -5.0396  -4.3537  -4.3034  -4.2767  -4.2419  -4.2077
    -4.0958  -4.0872  -4.0560  -3.9620  -3.9546  -3.9495  -3.8557  -3.7782
    -3.7736  -3.7645  -3.7574  -3.7102  -3.6580  -3.6553  -3.6344  -3.5685
    -3.4909  -3.4844  -3.4714  -3.4411  -3.4322  -3.3805  -3.3316  -3.3255
    -3.3140  -3.3021  -3.2612  -3.1657  -3.0991  -3.0695  -3.0059  -2.9898
    -2.9712  -2.9595  -2.9298  -2.9276  -2.9154  -2.9010  -2.8486  -2.8263
    -2.8196  -2.7873  -2.7561  -2.7139  -2.6122  -2.6015  -2.5917  -2.5691
    -2.5371  -2.4922  -2.4763  -2.4679  -2.4572  -2.3870  -2.3373  -2.3286
    -2.3249  -2.3172  -2.3059  -2.2881  -2.2720  -2.2676  -2.2505  -2.2057
    -2.1886  -2.1698  -2.1543  -2.1342  -2.1002  -2.0848  -2.0522  -2.0179
    -2.0002  -1.9949  -1.9663  -1.9553  -1.9256  -1.8966  -1.8904  -1.8780
    -1.8699  -1.8538  -1.8470  -1.8217  -1.8143  -1.8076  -1.8011  -1.7759
    -1.7569  -1.7327  -1.7031  -1.6961  -1.6343  -1.6206  -1.5909  -1.5736
    -1.5624  -1.5528  -1.5309  -1.4857  -1.4773  -1.4714  -1.4603  -1.4547
    -1.4433  -1.4405  -1.4302  -1.4244  -1.4183  -1.4119  -1.3977  -1.3737
    -1.3541  -1.3345  -1.3025  -1.2468  -1.2245  -1.2188  -1.2031  -1.1644
    -1.1583  -1.1141  -1.0942  -1.0757  -1.0675  -1.0228  -1.0123  -0.9749
    -0.9517  -0.9139  -0.8980  -0.8939  -0.8627  -0.8329  -0.8045  -0.7741
    -0.7449  -0.7029  -0.6939  -0.6765  -0.6699  -0.6619  -0.6561  -0.6427
    -0.6310  -0.6260  -0.5298  -0.5223  -0.5200  -0.5033  -0.4913  -0.4804
    -0.4702  -0.4592  -0.4437  -0.4321  -0.4150  -0.3856  -0.3366  -0.3222
    -0.3154  -0.3030  -0.2708  -0.2313  -0.2230  -0.1914  -0.1846  -0.1464
    -0.1080  -0.1010  -0.0974  -0.0790  -0.0753  -0.0725  -0.0531  -0.0154
     0.0286   0.0743   0.4117   0.7737   0.9254   1.0723   1.1620   1.2291
     1.5002   1.5374

          k = 0.4000-0.6928 0.0000 ( 51262 PWs)   bands (ev):

   -21.9547  -9.3233  -6.6910  -6.6374  -6.1190  -5.9860  -5.8977  -5.4495
    -5.2698  -5.1889  -4.7615  -4.4383  -4.2139  -4.1565  -4.0992  -4.0240
    -4.0174  -3.9970  -3.9883  -3.9619  -3.9241  -3.9091  -3.9053  -3.8967
    -3.8383  -3.7823  -3.7588  -3.7517  -3.7276  -3.7189  -3.6312  -3.5817
    -3.5731  -3.5638  -3.5471  -3.5024  -3.4624  -3.3998  -3.3174  -3.2792
    -3.2736  -3.2499  -3.1870  -3.1775  -3.1486  -3.0857  -3.0658  -3.0571
    -3.0477  -2.9868  -2.9662  -2.8974  -2.8599  -2.8372  -2.8188  -2.7762
    -2.7520  -2.6998  -2.6886  -2.6833  -2.6730  -2.6595  -2.6109  -2.6012
    -2.5317  -2.4821  -2.4710  -2.4587  -2.4502  -2.4043  -2.3920  -2.3372
    -2.3259  -2.2911  -2.2866  -2.2723  -2.2615  -2.2481  -2.2186  -2.2043
    -2.1948  -2.1854  -2.1676  -2.1500  -2.1437  -2.1105  -2.0857  -2.0641
    -2.0450  -2.0316  -1.9785  -1.9513  -1.9216  -1.9136  -1.9030  -1.8901
    -1.8640  -1.8604  -1.8419  -1.8308  -1.8290  -1.8034  -1.7930  -1.7729
    -1.7319  -1.7131  -1.7024  -1.6989  -1.6831  -1.6764  -1.6737  -1.6618
    -1.6538  -1.6473  -1.6235  -1.6104  -1.5705  -1.5538  -1.5349  -1.5307
    -1.4652  -1.4584  -1.4331  -1.4042  -1.3891  -1.3773  -1.3645  -1.3478
    -1.2997  -1.2943  -1.2732  -1.2247  -1.1778  -1.1624  -1.1543  -1.1264
    -1.1147  -1.0970  -1.0862  -1.0774  -1.0556  -1.0338  -1.0012  -0.9829
    -0.9517  -0.9420  -0.9275  -0.9109  -0.8990  -0.8720  -0.8413  -0.8357
    -0.8096  -0.7988  -0.7861  -0.7666  -0.7541  -0.7354  -0.7061  -0.5876
    -0.5434  -0.5354  -0.5257  -0.5122  -0.5089  -0.4956  -0.4809  -0.4581
    -0.4486  -0.4318  -0.4305  -0.4209  -0.3585  -0.3059  -0.2984  -0.2907
    -0.2826  -0.2672  -0.2488  -0.2228  -0.2036  -0.1955  -0.1861  -0.1734
    -0.1674  -0.1269  -0.0990  -0.0906  -0.0783  -0.0622  -0.0449   0.0045
     0.1850   0.3061   0.6070   0.8857   0.9777   1.2076   1.2820   1.6138
     1.7084   1.7489

          k = 0.4000-0.4619 0.0000 ( 51262 PWs)   bands (ev):

   -21.9547  -9.3238  -6.6845  -6.6368  -6.1293  -5.9961  -5.8632  -5.4976
    -5.2488  -5.1842  -4.7591  -4.4389  -4.2061  -4.1546  -4.1058  -4.0284
    -4.0173  -3.9974  -3.9898  -3.9678  -3.9205  -3.9085  -3.9053  -3.8983
    -3.8391  -3.7861  -3.7595  -3.7514  -3.7292  -3.7170  -3.6345  -3.5844
    -3.5728  -3.5581  -3.5464  -3.4910  -3.4385  -3.4032  -3.3228  -3.2789
    -3.2746  -3.2582  -3.1870  -3.1737  -3.1499  -3.1211  -3.0660  -3.0560
    -3.0304  -2.9881  -2.9441  -2.8963  -2.8604  -2.8406  -2.8292  -2.7756
    -2.7603  -2.6984  -2.6931  -2.6788  -2.6737  -2.6540  -2.6275  -2.5847
    -2.5297  -2.4783  -2.4710  -2.4617  -2.4538  -2.4004  -2.3843  -2.3372
    -2.3263  -2.2906  -2.2809  -2.2772  -2.2675  -2.2512  -2.2243  -2.2089
    -2.1959  -2.1847  -2.1700  -2.1518  -2.1459  -2.1059  -2.0787  -2.0623
    -2.0516  -2.0373  -1.9723  -1.9581  -1.9311  -1.9083  -1.8927  -1.8878
    -1.8666  -1.8584  -1.8492  -1.8353  -1.8263  -1.8037  -1.7970  -1.7804
    -1.7339  -1.7143  -1.7035  -1.6969  -1.6833  -1.6740  -1.6673  -1.6640
    -1.6493  -1.6479  -1.6236  -1.5990  -1.5684  -1.5538  -1.5401  -1.5241
    -1.4699  -1.4587  -1.4320  -1.4015  -1.3919  -1.3776  -1.3692  -1.3385
    -1.3026  -1.2916  -1.2735  -1.2031  -1.1870  -1.1652  -1.1530  -1.1307
    -1.1143  -1.1014  -1.0845  -1.0688  -1.0498  -1.0336  -1.0092  -0.9929
    -0.9509  -0.9441  -0.9252  -0.9186  -0.8924  -0.8687  -0.8366  -0.8252
    -0.8171  -0.7959  -0.7800  -0.7682  -0.7621  -0.7343  -0.7072  -0.5837
    -0.5464  -0.5344  -0.5234  -0.5174  -0.5038  -0.4974  -0.4851  -0.4654
    -0.4436  -0.4401  -0.4275  -0.4112  -0.3620  -0.3175  -0.2970  -0.2910
    -0.2736  -0.2672  -0.2504  -0.2295  -0.2088  -0.1943  -0.1901  -0.1729
    -0.1610  -0.1161  -0.0975  -0.0922  -0.0796  -0.0620  -0.0437   0.0052
     0.1796   0.3033   0.5762   0.8776   1.0254   1.2096   1.3026   1.5922
     1.7137   1.7520

 ------ SPIN DOWN ----------


          k = 0.0000 0.0000 0.0000 ( 51087 PWs)   bands (ev):

   -22.0271  -9.4290  -7.7564  -6.4796  -6.0067  -5.8045  -5.4422  -4.6314
    -4.6003  -4.5973  -4.5942  -4.5724  -4.5568  -4.4773  -3.7542  -3.7262
    -3.7214  -3.7065  -3.6951  -3.6892  -3.6079  -3.1483  -2.7876  -2.7805
    -2.7737  -2.7644  -2.7019  -2.5801  -2.3263  -2.3161  -2.3094  -2.3047
    -2.2862  -2.2760  -2.1148  -2.1087  -2.0454  -2.0269  -2.0144  -2.0131
    -1.9306  -1.9263  -1.8787  -1.8746  -1.8345  -1.8088  -1.7949  -1.7666
    -1.7476  -1.7144  -1.5414  -1.5358  -1.5147  -1.5018  -1.4857  -1.4843
    -1.4739  -1.4724  -1.4425  -1.4392  -1.4119  -1.3980  -1.3942  -1.3934
    -1.3115  -1.2674  -0.8913  -0.8453  -0.8287  -0.8175  -0.8038  -0.7341
    -0.6449  -0.6118  -0.5247  -0.5108  -0.4991  -0.4910  -0.4810  -0.4718
    -0.4493  -0.4319  -0.4071  -0.4023  -0.3980  -0.3973  -0.3531  -0.3402
    -0.3354  -0.3029  -0.2897  -0.2870  -0.2628  -0.2507  -0.2426  -0.2381
    -0.2337  -0.2247  -0.2149  -0.2130  -0.2090  -0.2065  -0.1499  -0.1168
    -0.1078  -0.0811  -0.0661  -0.0561   0.0027   0.0103   0.0175   0.0194
     0.0225   0.0260   0.0303   0.0488   0.0996   0.1013   0.1520   0.1772
     0.1875   0.1952   0.2040   0.2254   0.2714   0.4088   0.4199   0.4581
     0.4760   0.4960   0.5076   0.5095   0.5820   0.7140   0.7920   0.8256
     0.8437   0.8854   0.9751   1.0158   1.0327   1.0650   1.0737   1.0758
     1.1390   1.2167   1.2237   1.2296   1.2428   1.2505   1.2573   1.2788
     1.2902   1.3086   1.3180   1.3339   1.3459   1.3492   1.3590   1.3902
     1.3964   1.4000   1.4030   1.4103   1.4440   1.4574   1.4668   1.4765
     1.4860   1.5040   1.5090   1.5167   1.5247   1.5314   1.5330   1.5667
     1.5713   1.5918   1.5956   1.6028   1.6122   1.6190   1.6237   1.6569
     1.6603   1.6663   1.6687   1.6734   1.6784   1.6853   1.6925   1.6959
     1.7021   1.7470   1.7486   1.8892   1.8975   1.9009   1.9020   1.9051
     1.9083   1.9843

          k = 0.0000 0.2309 0.0000 ( 51134 PWs)   bands (ev):

   -22.0271  -9.4211  -7.6122  -6.3783  -6.0117  -5.8296  -5.5471  -5.4019
    -4.9713  -4.9546  -4.4651  -4.3371  -4.0516  -4.0440  -3.9448  -3.9219
    -3.7571  -3.5441  -3.4016  -3.3711  -3.3076  -3.1757  -2.9114  -2.7762
    -2.7458  -2.7022  -2.6529  -2.5891  -2.4180  -2.3480  -2.3418  -2.3370
    -2.3012  -2.2965  -2.2547  -2.2501  -2.2156  -2.2011  -2.0782  -2.0653
    -1.9873  -1.9837  -1.9556  -1.8592  -1.8255  -1.7913  -1.7826  -1.6861
    -1.6606  -1.6404  -1.5839  -1.5526  -1.5333  -1.5163  -1.4910  -1.4882
    -1.4795  -1.4721  -1.3872  -1.3675  -1.3532  -1.3365  -1.3022  -1.2540
    -1.2378  -1.1418  -0.9530  -0.9191  -0.8762  -0.8692  -0.8185  -0.7680
    -0.7307  -0.6985  -0.6613  -0.6255  -0.6079  -0.5456  -0.5311  -0.5194
    -0.4732  -0.4605  -0.4583  -0.4514  -0.4383  -0.4107  -0.3968  -0.3640
    -0.3397  -0.3034  -0.2870  -0.2859  -0.2668  -0.2469  -0.2320  -0.2124
    -0.2056  -0.2013  -0.1918  -0.1863  -0.1840  -0.1808  -0.1571  -0.1384
    -0.1196  -0.0992  -0.0915  -0.0809  -0.0549  -0.0380  -0.0247  -0.0089
     0.0087   0.0325   0.0537   0.0730   0.1127   0.1297   0.1353   0.1670
     0.2514   0.2878   0.3225   0.3716   0.3883   0.4020   0.4424   0.4506
     0.4601   0.4662   0.4802   0.4893   0.6101   0.7011   0.7874   0.8129
     0.8181   0.8307   0.8427   0.8527   0.9033   0.9215   0.9721   0.9900
     1.0268   1.0359   1.0812   1.1032   1.1273   1.1450   1.1718   1.2219
     1.2337   1.2636   1.2779   1.2980   1.3079   1.3158   1.3536   1.3629
     1.3917   1.4062   1.4399   1.4503   1.4719   1.4826   1.4927   1.5078
     1.5458   1.5576   1.5617   1.5661   1.5914   1.6406   1.6469   1.6553
     1.6604   1.6750   1.6913   1.7142   1.7160   1.7324   1.7395   1.7443
     1.7650   1.8050   1.8097   1.8253   1.8325   1.8395   1.8529   1.8676
     1.8874   1.8910   1.9010   1.9221   1.9868   2.0003   2.0058   2.0548
     2.0829   2.1194

          k = 0.0000 0.4619 0.0000 ( 51204 PWs)   bands (ev):

   -22.0271  -9.4086  -7.1848  -6.5078  -6.1545  -5.9896  -5.7081  -5.3895
    -5.1908  -5.1471  -5.0216  -4.1422  -4.0644  -3.9839  -3.5786  -3.4352
    -3.4250  -3.3209  -3.2559  -3.1431  -3.0334  -2.9823  -2.9497  -2.8298
    -2.8259  -2.7629  -2.7144  -2.6895  -2.6361  -2.5861  -2.5729  -2.5278
    -2.5015  -2.4258  -2.2995  -2.2866  -2.2183  -2.2113  -2.0999  -2.0950
    -2.0791  -2.0715  -2.0590  -1.8414  -1.7976  -1.7807  -1.7455  -1.7310
    -1.5829  -1.5648  -1.5525  -1.5418  -1.5389  -1.5049  -1.4979  -1.4845
    -1.4645  -1.3913  -1.3779  -1.3616  -1.3493  -1.3310  -1.1873  -1.1509
    -1.0669  -1.0137  -0.9388  -0.9076  -0.8969  -0.8658  -0.8433  -0.8273
    -0.8114  -0.7976  -0.7779  -0.7447  -0.7052  -0.6656  -0.6541  -0.6238
    -0.5915  -0.5769  -0.5478  -0.5392  -0.5036  -0.4890  -0.4388  -0.3756
    -0.3641  -0.3446  -0.3365  -0.3067  -0.2880  -0.2644  -0.2299  -0.2193
    -0.1808  -0.1742  -0.1579  -0.1439  -0.1326  -0.1276  -0.1102  -0.0799
    -0.0732  -0.0495  -0.0390  -0.0336  -0.0221  -0.0122   0.0049   0.0172
     0.0304   0.0573   0.0777   0.1285   0.1744   0.1784   0.1996   0.2323
     0.2386   0.2546   0.2649   0.3006   0.3364   0.3528   0.3563   0.3812
     0.4180   0.4219   0.4454   0.4564   0.4931   0.5490   0.6240   0.6363
     0.6852   0.7190   0.7513   0.8171   0.8563   0.8834   0.9006   0.9146
     0.9362   0.9534   0.9813   1.0028   1.0177   1.0791   1.1616   1.2054
     1.2184   1.2484   1.2654   1.2908   1.3266   1.3380   1.3627   1.3770
     1.4050   1.4246   1.4300   1.4809   1.5075   1.5192   1.5591   1.5711
     1.5795   1.5832   1.6117   1.6313   1.6458   1.6572   1.6681   1.6935
     1.7030   1.7619   1.7648   1.8004   1.8127   1.8333   1.8404   1.8575
     1.8638   1.8866   1.8915   1.9072   1.9247   1.9300   1.9392   1.9416
     1.9872   2.0277   2.0587   2.1352   2.1520   2.2505   2.5806   2.6527
     2.6767   2.7204

          k = 0.2000-0.1155 0.0000 ( 51134 PWs)   bands (ev):

   -22.0271  -9.4199  -7.6133  -6.3841  -6.0372  -5.7883  -5.5542  -5.4077
    -4.9662  -4.9577  -4.4636  -4.3417  -4.0512  -4.0439  -3.9569  -3.9053
    -3.7606  -3.5471  -3.4118  -3.3709  -3.2853  -3.1574  -2.9453  -2.7670
    -2.7391  -2.7162  -2.6563  -2.5695  -2.4327  -2.3483  -2.3419  -2.3336
    -2.3062  -2.2859  -2.2561  -2.2540  -2.2132  -2.2019  -2.0754  -2.0667
    -1.9896  -1.9854  -1.9578  -1.8417  -1.8182  -1.7936  -1.7736  -1.6919
    -1.6559  -1.6401  -1.5828  -1.5536  -1.5371  -1.5100  -1.4920  -1.4894
    -1.4787  -1.4575  -1.3995  -1.3659  -1.3524  -1.3334  -1.3079  -1.2758
    -1.2282  -1.1425  -0.9531  -0.9190  -0.8761  -0.8721  -0.8270  -0.7598
    -0.7395  -0.7183  -0.6698  -0.6234  -0.6035  -0.5479  -0.5225  -0.5135
    -0.4734  -0.4690  -0.4544  -0.4459  -0.4330  -0.4160  -0.4059  -0.3706
    -0.3240  -0.3040  -0.2881  -0.2850  -0.2754  -0.2529  -0.2251  -0.2173
    -0.2049  -0.1944  -0.1928  -0.1850  -0.1843  -0.1801  -0.1639  -0.1363
    -0.1119  -0.0977  -0.0839  -0.0790  -0.0731  -0.0457  -0.0355  -0.0084
     0.0212   0.0267   0.0663   0.0806   0.1066   0.1288   0.1366   0.1671
     0.2551   0.2946   0.3241   0.3667   0.3924   0.4122   0.4325   0.4461
     0.4588   0.4652   0.4850   0.4900   0.5955   0.7236   0.7845   0.8072
     0.8154   0.8314   0.8443   0.8577   0.9020   0.9121   0.9745   0.9964
     1.0285   1.0567   1.0835   1.1131   1.1335   1.1491   1.1751   1.1875
     1.2382   1.2574   1.2785   1.2943   1.3037   1.3182   1.3535   1.3626
     1.3842   1.4057   1.4332   1.4540   1.4711   1.4859   1.5015   1.5288
     1.5457   1.5568   1.5634   1.5654   1.5847   1.6289   1.6442   1.6501
     1.6582   1.6762   1.6882   1.7156   1.7204   1.7316   1.7385   1.7508
     1.7622   1.8067   1.8089   1.8287   1.8330   1.8395   1.8501   1.8665
     1.8807   1.8900   1.8993   1.9116   1.9861   2.0002   2.0083   2.0568
     2.0813   2.1274

          k = 0.2000 0.1155 0.0000 ( 51134 PWs)   bands (ev):

   -22.0271  -9.4196  -7.6137  -6.3877  -6.0470  -5.7720  -5.5284  -5.4385
    -4.9626  -4.9585  -4.4661  -4.3373  -4.0492  -4.0453  -3.9510  -3.9154
    -3.7582  -3.5480  -3.4124  -3.3739  -3.2822  -3.1518  -2.9464  -2.7886
    -2.7295  -2.6970  -2.6735  -2.5609  -2.4399  -2.3490  -2.3421  -2.3308
    -2.3065  -2.2863  -2.2554  -2.2459  -2.2140  -2.2053  -2.0753  -2.0706
    -1.9913  -1.9852  -1.9387  -1.8431  -1.8234  -1.7929  -1.7853  -1.6744
    -1.6616  -1.6483  -1.5756  -1.5632  -1.5392  -1.5067  -1.4917  -1.4888
    -1.4818  -1.4350  -1.3996  -1.3792  -1.3555  -1.3374  -1.3086  -1.2734
    -1.2343  -1.1343  -0.9555  -0.9217  -0.8751  -0.8587  -0.8110  -0.7886
    -0.7482  -0.7043  -0.6618  -0.6259  -0.6053  -0.5485  -0.5323  -0.5009
    -0.4808  -0.4661  -0.4567  -0.4476  -0.4395  -0.4199  -0.4076  -0.3656
    -0.3181  -0.3018  -0.2874  -0.2857  -0.2762  -0.2500  -0.2233  -0.2143
    -0.2055  -0.1969  -0.1919  -0.1864  -0.1844  -0.1837  -0.1508  -0.1366
    -0.1115  -0.1011  -0.0863  -0.0814  -0.0705  -0.0440  -0.0297  -0.0167
     0.0192   0.0305   0.0775   0.0896   0.0952   0.1237   0.1376   0.1682
     0.2377   0.2939   0.3300   0.3597   0.3814   0.4054   0.4331   0.4448
     0.4559   0.4716   0.4854   0.4891   0.6336   0.7022   0.7875   0.8028
     0.8163   0.8248   0.8495   0.8613   0.8869   0.9137   0.9538   0.9879
     1.0082   1.0761   1.0908   1.1138   1.1319   1.1589   1.1751   1.1850
     1.2353   1.2679   1.2914   1.3001   1.3057   1.3152   1.3530   1.3614
     1.3826   1.4070   1.4375   1.4624   1.4693   1.4858   1.5020   1.5196
     1.5420   1.5537   1.5628   1.5692   1.5829   1.6280   1.6380   1.6497
     1.6601   1.6746   1.6937   1.7170   1.7225   1.7313   1.7393   1.7490
     1.7640   1.8068   1.8105   1.8274   1.8316   1.8404   1.8470   1.8657
     1.8821   1.8942   1.8991   1.9025   1.9862   1.9982   2.0088   2.0486
     2.0840   2.1309

          k = 0.2000 0.3464 0.0000 ( 51202 PWs)   bands (ev):

   -22.0271  -9.4094  -7.3282  -6.2487  -6.1202  -5.9797  -5.8081  -5.6336
    -5.4106  -4.7140  -4.5974  -4.2448  -4.2232  -4.1488  -3.4973  -3.4115
    -3.3948  -3.3920  -3.3605  -3.2552  -3.1314  -3.1077  -3.0737  -2.8745
    -2.7261  -2.6518  -2.6413  -2.6236  -2.5549  -2.5380  -2.5233  -2.4448
    -2.4399  -2.4263  -2.3987  -2.3532  -2.2785  -2.2284  -2.0749  -2.0533
[...]
     atom    8 type  1   force =    -0.00318767   -0.00097033   -0.10450773
     atom    9 type  1   force =     0.00426512   -0.00033636   -0.10541915
     atom   10 type  1   force =    -0.00051376    0.00065957   -0.00943229
     atom   11 type  1   force =    -0.00015074   -0.00028773   -0.00727194
     atom   12 type  1   force =     0.00050366    0.00054359   -0.00856075
     atom   13 type  1   force =     0.00006637   -0.00142090   -0.01103181
     atom   14 type  1   force =    -0.00009256   -0.00128436   -0.01124575
     atom   15 type  1   force =    -0.00059768   -0.00050423   -0.01297318
     atom   16 type  1   force =    -0.00045779    0.00172023   -0.01650052
     atom   17 type  1   force =     0.00194044   -0.00045266   -0.00861068
     atom   18 type  1   force =    -0.00139697    0.00140049   -0.01241863
     atom   19 type  1   force =     0.00254257    0.00391182    0.00931327
     atom   20 type  1   force =    -0.00036946    0.01750981   -0.00265853
     atom   21 type  1   force =    -0.00183876   -0.00015562    0.01474551
     atom   22 type  1   force =     0.00014752    0.00064859    0.01855630
     atom   23 type  1   force =    -0.00093452   -0.00106533    0.01289280
     atom   24 type  1   force =    -0.00078967    0.00028418    0.01251841
     atom   25 type  1   force =    -0.00413194   -0.00289622    0.00583508
     atom   26 type  1   force =    -0.00900840   -0.00910185   -0.00375390
     atom   27 type  1   force =     0.01487078   -0.00752560   -0.00153548
     atom   28 type  1   force =     0.04472135   -0.01445954    0.11303516
     atom   29 type  1   force =    -0.08250912   -0.02061348    0.07198376
     atom   30 type  1   force =    -0.00406919    0.00065743    0.12406929
     atom   31 type  1   force =     0.00397692   -0.02362782    0.13873633
     atom   32 type  1   force =    -0.00056567   -0.00833781    0.12563832
     atom   33 type  1   force =    -0.00046496   -0.00039668    0.10560780
     atom   34 type  1   force =     0.00174021    0.00119251    0.11537007
     atom   35 type  1   force =    -0.00048131    0.04405576    0.14090291
     atom   36 type  1   force =     0.00138226    0.00851442    0.12562438
     atom   37 type  2   force =    -0.02241601   -0.05172918    0.39967975
     atom   38 type  3   force =     0.68208080    0.18469119   -2.62328357
     atom   39 type  4   force =    -0.00965297   -0.00217245   -0.02745080
     The ionic contribution  to forces
     atom    1 type  1   force =    -0.00588446    0.00828810 -111.13578543
     atom    2 type  1   force =     0.00508574    0.00865025 -111.13737587
     atom    3 type  1   force =     0.00079869    0.00224890 -111.12568791
     atom    4 type  1   force =    -0.00009421    0.00166630 -111.12457627
     atom    5 type  1   force =    -0.00256650   -0.00571673 -111.12983177
     atom    6 type  1   force =     0.00266071   -0.00657075 -111.12963689
     atom    7 type  1   force =    -0.00775074   -0.00202764 -111.13295555
     atom    8 type  1   force =    -0.00070095   -0.00398342 -111.14995404
     atom    9 type  1   force =     0.00845173   -0.00255502 -111.13436686
     atom   10 type  1   force =    -0.06237649    0.01479384  -40.17863718
     atom   11 type  1   force =     0.05624259    0.01292079  -40.19079601
     atom   12 type  1   force =     0.00612426    0.00457299  -40.06767536
     atom   13 type  1   force =    -0.00432371    0.06886875  -40.09776417
     atom   14 type  1   force =     0.02293376    0.01701326  -40.06021613
     atom   15 type  1   force =    -0.01860672    0.01259654  -40.05158431
     atom   16 type  1   force =    -0.03495211   -0.02499275  -40.06291980
     atom   17 type  1   force =    -0.00130684   -0.07487598  -40.13623370
     atom   18 type  1   force =     0.03626206   -0.03089588  -40.06556823
     atom   19 type  1   force =    -0.29429080    0.41904888   31.27035174
     atom   20 type  1   force =     0.25266212    0.44658477   31.19456967
     atom   21 type  1   force =     0.04064397    0.10003391   31.71956963
     atom   22 type  1   force =    -0.00433448    0.06996327   31.76976260
     atom   23 type  1   force =    -0.12313133   -0.27478279   31.55509472
     atom   24 type  1   force =     0.12736510   -0.30802385   31.56789474
     atom   25 type  1   force =    -0.38380300   -0.09343354   31.41023646
     atom   26 type  1   force =    -0.03298018   -0.23242366   30.45974216
     atom   27 type  1   force =     0.41836153   -0.13084367   31.33321555
     atom   28 type  1   force =    -4.64910435    1.16628697   98.68450895
     atom   29 type  1   force =     3.78894562    0.86137249   97.76038839
     atom   30 type  1   force =     0.38414749    0.09811597  104.01877736
     atom   31 type  1   force =    -0.10880347    2.70595501  103.29661724
     atom   32 type  1   force =     0.68771450    0.69094524  104.20844111
     atom   33 type  1   force =    -0.55422175    0.44125959  104.37304477
     atom   34 type  1   force =    -1.17154791   -0.87924792  104.07777300
     atom   35 type  1   force =     0.05357973   -3.86267570  101.72646728
     atom   36 type  1   force =     1.14472963   -1.06512111  104.12193801
     atom   37 type  2   force =     1.69210681    0.30518942   51.44129387
     atom   38 type  3   force =    -2.56311903   -0.75628828   89.78791598
     atom   39 type  4   force =     1.29508300    0.29808346   15.33396225
     The local contribution  to forces
     atom    1 type  1   force =     0.00328933   -0.00647354  111.24267931
     atom    2 type  1   force =    -0.00354801   -0.01194003  111.24366027
     atom    3 type  1   force =     0.00074594   -0.00065741  111.23015812
     atom    4 type  1   force =    -0.00021561   -0.00234052  111.23136074
     atom    5 type  1   force =     0.00157645    0.00518249  111.23567264
     atom    6 type  1   force =    -0.00097564    0.00505972  111.23694059
     atom    7 type  1   force =     0.00958798    0.00234387  111.24107382
     atom    8 type  1   force =     0.00376057    0.00551506  111.25827192
     atom    9 type  1   force =    -0.01341207    0.00424879  111.24259878
     atom   10 type  1   force =     0.06143764   -0.01677311   40.16816526
     atom   11 type  1   force =    -0.05536250   -0.01337076   40.17633754
     atom   12 type  1   force =    -0.00611068   -0.00512337   40.05718854
     atom   13 type  1   force =     0.00399751   -0.06656896   40.09226994
     atom   14 type  1   force =    -0.02347616   -0.01557121   40.05168367
     atom   15 type  1   force =     0.01968307   -0.01216360   40.04351596
     atom   16 type  1   force =     0.03522973    0.02458322   40.05870732
     atom   17 type  1   force =    -0.00098523    0.07491011   40.12835699
     atom   18 type  1   force =    -0.03409344    0.03013602   40.05899657
     atom   19 type  1   force =     0.29285618   -0.42009094  -31.26293336
     atom   20 type  1   force =    -0.25309552   -0.46180534  -31.17630001
     atom   21 type  1   force =    -0.03768353   -0.09928831  -31.71181672
     atom   22 type  1   force =     0.00317015   -0.07163717  -31.76288773
     atom   23 type  1   force =     0.12332618    0.27423755  -31.54477290
     atom   24 type  1   force =    -0.12610125    0.30720509  -31.56022350
     atom   25 type  1   force =     0.38550880    0.09537864  -31.39966873
     atom   26 type  1   force =     0.04161610    0.24073169  -30.44587458
     atom   27 type  1   force =    -0.43400384    0.13804603  -31.31607542
     atom   28 type  1   force =     4.57393650   -1.14563706  -98.81246699
     atom   29 type  1   force =    -3.70066847   -0.84214120  -97.79784871
     atom   30 type  1   force =    -0.37813699   -0.09955105 -104.14843096
     atom   31 type  1   force =     0.09997718   -2.66828668 -103.44515110
     atom   32 type  1   force =    -0.68504443   -0.67750717 -104.34266527
     atom   33 type  1   force =     0.55462202   -0.44003263 -104.48854506
     atom   34 type  1   force =     1.16758184    0.87617773 -104.20093027
     atom   35 type  1   force =    -0.05662928    3.80402081 -101.87336030
     atom   36 type  1   force =    -1.14048937    1.04859465 -104.25560210
     atom   37 type  2   force =    -1.67324698   -0.25702896  -51.84198456
     atom   38 type  3   force =     1.89838842    0.57081645  -87.18044798
     atom   39 type  4   force =    -1.25624027   -0.28952080  -15.31969749
     The core correction contribution to forces
     atom    1 type  1   force =    -0.00004912    0.00006746    0.00981201
     atom    2 type  1   force =     0.00007649   -0.00023607    0.01016148
     atom    3 type  1   force =     0.00024292    0.00004980    0.00972156
     atom    4 type  1   force =     0.00009503   -0.00010058    0.01024729
     atom    5 type  1   force =     0.00018411   -0.00002332    0.01003176
     atom    6 type  1   force =     0.00001403   -0.00005085    0.00983583
     atom    7 type  1   force =     0.00005512    0.00008969    0.01015315
     atom    8 type  1   force =     0.00029931    0.00031904    0.00996259
     atom    9 type  1   force =    -0.00042606   -0.00000232    0.01025053
     atom   10 type  1   force =    -0.00022731    0.00013794   -0.00190617
     atom   11 type  1   force =     0.00011124    0.00015094   -0.00155958
     atom   12 type  1   force =     0.00012714    0.00010144   -0.00169826
     atom   13 type  1   force =    -0.00034083    0.00022040   -0.00180250
     atom   14 type  1   force =     0.00014242    0.00007098   -0.00188487
     atom   15 type  1   force =     0.00019638   -0.00005699   -0.00169270
     atom   16 type  1   force =    -0.00020769   -0.00001322   -0.00184231
     atom   17 type  1   force =    -0.00014861   -0.00008012   -0.00180021
     atom   18 type  1   force =     0.00010022   -0.00023785   -0.00180236
     atom   19 type  1   force =    -0.00003124    0.00042395    0.00110265
     atom   20 type  1   force =    -0.00011996    0.00078310    0.00000556
     atom   21 type  1   force =     0.00044678    0.00010873    0.00187803
     atom   22 type  1   force =     0.00022107    0.00021219    0.00205947
     atom   23 type  1   force =    -0.00017142    0.00004737    0.00197753
     atom   24 type  1   force =     0.00047502   -0.00052029    0.00132946
     atom   25 type  1   force =     0.00039996   -0.00023525    0.00193308
     atom   26 type  1   force =    -0.00079249   -0.00055160    0.00047550
     atom   27 type  1   force =     0.00065560   -0.00032837    0.00066054
     atom   28 type  1   force =     0.01045631   -0.00183253   -0.00383503
     atom   29 type  1   force =    -0.01281064   -0.00229588    0.00592870
     atom   30 type  1   force =    -0.00578314    0.00042054   -0.00718945
     atom   31 type  1   force =     0.00107635   -0.00635364   -0.00731507
     atom   32 type  1   force =    -0.00144407   -0.00461719   -0.00728545
     atom   33 type  1   force =     0.00026072   -0.00082067   -0.01039990
     atom   34 type  1   force =     0.00092383    0.00105379   -0.00945628
     atom   35 type  1   force =     0.00065302    0.00828134   -0.00583550
     atom   36 type  1   force =    -0.00191436    0.00436623   -0.00756916
     atom   37 type  2   force =    -0.00106846    0.00039810   -0.00106123
     atom   38 type  3   force =    -0.00516243   -0.00135097    0.01927855
     atom   39 type  4   force =     0.00000000    0.00000000    0.00000000
     The Hubbard contrib.    to forces
     atom    1 type  1   force =     0.00000000    0.00000000    0.00000000
     atom    2 type  1   force =     0.00000000    0.00000000    0.00000000
     atom    3 type  1   force =     0.00000000    0.00000000    0.00000000
     atom    4 type  1   force =     0.00000000    0.00000000    0.00000000
     atom    5 type  1   force =     0.00000000    0.00000000    0.00000000
     atom    6 type  1   force =     0.00000000    0.00000000    0.00000000
     atom    7 type  1   force =     0.00000000    0.00000000    0.00000000
     atom    8 type  1   force =     0.00000000    0.00000000    0.00000000
     atom    9 type  1   force =     0.00000000    0.00000000    0.00000000
     atom   10 type  1   force =     0.00000000    0.00000000    0.00000000
     atom   11 type  1   force =     0.00000000    0.00000000    0.00000000
     atom   12 type  1   force =     0.00000000    0.00000000    0.00000000
     atom   13 type  1   force =     0.00000000    0.00000000    0.00000000
     atom   14 type  1   force =     0.00000000    0.00000000    0.00000000
     atom   15 type  1   force =     0.00000000    0.00000000    0.00000000
     atom   16 type  1   force =     0.00000000    0.00000000    0.00000000
     atom   17 type  1   force =     0.00000000    0.00000000    0.00000000
     atom   18 type  1   force =     0.00000000    0.00000000    0.00000000
     atom   19 type  1   force =     0.00000000    0.00000000    0.00000000
     atom   20 type  1   force =     0.00000000    0.00000000    0.00000000
     atom   21 type  1   force =     0.00000000    0.00000000    0.00000000
     atom   22 type  1   force =     0.00000000    0.00000000    0.00000000
     atom   23 type  1   force =     0.00000000    0.00000000    0.00000000
     atom   24 type  1   force =     0.00000000    0.00000000    0.00000000
     atom   25 type  1   force =     0.00000000    0.00000000    0.00000000
     atom   26 type  1   force =     0.00000000    0.00000000    0.00000000
     atom   27 type  1   force =     0.00000000    0.00000000    0.00000000
     atom   28 type  1   force =     0.00000000    0.00000000    0.00000000
     atom   29 type  1   force =     0.00000000    0.00000000    0.00000000
     atom   30 type  1   force =     0.00000000    0.00000000    0.00000000
     atom   31 type  1   force =     0.00000000    0.00000000    0.00000000
     atom   32 type  1   force =     0.00000000    0.00000000    0.00000000
     atom   33 type  1   force =     0.00000000    0.00000000    0.00000000
     atom   34 type  1   force =     0.00000000    0.00000000    0.00000000
     atom   35 type  1   force =     0.00000000    0.00000000    0.00000000
     atom   36 type  1   force =     0.00000000    0.00000000    0.00000000
     atom   37 type  2   force =     0.00000000    0.00000000    0.00000000
     atom   38 type  3   force =     0.00000000    0.00000000    0.00000000
     atom   39 type  4   force =     0.00000000    0.00000000    0.00000000
     The SCF correction term to forces
     atom    1 type  1   force =     0.00000000    0.00000000    0.00000000
     atom    2 type  1   force =    -0.00000000    0.00000000    0.00000000
     atom    3 type  1   force =     0.00000000   -0.00000000    0.00000000
     atom    4 type  1   force =     0.00000000   -0.00000000    0.00000000
     atom    5 type  1   force =    -0.00000000    0.00000000    0.00000000
     atom    6 type  1   force =     0.00000000   -0.00000000    0.00000000
     atom    7 type  1   force =     0.00000000   -0.00000000    0.00000000
     atom    8 type  1   force =    -0.00000000    0.00000000    0.00000000
     atom    9 type  1   force =     0.00000000   -0.00000000    0.00000000
     atom   10 type  1   force =    -0.00000000    0.00000000    0.00000000
     atom   11 type  1   force =    -0.00000000    0.00000000    0.00000000
     atom   12 type  1   force =     0.00000000   -0.00000000    0.00000000
     atom   13 type  1   force =    -0.00000000    0.00000000    0.00000000
     atom   14 type  1   force =    -0.00000000   -0.00000000    0.00000000
     atom   15 type  1   force =     0.00000000    0.00000000    0.00000000
     atom   16 type  1   force =    -0.00000000   -0.00000000    0.00000000
     atom   17 type  1   force =     0.00000000    0.00000000    0.00000000
     atom   18 type  1   force =     0.00000000   -0.00000000    0.00000000
     atom   19 type  1   force =     0.00000000    0.00000000   -0.00000000
     atom   20 type  1   force =     0.00000000   -0.00000000    0.00000000
     atom   21 type  1   force =    -0.00000000    0.00000000    0.00000000
     atom   22 type  1   force =    -0.00000000   -0.00000000   -0.00000000
     atom   23 type  1   force =     0.00000000   -0.00000000    0.00000000
     atom   24 type  1   force =     0.00000000    0.00000000    0.00000000
     atom   25 type  1   force =    -0.00000000    0.00000000   -0.00000000
     atom   26 type  1   force =     0.00000000    0.00000000    0.00000000
     atom   27 type  1   force =    -0.00000000    0.00000000    0.00000000
     atom   28 type  1   force =     0.00000000    0.00000000   -0.00000000
     atom   29 type  1   force =     0.00000000    0.00000000   -0.00000000
     atom   30 type  1   force =    -0.00000000    0.00000000   -0.00000000
     atom   31 type  1   force =     0.00000000   -0.00000000   -0.00000000
     atom   32 type  1   force =     0.00000000   -0.00000000   -0.00000000
     atom   33 type  1   force =    -0.00000000    0.00000000   -0.00000000
     atom   34 type  1   force =     0.00000000   -0.00000000   -0.00000000
     atom   35 type  1   force =     0.00000000   -0.00000000   -0.00000000
     atom   36 type  1   force =    -0.00000000    0.00000000   -0.00000000
     atom   37 type  2   force =     0.00000606   -0.00000002   -0.00001323
     atom   38 type  3   force =     0.00000191   -0.00000035   -0.00001498
     atom   39 type  4   force =     0.00000012    0.00000054   -0.00000452

     Total force =     0.035618     Total SCF correction =     0.000021

     Writing all to output data dir ./pwscf.save/

     init_run     :     15.88s CPU     16.37s WALL (       1 calls)
     electrons    :   1009.09s CPU   1025.45s WALL (       1 calls)
     forces       :      3.49s CPU      3.62s WALL (       1 calls)

     Called by init_run:
     wfcinit      :     12.82s CPU     13.20s WALL (       1 calls)
     potinit      :      1.96s CPU      2.05s WALL (       1 calls)
     hinit0       :      0.84s CPU      0.85s WALL (       1 calls)

     Called by electrons:
     c_bands      :    839.26s CPU    850.40s WALL (      57 calls)
     sum_band     :    110.33s CPU    114.21s WALL (      57 calls)
     v_of_rho     :     13.37s CPU     13.90s WALL (      58 calls)
     newd         :      3.19s CPU      3.25s WALL (      58 calls)
     PAW_pot      :     14.63s CPU     14.82s WALL (      58 calls)
     mix_rho      :     29.51s CPU     29.94s WALL (      57 calls)
     vdW_kernel   :      1.08s CPU      1.09s WALL (       1 calls)

     Called by c_bands:
     init_us_2    :      9.96s CPU     10.40s WALL (    3016 calls)
     init_us_2:cp :      9.94s CPU     10.39s WALL (    3016 calls)
     cegterg      :    810.24s CPU    820.49s WALL (    1482 calls)

     Called by *egterg:
     cdiaghg      :    221.35s CPU    223.15s WALL (    5038 calls)
     h_psi        :    393.62s CPU    399.70s WALL (    5064 calls)
     s_psi        :     42.17s CPU     42.79s WALL (    5064 calls)
     g_psi        :      1.08s CPU      1.11s WALL (    3556 calls)

     Called by h_psi:
     h_psi:calbec :     63.12s CPU     64.31s WALL (    5064 calls)
     vloc_psi     :    284.12s CPU    288.30s WALL (    5064 calls)
     add_vuspsi   :     43.68s CPU     44.34s WALL (    5064 calls)

     General routines
     calbec       :     93.68s CPU     95.79s WALL (    6650 calls)
     fft          :     10.07s CPU     10.63s WALL (    5239 calls)
     ffts         :     16.78s CPU     17.02s WALL (   25530 calls)
     fftw         :    329.31s CPU    335.46s WALL ( 1531340 calls)
     interpolate  :      0.40s CPU      0.41s WALL (     116 calls)

     Parallel routines

     PWSCF        :  17m18.43s CPU  17m40.48s WALL


   This run was terminated on:  13:53: 0   9Dec2025            

=------------------------------------------------------------------------------=
   JOB DONE.
=------------------------------------------------------------------------------=
