
     Program PWSCF v.7.1 starts on 23Feb2025 at  9:59:47 
        Git branch: heads/qe-7.1
        Last git commit: 48ba0178f8fede6d020eb786884699a9f063f55d-dirty
        Last git commit date: Fri Jan 27 14:22:33 2023 +0000
        Last git commit subject: Merge branch 'fix_hubbard' into 'develop'

     This program is part of the open-source Quantum ESPRESSO suite
     for quantum simulation of materials; please cite
         "P. Giannozzi et al., J. Phys.:Condens. Matter 21 395502 (2009);
         "P. Giannozzi et al., J. Phys.:Condens. Matter 29 465901 (2017);
         "P. Giannozzi et al., J. Chem. Phys. 152 154105 (2020);
          URL http://www.quantum-espresso.org", 
     in publications or presentations arising from this work. More details at
     http://www.quantum-espresso.org/quote

     Parallel version (MPI), running on    48 processors

     MPI processes distributed on     1 nodes
     173431 MiB available memory on the printing compute node when the environment starts

     Reading input from espresso.pwi
Warning: card &CELL ignored
Warning: card / ignored
Warning: card &FCP ignored
Warning: card / ignored
Warning: card &RISM ignored
Warning: card / ignored

     Current dimensions of program PWSCF are:
     Max number of different atomic species (ntypx) = 10
     Max number of k-points (npk) =  40000
     Max angular momentum in pseudopotentials (lmaxx) =  4
     file Pt.pbe-n-kjpaw_psl.1.0.0.UPF: wavefunction(s)  6S 5D renormalized
     file H.pbe-kjpaw_psl.1.0.0.UPF: wavefunction(s)  1S renormalized

     **************************************************************************
     Initializing libbeef V0.1.2 with the BEEF-vdW functional.
     Citation: Wellendorff et al., PRB 85, 235149 (2012).
     **************************************************************************


     IMPORTANT: XC functional enforced from input :
     Exchange-correlation= BEEF-VDW
                           (   1   4  43  14   2   0   0)
     Any further DFT definition will be discarded
     Please, verify this is what you really want


     R & G space division:  proc/nbgrp/npool/nimage =      48
     Subspace diagonalization in iterative solution of the eigenvalue problem:
     one sub-group per band group will be used
     custom distributed-memory algorithm (size of sub-group:  2*  2 procs)


     Parallelization info
     --------------------
     sticks:   dense  smooth     PW     G-vecs:    dense   smooth      PW
     Min         151      59     16                29407     7165    1028
     Max         152      60     17                29420     7176    1042
     Sum        7267    2839    769              1411785   344073   49691

     Using Slab Decomposition



     bravais-lattice index     =            0
     lattice parameter (alat)  =      16.0349  a.u.
     unit-cell volume          =   10068.6169 (a.u.)^3
     number of atoms/cell      =           37
     number of atomic types    =            2
     number of electrons       =       361.00
     number of Kohn-Sham states=          217
     kinetic-energy cutoff     =      40.0000  Ry
     charge density cutoff     =     410.0000  Ry
     scf convergence threshold =      1.0E-06
     mixing beta               =       0.7000
     number of iterations used =            8  local-TF  mixing
     Exchange-correlation= BEEF-VDW
                           (   1   4  43  14   2   0   0)

     celldm(1)=  16.034858  celldm(2)=   0.000000  celldm(3)=   0.000000
     celldm(4)=   0.000000  celldm(5)=   0.000000  celldm(6)=   0.000000

     crystal axes: (cart. coord. in units of alat)
               a(1) = (   1.000000   0.000000   0.000000 )  
               a(2) = (   0.500000   0.866025   0.000000 )  
               a(3) = (   0.000000   0.000000   2.819966 )  

     reciprocal axes: (cart. coord. in units 2 pi/alat)
               b(1) = (  1.000000 -0.577350  0.000000 )  
               b(2) = (  0.000000  1.154701  0.000000 )  
               b(3) = (  0.000000  0.000000  0.354614 )  


     PseudoPot. # 1 for Pt read from file:
     /users/kbadger1/espresso/pseudo/pslibrary.1.0.0/pbe/PSEUDOPOTENTIALS/Pt.pbe-n-kjpaw_psl.1.0.0.UPF
     MD5 check sum: 2e24a0b5bf98a4ed1a57fa81bca8c143
     Pseudo is Projector augmented-wave + core cor, Zval = 10.0
     Generated using 'atomic' code by A. Dal Corso  v.7.0
     Shape of augmentation charge: PSQ
     Using radial grid of 1277 points,  6 beta functions with: 
                l(1) =   0
                l(2) =   0
                l(3) =   1
                l(4) =   1
                l(5) =   2
                l(6) =   2
     Q(r) pseudized with 0 coefficients 


     PseudoPot. # 2 for H  read from file:
     /users/kbadger1/espresso/pseudo/pslibrary.1.0.0/pbe/PSEUDOPOTENTIALS/H.pbe-kjpaw_psl.1.0.0.UPF
     MD5 check sum: fe4c6fa958fa6d3815bf5d2419cbf1df
     Pseudo is Projector augmented-wave, Zval =  1.0
     Generated using 'atomic' code by A. Dal Corso  v.7.0
     Shape of augmentation charge: PSQ
     Using radial grid of  929 points,  2 beta functions with: 
                l(1) =   0
                l(2) =   0
     Q(r) pseudized with 0 coefficients 


     atomic species   valence    mass     pseudopotential
        Pt            10.00   195.08400     Pt( 1.00)
        H              1.00     1.00800     H ( 1.00)

     No symmetry found



   Cartesian axes

     site n.     atom                  positions (alat units)
         1           Pt  tau(   1) = (   0.0000000   0.0000000   1.0017346  )
         2           Pt  tau(   2) = (   0.3333333   0.0000000   1.0017346  )
         3           Pt  tau(   3) = (   0.6666667   0.0000000   1.0017346  )
         4           Pt  tau(   4) = (   0.1666667   0.2886751   1.0017346  )
         5           Pt  tau(   5) = (   0.5000000   0.2886751   1.0017346  )
         6           Pt  tau(   6) = (   0.8333333   0.2886751   1.0017346  )
         7           Pt  tau(   7) = (   0.3333333   0.5773503   1.0017346  )
         8           Pt  tau(   8) = (   0.6666667   0.5773503   1.0017346  )
         9           Pt  tau(   9) = (   1.0000000   0.5773503   1.0017346  )
        10           Pt  tau(  10) = (   0.1666667   0.0962250   1.2739001  )
        11           Pt  tau(  11) = (   0.5000000   0.0962250   1.2739001  )
        12           Pt  tau(  12) = (   0.8333333   0.0962250   1.2739001  )
        13           Pt  tau(  13) = (   0.3333333   0.3849002   1.2739001  )
        14           Pt  tau(  14) = (   0.6666667   0.3849002   1.2739001  )
        15           Pt  tau(  15) = (   1.0000000   0.3849002   1.2739001  )
        16           Pt  tau(  16) = (   0.5000000   0.6735753   1.2739001  )
        17           Pt  tau(  17) = (   0.8333333   0.6735753   1.2739001  )
        18           Pt  tau(  18) = (   1.1666667   0.6735753   1.2739001  )
        19           Pt  tau(  19) = (   0.0002560   0.1902973   1.5435212  )
        20           Pt  tau(  20) = (   0.3330599   0.1903127   1.5435352  )
        21           Pt  tau(  21) = (   0.6666564   0.1903404   1.5423026  )
        22           Pt  tau(  22) = (   0.1666735   0.4754462   1.5472189  )
        23           Pt  tau(  23) = (   0.4998822   0.4789989   1.5426324  )
        24           Pt  tau(  24) = (   0.8334499   0.4789996   1.5426352  )
        25           Pt  tau(  25) = (   0.3330849   0.7668171   1.5422008  )
        26           Pt  tau(  26) = (   0.6666649   0.7678034   1.5426073  )
        27           Pt  tau(  27) = (   1.0002533   0.7668168   1.5421858  )
        28           Pt  tau(  28) = (  -0.0020082  -0.0065651   1.8159390  )
        29           Pt  tau(  29) = (   0.3353228  -0.0065445   1.8159015  )
        30           Pt  tau(  30) = (   0.6666524  -0.0047431   1.8166605  )
        31           Pt  tau(  31) = (   0.1666059   0.2816129   1.8286954  )
        32           Pt  tau(  32) = (   0.5006941   0.2839882   1.8162107  )
        33           Pt  tau(  33) = (   0.8325725   0.2839928   1.8161931  )
        34           Pt  tau(  34) = (   0.3332171   0.5726240   1.8171572  )
        35           Pt  tau(  35) = (   0.6666551   0.5723147   1.8163200  )
        36           Pt  tau(  36) = (   1.0001031   0.5726375   1.8171504  )
        37           H   tau(  37) = (   0.1659004   0.2078692   1.9977707  )

     number of k points=    13  Marzari-Vanderbilt smearing, width (Ry)=  0.0200
                       cart. coord. in units 2pi/alat
        k(    1) = (   0.0000000   0.0000000   0.0000000), wk =   0.0800000
        k(    2) = (   0.0000000   0.2309401   0.0000000), wk =   0.1600000
        k(    3) = (   0.0000000   0.4618802   0.0000000), wk =   0.1600000
        k(    4) = (   0.2000000  -0.1154701   0.0000000), wk =   0.1600000
        k(    5) = (   0.2000000   0.1154701   0.0000000), wk =   0.1600000
        k(    6) = (   0.2000000   0.3464102   0.0000000), wk =   0.1600000
        k(    7) = (   0.2000000  -0.5773503   0.0000000), wk =   0.1600000
        k(    8) = (   0.2000000  -0.3464102   0.0000000), wk =   0.1600000
        k(    9) = (   0.4000000  -0.2309401   0.0000000), wk =   0.1600000
        k(   10) = (   0.4000000  -0.0000000   0.0000000), wk =   0.1600000
        k(   11) = (   0.4000000   0.2309401   0.0000000), wk =   0.1600000
        k(   12) = (   0.4000000  -0.6928203   0.0000000), wk =   0.1600000
        k(   13) = (   0.4000000  -0.4618802   0.0000000), wk =   0.1600000

     Dense  grid:  1411785 G-vectors     FFT dimensions: ( 108, 108, 300)

     Smooth grid:   344073 G-vectors     FFT dimensions: (  72,  72, 192)

     Estimated max dynamical RAM per process >     203.68 MB

     Estimated total dynamical RAM >       9.55 GB

     Initial potential from superposition of free atoms

     starting charge     360.9939, renormalised to     361.0000

     negative rho (up, down):  3.361E-03 0.000E+00


     %%%%%%%%%%%%%%%%%%%%%%%%%%%%%%%%%%%%%%%%%%%%%%%%%%%%%%%%%%%%%%%%%%%%%%%%
     %                                                                      %
     % You are using vdW-DF, which was implemented by the Thonhauser group. %
     % Please cite the following two papers that made this development      %
     % possible and the two reviews that describe the various versions:     %
     %                                                                      %
     %   T. Thonhauser et al., PRL 115, 136402 (2015).                      %
     %   T. Thonhauser et al., PRB 76, 125112 (2007).                       %
     %   K. Berland et al., Rep. Prog. Phys. 78, 066501 (2015).             %
     %   D.C. Langreth et al., J. Phys.: Condens. Matter 21, 084203 (2009). %
     %                                                                      %
     % If you are calculating stress with vdW-DF, please also cite:         %
     %                                                                      %
     %   R. Sabatini et al., J. Phys.: Condens. Matter 24, 424209 (2012).   %
     %                                                                      %
     %%%%%%%%%%%%%%%%%%%%%%%%%%%%%%%%%%%%%%%%%%%%%%%%%%%%%%%%%%%%%%%%%%%%%%%%

     %%%%%%%%%%%%%%%%%%%%%%%%%%%%%%%%%%%%%%%%%%%%%%%%%%%%%%%%%%%%%%%%%%%%%%%%
     %                                                                      %
     %  vdW-DF NEWS:                                                        %
     %                                                                      %
     %  * vdW-DF3 is now available. DOI: 10.1021/acs.jctc.0c00471           %
     %    use with input_dft = 'vdW-DF3-opt1' or 'vdW-DF3-opt2'             %
     %                                                                      %
     %  * Unscreened and range-separated hybrid vdW-DF-cx functionals       %
     %    DOI: 10.1063/1.4986522 and 10.1088/1361-648X/ac2ad2               %
     %    use with input_dft = 'vdW-DF-cx0'    and 'vdW-DF-ahcx'            %
     %  * Unscreened and range-separated hybrid vdW-DF2-b86r functionals    %
     %    DOI: 10.1063/1.4986522 and DOI: 10.1103/PhysRevX.12.041003        %
     %    use with input_dft = 'vdW-DF2-br0' and 'vdW-DF2-ahbr'             %
     %                                                                      %
     %%%%%%%%%%%%%%%%%%%%%%%%%%%%%%%%%%%%%%%%%%%%%%%%%%%%%%%%%%%%%%%%%%%%%%%%


     Starting wfcs are  325 randomized atomic wfcs
     Checking if some PAW data can be deallocated... 

     total cpu time spent up to now is       19.8 secs

     per-process dynamical memory:   207.6 Mb

     Self-consistent Calculation

     iteration #  1     ecut=    40.00 Ry     beta= 0.70
     Davidson diagonalization with overlap
     ethr =  1.00E-02,  avg # of iterations =  2.0

     Threshold (ethr) on eigenvalues was too large:
     Diagonalizing with lowered threshold

     Davidson diagonalization with overlap
     ethr =  3.92E-04,  avg # of iterations =  3.9

     negative rho (up, down):  1.724E-02 0.000E+00

     total cpu time spent up to now is       59.4 secs

     total energy              =  -27755.27388363 Ry
     estimated scf accuracy    <       1.61381043 Ry

     iteration #  2     ecut=    40.00 Ry     beta= 0.70
     Davidson diagonalization with overlap
     ethr =  4.47E-04,  avg # of iterations =  2.0

     negative rho (up, down):  1.529E-02 0.000E+00

     total cpu time spent up to now is       80.9 secs

     total energy              =  -27755.37629374 Ry
     estimated scf accuracy    <       0.85361634 Ry

     iteration #  3     ecut=    40.00 Ry     beta= 0.70
     Davidson diagonalization with overlap
     ethr =  2.36E-04,  avg # of iterations =  2.0

     negative rho (up, down):  9.834E-03 0.000E+00

     total cpu time spent up to now is       93.0 secs

     total energy              =  -27755.42980772 Ry
     estimated scf accuracy    <       0.10119994 Ry

     iteration #  4     ecut=    40.00 Ry     beta= 0.70
     Davidson diagonalization with overlap
     c_bands:  1 eigenvalues not converged
     c_bands:  1 eigenvalues not converged
     c_bands:  1 eigenvalues not converged
     c_bands:  1 eigenvalues not converged
     c_bands:  1 eigenvalues not converged
     c_bands:  1 eigenvalues not converged
     c_bands:  1 eigenvalues not converged
     ethr =  2.80E-05,  avg # of iterations = 15.6

     negative rho (up, down):  7.177E-03 0.000E+00

     total cpu time spent up to now is      142.8 secs

     total energy              =  -27755.48153678 Ry
     estimated scf accuracy    <       0.09370977 Ry

     iteration #  5     ecut=    40.00 Ry     beta= 0.70
     Davidson diagonalization with overlap
     ethr =  2.60E-05,  avg # of iterations =  1.8

     negative rho (up, down):  3.158E-03 0.000E+00

     total cpu time spent up to now is      154.8 secs

     total energy              =  -27755.48147782 Ry
     estimated scf accuracy    <       0.03151177 Ry

     iteration #  6     ecut=    40.00 Ry     beta= 0.70
     Davidson diagonalization with overlap
     ethr =  8.73E-06,  avg # of iterations =  7.3

     negative rho (up, down):  1.371E-03 0.000E+00

     total cpu time spent up to now is      181.0 secs

     total energy              =  -27755.48366468 Ry
     estimated scf accuracy    <       0.00247030 Ry

     iteration #  7     ecut=    40.00 Ry     beta= 0.70
     Davidson diagonalization with overlap
     ethr =  6.84E-07,  avg # of iterations = 10.3

     negative rho (up, down):  1.049E-03 0.000E+00

     total cpu time spent up to now is      226.6 secs

     total energy              =  -27755.48436698 Ry
     estimated scf accuracy    <       0.00198125 Ry

     iteration #  8     ecut=    40.00 Ry     beta= 0.70
     Davidson diagonalization with overlap
     ethr =  5.49E-07,  avg # of iterations =  1.8

     negative rho (up, down):  9.081E-04 0.000E+00

     total cpu time spent up to now is      240.6 secs

     total energy              =  -27755.48449587 Ry
     estimated scf accuracy    <       0.00024117 Ry

     iteration #  9     ecut=    40.00 Ry     beta= 0.70
     Davidson diagonalization with overlap
     ethr =  6.68E-08,  avg # of iterations =  4.5

     negative rho (up, down):  7.358E-04 0.000E+00

     total cpu time spent up to now is      271.5 secs

     total energy              =  -27755.48459999 Ry
     estimated scf accuracy    <       0.00010434 Ry

     iteration # 10     ecut=    40.00 Ry     beta= 0.70
     Davidson diagonalization with overlap
     ethr =  2.89E-08,  avg # of iterations =  3.2

     negative rho (up, down):  7.305E-04 0.000E+00

     total cpu time spent up to now is      299.7 secs

     total energy              =  -27755.48461909 Ry
     estimated scf accuracy    <       0.00010588 Ry

     iteration # 11     ecut=    40.00 Ry     beta= 0.70
     Davidson diagonalization with overlap
     ethr =  2.89E-08,  avg # of iterations =  1.2

     negative rho (up, down):  8.175E-04 0.000E+00

     total cpu time spent up to now is      321.6 secs

     total energy              =  -27755.48462426 Ry
     estimated scf accuracy    <       0.00007005 Ry

     iteration # 12     ecut=    40.00 Ry     beta= 0.70
     Davidson diagonalization with overlap
     ethr =  1.94E-08,  avg # of iterations =  1.4

     negative rho (up, down):  1.040E-03 0.000E+00

     total cpu time spent up to now is      333.0 secs

     total energy              =  -27755.48463303 Ry
     estimated scf accuracy    <       0.00002679 Ry

     iteration # 13     ecut=    40.00 Ry     beta= 0.70
     Davidson diagonalization with overlap
     ethr =  7.42E-09,  avg # of iterations =  2.0

     negative rho (up, down):  1.502E-03 0.000E+00

     total cpu time spent up to now is      354.9 secs

     total energy              =  -27755.48464113 Ry
     estimated scf accuracy    <       0.00001470 Ry

     iteration # 14     ecut=    40.00 Ry     beta= 0.70
     Davidson diagonalization with overlap
     ethr =  4.07E-09,  avg # of iterations =  2.2

     negative rho (up, down):  1.886E-03 0.000E+00

     total cpu time spent up to now is      378.2 secs

     total energy              =  -27755.48464706 Ry
     estimated scf accuracy    <       0.00000753 Ry

     iteration # 15     ecut=    40.00 Ry     beta= 0.70
     Davidson diagonalization with overlap
     ethr =  2.09E-09,  avg # of iterations =  1.9

     negative rho (up, down):  2.615E-03 0.000E+00

     total cpu time spent up to now is      390.9 secs

     total energy              =  -27755.48464555 Ry
     estimated scf accuracy    <       0.00000658 Ry

     iteration # 16     ecut=    40.00 Ry     beta= 0.70
     Davidson diagonalization with overlap
     ethr =  1.82E-09,  avg # of iterations =  1.5

     negative rho (up, down):  2.808E-03 0.000E+00

     total cpu time spent up to now is      411.8 secs

     total energy              =  -27755.48464517 Ry
     estimated scf accuracy    <       0.00000158 Ry

     iteration # 17     ecut=    40.00 Ry     beta= 0.70
     Davidson diagonalization with overlap
     ethr =  4.38E-10,  avg # of iterations =  4.5

     negative rho (up, down):  3.173E-03 0.000E+00

     total cpu time spent up to now is      439.3 secs

     End of self-consistent calculation

          k = 0.0000 0.0000 0.0000 ( 42913 PWs)   bands (ev):

    -6.2956  -5.0195  -3.9816  -3.8905  -3.8794  -3.8705  -3.8703  -3.8665
    -3.8541  -3.8530  -3.4275  -3.3198  -3.3171  -3.3095  -3.3067  -3.3026
    -3.0419  -2.8528  -2.8435  -2.8403  -2.8391  -2.8387  -2.7693  -2.6287
    -2.6259  -2.6237  -2.6216  -2.6197  -2.4712  -2.4046  -2.3998  -2.3954
    -2.3895  -2.3861  -2.3852  -2.3823  -2.3779  -2.3702  -2.3654  -2.3354
    -2.1922  -1.7808  -1.7778  -1.7657  -1.7437  -1.7195  -1.7056  -1.7003
    -1.6942  -1.6912  -1.6205  -1.5492  -1.5252  -1.4582  -1.3530  -0.9861
    -0.9771  -0.9579  -0.9508  -0.9478  -0.9160  -0.8858  -0.7858  -0.7832
    -0.7808  -0.7704  -0.7598  -0.7555  -0.7404  -0.7330  -0.7282  -0.7207
    -0.7143  -0.6999  -0.6773  -0.6768  -0.6367  -0.5631  -0.5470  -0.5416
    -0.5370  -0.5240  -0.4590  -0.3859  -0.3752  -0.3597  -0.3572  -0.3426
    -0.3156  -0.2972  -0.2816  -0.2119  -0.2050  -0.1557  -0.1491  -0.1160
    -0.1124  -0.0932  -0.0742  -0.0691  -0.0370   0.0562   0.0685   0.0790
     0.0843   0.1006   0.1127   0.4035   0.5646   0.5749   0.5816   0.5867
     0.5906   0.5928   0.6058   0.6444   0.6563   0.6589   0.6599   0.7102
     0.7431   0.7581   0.8653   0.8836   0.9000   0.9042   0.9048   0.9983
     0.9997   1.0337   1.0668   1.0703   1.0895   1.1148   1.2847   1.3098
     1.3203   1.3227   1.3257   1.3375   1.3882   1.3988   1.5707   1.5724
     1.5771   1.5874   1.5879   1.6418   1.7341   1.7343   1.7527   1.7559
     1.7611   1.7776   1.7807   1.7877   1.7950   1.7965   1.8002   1.8833
     1.8999   1.9003   1.9195   1.9298   1.9339   1.9493   1.9599   2.0060
     2.0157   2.0299   2.0420   2.0503   2.0557   2.0625   2.0664   2.1374
     2.1455   2.1504   2.1539   2.1591   2.1623   2.1730   2.2376   2.2585
     2.2648   2.2664   2.2824   2.2849   2.4561   2.4918   2.5589   2.5739
     2.5940   2.5949   2.5999   2.6065   2.9617   3.4212   3.4675   3.4854
     3.4887   3.4893   3.4941   5.0880   5.7687   5.7884   5.8117   5.8173
     5.8346   7.0004   7.3571   7.3753   7.3929   7.4169   7.4219   7.4249
     7.5705

          k = 0.0000 0.2309 0.0000 ( 42996 PWs)   bands (ev):

    -6.1488  -4.8763  -4.3921  -4.0079  -3.9804  -3.8118  -3.7330  -3.6834
    -3.6549  -3.6266  -3.4742  -3.4062  -3.3224  -3.2519  -3.2458  -3.2345
    -3.0216  -2.8811  -2.8181  -2.8083  -2.7987  -2.7846  -2.7265  -2.6994
    -2.6646  -2.6455  -2.6392  -2.5991  -2.5761  -2.5376  -2.4913  -2.4325
    -2.4248  -2.3856  -2.3730  -2.2852  -2.1943  -2.1890  -2.1720  -2.1719
    -2.0944  -1.9057  -1.8922  -1.8327  -1.8301  -1.7880  -1.7852  -1.7339
    -1.6029  -1.5979  -1.5286  -1.5268  -1.4720  -1.4574  -1.3997  -1.2144
    -1.1526  -1.1424  -1.0734  -1.0449  -1.0261  -0.9757  -0.9746  -0.9510
    -0.9232  -0.9153  -0.8635  -0.8544  -0.7874  -0.7654  -0.7592  -0.7444
    -0.7037  -0.6851  -0.6770  -0.5995  -0.5930  -0.5768  -0.5178  -0.4972
    -0.4737  -0.4666  -0.4465  -0.3922  -0.3809  -0.3739  -0.3660  -0.3371
    -0.3173  -0.2777  -0.2548  -0.2509  -0.2010  -0.1834  -0.1659  -0.1608
    -0.1244  -0.1055  -0.1017  -0.0880   0.0114   0.0643   0.0687   0.0809
     0.0859   0.1115   0.1191   0.1251   0.1747   0.1767   0.2027   0.2104
     0.4067   0.4332   0.5055   0.5446   0.5976   0.6046   0.6160   0.6318
     0.6400   0.6963   0.7962   0.7979   0.8134   0.9256   0.9446   0.9734
     0.9956   1.0121   1.0538   1.0727   1.0898   1.0993   1.1708   1.1934
     1.2064   1.2234   1.2236   1.3893   1.4026   1.4326   1.4462   1.4526
     1.4773   1.5116   1.5553   1.5868   1.6064   1.6144   1.6629   1.6893
     1.6928   1.6969   1.7411   1.8090   1.8162   1.8450   1.8791   1.9403
     1.9736   1.9775   1.9784   1.9990   2.0012   2.0456   2.1023   2.1265
     2.1333   2.1813   2.1943   2.1964   2.2375   2.2430   2.2444   2.2498
     2.2526   2.3049   2.3149   2.4347   2.4680   2.4947   2.5083   2.5203
     2.5280   2.5627   2.5927   2.6006   2.6086   2.6966   2.7022   2.7119
     2.7313   2.8903   2.8919   2.9091   2.9353   3.2590   3.3605   3.7734
     4.0690   4.0791   4.2049   4.8769   5.3135   5.5265   6.0501   6.2222
     6.2258   6.3684   6.5814   6.9481   7.1899   7.2543   7.5578   7.5894
     7.5898

          k = 0.0000 0.4619 0.0000 ( 43046 PWs)   bands (ev):

    -5.7264  -5.0924  -4.4756  -4.0425  -4.0158  -3.9172  -3.6562  -3.5127
    -3.4531  -3.3576  -3.3213  -3.2854  -3.2190  -3.1232  -3.0837  -3.0709
    -3.0672  -2.9726  -2.9261  -2.9008  -2.8740  -2.8586  -2.8113  -2.7986
    -2.7189  -2.7159  -2.7112  -2.6429  -2.4498  -2.4430  -2.4374  -2.4263
    -2.4242  -2.3640  -2.2038  -2.1827  -2.1587  -2.1518  -2.1383  -2.0705
    -1.9026  -1.8657  -1.8547  -1.8395  -1.7970  -1.7888  -1.7805  -1.7136
    -1.7071  -1.6546  -1.6447  -1.6177  -1.5019  -1.4852  -1.4552  -1.4522
    -1.3399  -1.2934  -1.2743  -1.2714  -1.2007  -1.1174  -1.0587  -1.0569
    -1.0400  -1.0229  -0.9603  -0.9196  -0.9056  -0.8390  -0.8308  -0.8102
    -0.7929  -0.6930  -0.6718  -0.6614  -0.6498  -0.6309  -0.5857  -0.5754
    -0.5646  -0.5576  -0.5413  -0.5397  -0.5283  -0.4990  -0.4740  -0.4095
    -0.3996  -0.3703  -0.3593  -0.3485  -0.3289  -0.2367  -0.2330  -0.1827
    -0.1696  -0.1306  -0.1093  -0.0821  -0.0764  -0.0724  -0.0080   0.0696
     0.0908   0.1285   0.1493   0.1762   0.1984   0.3329   0.3463   0.3965
     0.4197   0.4852   0.5029   0.5098   0.5424   0.5454   0.5672   0.6289
     0.6340   0.6452   0.6543   0.6603   0.6838   0.6868   0.7076   0.7177
     0.7727   0.8524   0.8742   0.9023   0.9099   0.9762   1.0543   1.0736
     1.1040   1.2001   1.2228   1.3093   1.3575   1.3648   1.4013   1.4186
     1.4369   1.4778   1.4780   1.5331   1.5624   1.5826   1.6285   1.6295
     1.6987   1.7250   1.7387   1.7488   1.7622   1.7784   1.8833   1.9399
     1.9866   2.0140   2.0316   2.0368   2.0424   2.1372   2.1520   2.1633
     2.2384   2.2411   2.2507   2.3066   2.3198   2.3373   2.3541   2.4345
     2.4714   2.4925   2.4931   2.5105   2.5197   2.5343   2.5455   2.7066
     2.7371   2.7508   2.7649   2.7662   2.9267   2.9701   3.1487   3.3689
     3.4051   3.5518   3.7928   3.7934   4.1044   4.1824   4.2416   4.5296
     4.7361   5.0089   5.0098   5.0613   5.2141   5.2744   5.3523   5.4216
     5.6485   5.6670   6.0946   6.3169   6.6374   6.8350   7.0409   7.3318
     7.5632

          k = 0.2000-0.1155 0.0000 ( 42996 PWs)   bands (ev):

    -6.1488  -4.8768  -4.3903  -4.0053  -3.9818  -3.8162  -3.7327  -3.6852
    -3.6421  -3.6344  -3.4893  -3.4056  -3.3065  -3.2476  -3.2435  -3.2306
    -3.0009  -2.9428  -2.8207  -2.8075  -2.7895  -2.7590  -2.7253  -2.7058
    -2.6616  -2.6486  -2.6406  -2.5964  -2.5590  -2.5363  -2.5010  -2.4244
    -2.4180  -2.3822  -2.3774  -2.2672  -2.2026  -2.1880  -2.1812  -2.1519
    -2.1307  -1.9065  -1.8934  -1.8748  -1.8263  -1.8097  -1.7822  -1.7192
    -1.6087  -1.5765  -1.5311  -1.5108  -1.4871  -1.4549  -1.3862  -1.2402
    -1.1500  -1.1280  -1.0900  -1.0598  -1.0326  -0.9889  -0.9557  -0.9361
    -0.9191  -0.9110  -0.8886  -0.8555  -0.7983  -0.7823  -0.7581  -0.7419
    -0.6774  -0.6533  -0.6495  -0.5995  -0.5911  -0.5645  -0.5170  -0.4998
    -0.4864  -0.4671  -0.4557  -0.3892  -0.3804  -0.3643  -0.3604  -0.3533
    -0.3115  -0.2916  -0.2454  -0.2315  -0.1993  -0.1972  -0.1805  -0.1534
    -0.1390  -0.1103  -0.0928  -0.0813   0.0073   0.0585   0.0796   0.0874
     0.0915   0.1062   0.1121   0.1302   0.1635   0.1801   0.1936   0.2064
     0.3296   0.4730   0.5159   0.5673   0.5877   0.5969   0.6189   0.6308
     0.6446   0.6864   0.7941   0.8075   0.8393   0.9305   0.9530   0.9590
     1.0113   1.0163   1.0625   1.0752   1.0880   1.1488   1.1726   1.1861
     1.2031   1.2130   1.2353   1.3844   1.4078   1.4320   1.4420   1.4548
     1.4795   1.5064   1.5574   1.5813   1.5931   1.6160   1.6354   1.6805
     1.6927   1.7003   1.7336   1.8059   1.8154   1.8407   1.8835   1.9418
     1.9622   1.9738   1.9849   2.0033   2.0262   2.0452   2.1060   2.1299
     2.1463   2.1831   2.1918   2.1990   2.2356   2.2423   2.2437   2.2515
     2.2541   2.3129   2.3261   2.4503   2.4668   2.4893   2.5018   2.5068
     2.5223   2.5436   2.5683   2.5904   2.6031   2.6699   2.7083   2.7265
     2.7513   2.8821   2.8966   2.9016   2.9497   3.2349   3.3437   3.7911
     4.0699   4.0861   4.2075   4.8807   5.3338   5.5146   6.0386   6.2201
     6.2286   6.3636   6.5678   6.9617   7.1912   7.2514   7.5644   7.5820
     7.5903

          k = 0.2000 0.1155 0.0000 ( 42996 PWs)   bands (ev):

    -6.1488  -4.8768  -4.3902  -4.0054  -3.9818  -3.8162  -3.7327  -3.6852
    -3.6421  -3.6343  -3.4890  -3.4056  -3.3071  -3.2476  -3.2434  -3.2307
    -3.0002  -2.9431  -2.8207  -2.8074  -2.7895  -2.7598  -2.7252  -2.7058
    -2.6616  -2.6486  -2.6404  -2.5962  -2.5592  -2.5363  -2.5010  -2.4243
    -2.4180  -2.3823  -2.3774  -2.2670  -2.2025  -2.1881  -2.1812  -2.1519
    -2.1306  -1.9065  -1.8936  -1.8747  -1.8263  -1.8096  -1.7823  -1.7194
    -1.6087  -1.5767  -1.5309  -1.5106  -1.4871  -1.4549  -1.3861  -1.2402
    -1.1500  -1.1283  -1.0901  -1.0600  -1.0322  -0.9888  -0.9556  -0.9362
    -0.9191  -0.9110  -0.8888  -0.8555  -0.7980  -0.7822  -0.7579  -0.7417
    -0.6774  -0.6532  -0.6497  -0.5995  -0.5911  -0.5643  -0.5168  -0.5001
    -0.4864  -0.4672  -0.4556  -0.3894  -0.3808  -0.3643  -0.3605  -0.3534
    -0.3115  -0.2917  -0.2452  -0.2315  -0.1993  -0.1972  -0.1803  -0.1535
    -0.1390  -0.1104  -0.0928  -0.0815   0.0073   0.0586   0.0797   0.0874
     0.0916   0.1062   0.1122   0.1302   0.1636   0.1800   0.1937   0.2064
     0.3286   0.4733   0.5159   0.5669   0.5880   0.5969   0.6189   0.6308
     0.6447   0.6868   0.7943   0.8075   0.8391   0.9305   0.9530   0.9590
     1.0114   1.0164   1.0623   1.0751   1.0882   1.1488   1.1726   1.1861
     1.2030   1.2131   1.2353   1.3846   1.4079   1.4320   1.4420   1.4548
     1.4794   1.5064   1.5574   1.5813   1.5930   1.6160   1.6352   1.6805
     1.6926   1.7005   1.7336   1.8059   1.8154   1.8407   1.8834   1.9419
     1.9621   1.9738   1.9851   2.0033   2.0262   2.0451   2.1060   2.1299
     2.1464   2.1831   2.1919   2.1990   2.2356   2.2424   2.2437   2.2515
     2.2541   2.3129   2.3261   2.4503   2.4669   2.4894   2.5017   2.5067
     2.5222   2.5435   2.5681   2.5903   2.6031   2.6697   2.7084   2.7266
     2.7514   2.8820   2.8966   2.9016   2.9496   3.2347   3.3437   3.7911
     4.0701   4.0862   4.2074   4.8809   5.3333   5.5146   6.0386   6.2201
     6.2286   6.3636   6.5683   6.9615   7.1913   7.2514   7.5642   7.5827
     7.5904

          k = 0.2000 0.3464 0.0000 ( 43046 PWs)   bands (ev):

    -5.8634  -4.6545  -4.6329  -4.5922  -3.6986  -3.5599  -3.5446  -3.5330
    -3.5058  -3.4838  -3.4735  -3.4661  -3.3645  -3.3633  -3.1048  -2.9817
    -2.9763  -2.9653  -2.9090  -2.9034  -2.8082  -2.7338  -2.7207  -2.7095
    -2.7022  -2.6688  -2.5905  -2.5709  -2.5547  -2.5419  -2.5110  -2.4778
    -2.4494  -2.4315  -2.3983  -2.3338  -2.2473  -2.0593  -1.9643  -1.9535
    -1.9329  -1.9146  -1.9073  -1.8996  -1.8439  -1.8342  -1.7348  -1.6765
    -1.6631  -1.6531  -1.5748  -1.5429  -1.4967  -1.4843  -1.4545  -1.3948
    -1.3613  -1.2287  -1.2245  -1.1895  -1.1213  -1.1133  -1.0918  -1.0772
    -1.0400  -1.0073  -0.9859  -0.8667  -0.8515  -0.8254  -0.8207  -0.7803
    -0.7660  -0.7207  -0.7057  -0.6894  -0.6585  -0.5687  -0.5570  -0.5314
    -0.5141  -0.5096  -0.5008  -0.4893  -0.4573  -0.4378  -0.4064  -0.3772
    -0.3553  -0.3139  -0.2788  -0.2598  -0.2346  -0.1944  -0.1773  -0.1598
    -0.1489  -0.1152  -0.1069  -0.0942  -0.0806  -0.0672  -0.0563  -0.0477
    -0.0069   0.0177   0.0894   0.1117   0.1573   0.1693   0.2251   0.2356
     0.2437   0.3387   0.4354   0.4585   0.5541   0.5825   0.6043   0.6134
     0.6378   0.6655   0.6722   0.7046   0.7177   0.7331   0.7815   0.8230
     0.8469   0.9347   1.0033   1.0251   1.0539   1.0656   1.0984   1.1333
     1.1512   1.2459   1.2621   1.2740   1.3277   1.3362   1.3873   1.4554
     1.4768   1.4816   1.5058   1.5448   1.5559   1.5748   1.5782   1.5966
     1.6028   1.6123   1.6309   1.7122   1.7814   1.8202   1.8912   1.9419
     1.9628   2.0470   2.1260   2.1311   2.1373   2.1764   2.2430   2.2646
     2.2749   2.2889   2.3062   2.3263   2.3383   2.3418   2.3557   2.3887
     2.4160   2.4331   2.4867   2.5080   2.5367   2.5570   2.5677   2.6071
     2.7260   2.7668   2.8025   2.8141   2.8727   2.8826   2.8870   3.0088
     3.0268   3.2936   3.5407   3.5593   3.9267   4.0883   4.1081   4.1302
     4.4570   4.8128   4.8328   5.0156   5.0222   5.0781   5.6628   5.9260
     6.2086   6.2664   6.4427   6.5767   6.9335   7.0064   7.0242   7.0318
     7.4276

          k = 0.2000-0.5774 0.0000 ( 43014 PWs)   bands (ev):

    -5.3349  -5.3231  -4.7220  -4.1513  -4.0764  -3.6305  -3.5552  -3.4218
    -3.3901  -3.3225  -3.2651  -3.1687  -3.1603  -3.1515  -3.0463  -3.0380
    -3.0179  -2.9979  -2.9883  -2.9745  -2.8986  -2.8274  -2.8254  -2.8093
    -2.7853  -2.7026  -2.6660  -2.6057  -2.5666  -2.4902  -2.4239  -2.4132
    -2.4086  -2.4002  -2.3495  -2.2842  -2.2349  -2.1743  -2.1147  -2.0007
    -1.9843  -1.8603  -1.8541  -1.8369  -1.7868  -1.7611  -1.6675  -1.6274
    -1.5953  -1.5763  -1.5515  -1.4926  -1.4842  -1.4623  -1.3833  -1.3686
    -1.3498  -1.3380  -1.3360  -1.3256  -1.2777  -1.2575  -1.2327  -1.1287
    -1.1114  -1.0573  -1.0558  -0.9614  -0.9121  -0.8907  -0.8811  -0.8474
    -0.8336  -0.8182  -0.7672  -0.7195  -0.7053  -0.6946  -0.6678  -0.6470
    -0.5898  -0.5590  -0.5347  -0.4825  -0.4752  -0.4673  -0.4302  -0.3687
    -0.3025  -0.2902  -0.2639  -0.2530  -0.2261  -0.2220  -0.2112  -0.1869
    -0.1743  -0.1544  -0.1314  -0.1293  -0.0841  -0.0745  -0.0559  -0.0523
    -0.0446  -0.0132   0.0103   0.0317   0.0432   0.1629   0.2453   0.2624
     0.3590   0.3680   0.4620   0.4711   0.4870   0.5333   0.5481   0.5572
     0.5781   0.6005   0.6343   0.6896   0.7070   0.7325   0.7691   0.7833
     0.8379   0.8551   0.8920   0.9778   1.0478   1.1129   1.1305   1.1354
     1.1585   1.2244   1.2466   1.2643   1.2695   1.2867   1.3110   1.3228
     1.3670   1.4179   1.4484   1.4833   1.5047   1.5200   1.5305   1.5501
     1.5532   1.6519   1.7226   1.7800   1.8228   1.8797   1.9571   1.9691
     1.9765   2.0441   2.0955   2.1029   2.1353   2.2010   2.2560   2.2734
     2.2964   2.3210   2.3232   2.3479   2.3796   2.4082   2.4721   2.4828
     2.4869   2.5063   2.5356   2.5405   2.5422   2.6043   2.7241   2.7422
     2.7548   2.7625   2.7672   2.8214   2.8699   2.9425   3.0663   3.6646
     3.9021   3.9034   4.1067   4.1726   4.2728   4.2868   4.2983   4.6117
     4.9112   4.9165   5.1256   5.3668   5.3945   5.4886   5.5103   5.6435
     5.7614   5.8242   5.8995   6.1488   6.3200   6.3437   6.6658   6.9694
     6.9870

          k = 0.2000-0.3464 0.0000 ( 43046 PWs)   bands (ev):

    -5.8634  -4.6545  -4.6329  -4.5922  -3.6987  -3.5599  -3.5447  -3.5330
    -3.5058  -3.4837  -3.4735  -3.4661  -3.3646  -3.3632  -3.1045  -2.9817
    -2.9764  -2.9653  -2.9088  -2.9037  -2.8086  -2.7338  -2.7207  -2.7095
    -2.7021  -2.6681  -2.5904  -2.5709  -2.5548  -2.5419  -2.5107  -2.4777
    -2.4494  -2.4315  -2.3982  -2.3338  -2.2475  -2.0593  -1.9642  -1.9534
    -1.9328  -1.9146  -1.9074  -1.8996  -1.8439  -1.8341  -1.7349  -1.6762
    -1.6631  -1.6535  -1.5745  -1.5430  -1.4968  -1.4843  -1.4546  -1.3947
    -1.3609  -1.2286  -1.2245  -1.1894  -1.1212  -1.1137  -1.0918  -1.0772
    -1.0400  -1.0073  -0.9860  -0.8669  -0.8518  -0.8256  -0.8209  -0.7805
    -0.7660  -0.7206  -0.7056  -0.6893  -0.6585  -0.5686  -0.5568  -0.5314
    -0.5142  -0.5095  -0.5007  -0.4896  -0.4573  -0.4378  -0.4062  -0.3772
    -0.3553  -0.3143  -0.2788  -0.2598  -0.2344  -0.1942  -0.1773  -0.1597
    -0.1489  -0.1154  -0.1070  -0.0943  -0.0806  -0.0673  -0.0563  -0.0476
    -0.0067   0.0176   0.0891   0.1117   0.1575   0.1700   0.2250   0.2356
     0.2437   0.3386   0.4355   0.4585   0.5538   0.5825   0.6043   0.6134
     0.6378   0.6655   0.6719   0.7046   0.7177   0.7332   0.7815   0.8232
     0.8467   0.9347   1.0033   1.0250   1.0539   1.0656   1.0983   1.1334
     1.1512   1.2460   1.2621   1.2739   1.3277   1.3362   1.3872   1.4553
     1.4768   1.4817   1.5059   1.5447   1.5558   1.5749   1.5782   1.5965
     1.6028   1.6123   1.6309   1.7124   1.7810   1.8202   1.8915   1.9418
     1.9627   2.0471   2.1259   2.1312   2.1372   2.1762   2.2430   2.2646
     2.2749   2.2890   2.3062   2.3263   2.3383   2.3418   2.3556   2.3887
     2.4159   2.4333   2.4866   2.5081   2.5366   2.5570   2.5677   2.6071
     2.7262   2.7668   2.8025   2.8142   2.8727   2.8825   2.8869   3.0085
     3.0268   3.2938   3.5407   3.5593   3.9273   4.0883   4.1081   4.1301
     4.4568   4.8126   4.8329   5.0158   5.0223   5.0780   5.6631   5.9257
     6.2086   6.2663   6.4423   6.5765   6.9335   7.0062   7.0242   7.0319
     7.4277

          k = 0.4000-0.2309 0.0000 ( 43046 PWs)   bands (ev):

    -5.7261  -5.0916  -4.4777  -4.0438  -4.0135  -3.9258  -3.6633  -3.4964
    -3.4358  -3.3545  -3.3041  -3.2943  -3.2179  -3.1185  -3.0820  -3.0709
    -3.0606  -2.9839  -2.9234  -2.9061  -2.8884  -2.8551  -2.8258  -2.7916
    -2.7465  -2.7181  -2.7078  -2.5738  -2.4490  -2.4449  -2.4402  -2.4374
    -2.4244  -2.3607  -2.2005  -2.1845  -2.1607  -2.1556  -2.1393  -2.0800
    -1.9668  -1.8632  -1.8546  -1.8503  -1.8270  -1.7845  -1.7493  -1.7269
    -1.7039  -1.6900  -1.6393  -1.5792  -1.5084  -1.4865  -1.4589  -1.4323
    -1.3456  -1.3183  -1.2892  -1.2689  -1.2433  -1.1216  -1.0694  -1.0441
    -1.0330  -1.0140  -0.9488  -0.9380  -0.9075  -0.8174  -0.7996  -0.7874
    -0.7563  -0.6896  -0.6806  -0.6616  -0.6573  -0.6337  -0.6025  -0.5750
    -0.5579  -0.5479  -0.5389  -0.5357  -0.5290  -0.4990  -0.4520  -0.4003
    -0.3940  -0.3895  -0.3707  -0.3663  -0.3457  -0.2626  -0.2122  -0.1826
    -0.1383  -0.1219  -0.1027  -0.0946  -0.0637  -0.0563   0.0257   0.0731
     0.0855   0.0967   0.1468   0.1847   0.2079   0.3288   0.3441   0.3660
     0.4265   0.4716   0.5089   0.5134   0.5304   0.5416   0.5489   0.5651
     0.6317   0.6440   0.6602   0.6774   0.6881   0.7066   0.7223   0.7459
     0.7611   0.8710   0.8919   0.9050   0.9457   0.9825   1.0743   1.0880
     1.1267   1.2014   1.2124   1.2778   1.3441   1.3708   1.4062   1.4361
     1.4416   1.4596   1.4773   1.5271   1.5441   1.5771   1.6037   1.6336
     1.6944   1.7173   1.7392   1.7441   1.7636   1.8144   1.8585   1.9393
     1.9796   2.0102   2.0383   2.0440   2.0591   2.1320   2.1554   2.1717
     2.2433   2.2470   2.2556   2.3015   2.3334   2.3471   2.3612   2.4384
     2.4665   2.4868   2.4965   2.5065   2.5107   2.5216   2.5311   2.7078
     2.7126   2.7424   2.7425   2.7620   2.9279   2.9699   3.1611   3.3504
     3.4229   3.5440   3.7869   3.7987   4.1179   4.1846   4.2389   4.5177
     4.7374   5.0035   5.0118   5.0526   5.2286   5.2816   5.3512   5.4105
     5.6487   5.6677   6.0802   6.2987   6.6486   6.8443   7.0465   7.3304
     7.5671

          k = 0.4000-0.0000 0.0000 ( 43046 PWs)   bands (ev):

    -5.8632  -4.6577  -4.6300  -4.5917  -3.7019  -3.5485  -3.5428  -3.5348
    -3.4988  -3.4922  -3.4754  -3.4714  -3.3685  -3.3573  -3.0886  -2.9753
    -2.9706  -2.9639  -2.9324  -2.8834  -2.8180  -2.7460  -2.7180  -2.7114
    -2.7019  -2.6625  -2.6119  -2.5684  -2.5644  -2.5405  -2.5084  -2.4731
    -2.4409  -2.4261  -2.3979  -2.3157  -2.2263  -2.0457  -1.9592  -1.9580
    -1.9473  -1.9250  -1.9075  -1.9026  -1.9011  -1.8397  -1.8024  -1.6701
    -1.6664  -1.5818  -1.5744  -1.5457  -1.4917  -1.4865  -1.4444  -1.4005
    -1.3779  -1.2356  -1.2119  -1.1806  -1.1502  -1.1097  -1.0926  -1.0839
    -1.0411  -1.0081  -0.9994  -0.8620  -0.8435  -0.8194  -0.8074  -0.7766
    -0.7493  -0.7207  -0.7123  -0.6794  -0.6704  -0.5647  -0.5475  -0.5309
    -0.5168  -0.5133  -0.5022  -0.4936  -0.4523  -0.4389  -0.3959  -0.3701
    -0.3502  -0.3235  -0.2760  -0.2658  -0.2214  -0.2010  -0.1728  -0.1509
    -0.1434  -0.1223  -0.1048  -0.0976  -0.0904  -0.0805  -0.0587  -0.0467
     0.0043   0.0162   0.0433   0.1156   0.1568   0.1614   0.2322   0.2444
     0.2467   0.3680   0.4305   0.4490   0.5724   0.5835   0.6199   0.6273
     0.6343   0.6530   0.6893   0.6946   0.7245   0.7323   0.7713   0.8108
     0.8727   0.9556   1.0082   1.0352   1.0455   1.0686   1.0988   1.1441
     1.1675   1.2366   1.2688   1.2826   1.3181   1.3361   1.3891   1.4457
     1.4589   1.4769   1.5031   1.5451   1.5598   1.5686   1.5741   1.5902
     1.6006   1.6058   1.6263   1.6868   1.8062   1.8155   1.8743   1.9531
     1.9690   2.0484   2.1277   2.1310   2.1362   2.2044   2.2449   2.2585
     2.2746   2.2837   2.3122   2.3265   2.3400   2.3527   2.3636   2.3885
     2.4117   2.4172   2.4922   2.5242   2.5330   2.5567   2.5648   2.6122
     2.6750   2.7472   2.7892   2.8076   2.8653   2.8783   2.8847   3.0132
     3.0292   3.3244   3.5540   3.5657   3.9228   4.0809   4.0934   4.1193
     4.4606   4.8167   4.8374   5.0189   5.0295   5.0735   5.6865   5.9049
     6.2075   6.2487   6.4332   6.5650   6.9365   7.0132   7.0212   7.0386
     7.4273

          k = 0.4000 0.2309 0.0000 ( 43046 PWs)   bands (ev):

    -5.7261  -5.0915  -4.4776  -4.0439  -4.0135  -3.9256  -3.6633  -3.4966
    -3.4356  -3.3545  -3.3041  -3.2943  -3.2183  -3.1185  -3.0819  -3.0709
    -3.0605  -2.9835  -2.9233  -2.9061  -2.8885  -2.8550  -2.8254  -2.7918
    -2.7466  -2.7181  -2.7077  -2.5753  -2.4490  -2.4449  -2.4402  -2.4375
    -2.4244  -2.3606  -2.2005  -2.1846  -2.1608  -2.1556  -2.1392  -2.0799
    -1.9665  -1.8633  -1.8547  -1.8503  -1.8270  -1.7847  -1.7491  -1.7270
    -1.7038  -1.6900  -1.6395  -1.5792  -1.5082  -1.4865  -1.4590  -1.4324
    -1.3455  -1.3183  -1.2894  -1.2689  -1.2437  -1.1216  -1.0691  -1.0439
    -1.0329  -1.0139  -0.9488  -0.9380  -0.9066  -0.8173  -0.7994  -0.7875
    -0.7557  -0.6896  -0.6806  -0.6616  -0.6574  -0.6335  -0.6024  -0.5751
    -0.5578  -0.5480  -0.5389  -0.5357  -0.5290  -0.4991  -0.4517  -0.4010
    -0.3940  -0.3897  -0.3707  -0.3665  -0.3458  -0.2622  -0.2122  -0.1828
    -0.1381  -0.1224  -0.1028  -0.0946  -0.0635  -0.0562   0.0252   0.0731
     0.0855   0.0965   0.1467   0.1847   0.2078   0.3288   0.3440   0.3665
     0.4265   0.4717   0.5089   0.5133   0.5303   0.5415   0.5488   0.5650
     0.6316   0.6443   0.6603   0.6773   0.6880   0.7064   0.7223   0.7459
     0.7612   0.8713   0.8920   0.9051   0.9455   0.9824   1.0744   1.0881
     1.1270   1.2014   1.2124   1.2776   1.3440   1.3710   1.4063   1.4362
     1.4415   1.4596   1.4773   1.5271   1.5440   1.5771   1.6037   1.6335
     1.6944   1.7172   1.7393   1.7442   1.7637   1.8148   1.8581   1.9393
     1.9798   2.0101   2.0384   2.0440   2.0589   2.1320   2.1554   2.1717
     2.2433   2.2470   2.2556   2.3014   2.3335   2.3471   2.3613   2.4386
     2.4664   2.4868   2.4965   2.5065   2.5107   2.5216   2.5310   2.7078
     2.7125   2.7423   2.7424   2.7619   2.9279   2.9699   3.1607   3.3505
     3.4229   3.5442   3.7868   3.7988   4.1179   4.1845   4.2389   4.5174
     4.7368   5.0034   5.0118   5.0528   5.2287   5.2818   5.3510   5.4104
     5.6487   5.6677   6.0805   6.2987   6.6487   6.8445   7.0462   7.3305
     7.5672

          k = 0.4000-0.6928 0.0000 ( 43014 PWs)   bands (ev):

    -5.3346  -5.3225  -4.7222  -4.1601  -4.0739  -3.6270  -3.5485  -3.4147
    -3.3888  -3.3016  -3.2743  -3.1981  -3.1621  -3.1162  -3.0480  -3.0333
    -3.0215  -3.0008  -2.9871  -2.9784  -2.9127  -2.8358  -2.8278  -2.8025
    -2.7861  -2.7099  -2.6646  -2.5798  -2.5610  -2.4882  -2.4242  -2.4165
    -2.4030  -2.3997  -2.3456  -2.2867  -2.2488  -2.1820  -2.1278  -1.9932
    -1.9780  -1.9479  -1.8488  -1.8100  -1.7872  -1.7510  -1.6597  -1.6173
    -1.5875  -1.5695  -1.5377  -1.5123  -1.4970  -1.4703  -1.3857  -1.3781
    -1.3542  -1.3453  -1.3399  -1.3280  -1.2725  -1.2673  -1.2439  -1.1288
    -1.1079  -1.0627  -1.0254  -0.9526  -0.9204  -0.8993  -0.8893  -0.8454
    -0.8128  -0.8056  -0.7551  -0.7263  -0.7089  -0.6971  -0.6568  -0.6356
    -0.5985  -0.5798  -0.5237  -0.4979  -0.4878  -0.4644  -0.4158  -0.3400
    -0.3197  -0.2827  -0.2738  -0.2641  -0.2192  -0.2138  -0.2064  -0.1827
    -0.1736  -0.1430  -0.1226  -0.1043  -0.0952  -0.0737  -0.0591  -0.0512
    -0.0475  -0.0268   0.0052   0.0405   0.0519   0.1037   0.2594   0.3254
     0.3585   0.3659   0.4619   0.4736   0.4901   0.5031   0.5421   0.5726
     0.5795   0.5908   0.6352   0.6796   0.7076   0.7217   0.7749   0.7844
     0.8396   0.8611   0.9073   0.9981   1.0662   1.1113   1.1234   1.1378
     1.1596   1.2078   1.2296   1.2543   1.2721   1.2772   1.3097   1.3203
     1.3682   1.4280   1.4426   1.4881   1.4997   1.5208   1.5273   1.5471
     1.5651   1.6947   1.7084   1.7701   1.8191   1.8793   1.9406   1.9641
     1.9909   2.0477   2.0928   2.1003   2.1485   2.2057   2.2585   2.2815
     2.3066   2.3189   2.3279   2.3434   2.3731   2.3966   2.4707   2.4824
     2.4927   2.5184   2.5330   2.5381   2.5461   2.6060   2.7118   2.7313
     2.7438   2.7499   2.7641   2.8178   2.8485   2.9397   3.0627   3.6835
     3.9028   3.9070   4.1207   4.1635   4.2852   4.2909   4.3144   4.5942
     4.8940   4.9162   5.1502   5.3643   5.3961   5.4800   5.5105   5.6021
     5.7265   5.8185   5.9158   6.1580   6.3185   6.3587   6.6691   6.9759
     7.0039

          k = 0.4000-0.4619 0.0000 ( 43014 PWs)   bands (ev):

    -5.3347  -5.3225  -4.7222  -4.1603  -4.0739  -3.6267  -3.5485  -3.4145
    -3.3890  -3.3018  -3.2743  -3.1982  -3.1622  -3.1165  -3.0480  -3.0332
    -3.0214  -3.0009  -2.9870  -2.9784  -2.9123  -2.8358  -2.8278  -2.8025
    -2.7861  -2.7105  -2.6643  -2.5795  -2.5604  -2.4878  -2.4243  -2.4165
    -2.4030  -2.3997  -2.3457  -2.2867  -2.2492  -2.1820  -2.1275  -1.9933
    -1.9779  -1.9482  -1.8486  -1.8098  -1.7871  -1.7514  -1.6598  -1.6173
    -1.5874  -1.5695  -1.5377  -1.5122  -1.4969  -1.4701  -1.3859  -1.3781
    -1.3542  -1.3453  -1.3398  -1.3279  -1.2723  -1.2674  -1.2433  -1.1293
    -1.1083  -1.0629  -1.0257  -0.9527  -0.9205  -0.8993  -0.8894  -0.8453
    -0.8127  -0.8058  -0.7552  -0.7262  -0.7090  -0.6971  -0.6567  -0.6353
    -0.5986  -0.5798  -0.5238  -0.4978  -0.4878  -0.4645  -0.4158  -0.3399
    -0.3197  -0.2825  -0.2741  -0.2641  -0.2192  -0.2138  -0.2064  -0.1827
    -0.1739  -0.1431  -0.1226  -0.1045  -0.0951  -0.0737  -0.0591  -0.0511
    -0.0475  -0.0268   0.0050   0.0404   0.0520   0.1049   0.2594   0.3255
     0.3585   0.3660   0.4619   0.4736   0.4902   0.5032   0.5419   0.5725
     0.5795   0.5908   0.6350   0.6797   0.7078   0.7216   0.7748   0.7842
     0.8396   0.8610   0.9072   0.9974   1.0661   1.1113   1.1234   1.1378
     1.1598   1.2080   1.2296   1.2543   1.2721   1.2773   1.3098   1.3203
     1.3683   1.4279   1.4426   1.4881   1.4998   1.5208   1.5272   1.5471
     1.5650   1.6943   1.7086   1.7703   1.8190   1.8794   1.9408   1.9641
     1.9909   2.0476   2.0928   2.1003   2.1482   2.2058   2.2585   2.2815
     2.3066   2.3189   2.3279   2.3433   2.3733   2.3966   2.4706   2.4824
     2.4927   2.5184   2.5331   2.5381   2.5461   2.6060   2.7119   2.7314
     2.7438   2.7499   2.7641   2.8178   2.8486   2.9397   3.0625   3.6837
     3.9027   3.9070   4.1207   4.1635   4.2853   4.2909   4.3143   4.5944
     4.8940   4.9163   5.1504   5.3642   5.3962   5.4796   5.5108   5.6025
     5.7262   5.8183   5.9159   6.1578   6.3181   6.3589   6.6691   6.9756
     7.0041

     the Fermi energy is     2.5224 ev

!    total energy              =  -27755.48464345 Ry
     total all-electron energy =  -1326642.250060 Ry
     estimated scf accuracy    <       0.00000048 Ry
     smearing contrib. (-TS)   =       0.00204426 Ry
     internal energy E=F+TS    =  -27755.48668771 Ry

     The total energy is F=E-TS. E is the sum of the following terms:
     one-electron contribution =  -20689.08489514 Ry
     hartree contribution      =   10651.72726960 Ry
     xc contribution           =    -890.69632984 Ry
     ewald contribution        =    8646.54758338 Ry
     one-center paw contrib.   =  -25473.98031572 Ry

     convergence has been achieved in  17 iterations

     negative rho (up, down):  3.173E-03 0.000E+00

     Forces acting on atoms (cartesian axes, Ry/au):

     atom    1 type  1   force =    -0.00031465    0.00059661   -0.00320011
     atom    2 type  1   force =     0.00029640    0.00064227   -0.00318885
     atom    3 type  1   force =     0.00002612    0.00211315   -0.00598377
     atom    4 type  1   force =     0.00003124    0.00056805   -0.00346055
     atom    5 type  1   force =     0.00036043    0.00001226   -0.00366046
     atom    6 type  1   force =    -0.00038651   -0.00002103   -0.00366065
     atom    7 type  1   force =    -0.00023898    0.00044678   -0.00276017
     atom    8 type  1   force =    -0.00003651    0.00022791   -0.00329012
     atom    9 type  1   force =     0.00027600    0.00045491   -0.00275825
     atom   10 type  1   force =     0.00001192   -0.00062938    0.00562928
     atom   11 type  1   force =     0.00164443   -0.00199648   -0.00064633
     atom   12 type  1   force =    -0.00165050   -0.00201881   -0.00064097
     atom   13 type  1   force =    -0.00195570    0.00007967    0.00777964
     atom   14 type  1   force =    -0.00002583   -0.00096194    0.00251439
     atom   15 type  1   force =     0.00197799    0.00007651    0.00777725
     atom   16 type  1   force =    -0.00028336   -0.00079810    0.00285373
     atom   17 type  1   force =     0.00026122   -0.00077996    0.00285857
     atom   18 type  1   force =     0.00002635   -0.00014236    0.00146369
     atom   19 type  1   force =     0.00000839   -0.00011047   -0.00001754
     atom   20 type  1   force =    -0.00000928   -0.00010569   -0.00001349
     atom   21 type  1   force =    -0.00001140   -0.00013937   -0.00004917
     atom   22 type  1   force =     0.00000400   -0.00015440   -0.00000983
     atom   23 type  1   force =     0.00001732   -0.00012482   -0.00004503
     atom   24 type  1   force =    -0.00002826   -0.00012113   -0.00004234
     atom   25 type  1   force =    -0.00000009   -0.00013749   -0.00010143
     atom   26 type  1   force =    -0.00000336   -0.00017453   -0.00008047
     atom   27 type  1   force =    -0.00000992   -0.00012242   -0.00009143
     atom   28 type  1   force =     0.00009978   -0.00022991   -0.00035600
     atom   29 type  1   force =    -0.00011909   -0.00021927   -0.00033220
     atom   30 type  1   force =    -0.00000699   -0.00040494   -0.00011491
     atom   31 type  1   force =    -0.00000350   -0.00066196    0.00028451
     atom   32 type  1   force =    -0.00009095   -0.00033807   -0.00006790
     atom   33 type  1   force =     0.00007933   -0.00034346   -0.00005766
     atom   34 type  1   force =    -0.00005514   -0.00033543   -0.00004559
     atom   35 type  1   force =    -0.00001084   -0.00038887   -0.00005783
     atom   36 type  1   force =     0.00004267   -0.00033126   -0.00004733
     atom   37 type  2   force =     0.00007727    0.00657342    0.00361931
     The non-local contrib.  to forces
     atom    1 type  1   force =    -0.00004802   -0.00025589   -0.01797846
     atom    2 type  1   force =     0.00003931   -0.00022463   -0.01797425
     atom    3 type  1   force =    -0.00000349   -0.00195573   -0.01660627
     atom    4 type  1   force =     0.00002315   -0.00056312   -0.01890721
     atom    5 type  1   force =     0.00009398    0.00018665   -0.01821530
     atom    6 type  1   force =    -0.00011279    0.00015209   -0.01820146
     atom    7 type  1   force =     0.00051903    0.00073501   -0.01900915
     atom    8 type  1   force =    -0.00003884   -0.00022309   -0.01891144
     atom    9 type  1   force =    -0.00048176    0.00075311   -0.01899593
     atom   10 type  1   force =     0.00000411   -0.00152607   -0.00005730
     atom   11 type  1   force =    -0.00178308    0.00014993   -0.00035185
     atom   12 type  1   force =     0.00176981    0.00012252   -0.00034962
     atom   13 type  1   force =     0.00014458   -0.00102325    0.00155470
     atom   14 type  1   force =    -0.00003149   -0.00055920   -0.00052897
     atom   15 type  1   force =    -0.00011729   -0.00104035    0.00156180
     atom   16 type  1   force =     0.00084988   -0.00103862   -0.00055348
     atom   17 type  1   force =    -0.00087708   -0.00101339   -0.00054410
     atom   18 type  1   force =     0.00003130   -0.00333989   -0.00017509
     atom   19 type  1   force =    -0.00564333   -0.00480207    0.00265871
     atom   20 type  1   force =     0.00568579   -0.00484549    0.00256012
     atom   21 type  1   force =    -0.00001305    0.00003397    0.00284705
     atom   22 type  1   force =    -0.00001941    0.01481875   -0.00985548
     atom   23 type  1   force =     0.00193483    0.00047035    0.00202426
     atom   24 type  1   force =    -0.00195653    0.00047803    0.00201061
     atom   25 type  1   force =     0.00081954    0.00027715    0.00427390
     atom   26 type  1   force =     0.00000026   -0.00275467    0.00051461
     atom   27 type  1   force =    -0.00083841    0.00029995    0.00431351
     atom   28 type  1   force =     0.01461854    0.01493167    0.02576273
     atom   29 type  1   force =    -0.01460914    0.01472862    0.02572572
     atom   30 type  1   force =    -0.00000885    0.00017556    0.01625658
     atom   31 type  1   force =     0.00019150    0.01672469   -0.11117462
     atom   32 type  1   force =    -0.00601300   -0.00086733    0.02009560
     atom   33 type  1   force =     0.00616221   -0.00093180    0.02019431
     atom   34 type  1   force =    -0.00074890   -0.00289783    0.01772912
     atom   35 type  1   force =     0.00000133    0.00112502    0.01667652
     atom   36 type  1   force =     0.00071391   -0.00290921    0.01775206
     atom   37 type  2   force =     0.00015689    0.01623447   -0.03764869
     The ionic contribution  to forces
     atom    1 type  1   force =    -0.00073542    0.00370090  -93.44085166
     atom    2 type  1   force =     0.00073662    0.00371839  -93.44082551
     atom    3 type  1   force =    -0.00000041   -0.00842635  -93.43984923
     atom    4 type  1   force =     0.00000960    0.01143616  -93.41959974
     atom    5 type  1   force =    -0.00976089    0.00240987  -93.43916777
     atom    6 type  1   force =     0.00975008    0.00242758  -93.43917734
     atom    7 type  1   force =    -0.01327048   -0.00729501  -93.42304495
     atom    8 type  1   force =     0.00000535   -0.00097736  -93.44602866
     atom    9 type  1   force =     0.01326532   -0.00730311  -93.42304263
     atom   10 type  1   force =     0.00033603    0.04656417  -31.55730926
     atom   11 type  1   force =    -0.03412440   -0.00328528  -31.57106365
     atom   12 type  1   force =     0.03355843   -0.00361278  -31.57121523
     atom   13 type  1   force =    -0.10940239    0.04169642  -31.49138454
     atom   14 type  1   force =     0.00011275   -0.00613836  -31.60771536
     atom   15 type  1   force =     0.10941334    0.04201279  -31.49102244
     atom   16 type  1   force =    -0.03235180   -0.02256957  -31.60379047
     atom   17 type  1   force =     0.03214794   -0.02267261  -31.60378196
     atom   18 type  1   force =     0.00021996   -0.17809412  -31.45523829
     atom   19 type  1   force =     0.09700695    0.02964997   31.20758592
     atom   20 type  1   force =    -0.09692392    0.02900388   31.21048935
     atom   21 type  1   force =    -0.00017730   -0.05657539   30.86490934
     atom   22 type  1   force =    -0.00073164    0.06392143   31.79191109
     atom   23 type  1   force =    -0.06001181   -0.00350289   30.92222853
     atom   24 type  1   force =     0.06058175   -0.00327887   30.92228073
     atom   25 type  1   force =    -0.09098626   -0.04805920   30.79945183
     atom   26 type  1   force =     0.00018406    0.03693399   30.94792981
     atom   27 type  1   force =     0.09041841   -0.04814188   30.79637746
     atom   28 type  1   force =    -0.06555226   -0.24108114   92.32193261
     atom   29 type  1   force =     0.06487868   -0.23872845   92.31948591
     atom   30 type  1   force =    -0.00048739    0.00513041   92.77099004
     atom   31 type  1   force =     0.01042375    0.79891283   92.37382262
     atom   32 type  1   force =     0.18412901    0.06331043   92.52597261
     atom   33 type  1   force =    -0.18738293    0.06384057   92.52058720
     atom   34 type  1   force =     0.07264290    0.07645196   92.74942100
     atom   35 type  1   force =     0.00064704    0.00981670   92.78199271
     atom   36 type  1   force =    -0.07398221    0.07856510   92.74796265
     atom   37 type  2   force =    -0.00458645   -0.50976116   12.28877728
     The local contribution  to forces
     atom    1 type  1   force =     0.00053923   -0.00282268   93.43791610
     atom    2 type  1   force =    -0.00050638   -0.00298480   93.43790113
     atom    3 type  1   force =    -0.00001256    0.01260396   93.43242194
     atom    4 type  1   force =    -0.00011472   -0.01036287   93.41734497
     atom    5 type  1   force =     0.01007186   -0.00256868   93.43603479
     atom    6 type  1   force =    -0.00995872   -0.00247011   93.43603123
     atom    7 type  1   force =     0.01245782    0.00709681   93.42165274
     atom    8 type  1   force =     0.00015611    0.00149078   93.44399476
     atom    9 type  1   force =    -0.01261282    0.00705246   93.42164208
     atom   10 type  1   force =    -0.00033927   -0.04564810   31.56136099
     atom   11 type  1   force =     0.03759695    0.00096714   31.56904429
     atom   12 type  1   force =    -0.03701599    0.00140026   31.56921235
     atom   13 type  1   force =     0.10701421   -0.04047485   31.49631427
     atom   14 type  1   force =     0.00001344    0.00580567   31.60902239
     atom   15 type  1   force =    -0.10714835   -0.04070798   31.49589344
     atom   16 type  1   force =     0.03133621    0.02278126   31.60538405
     atom   17 type  1   force =    -0.03103613    0.02277922   31.60530091
     atom   18 type  1   force =    -0.00031616    0.18066418   31.45575937
     atom   19 type  1   force =    -0.09093266   -0.02489193  -31.20770904
     atom   20 type  1   force =     0.09074568   -0.02424536  -31.21049777
     atom   21 type  1   force =     0.00023690    0.05618886  -30.86595535
     atom   22 type  1   force =     0.00067713   -0.07902479  -31.78033730
     atom   23 type  1   force =     0.05813161    0.00295710  -30.92249755
     atom   24 type  1   force =    -0.05861387    0.00270623  -30.92258684
     atom   25 type  1   force =     0.08986178    0.04751506  -30.80205912
     atom   26 type  1   force =    -0.00017812   -0.03441514  -30.94660962
     atom   27 type  1   force =    -0.08930064    0.04750972  -30.79905523
     atom   28 type  1   force =     0.05139627    0.22567845  -92.33136010
     atom   29 type  1   force =    -0.05078061    0.22352691  -92.32882214
     atom   30 type  1   force =     0.00051523   -0.00567830  -92.77009953
     atom   31 type  1   force =    -0.01054575   -0.80737490  -92.26242119
     atom   32 type  1   force =    -0.17839515   -0.06261948  -92.52897329
     atom   33 type  1   force =     0.18151141   -0.06307320  -92.52372034
     atom   34 type  1   force =    -0.07194205   -0.07419434  -92.74970523
     atom   35 type  1   force =    -0.00062789   -0.01114896  -92.78138806
     atom   36 type  1   force =     0.07326593   -0.07633227  -92.74829571
     atom   37 type  2   force =     0.00450525    0.50010008  -12.24744785
     The core correction contribution to forces
     atom    1 type  1   force =    -0.00001267   -0.00000277    0.01723739
     atom    2 type  1   force =     0.00001199   -0.00000296    0.01723669
     atom    3 type  1   force =    -0.00000019   -0.00011416    0.01761037
     atom    4 type  1   force =     0.00000063    0.00002889    0.01718646
     atom    5 type  1   force =     0.00001468   -0.00005480    0.01721743
     atom    6 type  1   force =    -0.00001484   -0.00005573    0.01721745
     atom    7 type  1   force =     0.00003811   -0.00003979    0.01717441
     atom    8 type  1   force =    -0.00000023   -0.00000467    0.01720867
     atom    9 type  1   force =    -0.00003775   -0.00003992    0.01717419
     atom   10 type  1   force =    -0.00000122   -0.00010124    0.00126244
     atom   11 type  1   force =    -0.00004394    0.00009717    0.00132733
     atom   12 type  1   force =     0.00004705    0.00009871    0.00132870
     atom   13 type  1   force =     0.00028285   -0.00010185    0.00101486
     atom   14 type  1   force =    -0.00000098    0.00002190    0.00142072
     atom   15 type  1   force =    -0.00028278   -0.00010354    0.00101415
     atom   16 type  1   force =    -0.00001590    0.00004377    0.00150013
     atom   17 type  1   force =     0.00001590    0.00004496    0.00150150
     atom   18 type  1   force =    -0.00000012    0.00063190    0.00076013
     atom   19 type  1   force =    -0.00039449    0.00003529   -0.00258400
     atom   20 type  1   force =     0.00039762    0.00003905   -0.00258227
     atom   21 type  1   force =     0.00000063    0.00028761   -0.00192901
     atom   22 type  1   force =     0.00000569    0.00006596   -0.00168885
     atom   23 type  1   force =     0.00003991    0.00002523   -0.00183788
     atom   24 type  1   force =    -0.00004314    0.00002599   -0.00183654
     atom   25 type  1   force =     0.00035209    0.00008342   -0.00180837
     atom   26 type  1   force =     0.00000043   -0.00006852   -0.00199573
     atom   27 type  1   force =    -0.00035010    0.00008378   -0.00180903
     atom   28 type  1   force =    -0.00039630    0.00014128   -0.01607143
     atom   29 type  1   force =     0.00040422    0.00013533   -0.01608210
     atom   30 type  1   force =    -0.00000227   -0.00008667   -0.01654649
     atom   31 type  1   force =    -0.00009870   -0.00879133    0.00037306
     atom   32 type  1   force =     0.00023709   -0.00009621   -0.01651225
     atom   33 type  1   force =    -0.00023224   -0.00009534   -0.01650563
     atom   34 type  1   force =    -0.00000108    0.00032814   -0.01685995
     atom   35 type  1   force =    -0.00000186   -0.00018653   -0.01671135
     atom   36 type  1   force =     0.00000700    0.00032635   -0.01685744
     atom   37 type  2   force =     0.00000000    0.00000000    0.00000000
     The Hubbard contrib.    to forces
     atom    1 type  1   force =     0.00000000    0.00000000    0.00000000
     atom    2 type  1   force =     0.00000000    0.00000000    0.00000000
     atom    3 type  1   force =     0.00000000    0.00000000    0.00000000
     atom    4 type  1   force =     0.00000000    0.00000000    0.00000000
     atom    5 type  1   force =     0.00000000    0.00000000    0.00000000
     atom    6 type  1   force =     0.00000000    0.00000000    0.00000000
     atom    7 type  1   force =     0.00000000    0.00000000    0.00000000
     atom    8 type  1   force =     0.00000000    0.00000000    0.00000000
     atom    9 type  1   force =     0.00000000    0.00000000    0.00000000
     atom   10 type  1   force =     0.00000000    0.00000000    0.00000000
     atom   11 type  1   force =     0.00000000    0.00000000    0.00000000
     atom   12 type  1   force =     0.00000000    0.00000000    0.00000000
     atom   13 type  1   force =     0.00000000    0.00000000    0.00000000
     atom   14 type  1   force =     0.00000000    0.00000000    0.00000000
     atom   15 type  1   force =     0.00000000    0.00000000    0.00000000
     atom   16 type  1   force =     0.00000000    0.00000000    0.00000000
     atom   17 type  1   force =     0.00000000    0.00000000    0.00000000
     atom   18 type  1   force =     0.00000000    0.00000000    0.00000000
     atom   19 type  1   force =     0.00000000    0.00000000    0.00000000
     atom   20 type  1   force =     0.00000000    0.00000000    0.00000000
     atom   21 type  1   force =     0.00000000    0.00000000    0.00000000
     atom   22 type  1   force =     0.00000000    0.00000000    0.00000000
     atom   23 type  1   force =     0.00000000    0.00000000    0.00000000
     atom   24 type  1   force =     0.00000000    0.00000000    0.00000000
     atom   25 type  1   force =     0.00000000    0.00000000    0.00000000
     atom   26 type  1   force =     0.00000000    0.00000000    0.00000000
     atom   27 type  1   force =     0.00000000    0.00000000    0.00000000
     atom   28 type  1   force =     0.00000000    0.00000000    0.00000000
     atom   29 type  1   force =     0.00000000    0.00000000    0.00000000
     atom   30 type  1   force =     0.00000000    0.00000000    0.00000000
     atom   31 type  1   force =     0.00000000    0.00000000    0.00000000
     atom   32 type  1   force =     0.00000000    0.00000000    0.00000000
     atom   33 type  1   force =     0.00000000    0.00000000    0.00000000
     atom   34 type  1   force =     0.00000000    0.00000000    0.00000000
     atom   35 type  1   force =     0.00000000    0.00000000    0.00000000
     atom   36 type  1   force =     0.00000000    0.00000000    0.00000000
     atom   37 type  2   force =     0.00000000    0.00000000    0.00000000
     The SCF correction term to forces
     atom    1 type  1   force =    -0.00000000   -0.00000000    0.00000000
     atom    2 type  1   force =     0.00000000    0.00000000    0.00000000
     atom    3 type  1   force =     0.00000000    0.00000000    0.00000000
     atom    4 type  1   force =     0.00000000    0.00000000    0.00000000
     atom    5 type  1   force =    -0.00000000    0.00000000    0.00000000
     atom    6 type  1   force =    -0.00000000   -0.00000000    0.00000000
     atom    7 type  1   force =     0.00000000   -0.00000000    0.00000000
     atom    8 type  1   force =    -0.00000000   -0.00000000    0.00000000
     atom    9 type  1   force =     0.00000000   -0.00000000    0.00000000
     atom   10 type  1   force =     0.00000000    0.00000000    0.00000000
     atom   11 type  1   force =    -0.00000000    0.00000000    0.00000000
     atom   12 type  1   force =    -0.00000000   -0.00000000    0.00000000
     atom   13 type  1   force =     0.00000000   -0.00000000    0.00000000
     atom   14 type  1   force =    -0.00000000   -0.00000000    0.00000000
     atom   15 type  1   force =     0.00000000   -0.00000000    0.00000000
     atom   16 type  1   force =    -0.00000000   -0.00000000    0.00000000
     atom   17 type  1   force =     0.00000000    0.00000000    0.00000000
     atom   18 type  1   force =     0.00000000   -0.00000000    0.00000000
     atom   19 type  1   force =    -0.00002833   -0.00010204    0.00005222
     atom   20 type  1   force =     0.00008531   -0.00005808    0.00003844
     atom   21 type  1   force =    -0.00005883   -0.00007472    0.00010014
     atom   22 type  1   force =     0.00007198    0.00006395   -0.00001793
     atom   23 type  1   force =    -0.00007747   -0.00007492    0.00005896
     atom   24 type  1   force =     0.00000328   -0.00005282    0.00011105
     atom   25 type  1   force =    -0.00004749    0.00004578    0.00006168
     atom   26 type  1   force =    -0.00001024    0.00012951    0.00010181
     atom   27 type  1   force =     0.00006058    0.00012571    0.00010321
     atom   28 type  1   force =     0.00003330    0.00009953   -0.00059846
     atom   29 type  1   force =    -0.00001248    0.00011801   -0.00061823
     atom   30 type  1   force =    -0.00002396    0.00005376   -0.00069417
     atom   31 type  1   force =     0.00002545   -0.00013355   -0.00029401
     atom   32 type  1   force =    -0.00004915   -0.00006579   -0.00062921
     atom   33 type  1   force =     0.00002064   -0.00008400   -0.00059185
     atom   34 type  1   force =    -0.00000625   -0.00002367   -0.00060918
     atom   35 type  1   force =    -0.00002971    0.00000459   -0.00060631
     atom   36 type  1   force =     0.00003779    0.00001847   -0.00058753
     atom   37 type  2   force =     0.00000132   -0.00000029   -0.00004007

     Total force =     0.007630     Total SCF correction =     0.001832
     SCF correction compared to forces is large: reduce conv_thr to get better values

     Writing all to output data dir ./pwscf.save/

     init_run     :     19.24s CPU     19.63s WALL (       1 calls)
     electrons    :    392.64s CPU    419.77s WALL (       1 calls)
     forces       :      3.48s CPU      3.97s WALL (       1 calls)

     Called by init_run:
     wfcinit      :     14.74s CPU     14.99s WALL (       1 calls)
     potinit      :      3.09s CPU      3.17s WALL (       1 calls)
     hinit0       :      0.83s CPU      0.84s WALL (       1 calls)

     Called by electrons:
     c_bands      :    341.18s CPU    361.97s WALL (      18 calls)
     sum_band     :     29.73s CPU     30.95s WALL (      18 calls)
     v_of_rho     :      8.86s CPU     10.46s WALL (      18 calls)
     newd         :      2.46s CPU      3.17s WALL (      18 calls)
     PAW_pot      :      3.78s CPU      3.91s WALL (      18 calls)
     mix_rho      :      8.65s CPU     11.14s WALL (      18 calls)
     vdW_kernel   :      1.73s CPU      1.74s WALL (       1 calls)

     Called by c_bands:
     init_us_2    :      2.63s CPU      2.68s WALL (     494 calls)
     init_us_2:cp :      2.62s CPU      2.68s WALL (     494 calls)
     cegterg      :    332.70s CPU    352.63s WALL (     234 calls)

     Called by *egterg:
     cdiaghg      :     70.65s CPU     76.34s WALL (    1119 calls)
     h_psi        :    177.93s CPU    184.37s WALL (    1145 calls)
     s_psi        :     14.32s CPU     14.72s WALL (    1145 calls)
     g_psi        :      0.45s CPU      0.65s WALL (     898 calls)

     Called by h_psi:
     h_psi:calbec :     22.76s CPU     23.88s WALL (    1145 calls)
     vloc_psi     :    139.89s CPU    144.69s WALL (    1145 calls)
     add_vuspsi   :     14.17s CPU     14.68s WALL (    1145 calls)

     General routines
     calbec       :     30.56s CPU     31.86s WALL (    1431 calls)
     fft          :      6.93s CPU      8.53s WALL (    1194 calls)
     ffts         :      4.51s CPU      5.39s WALL (    4316 calls)
     fftw         :    135.84s CPU    139.01s WALL (  306792 calls)
     interpolate  :      0.60s CPU      0.65s WALL (      18 calls)

     Parallel routines

     PWSCF        :   6m57.31s CPU   7m28.10s WALL


   This run was terminated on:  10: 7:15  23Feb2025            

=------------------------------------------------------------------------------=
   JOB DONE.
=------------------------------------------------------------------------------=
