  37  37   0   0
  0.4190497E+02  0.8468310E-09  0.8468310E-09  0.2496566E-08  0.5000000E-15
  1.000000000000000E-004
  CAR 
 unknown system                          
      8.62271795     -9.90287834  301     -0.07352151      1.00000000
     -9.903  0.0000E+00  0.0000E+00
     -9.841  0.0000E+00  0.0000E+00
     -9.779  0.0000E+00  0.0000E+00
     -9.718 -0.4416E-28 -0.2727E-29
     -9.656 -0.6535E-24 -0.4036E-25
     -9.594 -0.4480E-20 -0.2767E-21
     -9.532 -0.1421E-16 -0.8777E-18
     -9.471 -0.2017E-13 -0.1246E-14
     -9.409 -0.1351E-10 -0.8353E-12
     -9.347 -0.4135E-08 -0.2562E-09
     -9.285 -0.5744E-06 -0.3573E-07
     -9.224 -0.3566E-04 -0.2238E-05
     -9.162 -0.9595E-03 -0.6149E-04
     -9.100 -0.1037E-01 -0.7018E-03
     -9.038 -0.3356E-01 -0.2774E-02
     -8.977  0.5175E-01  0.4216E-03
     -8.915  0.3306E+00  0.2084E-01
     -8.853  0.6100E+00  0.5851E-01
     -8.791  0.2058E+01  0.1856E+00
     -8.730  0.3812E+01  0.4210E+00
     -8.668  0.2240E+01  0.5593E+00
     -8.606 -0.2609E-01  0.5577E+00
     -8.544  0.2055E+00  0.5704E+00
     -8.483  0.2589E+01  0.7303E+00
     -8.421  0.3817E+01  0.9660E+00
     -8.359  0.3579E+01  0.1187E+01
     -8.297  0.3737E+01  0.1418E+01
     -8.236  0.1825E+01  0.1530E+01
     -8.174 -0.2246E-01  0.1529E+01
     -8.112 -0.3796E+00  0.1506E+01
     -8.050 -0.1250E+00  0.1498E+01
     -7.989  0.2494E+01  0.1652E+01
     -7.927  0.6523E+01  0.2055E+01
     -7.865  0.5644E+01  0.2403E+01
     -7.803  0.1972E+01  0.2525E+01
     -7.742  0.3303E+01  0.2729E+01
     -7.680  0.7131E+01  0.3169E+01
     -7.618  0.5142E+01  0.3487E+01
     -7.556  0.2039E+01  0.3613E+01
     -7.495  0.2966E+01  0.3796E+01
     -7.433  0.4436E+01  0.4070E+01
     -7.371  0.6813E+01  0.4491E+01
     -7.309  0.6028E+01  0.4863E+01
     -7.248  0.5346E+01  0.5193E+01
     -7.186  0.9804E+01  0.5798E+01
     -7.124  0.9166E+01  0.6364E+01
     -7.062  0.5224E+01  0.6687E+01
     -7.001  0.3402E+01  0.6897E+01
     -6.939  0.3071E+01  0.7087E+01
     -6.877  0.6303E+01  0.7476E+01
     -6.815  0.8993E+01  0.8031E+01
     -6.754  0.5832E+01  0.8391E+01
     -6.692  0.3182E+01  0.8588E+01
     -6.630  0.6740E+01  0.9004E+01
     -6.568  0.1378E+02  0.9855E+01
     -6.507  0.1497E+02  0.1078E+02
     -6.445  0.1187E+02  0.1151E+02
     -6.383  0.1085E+02  0.1218E+02
     -6.321  0.8336E+01  0.1270E+02
     -6.260  0.9233E+01  0.1327E+02
     -6.198  0.1808E+02  0.1438E+02
     -6.136  0.3104E+02  0.1630E+02
     -6.074  0.3722E+02  0.1860E+02
     -6.013  0.3188E+02  0.2057E+02
     -5.951  0.2943E+02  0.2239E+02
     -5.889  0.3232E+02  0.2438E+02
     -5.827  0.3618E+02  0.2662E+02
     -5.765  0.3111E+02  0.2854E+02
     -5.704  0.2611E+02  0.3015E+02
     -5.642  0.3248E+02  0.3215E+02
     -5.580  0.3969E+02  0.3461E+02
     -5.518  0.4247E+02  0.3723E+02
     -5.457  0.5053E+02  0.4035E+02
     -5.395  0.6291E+02  0.4423E+02
     -5.333  0.6422E+02  0.4820E+02
     -5.271  0.5527E+02  0.5161E+02
     -5.210  0.4607E+02  0.5446E+02
     -5.148  0.4198E+02  0.5705E+02
     -5.086  0.4933E+02  0.6010E+02
     -5.024  0.6934E+02  0.6438E+02
     -4.963  0.6363E+02  0.6831E+02
     -4.901  0.3309E+02  0.7035E+02
     -4.839  0.2339E+02  0.7180E+02
     -4.777  0.3865E+02  0.7418E+02
     -4.716  0.4001E+02  0.7665E+02
     -4.654  0.2390E+02  0.7813E+02
     -4.592  0.2429E+02  0.7963E+02
     -4.530  0.4087E+02  0.8215E+02
     -4.469  0.5646E+02  0.8564E+02
     -4.407  0.6203E+02  0.8947E+02
     -4.345  0.5454E+02  0.9284E+02
     -4.283  0.4449E+02  0.9559E+02
     -4.222  0.3900E+02  0.9799E+02
     -4.160  0.4604E+02  0.1008E+03
     -4.098  0.6136E+02  0.1046E+03
     -4.036  0.6007E+02  0.1083E+03
     -3.975  0.4961E+02  0.1114E+03
     -3.913  0.4472E+02  0.1142E+03
     -3.851  0.4185E+02  0.1167E+03
     -3.789  0.3677E+02  0.1190E+03
     -3.728  0.4222E+02  0.1216E+03
     -3.666  0.5991E+02  0.1253E+03
     -3.604  0.6191E+02  0.1291E+03
     -3.542  0.5423E+02  0.1325E+03
     -3.481  0.5573E+02  0.1359E+03
     -3.419  0.6851E+02  0.1402E+03
     -3.357  0.7686E+02  0.1449E+03
     -3.295  0.7146E+02  0.1493E+03
     -3.234  0.6497E+02  0.1533E+03
     -3.172  0.7129E+02  0.1577E+03
     -3.110  0.8743E+02  0.1631E+03
     -3.048  0.8597E+02  0.1684E+03
     -2.987  0.7842E+02  0.1733E+03
     -2.925  0.7931E+02  0.1782E+03
     -2.863  0.7474E+02  0.1828E+03
     -2.801  0.8417E+02  0.1880E+03
     -2.740  0.1028E+03  0.1944E+03
     -2.678  0.1038E+03  0.2008E+03
     -2.616  0.8370E+02  0.2059E+03
     -2.554  0.6257E+02  0.2098E+03
     -2.493  0.6312E+02  0.2137E+03
     -2.431  0.6136E+02  0.2175E+03
     -2.369  0.4443E+02  0.2202E+03
     -2.307  0.2930E+02  0.2220E+03
     -2.246  0.2398E+02  0.2235E+03
     -2.184  0.2999E+02  0.2254E+03
     -2.122  0.4387E+02  0.2281E+03
     -2.060  0.6403E+02  0.2320E+03
     -1.999  0.8696E+02  0.2374E+03
     -1.937  0.9292E+02  0.2431E+03
     -1.875  0.8147E+02  0.2482E+03
     -1.813  0.6108E+02  0.2519E+03
     -1.752  0.4363E+02  0.2546E+03
     -1.690  0.4148E+02  0.2572E+03
     -1.628  0.4800E+02  0.2602E+03
     -1.566  0.5805E+02  0.2637E+03
     -1.505  0.5801E+02  0.2673E+03
     -1.443  0.5189E+02  0.2705E+03
     -1.381  0.5795E+02  0.2741E+03
     -1.319  0.6117E+02  0.2779E+03
     -1.258  0.5161E+02  0.2811E+03
     -1.196  0.5447E+02  0.2844E+03
     -1.134  0.7407E+02  0.2890E+03
     -1.072  0.8522E+02  0.2943E+03
     -1.011  0.8546E+02  0.2995E+03
     -0.949  0.7143E+02  0.3040E+03
     -0.887  0.5755E+02  0.3075E+03
     -0.825  0.5678E+02  0.3110E+03
     -0.764  0.5164E+02  0.3142E+03
     -0.702  0.4288E+02  0.3169E+03
     -0.640  0.5064E+02  0.3200E+03
     -0.578  0.6269E+02  0.3239E+03
     -0.517  0.6002E+02  0.3276E+03
     -0.455  0.5887E+02  0.3312E+03
     -0.393  0.6904E+02  0.3355E+03
     -0.331  0.8862E+02  0.3409E+03
     -0.270  0.9532E+02  0.3468E+03
     -0.208  0.7160E+02  0.3512E+03
     -0.146  0.5576E+02  0.3547E+03
     -0.084  0.8448E+02  0.3599E+03
     -0.023  0.9684E+02  0.3659E+03
      0.039  0.5656E+02  0.3694E+03
      0.101  0.3256E+02  0.3714E+03
      0.163  0.5103E+02  0.3745E+03
      0.224  0.5619E+02  0.3780E+03
      0.286  0.4391E+02  0.3807E+03
      0.348  0.3882E+02  0.3831E+03
      0.410  0.2750E+02  0.3848E+03
      0.471  0.1294E+02  0.3856E+03
      0.533  0.3522E+01  0.3858E+03
      0.595  0.1125E+01  0.3859E+03
      0.657  0.4575E+01  0.3862E+03
      0.718  0.1176E+02  0.3869E+03
      0.780  0.1702E+02  0.3880E+03
      0.842  0.1262E+02  0.3887E+03
      0.904  0.7639E+01  0.3892E+03
      0.965  0.1050E+02  0.3899E+03
      1.027  0.9911E+01  0.3905E+03
      1.089  0.2567E+01  0.3906E+03
      1.151  0.1551E+01  0.3907E+03
      1.212  0.9993E+01  0.3913E+03
      1.274  0.1522E+02  0.3923E+03
      1.336  0.1348E+02  0.3931E+03
      1.398  0.1081E+02  0.3938E+03
      1.459  0.1437E+02  0.3947E+03
      1.521  0.2604E+02  0.3963E+03
      1.583  0.2637E+02  0.3979E+03
      1.645  0.1824E+02  0.3990E+03
      1.706  0.1532E+02  0.4000E+03
      1.768  0.1043E+02  0.4006E+03
      1.830  0.2589E+01  0.4008E+03
      1.892  0.1623E+01  0.4009E+03
      1.954  0.3983E+01  0.4011E+03
      2.015  0.5870E+01  0.4015E+03
      2.077  0.6549E+01  0.4019E+03
      2.139  0.5286E+01  0.4022E+03
      2.201  0.8514E+01  0.4027E+03
      2.262  0.1153E+02  0.4035E+03
      2.324  0.1084E+02  0.4041E+03
      2.386  0.1442E+02  0.4050E+03
      2.448  0.2118E+02  0.4063E+03
      2.509  0.2093E+02  0.4076E+03
      2.571  0.1185E+02  0.4083E+03
      2.633  0.6525E+01  0.4088E+03
      2.695  0.6353E+01  0.4091E+03
      2.756  0.1014E+02  0.4098E+03
      2.818  0.1862E+02  0.4109E+03
      2.880  0.1964E+02  0.4121E+03
      2.942  0.1323E+02  0.4129E+03
      3.003  0.8008E+01  0.4134E+03
      3.065  0.1111E+02  0.4141E+03
      3.127  0.1418E+02  0.4150E+03
      3.189  0.1101E+02  0.4157E+03
      3.250  0.9880E+01  0.4163E+03
      3.312  0.8539E+01  0.4168E+03
      3.374  0.3355E+01  0.4170E+03
      3.436 -0.1875E+00  0.4170E+03
      3.497  0.2696E+01  0.4172E+03
      3.559  0.1135E+02  0.4179E+03
      3.621  0.2099E+02  0.4192E+03
      3.683  0.2603E+02  0.4208E+03
      3.744  0.2174E+02  0.4221E+03
      3.806  0.1176E+02  0.4229E+03
      3.868  0.4969E+01  0.4232E+03
      3.930  0.3148E+01  0.4234E+03
      3.991  0.3365E+01  0.4236E+03
      4.053  0.3832E+01  0.4238E+03
      4.115  0.6550E+01  0.4242E+03
      4.177  0.9208E+01  0.4248E+03
      4.238  0.8080E+01  0.4253E+03
      4.300  0.5663E+01  0.4256E+03
      4.362  0.1164E+02  0.4263E+03
      4.424  0.2426E+02  0.4278E+03
      4.485  0.2144E+02  0.4292E+03
      4.547  0.8213E+01  0.4297E+03
      4.609  0.7110E+01  0.4301E+03
      4.671  0.1267E+02  0.4309E+03
      4.732  0.1524E+02  0.4318E+03
      4.794  0.1286E+02  0.4326E+03
      4.856  0.8027E+01  0.4331E+03
      4.918  0.5592E+01  0.4335E+03
      4.979  0.8122E+01  0.4340E+03
      5.041  0.9565E+01  0.4346E+03
      5.103  0.5750E+01  0.4349E+03
      5.165  0.5718E+01  0.4353E+03
      5.226  0.1148E+02  0.4360E+03
      5.288  0.1508E+02  0.4369E+03
      5.350  0.1305E+02  0.4377E+03
      5.412  0.1033E+02  0.4384E+03
      5.473  0.1396E+02  0.4392E+03
      5.535  0.2096E+02  0.4405E+03
      5.597  0.2659E+02  0.4422E+03
      5.659  0.2580E+02  0.4437E+03
      5.720  0.2186E+02  0.4451E+03
      5.782  0.2026E+02  0.4463E+03
      5.844  0.1829E+02  0.4475E+03
      5.906  0.1566E+02  0.4484E+03
      5.967  0.2140E+02  0.4498E+03
      6.029  0.3276E+02  0.4518E+03
      6.091  0.3018E+02  0.4537E+03
      6.153  0.1649E+02  0.4547E+03
      6.214  0.1250E+02  0.4554E+03
      6.276  0.1927E+02  0.4566E+03
      6.338  0.2991E+02  0.4585E+03
      6.400  0.2971E+02  0.4603E+03
      6.461  0.1918E+02  0.4615E+03
      6.523  0.1629E+02  0.4625E+03
      6.585  0.2015E+02  0.4637E+03
      6.647  0.2330E+02  0.4652E+03
      6.708  0.2526E+02  0.4667E+03
      6.770  0.2681E+02  0.4684E+03
      6.832  0.2538E+02  0.4700E+03
      6.894  0.1931E+02  0.4712E+03
      6.955  0.9754E+01  0.4718E+03
      7.017  0.8000E+01  0.4723E+03
      7.079  0.1923E+02  0.4734E+03
      7.141  0.2586E+02  0.4750E+03
      7.202  0.2196E+02  0.4764E+03
      7.264  0.1715E+02  0.4775E+03
      7.326  0.1096E+02  0.4781E+03
      7.388  0.4926E+01  0.4784E+03
      7.449  0.3313E+01  0.4786E+03
      7.511  0.4794E+01  0.4789E+03
      7.573  0.6329E+01  0.4793E+03
      7.635  0.7005E+01  0.4798E+03
      7.696  0.3854E+01  0.4800E+03
      7.758  0.3416E+00  0.4800E+03
      7.820 -0.3000E+00  0.4800E+03
      7.882 -0.7809E-01  0.4800E+03
      7.943 -0.6620E-02  0.4800E+03
      8.005 -0.2312E-03  0.4800E+03
      8.067 -0.3541E-05  0.4800E+03
      8.129 -0.2439E-07  0.4800E+03
      8.190 -0.7653E-10  0.4800E+03
      8.252 -0.1099E-12  0.4800E+03
      8.314  0.0000E+00  0.4800E+03
      8.376  0.0000E+00  0.4800E+03
      8.437  0.0000E+00  0.4800E+03
      8.499  0.0000E+00  0.4800E+03
      8.561  0.0000E+00  0.4800E+03
      8.623  0.0000E+00  0.4800E+03
