   37   37    1    1
  0.4190497E+02  0.8468310E-09  0.8468310E-09  0.2496566E-08  0.5000000E-15
  1.000000000000000E-004
  CAR 
 unknown system                          
    361     13    240
 
  0.1276756E-14  0.1276756E-14  0.1276756E-14  0.4000000E-01
      1         -8.902878   1.000000
      2         -7.806185   1.000000
      3         -7.087804   1.000000
      4         -6.501861   1.000000
      5         -6.470301   1.000000
      6         -6.462256   1.000000
      7         -6.459854   1.000000
      8         -6.438151   1.000000
      9         -6.431255   1.000000
     10         -6.426221   1.000000
     11         -6.135430   1.000000
     12         -5.917506   1.000000
     13         -5.911736   1.000000
     14         -5.908662   1.000000
     15         -5.905338   1.000000
     16         -5.899324   1.000000
     17         -5.824186   1.000000
     18         -5.474296   1.000000
     19         -5.465469   1.000000
     20         -5.451643   1.000000
     21         -5.448909   1.000000
     22         -5.439486   1.000000
     23         -5.351323   1.000000
     24         -5.232906   1.000000
     25         -5.229423   1.000000
     26         -5.224635   1.000000
     27         -5.219185   1.000000
     28         -5.215925   1.000000
     29         -5.125070   1.000000
     30         -5.038348   1.000000
     31         -5.032168   1.000000
     32         -5.022022   1.000000
     33         -5.017854   1.000000
     34         -5.007743   1.000000
     35         -4.969532   1.000000
     36         -4.959121   1.000000
     37         -4.953212   1.000000
     38         -4.948819   1.000000
     39         -4.917752   1.000000
     40         -4.913835   1.000000
     41         -4.583902   1.000000
     42         -4.380559   1.000000
     43         -4.380255   1.000000
     44         -4.351857   1.000000
     45         -4.338094   1.000000
     46         -4.326451   1.000000
     47         -4.314960   1.000000
     48         -4.293767   1.000000
     49         -4.290959   1.000000
     50         -4.285653   1.000000
     51         -4.135564   1.000000
     52         -4.133261   1.000000
     53         -4.069856   1.000000
     54         -4.035304   1.000000
     55         -4.030925   1.000000
     56         -3.582792   1.000000
     57         -3.580816   1.000000
     58         -3.570289   1.000000
     59         -3.560512   1.000000
     60         -3.554678   1.000000
     61         -3.498756   1.000000
     62         -3.473527   1.000000
     63         -3.392052   1.000000
     64         -3.378424   1.000000
     65         -3.372003   1.000000
     66         -3.371464   1.000000
     67         -3.364111   1.000000
     68         -3.353633   1.000000
     69         -3.350246   1.000000
     70         -3.320868   1.000000
     71         -3.309076   1.000000
     72         -3.303450   1.000000
     73         -3.300596   1.000000
     74         -3.297531   1.000000
     75         -3.269495   1.000000
     76         -3.260546   1.000000
     77         -3.253965   1.000000
     78         -3.152972   1.000000
     79         -3.151126   1.000000
     80         -3.147085   1.000000
     81         -3.138806   1.000000
     82         -3.137528   1.000000
     83         -3.129440   1.000000
     84         -2.944163   1.000000
     85         -2.935047   1.000000
     86         -2.930061   1.000000
     87         -2.924370   1.000000
     88         -2.914629   1.000000
     89         -2.902531   1.000000
     90         -2.899020   1.000000
     91         -2.888596   1.000000
     92         -2.837455   1.000000
     93         -2.828649   1.000000
     94         -2.778581   1.000000
     95         -2.767680   1.000000
     96         -2.743277   1.000000
     97         -2.730940   1.000000
     98         -2.711961   1.000000
     99         -2.692356   1.000000
    100         -2.686721   1.000000
    101         -2.626962   1.000000
    102         -2.522785   1.000000
    103         -2.519068   1.000000
    104         -2.512771   1.000000
    105         -2.507359   1.000000
    106         -2.499129   1.000000
    107         -2.496858   1.000000
    108         -2.265093   1.000000
    109         -2.024021   1.000000
    110         -2.004434   1.000000
    111         -2.000963   1.000000
    112         -1.992383   1.000000
    113         -1.986746   1.000000
    114         -1.984473   1.000000
    115         -1.977394   1.000000
    116         -1.973486   1.000000
    117         -1.956553   1.000000
    118         -1.951838   1.000000
    119         -1.944829   1.000000
    120         -1.869970   1.000000
    121         -1.861372   1.000000
    122         -1.807670   1.000000
    123         -1.735500   1.000000
    124         -1.733719   1.000000
    125         -1.722109   1.000000
    126         -1.716977   1.000000
    127         -1.707659   1.000000
    128         -1.599255   1.000000
    129         -1.588505   1.000000
    130         -1.537388   1.000000
    131         -1.535609   1.000000
    132         -1.512120   1.000000
    133         -1.499982   1.000000
    134         -1.290620   1.000000
    135         -1.278710   1.000000
    136         -1.272048   1.000000
    137         -1.258295   1.000000
    138         -1.252747   1.000000
    139         -1.249979   1.000000
    140         -1.186062   1.000000
    141         -1.175639   1.000000
    142         -1.048560   1.000000
    143         -1.046618   1.000000
    144         -1.030002   1.000000
    145         -1.025544   1.000000
    146         -1.022340   1.000000
    147         -1.017987   1.000000
    148         -0.907896   1.000000
    149         -0.882048   1.000000
    150         -0.865601   1.000000
    151         -0.843796   1.000000
    152         -0.830800   1.000000
    153         -0.825578   1.000000
    154         -0.824902   1.000000
    155         -0.815758   1.000000
    156         -0.804414   1.000000
    157         -0.802208   1.000000
    158         -0.799114   1.000000
    159         -0.797198   1.000000
    160         -0.730908   1.000000
    161         -0.723138   1.000000
    162         -0.697625   1.000000
    163         -0.681639   1.000000
    164         -0.668061   1.000000
    165         -0.655876   1.000000
    166         -0.646139   1.000000
    167         -0.641067   1.000000
    168         -0.602180   1.000000
    169         -0.588695   1.000000
    170         -0.578647   1.000000
    171         -0.557458   1.000000
    172         -0.550727   1.000000
    173         -0.545058   1.000000
    174         -0.538125   1.000000
    175         -0.536509   1.000000
    176         -0.456630   1.000000
    177         -0.447399   1.000001
    178         -0.442042   1.000001
    179         -0.439296   1.000001
    180         -0.431308   1.000003
    181         -0.427145   1.000003
    182         -0.383430   1.000053
    183         -0.343322   1.000457
    184         -0.336005   1.000651
    185         -0.321234   1.001282
    186         -0.320275   1.001337
    187         -0.311024   1.001987
    188         -0.303501   1.002702
    189         -0.115176   0.820883
    190         -0.104715   0.750282
    191         -0.018537   0.103765
    192         -0.012433   0.075162
    193         -0.007480   0.054713
    194          0.008009   0.006140
    195          0.008601   0.004720
    196          0.012796  -0.004491
    197          0.539850  -0.000000
    198          0.822330  -0.000000
    199          0.842908  -0.000000
    200          0.873727  -0.000000
    201          0.895111  -0.000000
    202          0.900946  -0.000000
    203          0.907042  -0.000000
    204          2.864303   0.000000
    205          3.125334   0.000000
    206          3.159870   0.000000
    207          3.202246   0.000000
    208          3.219646   0.000000
    209          3.221379   0.000000
    210          4.621757   0.000000
    211          4.715971   0.000000
    212          4.789357   0.000000
    213          4.814215   0.000000
    214          4.822713   0.000000
    215          4.825801   0.000000
    216          4.940716   0.000000
    217          5.100138   0.000000
    218          5.208528   0.000000
    219          5.436274   0.000000
    220          5.512466   0.000000
    221          5.788556   0.000000
    222          5.815492   0.000000
    223          5.853297   0.000000
    224          5.864503   0.000000
    225          5.868706   0.000000
    226          6.040842   0.000000
    227          6.383984   0.000000
    228          6.599649   0.000000
    229          6.612983   0.000000
    230          6.626007   0.000000
    231          6.813214   0.000000
    232          7.037726   0.000000
    233          7.144222   0.000000
    234          7.153613   0.000000
    235          7.175476   0.000000
    236          7.178864   0.000000
    237          7.185910   0.000000
    238          7.222199   0.000000
    239          7.263342   0.000000
    240          7.482618   0.000000
 
  0.2000000E+00  0.1278043E-14  0.1276756E-14  0.8000000E-01
      1         -8.754827   1.000000
      2         -7.683256   1.000000
      3         -7.044430   1.000000
      4         -6.922508   1.000000
      5         -6.560982   1.000000
      6         -6.546649   1.000000
      7         -6.358987   1.000000
      8         -6.269326   1.000000
      9         -6.223390   1.000000
     10         -6.212751   1.000000
     11         -6.104243   1.000000
     12         -6.000361   1.000000
     13         -5.974933   1.000000
     14         -5.845643   1.000000
     15         -5.840240   1.000000
     16         -5.827476   1.000000
     17         -5.741608   1.000000
     18         -5.536030   1.000000
     19         -5.425418   1.000000
     20         -5.415938   1.000000
     21         -5.412263   1.000000
     22         -5.385629   1.000000
     23         -5.336344   1.000000
     24         -5.302531   1.000000
     25         -5.277564   1.000000
     26         -5.231774   1.000000
     27         -5.219035   1.000000
     28         -5.213925   1.000000
     29         -5.157396   1.000000
     30         -5.115738   1.000000
     31         -5.106289   1.000000
     32         -5.038994   1.000000
     33         -5.018945   1.000000
     34         -5.011514   1.000000
     35         -5.009127   1.000000
     36         -4.865213   1.000000
     37         -4.812791   1.000000
     38         -4.781398   1.000000
     39         -4.772205   1.000000
     40         -4.749247   1.000000
     41         -4.585230   1.000000
     42         -4.496874   1.000000
     43         -4.491584   1.000000
     44         -4.447190   1.000000
     45         -4.417935   1.000000
     46         -4.401914   1.000000
     47         -4.389194   1.000000
     48         -4.290779   1.000000
     49         -4.211694   1.000000
     50         -4.150140   1.000000
     51         -4.126058   1.000000
     52         -4.113614   1.000000
     53         -4.068619   1.000000
     54         -4.049743   1.000000
     55         -4.001336   1.000000
     56         -3.828866   1.000000
     57         -3.735828   1.000000
     58         -3.730897   1.000000
     59         -3.680524   1.000000
     60         -3.663392   1.000000
     61         -3.636624   1.000000
     62         -3.580837   1.000000
     63         -3.567001   1.000000
     64         -3.559882   1.000000
     65         -3.529710   1.000000
     66         -3.525023   1.000000
     67         -3.451663   1.000000
     68         -3.439436   1.000000
     69         -3.403978   1.000000
     70         -3.373989   1.000000
     71         -3.361290   1.000000
     72         -3.323693   1.000000
     73         -3.274173   1.000000
     74         -3.266267   1.000000
     75         -3.259883   1.000000
     76         -3.180750   1.000000
     77         -3.174975   1.000000
     78         -3.160373   1.000000
     79         -3.130508   1.000000
     80         -3.091051   1.000000
     81         -3.071120   1.000000
     82         -3.063767   1.000000
     83         -3.035826   1.000000
     84         -3.007642   1.000000
     85         -2.966403   1.000000
     86         -2.952672   1.000000
     87         -2.941763   1.000000
     88         -2.937317   1.000000
     89         -2.917427   1.000000
     90         -2.903874   1.000000
     91         -2.863015   1.000000
     92         -2.825879   1.000000
     93         -2.800452   1.000000
     94         -2.786427   1.000000
     95         -2.772160   1.000000
     96         -2.763959   1.000000
     97         -2.752142   1.000000
     98         -2.726638   1.000000
     99         -2.699450   1.000000
    100         -2.693582   1.000000
    101         -2.610192   1.000000
    102         -2.565548   1.000000
    103         -2.549987   1.000000
    104         -2.523556   1.000000
    105         -2.506220   1.000000
    106         -2.503602   1.000000
    107         -2.498225   1.000000
    108         -2.484991   1.000000
    109         -2.444812   1.000000
    110         -2.436988   1.000000
    111         -2.426073   1.000000
    112         -2.412561   1.000000
    113         -2.188974   1.000000
    114         -2.072790   1.000000
    115         -2.028838   1.000000
    116         -2.014066   1.000000
    117         -1.995756   1.000000
    118         -1.988301   1.000000
    119         -1.986102   1.000000
    120         -1.946118   1.000000
    121         -1.941659   1.000000
    122         -1.875476   1.000000
    123         -1.802862   1.000000
    124         -1.781552   1.000000
    125         -1.709203   1.000000
    126         -1.654491   1.000000
    127         -1.651022   1.000000
    128         -1.595789   1.000000
    129         -1.586680   1.000000
    130         -1.578625   1.000000
    131         -1.542262   1.000000
    132         -1.531540   1.000000
    133         -1.526257   1.000000
    134         -1.445394   1.000000
    135         -1.403896   1.000000
    136         -1.394716   1.000000
    137         -1.386333   1.000000
    138         -1.378308   1.000000
    139         -1.267837   1.000000
    140         -1.195743   1.000000
    141         -1.177585   1.000000
    142         -1.161942   1.000000
    143         -1.149648   1.000000
    144         -1.139656   1.000000
    145         -1.120316   1.000000
    146         -1.063470   1.000000
    147         -1.032202   1.000000
    148         -1.002952   1.000000
    149         -0.988167   1.000000
    150         -0.980291   1.000000
    151         -0.930314   1.000000
    152         -0.917168   1.000000
    153         -0.905195   1.000000
    154         -0.897460   1.000000
    155         -0.817599   1.000000
    156         -0.791921   1.000000
    157         -0.773498   1.000000
    158         -0.760160   1.000000
    159         -0.727789   1.000000
    160         -0.670352   1.000000
    161         -0.644532   1.000000
    162         -0.617631   1.000000
    163         -0.602148   1.000000
    164         -0.589968   1.000000
    165         -0.567041   1.000000
    166         -0.544793   1.000000
    167         -0.481339   1.000000
    168         -0.473504   1.000000
    169         -0.416447   1.000007
    170         -0.404019   1.000015
    171         -0.395916   1.000025
    172         -0.383498   1.000053
    173         -0.356512   1.000234
    174         -0.350714   1.000316
    175         -0.345127   1.000418
    176         -0.337793   1.000598
    177         -0.327126   1.000984
    178         -0.272989   1.008133
    179         -0.270048   1.008930
    180         -0.134005   0.922172
    181         -0.121359   0.857990
    182         -0.099582   0.712457
    183         -0.087140   0.614070
    184         -0.068494   0.457509
    185         -0.066815   0.443382
    186         -0.034355   0.195053
    187         -0.019234   0.107268
    188         -0.000142   0.028881
    189          0.008539   0.004867
    190          0.075877  -0.027919
    191          0.106359  -0.014478
    192          0.131283  -0.006824
    193          0.185388  -0.000771
    194          0.292985  -0.000001
    195          0.306406  -0.000001
    196          0.314154  -0.000000
    197          0.354215  -0.000000
    198          0.703409  -0.000000
    199          0.753122  -0.000000
    200          1.256061  -0.000000
    201          1.464835  -0.000000
    202          1.482002  -0.000000
    203          1.597845  -0.000000
    204          2.403462  -0.000000
    205          2.813837   0.000000
    206          2.909750   0.000000
    207          3.563321   0.000000
    208          3.649382   0.000000
    209          3.664076   0.000000
    210          3.743254   0.000000
    211          3.983496   0.000000
    212          4.434687   0.000000
    213          4.606811   0.000000
    214          4.751394   0.000000
    215          4.953220   0.000000
    216          4.996818   0.000000
    217          5.034764   0.000000
    218          5.225403   0.000000
    219          5.289881   0.000000
    220          5.471614   0.000000
    221          5.655052   0.000000
    222          5.699739   0.000000
    223          5.820793   0.000000
    224          5.916128   0.000000
    225          6.075334   0.000000
    226          6.157482   0.000000
    227          6.203958   0.000000
    228          6.344178   0.000000
    229          6.356666   0.000000
    230          6.539353   0.000000
    231          6.704186   0.000000
    232          6.771391   0.000000
    233          6.806900   0.000000
    234          6.861447   0.000000
    235          6.911048   0.000000
    236          7.070510   0.000000
    237          7.270805   0.000000
    238          7.477187   0.000000
    239          7.567885   0.000000
    240          7.615210   0.000000
 
  0.2000000E+00  0.2000000E+00  0.1276756E-14  0.8000000E-01
      1         -8.754770   1.000000
      2         -7.683252   1.000000
      3         -7.042046   1.000000
      4         -6.923677   1.000000
      5         -6.562483   1.000000
      6         -6.546623   1.000000
      7         -6.359064   1.000000
      8         -6.267006   1.000000
      9         -6.222944   1.000000
     10         -6.215260   1.000000
     11         -6.104013   1.000000
     12         -6.000372   1.000000
     13         -5.977516   1.000000
     14         -5.843811   1.000000
     15         -5.839093   1.000000
     16         -5.827571   1.000000
     17         -5.740442   1.000000
     18         -5.537322   1.000000
     19         -5.425109   1.000000
     20         -5.414770   1.000000
     21         -5.409987   1.000000
     22         -5.385429   1.000000
     23         -5.337854   1.000000
     24         -5.303716   1.000000
     25         -5.278468   1.000000
     26         -5.231912   1.000000
     27         -5.218755   1.000000
     28         -5.212403   1.000000
     29         -5.156348   1.000000
     30         -5.118387   1.000000
     31         -5.107482   1.000000
     32         -5.036818   1.000000
     33         -5.020239   1.000000
     34         -5.011104   1.000000
     35         -5.009225   1.000000
     36         -4.864356   1.000000
     37         -4.813290   1.000000
     38         -4.780981   1.000000
     39         -4.773035   1.000000
     40         -4.750633   1.000000
     41         -4.586103   1.000000
     42         -4.497748   1.000000
     43         -4.491751   1.000000
     44         -4.446799   1.000000
     45         -4.418230   1.000000
     46         -4.398962   1.000000
     47         -4.389084   1.000000
     48         -4.291907   1.000000
     49         -4.212089   1.000000
     50         -4.151243   1.000000
     51         -4.125012   1.000000
     52         -4.114819   1.000000
     53         -4.069503   1.000000
     54         -4.049014   1.000000
     55         -4.001869   1.000000
     56         -3.832080   1.000000
     57         -3.735250   1.000000
     58         -3.730525   1.000000
     59         -3.683930   1.000000
     60         -3.667408   1.000000
     61         -3.637529   1.000000
     62         -3.584718   1.000000
     63         -3.563185   1.000000
     64         -3.555387   1.000000
     65         -3.528725   1.000000
     66         -3.523814   1.000000
     67         -3.451181   1.000000
     68         -3.441755   1.000000
     69         -3.402502   1.000000
     70         -3.375302   1.000000
     71         -3.362165   1.000000
     72         -3.323878   1.000000
     73         -3.268674   1.000000
     74         -3.262447   1.000000
     75         -3.255534   1.000000
     76         -3.181767   1.000000
     77         -3.176667   1.000000
     78         -3.161169   1.000000
     79         -3.129925   1.000000
     80         -3.092147   1.000000
     81         -3.076051   1.000000
     82         -3.069799   1.000000
     83         -3.031516   1.000000
     84         -3.006907   1.000000
     85         -2.964586   1.000000
     86         -2.950198   1.000000
     87         -2.942118   1.000000
     88         -2.938414   1.000000
     89         -2.918025   1.000000
     90         -2.904097   1.000000
     91         -2.862986   1.000000
     92         -2.826711   1.000000
     93         -2.798330   1.000000
     94         -2.786867   1.000000
     95         -2.773237   1.000000
     96         -2.765256   1.000000
     97         -2.754729   1.000000
     98         -2.725739   1.000000
     99         -2.696993   1.000000
    100         -2.690627   1.000000
    101         -2.610685   1.000000
    102         -2.564997   1.000000
    103         -2.551482   1.000000
    104         -2.523732   1.000000
    105         -2.505541   1.000000
    106         -2.501310   1.000000
    107         -2.496600   1.000000
    108         -2.484277   1.000000
    109         -2.447707   1.000000
    110         -2.434553   1.000000
    111         -2.426598   1.000000
    112         -2.413495   1.000000
    113         -2.191675   1.000000
    114         -2.076014   1.000000
    115         -2.029144   1.000000
    116         -2.012669   1.000000
    117         -1.996788   1.000000
    118         -1.987874   1.000000
    119         -1.981740   1.000000
    120         -1.945209   1.000000
    121         -1.940840   1.000000
    122         -1.875141   1.000000
    123         -1.802896   1.000000
    124         -1.779631   1.000000
    125         -1.706633   1.000000
    126         -1.652903   1.000000
    127         -1.651281   1.000000
    128         -1.600687   1.000000
    129         -1.584141   1.000000
    130         -1.576045   1.000000
    131         -1.542280   1.000000
    132         -1.531544   1.000000
    133         -1.524938   1.000000
    134         -1.446575   1.000000
    135         -1.404045   1.000000
    136         -1.392220   1.000000
    137         -1.385837   1.000000
    138         -1.380235   1.000000
    139         -1.268063   1.000000
    140         -1.196100   1.000000
    141         -1.176276   1.000000
    142         -1.161719   1.000000
    143         -1.151598   1.000000
    144         -1.140351   1.000000
    145         -1.122645   1.000000
    146         -1.062080   1.000000
    147         -1.032984   1.000000
    148         -1.001903   1.000000
    149         -0.990286   1.000000
    150         -0.981421   1.000000
    151         -0.931295   1.000000
    152         -0.915447   1.000000
    153         -0.906925   1.000000
    154         -0.898461   1.000000
    155         -0.815809   1.000000
    156         -0.791502   1.000000
    157         -0.774167   1.000000
    158         -0.760608   1.000000
    159         -0.726098   1.000000
    160         -0.670050   1.000000
    161         -0.644889   1.000000
    162         -0.615994   1.000000
    163         -0.601523   1.000000
    164         -0.589042   1.000000
    165         -0.566465   1.000000
    166         -0.544393   1.000000
    167         -0.481017   1.000000
    168         -0.473423   1.000000
    169         -0.417266   1.000007
    170         -0.404023   1.000015
    171         -0.394106   1.000028
    172         -0.385177   1.000048
    173         -0.354578   1.000259
    174         -0.352639   1.000286
    175         -0.345429   1.000412
    176         -0.336808   1.000627
    177         -0.328563   1.000922
    178         -0.270764   1.008731
    179         -0.268289   1.009432
    180         -0.132379   0.914821
    181         -0.120104   0.850753
    182         -0.101049   0.723462
    183         -0.086362   0.607680
    184         -0.071093   0.479454
    185         -0.067837   0.451975
    186         -0.037655   0.217033
    187         -0.020668   0.114635
    188         -0.002801   0.037635
    189          0.006694   0.009403
    190          0.076164  -0.027791
    191          0.106543  -0.014407
    192          0.130730  -0.006952
    193          0.186491  -0.000732
    194          0.293172  -0.000001
    195          0.304893  -0.000001
    196          0.314546  -0.000000
    197          0.355969  -0.000000
    198          0.702120  -0.000000
    199          0.749400  -0.000000
    200          1.255999  -0.000000
    201          1.464759  -0.000000
    202          1.483540  -0.000000
    203          1.599315  -0.000000
    204          2.406141  -0.000000
    205          2.812787   0.000000
    206          2.906401   0.000000
    207          3.562306   0.000000
    208          3.650357   0.000000
    209          3.664114   0.000000
    210          3.741647   0.000000
    211          3.985783   0.000000
    212          4.435415   0.000000
    213          4.606994   0.000000
    214          4.755438   0.000000
    215          4.952756   0.000000
    216          4.996027   0.000000
    217          5.034724   0.000000
    218          5.223549   0.000000
    219          5.290318   0.000000
    220          5.467473   0.000000
    221          5.655984   0.000000
    222          5.702950   0.000000
    223          5.821921   0.000000
    224          5.913553   0.000000
    225          6.074986   0.000000
    226          6.157504   0.000000
    227          6.203495   0.000000
    228          6.343193   0.000000
    229          6.352944   0.000000
    230          6.537575   0.000000
    231          6.703136   0.000000
    232          6.771150   0.000000
    233          6.808734   0.000000
    234          6.862212   0.000000
    235          6.911736   0.000000
    236          7.072515   0.000000
    237          7.273526   0.000000
    238          7.480205   0.000000
    239          7.563005   0.000000
    240          7.621115   0.000000
 
  0.1276756E-14  0.2000000E+00  0.1276756E-14  0.8000000E-01
      1         -8.755662   1.000000
      2         -7.692508   1.000000
      3         -7.073181   1.000000
      4         -6.888500   1.000000
      5         -6.563184   1.000000
      6         -6.553245   1.000000
      7         -6.359263   1.000000
      8         -6.268968   1.000000
      9         -6.217959   1.000000
     10         -6.214663   1.000000
     11         -6.136296   1.000000
     12         -6.001293   1.000000
     13         -5.911370   1.000000
     14         -5.845197   1.000000
     15         -5.839916   1.000000
     16         -5.829781   1.000000
     17         -5.776565   1.000000
     18         -5.534093   1.000000
     19         -5.417610   1.000000
     20         -5.415702   1.000000
     21         -5.408202   1.000000
     22         -5.357362   1.000000
     23         -5.336466   1.000000
     24         -5.308679   1.000000
     25         -5.275679   1.000000
     26         -5.255688   1.000000
     27         -5.222018   1.000000
     28         -5.213465   1.000000
     29         -5.121023   1.000000
     30         -5.114025   1.000000
     31         -5.110963   1.000000
     32         -5.030953   1.000000
     33         -5.017080   1.000000
     34         -5.010004   1.000000
     35         -5.007919   1.000000
     36         -4.848756   1.000000
     37         -4.812427   1.000000
     38         -4.780323   1.000000
     39         -4.777854   1.000000
     40         -4.759038   1.000000
     41         -4.576255   1.000000
     42         -4.496310   1.000000
     43         -4.492833   1.000000
     44         -4.444037   1.000000
     45         -4.415395   1.000000
     46         -4.408706   1.000000
     47         -4.391764   1.000000
     48         -4.302930   1.000000
     49         -4.215966   1.000000
     50         -4.152288   1.000000
     51         -4.125697   1.000000
     52         -4.117749   1.000000
     53         -4.068591   1.000000
     54         -4.045841   1.000000
     55         -3.983898   1.000000
     56         -3.830711   1.000000
     57         -3.734620   1.000000
     58         -3.729780   1.000000
     59         -3.679877   1.000000
     60         -3.671703   1.000000
     61         -3.639062   1.000000
     62         -3.583843   1.000000
     63         -3.568165   1.000000
     64         -3.552052   1.000000
     65         -3.526548   1.000000
     66         -3.524690   1.000000
     67         -3.468639   1.000000
     68         -3.439659   1.000000
     69         -3.394383   1.000000
     70         -3.378058   1.000000
     71         -3.365357   1.000000
     72         -3.330558   1.000000
     73         -3.268038   1.000000
     74         -3.263279   1.000000
     75         -3.257192   1.000000
     76         -3.182637   1.000000
     77         -3.173276   1.000000
     78         -3.162551   1.000000