       N       E                     dE             d eps       ncg     rms          rms(c)
DAV:   1    -0.104587039242E+03   -0.10459E+03   -0.18742E-01  6480   0.731E-01    0.947E-01
RMM:   2    -0.104944584982E+03   -0.35755E+00   -0.11434E-01  6709   0.516E-01    0.668E+00
RMM:   3    -0.104616148744E+03    0.32844E+00   -0.56396E-02  6715   0.413E-01    0.212E+00
RMM:   4    -0.104576891109E+03    0.39258E-01   -0.13006E-02  6713   0.190E-01    0.273E-01
RMM:   5    -0.104576548408E+03    0.34270E-03   -0.20170E-03  6922   0.713E-02    0.220E-01
RMM:   6    -0.104576256098E+03    0.29231E-03   -0.57664E-04  6998   0.407E-02    0.106E-01
RMM:   7    -0.104576350148E+03   -0.94050E-04   -0.27189E-04  7047   0.263E-02    0.143E-01
RMM:   8    -0.104576258826E+03    0.91322E-04   -0.12947E-04  6939   0.199E-02    0.610E-02
RMM:   9    -0.104576262531E+03   -0.37049E-05   -0.51012E-05  6061   0.119E-02
   1 F= -.10457626E+03 E0= -.10454413E+03  d E =-.963836E-01
