 vasp.6.4.2 20Jul23 (build Mar 01 2024 16:46:03) complex                        
  
 executed on             LinuxIFC date 2025.01.15  06:06:10
 running   48 mpi-ranks, on    1 nodes
 distrk:  each k-point on   48 cores,    1 groups
 distr:  one band on NCORE=   1 cores,   48 groups


--------------------------------------------------------------------------------------------------------


 INCAR:
   ENCUT = 680.290000
   SIGMA = 0.100000
   ZAB_VDW = -1.886700
   EDIFF = 1.00e-05
   ALGO = Fast
   GGA = BF
   IBRION = -1
   ISMEAR = 1
   ISPIN = 1
   ISYM = 0
   LUSE_VDW = .TRUE.
   LREAL = Auto

 POTCAR:    PAW_PBE Pt 04Feb2005                  
 POTCAR:    PAW_PBE H 15Jun2001                   
 -----------------------------------------------------------------------------
|                                                                             |
|           W    W    AA    RRRRR   N    N  II  N    N   GGGG   !!!           |
|           W    W   A  A   R    R  NN   N  II  NN   N  G    G  !!!           |
|           W    W  A    A  R    R  N N  N  II  N N  N  G       !!!           |
|           W WW W  AAAAAA  RRRRR   N  N N  II  N  N N  G  GGG   !            |
|           WW  WW  A    A  R   R   N   NN  II  N   NN  G    G                |
|           W    W  A    A  R    R  N    N  II  N    N   GGGG   !!!           |
|                                                                             |
|     For optimal performance we recommend to set                             |
|       NCORE = 2 up to number-of-cores-per-socket                            |
|     NCORE specifies how many cores store one orbital (NPAR=cpu/NCORE).      |
|     This setting can greatly improve the performance of VASP for DFT.       |
|     The default, NCORE=1 might be grossly inefficient on modern             |
|     multi-core architectures or massively parallel machines. Do your        |
|     own testing! More info at https://www.vasp.at/wiki/index.php/NCORE      |
|     Unfortunately you need to use the default for GW and RPA                |
|     calculations (for HF NCORE is supported but not extensively tested      |
|     yet).                                                                   |
|                                                                             |
 -----------------------------------------------------------------------------

 -----------------------------------------------------------------------------
|                                                                             |
|               ----> ADVICE to this user running VASP <----                  |
|                                                                             |
|     You have switched on vdW-DFT.                                           |
|     This routine was written and supplied by Jiri Klimes. We recommend      |
|     that you carefully read and cite the following publications:            |
|       J. Klimes, D.R. Bowler, A. Michelides                                 |
|          J. Phys.: Cond Matt. 22 022201 (2010)                              |
|       J. Klimes, D.R. Bowler, A. Michelides                                 |
|          Phys. Rev. B. 83, 195131 (2011)                                    |
|     and references therein.                                                 |
|                                                                             |
 -----------------------------------------------------------------------------

 POTCAR:    PAW_PBE Pt 04Feb2005                  
   SHA256 =  3ed90460adef76debcff1cfb73ee1349b515b1a3db03439735b44de3a8db7dc8 Pt/POTCAR             
   COPYR  = (c) Copyright 04Feb2005 Georg Kresse                                                    
   COPYR  = This file is part of the software VASP. Any use, copying, and all other rights are regul
   COPYR  = If you do not have a valid VASP license, you may not use, copy or distribute this file. 
   VRHFIN =Pt: s1d9                                                                                 
   LEXCH  = PE                                                                                      
   EATOM  =   729.1176 eV,   53.5886 Ry                                                             
                                                                                                    
   TITEL  = PAW_PBE Pt 04Feb2005                                                                    
   LULTRA =        F    use ultrasoft PP ?                                                          
   IUNSCR =        1    unscreen: 0-lin 1-nonlin 2-no                                               
   RPACOR =    2.330    partial core radius                                                         
   POMASS =  195.080; ZVAL   =   10.000    mass and valenz                                          
   RCORE  =    2.600    outmost cutoff radius                                                       
   RWIGS  =    2.750; RWIGS  =    1.455    wigner-seitz radius (au A)                               
   ENMAX  =  230.283; ENMIN  =  172.712 eV                                                          
   ICORE  =        3    local potential                                                             
   LCOR   =        T    correct aug charges                                                         
   LPAW   =        T    paw PP                                                                      
   EAUG   =  358.966                                                                                
   DEXC   =    0.000                                                                                
   RMAX   =    2.658    core radius for proj-oper                                                   
   RAUG   =    1.300    factor for augmentation sphere                                              
   RDEP   =    2.761    radius for radial grids                                                     
   RDEPT  =    2.203    core radius for aug-charge                                                  
                                                                                                    
   Atomic configuration                                                                             
   16 entries                                                                                       
     n  l   j            E        occ.                                                              
     1  0  0.50    -78401.1885   2.0000                                                             
     2  0  0.50    -13770.7750   2.0000                                                             
     2  1  1.50    -11931.0468   6.0000                                                             
     3  0  0.50     -3234.7234   2.0000                                                             
     3  1  1.50     -2699.2216   6.0000                                                             
     3  2  2.50     -2119.5714  10.0000                                                             
     4  0  0.50      -695.1528   2.0000                                                             
     4  1  1.50      -519.6034   6.0000                                                             
     4  2  2.50      -306.6786  10.0000                                                             
     4  3  3.50       -70.1041  14.0000                                                             
     5  0  0.50      -101.7747   2.0000                                                             
     5  1  1.50       -55.9873   6.0000                                                             
     5  2  2.50        -6.1423   9.0000                                                             
     6  0  0.50        -5.6573   1.0000                                                             
     6  1  1.50        -6.8029   0.0000                                                             
     5  3  2.50        -1.3606   0.0000                                                             
   Description                                                                                      
     l       E           TYP  RCUT    TYP  RCUT                                                     
     2     -6.1423404     23  2.500                                                                 
     2     -7.5029230     23  2.500                                                                 
     0     -5.6573207     23  2.500                                                                 
     0      0.7416693     23  2.500                                                                 
     1     -2.7211652     23  2.600                                                                 
     1     20.4087390     23  2.600                                                                 
     3     -1.3605826     23  2.500                                                                 
  local pseudopotential read in
  partial core-charges read in
  partial kinetic energy density read in
  atomic valenz-charges read in
  non local Contribution for L=           2  read in
    real space projection operators read in
  non local Contribution for L=           2  read in
    real space projection operators read in
  non local Contribution for L=           0  read in
    real space projection operators read in
  non local Contribution for L=           0  read in
    real space projection operators read in
  non local Contribution for L=           1  read in
    real space projection operators read in
  non local Contribution for L=           1  read in
    real space projection operators read in
    PAW grid and wavefunctions read in
 
   number of l-projection  operators is LMAX  =           6
   number of lm-projection operators is LMMAX =          18
 
 POTCAR:    PAW_PBE H 15Jun2001                   
   SHA256 =  030f79b5d3ab3cf0e668861823c8fb652ff669f3e15e46930bd03bfd63a607b6 H/POTCAR              
   COPYR  = (c) Copyright 15Jun2001 Georg Kresse                                                    
   COPYR  = This file is part of the software VASP. Any use, copying, and all other rights are regul
   COPYR  = If you do not have a valid VASP license, you may not use, copy or distribute this file. 
   VRHFIN =H: ultrasoft test                                                                        
   LEXCH  = PE                                                                                      
   EATOM  =    12.4884 eV,    0.9179 Ry                                                             
                                                                                                    
   TITEL  = PAW_PBE H 15Jun2001                                                                     
   LULTRA =        F    use ultrasoft PP ?                                                          
   IUNSCR =        0    unscreen: 0-lin 1-nonlin 2-no                                               
   RPACOR =    0.000    partial core radius                                                         
   POMASS =    1.000; ZVAL   =    1.000    mass and valenz                                          
   RCORE  =    1.100    outmost cutoff radius                                                       
   RWIGS  =    0.700; RWIGS  =    0.370    wigner-seitz radius (au A)                               
   ENMAX  =  250.000; ENMIN  =  200.000 eV                                                          
   RCLOC  =    0.701    cutoff for local pot                                                        
   LCOR   =        T    correct aug charges                                                         
   LPAW   =        T    paw PP                                                                      
   EAUG   =  400.000                                                                                
   RMAX   =    1.123    core radius for proj-oper                                                   
   RAUG   =    1.200    factor for augmentation sphere                                              
   RDEP   =    1.112    radius for radial grids                                                     
   RDEPT  =    0.926    core radius for aug-charge                                                  
                                                                                                    
   Atomic configuration                                                                             
    2 entries                                                                                       
     n  l   j            E        occ.                                                              
     1  0  0.50        -6.4927   1.0000                                                             
     2  1  0.50        -3.4015   0.0000                                                             
   Description                                                                                      
     l       E           TYP  RCUT    TYP  RCUT                                                     
     0     -6.4927494     23  1.100                                                                 
     0      6.8029130     23  1.100                                                                 
     1     -4.0817478     23  1.100                                                                 
  local pseudopotential read in
  atomic valenz-charges read in
  non local Contribution for L=           0  read in
    real space projection operators read in
  non local Contribution for L=           0  read in
    real space projection operators read in
  non local Contribution for L=           1  read in
    real space projection operators read in
    PAW grid and wavefunctions read in
 
   number of l-projection  operators is LMAX  =           3
   number of lm-projection operators is LMMAX =           5
 
 Optimization of the real space projectors (new method)

 maximal supplied QI-value         = 14.36
 optimisation between [QCUT,QGAM] = [ 13.36, 26.71] = [ 49.96,199.83] Ry 
 Optimized for a Real-space Cutoff    1.42 Angstroem

   l    n(q)    QCUT    max X(q) W(low)/X(q) W(high)/X(q)  e(spline) 
   2     11    13.357    66.195    0.16E-03    0.81E-04    0.36E-06
   2     11    13.357    64.643    0.16E-03    0.82E-04    0.36E-06
   0     11    13.357    95.520    0.60E-04    0.72E-05    0.55E-06
   0     11    13.357    63.403    0.58E-04    0.70E-05    0.53E-06
   1     11    13.357    19.961    0.21E-03    0.56E-03    0.21E-05
   1     11    13.357    13.289    0.17E-03    0.46E-03    0.17E-05
 Optimization of the real space projectors (new method)

 maximal supplied QI-value         = 34.20
 optimisation between [QCUT,QGAM] = [ 13.34, 26.68] = [ 49.83,199.32] Ry 
 Optimized for a Real-space Cutoff    0.91 Angstroem

   l    n(q)    QCUT    max X(q) W(low)/X(q) W(high)/X(q)  e(spline) 
   0      7    13.340    19.460    0.48E-03    0.16E-03    0.16E-06
   0      7    13.340    12.209    0.46E-03    0.14E-03    0.15E-06
   1      7    13.340     4.655    0.46E-03    0.87E-03    0.11E-06
 -----------------------------------------------------------------------------
|                                                                             |
|               ----> ADVICE to this user running VASP <----                  |
|                                                                             |
|     You enforced a specific xc type in the INCAR file but a different       |
|     type was found in the POTCAR file.                                      |
|     I HOPE YOU KNOW WHAT YOU ARE DOING!                                     |
|                                                                             |
 -----------------------------------------------------------------------------

  PAW_PBE Pt 04Feb2005                  :
 energy of atom  1       EATOM= -729.1176
 kinetic energy error for atom=    0.0010 (will be added to EATOM!!)
  PAW_PBE H 15Jun2001                   :
 energy of atom  2       EATOM=  -12.4884
 kinetic energy error for atom=    0.0002 (will be added to EATOM!!)
 
 
 POSCAR: Pt H
  positions in cartesian coordinates
  No initial velocities read in
 exchange correlation table for  LEXCH =       17
   RHO(1)=    0.500       N(1)  =     2000
   RHO(2)=  100.500       N(2)  =     4000
 


--------------------------------------------------------------------------------------------------------


 ion  position               nearest neighbor table
   1  0.000  0.000  0.340-   3 2.81   7 2.81   6 2.82   8 2.82  12 2.82  16 2.82   2 2.83   4 2.83
                            10 2.83
   2  0.334  0.000  0.340-   8 2.81   9 2.82  17 2.82   1 2.83   3 2.83   4 2.83   5 2.83  10 2.83
                            11 2.83
   3  0.668  0.000  0.340-   7 2.81   1 2.81   9 2.81  18 2.82   5 2.83   2 2.83   6 2.83  11 2.83
                            12 2.83
   4  0.000  0.334  0.340-   6 2.81   9 2.82  15 2.82   5 2.83   2 2.83   1 2.83   7 2.83  10 2.83
                            13 2.83
   5  0.334  0.334  0.340-   3 2.83   4 2.83   6 2.83   7 2.83   2 2.83   8 2.83  11 2.83  13 2.83
                            14 2.83
   6  0.668  0.334  0.340-   4 2.81   1 2.82   5 2.83   8 2.83   3 2.83   9 2.83  12 2.83  14 2.83
                            15 2.83
   7  0.000  0.668  0.340-   3 2.81   1 2.81   9 2.81  18 2.82   5 2.83   8 2.83   4 2.83  13 2.83
                            16 2.83
   8  0.334  0.668  0.340-   2 2.81   1 2.82   6 2.83   7 2.83   9 2.83   5 2.83  14 2.83  16 2.83
                            17 2.83
   9  0.668  0.668  0.340-   3 2.81   7 2.81   4 2.82   2 2.82   8 2.83   6 2.83  15 2.83  17 2.83
                            18 2.83
  10  0.111  0.111  0.433-  26 2.80  16 2.81  12 2.81  19 2.82  15 2.82  17 2.82  11 2.83  13 2.83
                             2 2.83   4 2.83   1 2.83  20 2.83
  11  0.445  0.111  0.433-  27 2.80  17 2.81  21 2.81  18 2.82  12 2.83  13 2.83  10 2.83  14 2.83
                             3 2.83   5 2.83   2 2.83  20 2.83
  12  0.779  0.111  0.433-  25 2.80  16 2.81  18 2.81  10 2.81   1 2.82  19 2.82  21 2.83  14 2.83
                            11 2.83  15 2.83   6 2.83   3 2.83
  13  0.111  0.445  0.433-  15 2.81  23 2.82  22 2.82  18 2.82  20 2.82  14 2.83  11 2.83  10 2.83
                            16 2.83   7 2.83   5 2.83   4 2.83
  14  0.445  0.445  0.433-  24 2.80  21 2.81  23 2.82  16 2.83  12 2.83  13 2.83  15 2.83  17 2.83
                            11 2.83   8 2.83   6 2.83   5 2.83
  15  0.779  0.445  0.433-  24 2.81  19 2.81  13 2.81  22 2.82  10 2.82   4 2.82  17 2.83  14 2.83
                            18 2.83  12 2.83   9 2.83   6 2.83
  16  0.111  0.779  0.433-  26 2.80  25 2.81  12 2.81  10 2.81  18 2.81   1 2.82  23 2.82  14 2.83
                            17 2.83  13 2.83   8 2.83   7 2.83
  17  0.445  0.779  0.433-  27 2.80  24 2.80  26 2.81  11 2.81  10 2.82   2 2.82  15 2.83  16 2.83
                            18 2.83  14 2.83   9 2.83   8 2.83
  18  0.779  0.779  0.433-  25 2.80  27 2.81  12 2.81  16 2.81  13 2.82  11 2.82   3 2.82   7 2.82
                            22 2.82  17 2.83  15 2.83   9 2.83
  19  0.889  0.225  0.525-  22 2.81  15 2.81  20 2.81  10 2.82  24 2.82  12 2.82  26 2.83  25 2.83
                            33 2.84  21 2.84  28 2.84  31 2.86
  20  0.222  0.224  0.525-  19 2.81  22 2.81  23 2.82  21 2.82  13 2.82  26 2.83  27 2.83  10 2.83
                            11 2.83  29 2.83  32 2.88  31 2.89
  21  0.554  0.224  0.525-  14 2.81  23 2.81  11 2.81  20 2.82  24 2.82  27 2.82  12 2.83  25 2.83
                            33 2.84  19 2.84  30 2.84  32 2.86
  22  0.890  0.556  0.525-  19 2.81  20 2.81  23 2.82  15 2.82  13 2.82  18 2.82  25 2.83  27 2.83
                            24 2.83  36 2.83  34 2.85  31 2.89
  23  0.222  0.556  0.525-  21 2.81  20 2.82  22 2.82  13 2.82  14 2.82  16 2.82  24 2.82  26 2.83
                            25 2.83  35 2.83  34 2.86  32 2.89
  24  0.556  0.557  0.524-  14 2.80  17 2.80  15 2.81  19 2.82  21 2.82  27 2.82  26 2.82  23 2.82
                            22 2.83  36 2.84  35 2.84  33 2.85
  25  0.889  0.890  0.524-  18 2.80  12 2.80  16 2.81  26 2.82  27 2.82  22 2.83  23 2.83  21 2.83
                            19 2.83  34 2.84  28 2.84  30 2.84
  26  0.222  0.890  0.524-  10 2.80  16 2.80  17 2.81  25 2.82  24 2.82  19 2.83  23 2.83  27 2.83
                            20 2.83  29 2.83  35 2.84  28 2.85
  27  0.556  0.890  0.524-  17 2.80  11 2.80  18 2.81  25 2.82  21 2.82  24 2.82  22 2.83  26 2.83
                            20 2.83  29 2.84  36 2.84  30 2.84
  28  1.000  0.001  0.618-  34 2.79  31 2.80  35 2.82  29 2.82  30 2.82  33 2.82  25 2.84  19 2.84
                            26 2.85
  29  0.334  0.998  0.617-  35 2.79  36 2.79  28 2.82  30 2.82  26 2.83  20 2.83  27 2.84  31 2.85
                            32 2.85
  30  0.666  0.000  0.618-  34 2.79  32 2.79  36 2.82  29 2.82  28 2.82  33 2.83  21 2.84  27 2.84
                            25 2.84
  31  0.997  0.332  0.621-  37 1.78  33 2.80  28 2.80  36 2.83  29 2.85  19 2.86  34 2.88  32 2.88
                            20 2.89  22 2.89
  32  0.338  0.332  0.620-  37 1.79  33 2.79  30 2.79  35 2.83  29 2.85  21 2.86  20 2.88  31 2.88
                            34 2.89  23 2.89
  33  0.666  0.334  0.618-  32 2.79  31 2.80  36 2.82  35 2.82  28 2.82  30 2.83  21 2.84  19 2.84
                            24 2.85
  34  0.997  0.673  0.618-  30 2.79  28 2.79  35 2.83  36 2.83  25 2.84  22 2.85  23 2.86  31 2.88
                            32 2.89
  35  0.333  0.668  0.617-  29 2.79  36 2.81  28 2.82  33 2.82  23 2.83  32 2.83  34 2.83  26 2.84
                            24 2.84
  36  0.665  0.668  0.617-  29 2.79  35 2.81  30 2.82  33 2.82  31 2.83  34 2.83  22 2.83  24 2.84
                            27 2.84
  37  0.133  0.400  0.657-  31 1.78  32 1.79
 

IMPORTANT INFORMATION: All symmetrisations will be switched off!
NOSYMM: (Re-)initialisation of all symmetry stuff for point group C_1.


----------------------------------------------------------------------------------------

                                     Primitive cell                                     

  volume of cell :    1550.4837

  direct lattice vectors                    reciprocal lattice vectors
     8.468310000  0.000000000  0.000000000     0.118087316 -0.068177744  0.000000000
     4.234155000  7.333771587  0.000000000     0.000000000  0.136355488  0.000000000
     0.000000000  0.000000000 24.965661990     0.000000000  0.000000000  0.040055016

  length of vectors
     8.468310000  8.468310000 24.965661990     0.136355488  0.136355488  0.040055016

  position of ions in fractional coordinates (direct lattice)
     0.000000000  0.000000000  0.340467639
     0.334001368  0.000000000  0.340467639
     0.668002736  0.000000000  0.340467639
     1.000000000  0.334001368  0.340467639
     0.334001368  0.334001368  0.340467639
     0.668002736  0.334001368  0.340467639
     1.000000000  0.668002736  0.340467639
     0.334001368  0.668002736  0.340467639
     0.668002736  0.668002736  0.340467639
     0.111333789  0.111333789  0.432970737
     0.445335157  0.111333789  0.432970737
     0.779336525  0.111333789  0.432970737
     0.111333789  0.445335157  0.432970737
     0.445335157  0.445335157  0.432970737
     0.779336525  0.445335157  0.432970737
     0.111333789  0.779336525  0.432970737
     0.445335157  0.779336525  0.432970737
     0.779336525  0.779336525  0.432970737
     0.889377226  0.224645612  0.525025001
     0.221975018  0.223983400  0.525496641
     0.554352983  0.224220648  0.524874386
     0.889762233  0.556361857  0.525115956
     0.222348961  0.556210718  0.525025442
     0.555758912  0.556562221  0.524180849
     0.888975282  0.890436181  0.524449902
     0.222145853  0.890061073  0.524214759
     0.555987421  0.889954931  0.524236497
     0.999808495  0.000518344  0.617795277
     0.334480315  0.997530259  0.617428259
     0.666386790  0.000348639  0.617751349
     0.997424601  0.332267873  0.620526917
     0.338074098  0.331848565  0.620302681
     0.666444084  0.334292043  0.617803650
     0.996999043  0.672732474  0.618295149
     0.333451948  0.668259025  0.617457705
     0.664836388  0.668133365  0.617455974
     0.133464143  0.399806217  0.657289429

  ion indices of the primitive-cell ions
   primitive index   ion index
                 1           1
                 2           2
                 3           3
                 4           4
                 5           5
                 6           6
                 7           7
                 8           8
                 9           9
                10          10
                11          11
                12          12
                13          13
                14          14
                15          15
                16          16
                17          17
                18          18
                19          19
                20          20
                21          21
                22          22
                23          23
                24          24
                25          25
                26          26
                27          27
                28          28
                29          29
                30          30
                31          31
                32          32
                33          33
                34          34
                35          35
                36          36
                37          37

----------------------------------------------------------------------------------------

 
 
 KPOINTS: KPOINTS created by Atomic Simulation Env

Automatic generation of k-mesh.
 Grid dimensions read from file:
 generate k-points for:    5    5    1

 Generating k-lattice:

  Cartesian coordinates                     Fractional coordinates (reciprocal lattice)
     0.023617463 -0.013635549  0.000000000     0.200000000 -0.000000000  0.000000000
     0.000000000  0.027271098  0.000000000     0.000000000  0.200000000  0.000000000
     0.000000000  0.000000000  0.040055016     0.000000000  0.000000000  1.000000000

  Length of vectors
     0.027271098  0.027271098  0.040055016

  Shift w.r.t. Gamma in fractional coordinates (k-lattice)
     0.000000000  0.000000000  0.000000000

 
 Subroutine IBZKPT returns following result:
 ===========================================
 
 Found     13 irreducible k-points:
 
 Following reciprocal coordinates:
            Coordinates               Weight
  0.000000  0.000000  0.000000      1.000000
  0.200000  0.000000  0.000000      2.000000
  0.200000  0.200000  0.000000      2.000000
  0.000000  0.200000  0.000000      2.000000
  0.400000  0.000000  0.000000      2.000000
  0.400000  0.400000  0.000000      2.000000
  0.000000  0.400000  0.000000      2.000000
  0.400000  0.200000  0.000000      2.000000
  0.200000  0.400000  0.000000      2.000000
 -0.200000  0.200000  0.000000      2.000000
 -0.400000  0.200000  0.000000      2.000000
  0.400000 -0.400000  0.000000      2.000000
 -0.200000  0.400000  0.000000      2.000000
 
 Following cartesian coordinates:
            Coordinates               Weight
  0.000000  0.000000  0.000000      1.000000
  0.023617 -0.013636  0.000000      2.000000
  0.023617  0.013636  0.000000      2.000000
  0.000000  0.027271  0.000000      2.000000
  0.047235 -0.027271  0.000000      2.000000
  0.047235  0.027271  0.000000      2.000000
  0.000000  0.054542  0.000000      2.000000
  0.047235  0.000000  0.000000      2.000000
  0.023617  0.040907  0.000000      2.000000
 -0.023617  0.040907  0.000000      2.000000
 -0.047235  0.054542  0.000000      2.000000
  0.047235 -0.081813  0.000000      2.000000
 -0.023617  0.068178  0.000000      2.000000
 


--------------------------------------------------------------------------------------------------------




 Dimension of arrays:
   k-points           NKPTS =     13   k-points in BZ     NKDIM =     13   number of bands    NBANDS=    240
   number of dos      NEDOS =    301   number of ions     NIONS =     37
   non local maximal  LDIM  =      6   non local SUM 2l+1 LMDIM =     18
   total plane-waves  NPLWV = 466560
   max r-space proj   IRMAX =   3679   max aug-charges    IRDMAX=  18423
   dimension x,y,z NGX =    54 NGY =   54 NGZ =  160
   dimension x,y,z NGXF=   108 NGYF=  108 NGZF=  320
   support grid    NGXF=   108 NGYF=  108 NGZF=  320
   ions per type =              36   1
   NGX,Y,Z   is equivalent  to a cutoff of  10.60, 10.60, 10.65 a.u.
   NGXF,Y,Z  is equivalent  to a cutoff of  21.20, 21.20, 21.31 a.u.

 SYSTEM =  unknown system                          
 POSCAR =  Pt H                                    

 Startparameter for this run:
   NWRITE =      2    write-flag & timer
   PREC   = normal    normal or accurate (medium, high low for compatibility)
   ISTART =      1    job   : 0-new  1-cont  2-samecut
   ICHARG =      0    charge: 1-file 2-atom 10-const
   ISPIN  =      1    spin polarized calculation?
   LNONCOLLINEAR =      F non collinear calculations
   LSORBIT =      F    spin-orbit coupling
   INIWAV =      1    electr: 0-lowe 1-rand  2-diag
   LASPH  =      F    aspherical Exc in radial PAW
 Electronic Relaxation 1
   ENCUT  =  680.3 eV  50.00 Ry    7.07 a.u.  18.01 18.01 53.09*2*pi/ulx,y,z
   ENINI  =  680.3     initial cutoff
   ENAUG  =  400.0 eV  augmentation charge cutoff
   NELM   =     60;   NELMIN=  2; NELMDL=  0     # of ELM steps 
   EDIFF  = 0.1E-04   stopping-criterion for ELM
   LREAL  =      T    real-space projection
   NLSPLINE    = F    spline interpolate recip. space projectors
   LCOMPAT=      F    compatible to vasp.4.4
   GGA_COMPAT  = T    GGA compatible to vasp.4.4-vasp.4.6
   LMAXPAW     = -100 max onsite density
   LMAXMIX     =    2 max onsite mixed and CHGCAR
   VOSKOWN=      0    Vosko Wilk Nusair interpolation
   ROPT   =   -0.00050  -0.00050
 Ionic relaxation
   EDIFFG = 0.1E-03   stopping-criterion for IOM
   NSW    =      0    number of steps for IOM
   NBLOCK =      1;   KBLOCK =      1    inner block; outer block 
   IBRION =     -1    ionic relax: 0-MD 1-quasi-New 2-CG
   NFREE  =      0    steps in history (QN), initial steepest desc. (CG)
   ISIF   =      2    stress and relaxation
   IWAVPR =     10    prediction:  0-non 1-charg 2-wave 3-comb
   ISYM   =      0    0-nonsym 1-usesym 2-fastsym
   LCORR  =      T    Harris-Foulkes like correction to forces

   POTIM  = 0.5000    time-step for ionic-motion
   TEIN   =    0.0    initial temperature
   TEBEG  =    0.0;   TEEND  =   0.0 temperature during run
   SMASS  =  -3.00    Nose mass-parameter (am)
   estimated Nose-frequenzy (Omega)   =  0.10E-29 period in steps = 0.13E+47 mass=  -0.164E-26a.u.
   SCALEE = 1.0000    scale energy and forces
   NPACO  =    256;   APACO  = 10.0  distance and # of slots for P.C.
   PSTRESS=    0.0 pullay stress

  Mass of Ions in am
   POMASS = 195.08  1.00
  Ionic Valenz
   ZVAL   =  10.00  1.00
  Atomic Wigner-Seitz radii
   RWIGS  =  -1.00 -1.00
  virtual crystal weights 
   VCA    =   1.00  1.00
   NELECT =     361.0000    total number of electrons
   NUPDOWN=      -1.0000    fix difference up-down

 DOS related values:
   EMIN   =  10.00;   EMAX   =-10.00  energy-range for DOS
   EFERMI =   0.00;   METHOD = LEGACY      
   ISMEAR =     1;   SIGMA  =   0.10  broadening in eV -4-tet -1-fermi 0-gaus

 Electronic relaxation 2 (details)
   IALGO  =     68    algorithm
   LDIAG  =      T    sub-space diagonalisation (order eigenvalues)
   LSUBROT=      F    optimize rotation matrix (better conditioning)
   TURBO    =      0    0=normal 1=particle mesh
   IRESTART =      0    0=no restart 2=restart with 2 vectors
   NREBOOT  =      0    no. of reboots
   NMIN     =      0    reboot dimension
   EREF     =   0.00    reference energy to select bands
   IMIX   =      4    mixing-type and parameters
     AMIX     =   0.40;   BMIX     =  1.00
     AMIX_MAG =   1.60;   BMIX_MAG =  1.00
     AMIN     =   0.10
     WC   =   100.;   INIMIX=   1;  MIXPRE=   1;  MAXMIX= -45

 Intra band minimization:
   WEIMIN = 0.0000     energy-eigenvalue tresh-hold
   EBREAK =  0.10E-07  absolut break condition
   DEPER  =   0.30     relativ break condition  

   TIME   =   0.40     timestep for ELM

  volume/ion in A,a.u.               =      41.90       282.79
  Fermi-wavevector in a.u.,A,eV,Ry     =   1.007136  1.903211 13.800704  1.014323
  Thomas-Fermi vector in A             =   2.139922
 
 Write flags
   LWAVE        =      T    write WAVECAR
   LDOWNSAMPLE  =      F    k-point downsampling of WAVECAR
   LCHARG       =      T    write CHGCAR
   LVTOT        =      F    write LOCPOT, total local potential
   LVHAR        =      F    write LOCPOT, Hartree potential only
   LELF         =      F    write electronic localiz. function (ELF)
   LORBIT       =      0    0 simple, 1 ext, 2 COOP (PROOUT), +10 PAW based schemes


 Dipole corrections
   LMONO  =      F    monopole corrections only (constant potential shift)
   LDIPOL =      F    correct potential (dipole corrections)
   IDIPOL =      0    1-x, 2-y, 3-z, 4-all directions 
   EPSILON=  1.0000000 bulk dielectric constant

 Exchange correlation treatment:
   GGA     =    BF    GGA type
   LEXCH   =    17    internal setting for exchange type
   LIBXC   =     F    Libxc                    
   VOSKOWN =     0    Vosko Wilk Nusair interpolation
   LHFCALC =     F    Hartree Fock is set to
   LHFONE  =     F    Hartree Fock one center treatment
   AEXX    =    0.0000 exact exchange contribution

 vdW DFT:
   LUSE_VDW   =     T    switch on vdW DFT
   IVDW_NL    =     1    kernel type
   LSPIN_VDW  =     F    use spin-polarized vdW DFT
   Zab_VDW    =******    correlation parameter
   PARAM1     =0.1234
   PARAM2     =1.0000
   PARAM3     =0.0000
   -- rVV10 --
   BPARAM     = 6.3000
   CPARAM     = 0.0093

 Linear response parameters
   LEPSILON=     F    determine dielectric tensor
   LRPA    =     F    only Hartree local field effects (RPA)
   LNABLA  =     F    use nabla operator in PAW spheres
   LVEL    =     F    velocity operator in full k-point grid
   CSHIFT  =0.1000    complex shift for real part using Kramers Kronig
   OMEGAMAX=  -1.0    maximum frequency
   DEG_THRESHOLD= 0.2000000E-02 threshold for treating states as degnerate
   RTIME   =   -0.100 relaxation time in fs
  (WPLASMAI=    0.000 imaginary part of plasma frequency in eV, 0.658/RTIME)
   DFIELD  = 0.0000000 0.0000000 0.0000000 field for delta impulse in time
 
  Optional k-point grid parameters
   LKPOINTS_OPT  =     F    use optional k-point grid
   KPOINTS_OPT_MODE=     1    mode for optional k-point grid
 
 Orbital magnetization related:
   ORBITALMAG=     F  switch on orbital magnetization
   LCHIMAG   =     F  perturbation theory with respect to B field
   DQ        =  0.001000  dq finite difference perturbation B field
   LLRAUG    =     F  two centre corrections for induced B field
   LBONE     =     F  B-component reconstruction in AE one-centre
   LVGVCALC  =     T  calculate vGv susceptibility
   LVGVAPPL  =     F  apply vGv susceptibility instead of pGv for G=0

 Random number generation:
   RANDOM_GENERATOR = DEFAULT
   PCG_SEED         = not used


--------------------------------------------------------------------------------------------------------


 Static calculation
 charge density and potential will be updated during run
 non-spin polarized calculation
 RMM-DIIS sequential band-by-band and
  variant of blocked Davidson during initial phase
 perform sub-space diagonalisation
    before iterative eigenvector-optimisation
 modified Broyden-mixing scheme, WC =      100.0
 initial mixing is a Kerker type mixing with AMIX =  0.4000 and BMIX =      1.0000
 Hartree-type preconditioning will be used
 using additional bands           59
 real space projection scheme for non local part
 use partial core corrections
 calculate Harris-corrections to forces 
   (improved forces if not selfconsistent)
 use gradient corrections 
 use of overlap-Matrix (Vanderbilt PP)
 Methfessel and Paxton  Order N= 1 SIGMA  =   0.10


--------------------------------------------------------------------------------------------------------


  energy-cutoff  :      680.29
  volume of cell :     1550.48
      direct lattice vectors                 reciprocal lattice vectors
     8.468310000  0.000000000  0.000000000     0.118087316 -0.068177744  0.000000000
     4.234155000  7.333771587  0.000000000     0.000000000  0.136355488  0.000000000
     0.000000000  0.000000000 24.965661990     0.000000000  0.000000000  0.040055016

  length of vectors
     8.468310000  8.468310000 24.965661990     0.136355488  0.136355488  0.040055016


 
 old parameters found on file WAVECAR:
  energy-cutoff  :      680.29
  volume of cell :     1550.48
      direct lattice vectors                 reciprocal lattice vectors
     8.468310000  0.000000000  0.000000000     0.118087316 -0.068177744  0.000000000
     4.234155000  7.333771587  0.000000000     0.000000000  0.136355488  0.000000000
     0.000000000  0.000000000 24.965661990     0.000000000  0.000000000  0.040055016

  length of vectors

 
 k-points in units of 2pi/SCALE and weight: KPOINTS created by Atomic Simulation Env
   0.00000000  0.00000000  0.00000000       0.040
   0.02361746 -0.01363555  0.00000000       0.080
   0.02361746  0.01363555  0.00000000       0.080
   0.00000000  0.02727110  0.00000000       0.080
   0.04723493 -0.02727110  0.00000000       0.080
   0.04723493  0.02727110  0.00000000       0.080
   0.00000000  0.05454220  0.00000000       0.080
   0.04723493  0.00000000  0.00000000       0.080
   0.02361746  0.04090665  0.00000000       0.080
  -0.02361746  0.04090665  0.00000000       0.080
  -0.04723493  0.05454220  0.00000000       0.080
   0.04723493 -0.08181329  0.00000000       0.080
  -0.02361746  0.06817774  0.00000000       0.080
 
 k-points in reciprocal lattice and weights: KPOINTS created by Atomic Simulation Env
   0.00000000  0.00000000  0.00000000       0.040
   0.20000000  0.00000000  0.00000000       0.080
   0.20000000  0.20000000  0.00000000       0.080
   0.00000000  0.20000000  0.00000000       0.080
   0.40000000  0.00000000  0.00000000       0.080
   0.40000000  0.40000000  0.00000000       0.080
   0.00000000  0.40000000  0.00000000       0.080
   0.40000000  0.20000000  0.00000000       0.080
   0.20000000  0.40000000  0.00000000       0.080
  -0.20000000  0.20000000  0.00000000       0.080
  -0.40000000  0.20000000  0.00000000       0.080
   0.40000000 -0.40000000  0.00000000       0.080
  -0.20000000  0.40000000  0.00000000       0.080
 
 position of ions in fractional coordinates (direct lattice) 
   0.00000000  0.00000000  0.34046764
   0.33400137  0.00000000  0.34046764
   0.66800274  0.00000000  0.34046764
   0.00000000  0.33400137  0.34046764
   0.33400137  0.33400137  0.34046764
   0.66800274  0.33400137  0.34046764
   0.00000000  0.66800274  0.34046764
   0.33400137  0.66800274  0.34046764
   0.66800274  0.66800274  0.34046764
   0.11133379  0.11133379  0.43297074
   0.44533516  0.11133379  0.43297074
   0.77933653  0.11133379  0.43297074
   0.11133379  0.44533516  0.43297074
   0.44533516  0.44533516  0.43297074
   0.77933653  0.44533516  0.43297074
   0.11133379  0.77933653  0.43297074
   0.44533516  0.77933653  0.43297074
   0.77933653  0.77933653  0.43297074
   0.88937723  0.22464561  0.52502500
   0.22197502  0.22398340  0.52549664
   0.55435298  0.22422065  0.52487439
   0.88976223  0.55636186  0.52511596
   0.22234896  0.55621072  0.52502544
   0.55575891  0.55656222  0.52418085
   0.88897528  0.89043618  0.52444990
   0.22214585  0.89006107  0.52421476
   0.55598742  0.88995493  0.52423650
   0.99980850  0.00051834  0.61779528
   0.33448031  0.99753026  0.61742826
   0.66638679  0.00034864  0.61775135
   0.99742460  0.33226787  0.62052692
   0.33807410  0.33184857  0.62030268
   0.66644408  0.33429204  0.61780365
   0.99699904  0.67273247  0.61829515
   0.33345195  0.66825902  0.61745771
   0.66483639  0.66813337  0.61745597
   0.13346414  0.39980622  0.65728943
 
 position of ions in cartesian coordinates  (Angst):
   0.00000000  0.00000000  8.50000000
   2.82842712  0.00000000  8.50000000
   5.65685425  0.00000000  8.50000000
   1.41421356  2.44948974  8.50000000
   4.24264069  2.44948974  8.50000000
   7.07106781  2.44948974  8.50000000
   2.82842712  4.89897949  8.50000000
   5.65685425  4.89897949  8.50000000
   8.48528137  4.89897949  8.50000000
   1.41421356  0.81649658 10.80940108
   4.24264069  0.81649658 10.80940108
   7.07106781  0.81649658 10.80940108
   2.82842712  3.26598632 10.80940108
   5.65685425  3.26598632 10.80940108
   8.48528137  3.26598632 10.80940108
   4.24264069  5.71547607 10.80940108
   7.07106781  5.71547607 10.80940108
   9.89949494  5.71547607 10.80940108
   8.48270640  1.64749961 13.10759670
   2.82813370  1.64264310 13.11937151
   5.64381789  1.64438302 13.10383650
   9.89050475  4.08023078 13.10986747
   4.23800232  4.07912236 13.10760772
   7.06290946  4.08170020 13.08652189
  11.29836308  6.53025557 13.09323897
   5.64985650  6.52750461 13.08736847
   8.47648096  6.52672618 13.08791120
   8.46888303  0.00380142 15.42366806
   7.05618073  7.31565907 15.41450523
   5.64464610  0.00255684 15.42257138
   9.85337440  2.43677669 15.49186526
   4.26801452  2.43370158 15.48626707
   7.05909943  2.45162149 15.42387711
  11.29135053  4.93366631 15.43614771
   5.65328676  4.90085905 15.41524036
   8.45902087  4.89993749 15.41519715
   2.82305723  2.93208748 16.40966571
 


--------------------------------------------------------------------------------------------------------


 k-point   1 :   0.0000 0.0000 0.0000  plane waves:   62399
 k-point   2 :   0.2000 0.0000 0.0000  plane waves:   62407
 k-point   3 :   0.2000 0.2000 0.0000  plane waves:   62407
 k-point   4 :   0.0000 0.2000 0.0000  plane waves:   62407
 k-point   5 :   0.4000 0.0000 0.0000  plane waves:   62451
 k-point   6 :   0.4000 0.4000 0.0000  plane waves:   62451
 k-point   7 :   0.0000 0.4000 0.0000  plane waves:   62451
 k-point   8 :   0.4000 0.2000 0.0000  plane waves:   62510
 k-point   9 :   0.2000 0.4000 0.0000  plane waves:   62510
 k-point  10 :  -0.2000 0.2000 0.0000  plane waves:   62510
 k-point  11 :  -0.4000 0.2000 0.0000  plane waves:   62498
 k-point  12 :   0.4000-0.4000 0.0000  plane waves:   62498
 k-point  13 :  -0.2000 0.4000 0.0000  plane waves:   62498

 maximum and minimum number of plane-waves per node :     62510    62399

 maximum number of plane-waves:     62510
 maximum index in each direction: 
   IXMAX=   18   IYMAX=   18   IZMAX=   53
   IXMIN=  -18   IYMIN=  -18   IZMIN=  -53


 serial   3D FFT for wavefunctions
 parallel 3D FFT for charge:
    minimum data exchange during FFTs selected (reduces bandwidth)


 total amount of memory used by VASP MPI-rank0   148549. kBytes
=======================================================================

   base      :      30000. kBytes
   nonlr-proj:      22476. kBytes
   fftplans  :       5213. kBytes
   grid      :      24541. kBytes
   one-center:        575. kBytes
   wavefun   :      65744. kBytes
 
     INWAV:  cpu time      7.4414: real time     13.8408
 Broyden mixing: mesh for mixing (old mesh)
   NGX = 37   NGY = 37   NGZ =107
  (NGX  =108   NGY  =108   NGZ  =320)
  gives a total of 146483 points

 charge density for first step will be calculated from the start-wavefunctions


--------------------------------------------------------------------------------------------------------


 Maximum index for non-local projection operator         3550
 Maximum index for augmentation-charges         1173 (set IRDMAX)


--------------------------------------------------------------------------------------------------------


 initial charge from wavefunction
 First call to EWALD:  gamma=   0.153
 Maximum number of real-space cells 4x 4x 2
 Maximum number of reciprocal cells 2x 2x 5

    FEWALD:  cpu time      0.0044: real time      0.0044


--------------------------------------- Ionic step        1  -------------------------------------------




--------------------------------------- Iteration      1(   1)  ---------------------------------------


vdW kernel read from vdw_kernel.bindat
  0.0000  0.2424  0.5071  0.7962  1.1119  1.4567  1.8333  2.2446  2.6937  3.1842
  3.7199  4.3049  4.9438  5.6415  6.4036  7.2358  8.1446  9.1372 10.2212 11.4050
 12.6979 14.1099 15.6519 17.3360 19.1751 21.1837 23.3773 25.7729 28.3892 31.2465
 34.3669 37.7748 41.4965 45.5611 50.0000
 
    POTLOK:  cpu time      2.9552: real time      2.9798
    SETDIJ:  cpu time      0.0055: real time      0.0055
     EDDAV:  cpu time     14.9784: real time     15.0950
       DOS:  cpu time      0.0010: real time      0.0010
    CHARGE:  cpu time      0.7609: real time      0.7680
    MIXING:  cpu time      0.0029: real time      0.0030
    --------------------------------------------
      LOOP:  cpu time     18.7038: real time     18.8523

 eigenvalue-minimisations  :  6480
 total energy-change (2. order) :-0.1045870E+03  (-0.1874240E-01)
 number of electron     360.9999916 magnetization 
 augmentation part      114.1565595 magnetization 

 Broyden mixing:
  rms(total) = 0.94676E-01    rms(broyden)= 0.94676E-01
  rms(prec ) = 0.12453E+00
  weight for this iteration     100.00

 Free energy of the ion-electron system (eV)
  ---------------------------------------------------
  alpha Z        PSCENC =       797.33612757
  Ewald energy   TEWEN  =    132252.66860241
  -Hartree energ DENC   =   -159658.16599652
  -exchange      EXHF   =         0.00000000
  -V(xc)+E(xc)   XCENC  =        89.71272285
  PAW double counting   =     32180.05323575   -31182.19986229
  entropy T*S    EENTRO =        -0.09483222
  eigenvalues    EBANDS =     -1080.70019579
  atomic energy  EATOM  =     26496.80315902
  Solvation  Ediel_sol  =         0.00000000
  ---------------------------------------------------
  free energy    TOTEN  =      -104.58703924 eV

  energy without entropy =     -104.49220702  energy(sigma->0) =     -104.55542850


--------------------------------------------------------------------------------------------------------




--------------------------------------- Iteration      1(   2)  ---------------------------------------


    POTLOK:  cpu time      2.3337: real time      2.3494
    SETDIJ:  cpu time      0.0056: real time      0.0057
    EDDIAG:  cpu time      3.3812: real time      3.4070
  RMM-DIIS:  cpu time      8.2926: real time      8.3532
    ORTHCH:  cpu time      0.5664: real time      0.5716
       DOS:  cpu time      0.0012: real time      0.0012
    CHARGE:  cpu time      0.7629: real time      0.7692
    MIXING:  cpu time      0.0026: real time      0.0026
    --------------------------------------------
      LOOP:  cpu time     15.3462: real time     15.4599

 eigenvalue-minimisations  :  6709
 total energy-change (2. order) :-0.3575457E+00  (-0.1143444E-01)
 number of electron     360.9999915 magnetization 
 augmentation part      114.2330706 magnetization 

 Broyden mixing:
  rms(total) = 0.66826E+00    rms(broyden)= 0.66826E+00
  rms(prec ) = 0.93367E+00
  weight for this iteration     100.00

 eigenvalues of (default mixing * dielectric matrix)
  average eigenvalue GAMMA=   0.1112
  0.1112

 Free energy of the ion-electron system (eV)
  ---------------------------------------------------
  alpha Z        PSCENC =       797.33612757
  Ewald energy   TEWEN  =    132252.66860241
  -Hartree energ DENC   =   -159642.13514142
  -exchange      EXHF   =         0.00000000
  -V(xc)+E(xc)   XCENC  =        89.73897700
  PAW double counting   =     32174.59329574   -31176.76652115
  entropy T*S    EENTRO =        -0.08575372
  eigenvalues    EBANDS =     -1097.09733042
  atomic energy  EATOM  =     26496.80315902
  Solvation  Ediel_sol  =         0.00000000
  ---------------------------------------------------
  free energy    TOTEN  =      -104.94458498 eV

  energy without entropy =     -104.85883126  energy(sigma->0) =     -104.91600041


--------------------------------------------------------------------------------------------------------




--------------------------------------- Iteration      1(   3)  ---------------------------------------


    POTLOK:  cpu time      2.4040: real time      2.4824
    SETDIJ:  cpu time      0.0044: real time      0.0045
    EDDIAG:  cpu time      2.7319: real time      2.7533
  RMM-DIIS:  cpu time      8.5848: real time      8.6478
    ORTHCH:  cpu time      0.6630: real time      0.6705
       DOS:  cpu time      0.0012: real time      0.0012
    CHARGE:  cpu time      0.7334: real time      0.7603
    MIXING:  cpu time      0.0021: real time      0.0021
    --------------------------------------------
      LOOP:  cpu time     15.1248: real time     15.3219

 eigenvalue-minimisations  :  6715
 total energy-change (2. order) : 0.3284362E+00  (-0.5639630E-02)
 number of electron     360.9999916 magnetization 
 augmentation part      114.1970339 magnetization 

 Broyden mixing:
  rms(total) = 0.21219E+00    rms(broyden)= 0.21219E+00
  rms(prec ) = 0.27350E+00
  weight for this iteration     100.00

 eigenvalues of (default mixing * dielectric matrix)
  average eigenvalue GAMMA=   0.1397
  0.1878  0.0917

 Free energy of the ion-electron system (eV)
  ---------------------------------------------------
  alpha Z        PSCENC =       797.33612757
  Ewald energy   TEWEN  =    132252.66860241
  -Hartree energ DENC   =   -159647.32771702
  -exchange      EXHF   =         0.00000000
  -V(xc)+E(xc)   XCENC  =        89.72285451
  PAW double counting   =     32176.87119289   -31179.03085001
  entropy T*S    EENTRO =        -0.09738844
  eigenvalues    EBANDS =     -1091.56212966
  atomic energy  EATOM  =     26496.80315902
  Solvation  Ediel_sol  =         0.00000000
  ---------------------------------------------------
  free energy    TOTEN  =      -104.61614874 eV

  energy without entropy =     -104.51876030  energy(sigma->0) =     -104.58368593


--------------------------------------------------------------------------------------------------------




--------------------------------------- Iteration      1(   4)  ---------------------------------------


    POTLOK:  cpu time      2.4262: real time      2.4539
    SETDIJ:  cpu time      0.0192: real time      0.0194
    EDDIAG:  cpu time      3.1755: real time      3.1998
  RMM-DIIS:  cpu time      8.4378: real time      8.5002
    ORTHCH:  cpu time      0.6778: real time      0.6845
       DOS:  cpu time      0.0009: real time      0.0009
    CHARGE:  cpu time      0.7720: real time      0.7781
    MIXING:  cpu time      0.0024: real time      0.0024
    --------------------------------------------
      LOOP:  cpu time     15.5119: real time     15.6392

 eigenvalue-minimisations  :  6713
 total energy-change (2. order) : 0.3925763E-01  (-0.1300591E-02)
 number of electron     360.9999916 magnetization 
 augmentation part      114.1812532 magnetization 

 Broyden mixing:
  rms(total) = 0.27303E-01    rms(broyden)= 0.27302E-01
  rms(prec ) = 0.33359E-01
  weight for this iteration     100.00

 eigenvalues of (default mixing * dielectric matrix)
  average eigenvalue GAMMA=   0.2778
  0.5218  0.2255  0.0861

 Free energy of the ion-electron system (eV)
  ---------------------------------------------------
  alpha Z        PSCENC =       797.33612757
  Ewald energy   TEWEN  =    132252.66860241
  -Hartree energ DENC   =   -159651.90536498
  -exchange      EXHF   =         0.00000000
  -V(xc)+E(xc)   XCENC  =        89.70847796
  PAW double counting   =     32178.53438868   -31180.69787033
  entropy T*S    EENTRO =        -0.09639635
  eigenvalues    EBANDS =     -1086.92801508
  atomic energy  EATOM  =     26496.80315902
  Solvation  Ediel_sol  =         0.00000000
  ---------------------------------------------------
  free energy    TOTEN  =      -104.57689111 eV

  energy without entropy =     -104.48049476  energy(sigma->0) =     -104.54475899


--------------------------------------------------------------------------------------------------------




--------------------------------------- Iteration      1(   5)  ---------------------------------------


    POTLOK:  cpu time      2.4072: real time      2.4741
    SETDIJ:  cpu time      0.0044: real time      0.0044
    EDDIAG:  cpu time      2.7991: real time      2.8217
  RMM-DIIS:  cpu time      8.5816: real time      8.6482
    ORTHCH:  cpu time      0.5862: real time      0.5914
       DOS:  cpu time      0.0010: real time      0.0010
    CHARGE:  cpu time      0.7568: real time      0.7626
    MIXING:  cpu time      0.0024: real time      0.0024
    --------------------------------------------
      LOOP:  cpu time     15.1386: real time     15.3059

 eigenvalue-minimisations  :  6922
 total energy-change (2. order) : 0.3427009E-03  (-0.2016967E-03)
 number of electron     360.9999916 magnetization 
 augmentation part      114.1828577 magnetization 

 Broyden mixing:
  rms(total) = 0.22007E-01    rms(broyden)= 0.22007E-01
  rms(prec ) = 0.25152E-01
  weight for this iteration     100.00

 eigenvalues of (default mixing * dielectric matrix)
  average eigenvalue GAMMA=   0.3460
  0.7095  0.0866  0.2048  0.3831

 Free energy of the ion-electron system (eV)
  ---------------------------------------------------
  alpha Z        PSCENC =       797.33612757
  Ewald energy   TEWEN  =    132252.66860241
  -Hartree energ DENC   =   -159651.43249989
  -exchange      EXHF   =         0.00000000
  -V(xc)+E(xc)   XCENC  =        89.70875170
  PAW double counting   =     32178.31406890   -31180.47404232
  entropy T*S    EENTRO =        -0.09625771
  eigenvalues    EBANDS =     -1087.40445807
  atomic energy  EATOM  =     26496.80315902
  Solvation  Ediel_sol  =         0.00000000
  ---------------------------------------------------
  free energy    TOTEN  =      -104.57654841 eV

  energy without entropy =     -104.48029070  energy(sigma->0) =     -104.54446251


--------------------------------------------------------------------------------------------------------




--------------------------------------- Iteration      1(   6)  ---------------------------------------


    POTLOK:  cpu time      2.4248: real time      2.4543
    SETDIJ:  cpu time      0.0101: real time      0.0101
    EDDIAG:  cpu time      3.0374: real time      3.1558
  RMM-DIIS:  cpu time      8.9913: real time      9.0544
    ORTHCH:  cpu time      0.6293: real time      0.6342
       DOS:  cpu time      0.0010: real time      0.0010
    CHARGE:  cpu time      0.7502: real time      0.7572
    MIXING:  cpu time      0.0043: real time      0.0043
    --------------------------------------------
      LOOP:  cpu time     15.8483: real time     16.0714

 eigenvalue-minimisations  :  6998
 total energy-change (2. order) : 0.2923101E-03  (-0.5766434E-04)
 number of electron     360.9999916 magnetization 
 augmentation part      114.1821759 magnetization 

 Broyden mixing:
  rms(total) = 0.10608E-01    rms(broyden)= 0.10608E-01
  rms(prec ) = 0.11420E-01
  weight for this iteration     100.00

 eigenvalues of (default mixing * dielectric matrix)
  average eigenvalue GAMMA=   0.5244
  1.0260  1.0260  0.0866  0.2108  0.2728

 Free energy of the ion-electron system (eV)
  ---------------------------------------------------
  alpha Z        PSCENC =       797.33612757
  Ewald energy   TEWEN  =    132252.66860241
  -Hartree energ DENC   =   -159651.42678853
  -exchange      EXHF   =         0.00000000
  -V(xc)+E(xc)   XCENC  =        89.70846928
  PAW double counting   =     32178.36275431   -31180.51684108
  entropy T*S    EENTRO =        -0.09646730
  eigenvalues    EBANDS =     -1087.41527176
  atomic energy  EATOM  =     26496.80315902
  Solvation  Ediel_sol  =         0.00000000
  ---------------------------------------------------
  free energy    TOTEN  =      -104.57625610 eV

  energy without entropy =     -104.47978879  energy(sigma->0) =     -104.54410033


--------------------------------------------------------------------------------------------------------




--------------------------------------- Iteration      1(   7)  ---------------------------------------


    POTLOK:  cpu time      2.3932: real time      2.4559
    SETDIJ:  cpu time      0.0045: real time      0.0045
    EDDIAG:  cpu time      2.8342: real time      2.8571
  RMM-DIIS:  cpu time      8.9024: real time      8.9715
    ORTHCH:  cpu time      0.5789: real time      0.5840
       DOS:  cpu time      0.0009: real time      0.0009
    CHARGE:  cpu time      0.7551: real time      0.7612
    MIXING:  cpu time      0.0050: real time      0.0050
    --------------------------------------------
      LOOP:  cpu time     15.4741: real time     15.6400

 eigenvalue-minimisations  :  7047
 total energy-change (2. order) :-0.9405023E-04  (-0.2718899E-04)
 number of electron     360.9999916 magnetization 
 augmentation part      114.1810649 magnetization 

 Broyden mixing:
  rms(total) = 0.14283E-01    rms(broyden)= 0.14283E-01
  rms(prec ) = 0.15620E-01
  weight for this iteration     100.00

 eigenvalues of (default mixing * dielectric matrix)
  average eigenvalue GAMMA=   0.5914
  1.8473  0.8745  0.0866  0.3016  0.2087  0.2297

 Free energy of the ion-electron system (eV)
  ---------------------------------------------------
  alpha Z        PSCENC =       797.33612757
  Ewald energy   TEWEN  =    132252.66860241
  -Hartree energ DENC   =   -159651.35605435
  -exchange      EXHF   =         0.00000000
  -V(xc)+E(xc)   XCENC  =        89.70861795
  PAW double counting   =     32178.65899909   -31180.80484723
  entropy T*S    EENTRO =        -0.09637194
  eigenvalues    EBANDS =     -1087.49458267
  atomic energy  EATOM  =     26496.80315902
  Solvation  Ediel_sol  =         0.00000000
  ---------------------------------------------------
  free energy    TOTEN  =      -104.57635015 eV

  energy without entropy =     -104.47997821  energy(sigma->0) =     -104.54422617


--------------------------------------------------------------------------------------------------------




--------------------------------------- Iteration      1(   8)  ---------------------------------------


    POTLOK:  cpu time      2.6357: real time      2.6686
    SETDIJ:  cpu time      0.0044: real time      0.0044
    EDDIAG:  cpu time      2.7751: real time      2.7979
  RMM-DIIS:  cpu time      8.9612: real time      9.0243
    ORTHCH:  cpu time      0.4798: real time      0.4847
       DOS:  cpu time      0.0011: real time      0.0011
    CHARGE:  cpu time      0.7657: real time      0.7714
    MIXING:  cpu time      0.0039: real time      0.0039
    --------------------------------------------
      LOOP:  cpu time     15.6269: real time     15.7564

 eigenvalue-minimisations  :  6939
 total energy-change (2. order) : 0.9132233E-04  (-0.1294726E-04)
 number of electron     360.9999916 magnetization 
 augmentation part      114.1805702 magnetization 

 Broyden mixing:
  rms(total) = 0.60997E-02    rms(broyden)= 0.60997E-02
  rms(prec ) = 0.75474E-02
  weight for this iteration     100.00

 eigenvalues of (default mixing * dielectric matrix)
  average eigenvalue GAMMA=   0.6360
  2.1675  0.7443  0.7443  0.0866  0.2933  0.2126  0.2033

 Free energy of the ion-electron system (eV)
  ---------------------------------------------------
  alpha Z        PSCENC =       797.33612757
  Ewald energy   TEWEN  =    132252.66860241
  -Hartree energ DENC   =   -159651.23646887
  -exchange      EXHF   =         0.00000000
  -V(xc)+E(xc)   XCENC  =        89.70878242
  PAW double counting   =     32178.86696836   -31181.00785719
  entropy T*S    EENTRO =        -0.09647300
  eigenvalues    EBANDS =     -1087.61909952
  atomic energy  EATOM  =     26496.80315902
  Solvation  Ediel_sol  =         0.00000000
  ---------------------------------------------------
  free energy    TOTEN  =      -104.57625883 eV

  energy without entropy =     -104.47978582  energy(sigma->0) =     -104.54410116


--------------------------------------------------------------------------------------------------------




--------------------------------------- Iteration      1(   9)  ---------------------------------------


    POTLOK:  cpu time      2.3342: real time      2.4086
    SETDIJ:  cpu time      0.0044: real time      0.0045
    EDDIAG:  cpu time      2.8426: real time      2.8671
  RMM-DIIS:  cpu time      8.0714: real time      8.1275
    ORTHCH:  cpu time      0.5293: real time      0.5335
       DOS:  cpu time      0.0010: real time      0.0010
    --------------------------------------------
      LOOP:  cpu time     13.7829: real time     13.9423

 eigenvalue-minimisations  :  6061
 total energy-change (2. order) :-0.3704885E-05  (-0.5101232E-05)
 number of electron     360.9999916 magnetization 
 augmentation part      114.1805702 magnetization 

 Free energy of the ion-electron system (eV)
  ---------------------------------------------------
  alpha Z        PSCENC =       797.33612757
  Ewald energy   TEWEN  =    132252.66860241
  -Hartree energ DENC   =   -159651.21215939
  -exchange      EXHF   =         0.00000000
  -V(xc)+E(xc)   XCENC  =        89.70820818
  PAW double counting   =     32179.06108804   -31181.20057987
  entropy T*S    EENTRO =        -0.09638365
  eigenvalues    EBANDS =     -1087.64432484
  atomic energy  EATOM  =     26496.80315902
  Solvation  Ediel_sol  =         0.00000000
  ---------------------------------------------------
  free energy    TOTEN  =      -104.57626253 eV

  energy without entropy =     -104.47987888  energy(sigma->0) =     -104.54413465


--------------------------------------------------------------------------------------------------------




 average (electrostatic) potential at core
  the test charge radii are     1.2059  0.5201
  (the norm of the test charge is              1.0000)
       1 -73.5376       2 -73.5322       3 -73.5348       4 -73.5373       5 -73.5250
       6 -73.5319       7 -73.5434       8 -73.5291       9 -73.5385      10 -73.9756
      11 -73.9710      12 -73.9299      13 -73.9697      14 -73.9801      15 -73.9855
      16 -73.9880      17 -73.9963      18 -73.9903      19 -73.9404      20 -73.9206
      21 -73.9432      22 -73.9372      23 -73.9358      24 -73.9773      25 -73.9786
      26 -73.9742      27 -73.9759      28 -73.5543      29 -73.5265      30 -73.5540
      31 -73.6267      32 -73.6258      33 -73.5596      34 -73.5341      35 -73.5391
      36 -73.5409      37 -38.4198
 
 
 
 E-fermi :  -0.0735     XC(G=0):  -5.8934     alpha+bet : -5.8354

 Fermi energy:        -0.0735215068

 k-point     1 :       0.0000    0.0000    0.0000
  band No.  band energies     occupation 
      1      -8.9029      2.00000
      2      -7.8062      2.00000
      3      -7.0878      2.00000
      4      -6.5019      2.00000
      5      -6.4703      2.00000
      6      -6.4623      2.00000
      7      -6.4599      2.00000
      8      -6.4382      2.00000
      9      -6.4313      2.00000
     10      -6.4262      2.00000
     11      -6.1354      2.00000
     12      -5.9175      2.00000
     13      -5.9117      2.00000
     14      -5.9087      2.00000
     15      -5.9053      2.00000
     16      -5.8993      2.00000
     17      -5.8242      2.00000
     18      -5.4743      2.00000
     19      -5.4655      2.00000
     20      -5.4516      2.00000
     21      -5.4489      2.00000
     22      -5.4395      2.00000
     23      -5.3513      2.00000
     24      -5.2329      2.00000
     25      -5.2294      2.00000
     26      -5.2246      2.00000
     27      -5.2192      2.00000
     28      -5.2159      2.00000
     29      -5.1251      2.00000
     30      -5.0383      2.00000
     31      -5.0322      2.00000
     32      -5.0220      2.00000
     33      -5.0179      2.00000
     34      -5.0077      2.00000
     35      -4.9695      2.00000
     36      -4.9591      2.00000
     37      -4.9532      2.00000
     38      -4.9488      2.00000
     39      -4.9178      2.00000
     40      -4.9138      2.00000
     41      -4.5839      2.00000
     42      -4.3806      2.00000
     43      -4.3803      2.00000
     44      -4.3519      2.00000
     45      -4.3381      2.00000
     46      -4.3265      2.00000
     47      -4.3150      2.00000
     48      -4.2938      2.00000
     49      -4.2910      2.00000
     50      -4.2857      2.00000
     51      -4.1356      2.00000
     52      -4.1333      2.00000
     53      -4.0699      2.00000
     54      -4.0353      2.00000
     55      -4.0309      2.00000
     56      -3.5828      2.00000
     57      -3.5808      2.00000
     58      -3.5703      2.00000
     59      -3.5605      2.00000
     60      -3.5547      2.00000
     61      -3.4988      2.00000
     62      -3.4735      2.00000
     63      -3.3921      2.00000
     64      -3.3784      2.00000
     65      -3.3720      2.00000
     66      -3.3715      2.00000
     67      -3.3641      2.00000
     68      -3.3536      2.00000
     69      -3.3502      2.00000
     70      -3.3209      2.00000
     71      -3.3091      2.00000
     72      -3.3034      2.00000
     73      -3.3006      2.00000
     74      -3.2975      2.00000
     75      -3.2695      2.00000
     76      -3.2605      2.00000
     77      -3.2540      2.00000
     78      -3.1530      2.00000
     79      -3.1511      2.00000
     80      -3.1471      2.00000
     81      -3.1388      2.00000
     82      -3.1375      2.00000
     83      -3.1294      2.00000
     84      -2.9442      2.00000
     85      -2.9350      2.00000
     86      -2.9301      2.00000
     87      -2.9244      2.00000
     88      -2.9146      2.00000
     89      -2.9025      2.00000
     90      -2.8990      2.00000
     91      -2.8886      2.00000
     92      -2.8375      2.00000
     93      -2.8286      2.00000
     94      -2.7786      2.00000
     95      -2.7677      2.00000
     96      -2.7433      2.00000
     97      -2.7309      2.00000
     98      -2.7120      2.00000
     99      -2.6924      2.00000
    100      -2.6867      2.00000
    101      -2.6270      2.00000
    102      -2.5228      2.00000
    103      -2.5191      2.00000
    104      -2.5128      2.00000
    105      -2.5074      2.00000
    106      -2.4991      2.00000
    107      -2.4969      2.00000
    108      -2.2651      2.00000
    109      -2.0240      2.00000
    110      -2.0044      2.00000
    111      -2.0010      2.00000
    112      -1.9924      2.00000
    113      -1.9867      2.00000
    114      -1.9845      2.00000
    115      -1.9774      2.00000
    116      -1.9735      2.00000
    117      -1.9566      2.00000
    118      -1.9518      2.00000
    119      -1.9448      2.00000
    120      -1.8700      2.00000
    121      -1.8614      2.00000
    122      -1.8077      2.00000
    123      -1.7355      2.00000
    124      -1.7337      2.00000
    125      -1.7221      2.00000
    126      -1.7170      2.00000
    127      -1.7077      2.00000
    128      -1.5993      2.00000
    129      -1.5885      2.00000
    130      -1.5374      2.00000
    131      -1.5356      2.00000
    132      -1.5121      2.00000
    133      -1.5000      2.00000
    134      -1.2906      2.00000
    135      -1.2787      2.00000
    136      -1.2720      2.00000
    137      -1.2583      2.00000
    138      -1.2527      2.00000
    139      -1.2500      2.00000
    140      -1.1861      2.00000
    141      -1.1756      2.00000
    142      -1.0486      2.00000
    143      -1.0466      2.00000
    144      -1.0300      2.00000
    145      -1.0255      2.00000
    146      -1.0223      2.00000
    147      -1.0180      2.00000
    148      -0.9079      2.00000
    149      -0.8820      2.00000
    150      -0.8656      2.00000
    151      -0.8438      2.00000
    152      -0.8308      2.00000
    153      -0.8256      2.00000
    154      -0.8249      2.00000
    155      -0.8158      2.00000
    156      -0.8044      2.00000
    157      -0.8022      2.00000
    158      -0.7991      2.00000
    159      -0.7972      2.00000
    160      -0.7309      2.00000
    161      -0.7231      2.00000
    162      -0.6976      2.00000
    163      -0.6816      2.00000
    164      -0.6681      2.00000
    165      -0.6559      2.00000
    166      -0.6461      2.00000
    167      -0.6411      2.00000
    168      -0.6022      2.00000
    169      -0.5887      2.00000
    170      -0.5786      2.00000
    171      -0.5575      2.00000
    172      -0.5507      2.00000
    173      -0.5451      2.00000
    174      -0.5381      2.00000
    175      -0.5365      2.00000
    176      -0.4566      2.00000
    177      -0.4474      2.00000
    178      -0.4420      2.00000
    179      -0.4393      2.00000
    180      -0.4313      2.00001
    181      -0.4271      2.00001
    182      -0.3834      2.00011
    183      -0.3433      2.00091
    184      -0.3360      2.00130
    185      -0.3212      2.00256
    186      -0.3203      2.00267
    187      -0.3110      2.00397
    188      -0.3035      2.00540
    189      -0.1152      1.64177
    190      -0.1047      1.50056
    191      -0.0185      0.20753
    192      -0.0124      0.15032
    193      -0.0075      0.10943
    194       0.0080      0.01228
    195       0.0086      0.00944
    196       0.0128     -0.00898
    197       0.5398     -0.00000
    198       0.8223     -0.00000
    199       0.8429     -0.00000
    200       0.8737     -0.00000
    201       0.8951     -0.00000
    202       0.9009     -0.00000
    203       0.9070     -0.00000
    204       2.8643      0.00000
    205       3.1253      0.00000
    206       3.1599      0.00000
    207       3.2022      0.00000
    208       3.2196      0.00000
    209       3.2214      0.00000
    210       4.6218      0.00000
    211       4.7160      0.00000
    212       4.7894      0.00000
    213       4.8142      0.00000
    214       4.8227      0.00000
    215       4.8258      0.00000
    216       4.9407      0.00000
    217       5.1001      0.00000
    218       5.2085      0.00000
    219       5.4363      0.00000
    220       5.5125      0.00000
    221       5.7886      0.00000
    222       5.8155      0.00000
    223       5.8533      0.00000
    224       5.8645      0.00000
    225       5.8687      0.00000
    226       6.0408      0.00000
    227       6.3840      0.00000
    228       6.5996      0.00000
    229       6.6130      0.00000
    230       6.6260      0.00000
    231       6.8132      0.00000
    232       7.0377      0.00000
    233       7.1442      0.00000
    234       7.1536      0.00000
    235       7.1755      0.00000
    236       7.1789      0.00000
    237       7.1859      0.00000
    238       7.2222      0.00000
    239       7.2633      0.00000
    240       7.4826      0.00000

 k-point     2 :       0.2000    0.0000    0.0000
  band No.  band energies     occupation 
      1      -8.7548      2.00000
      2      -7.6833      2.00000
      3      -7.0444      2.00000
      4      -6.9225      2.00000
      5      -6.5610      2.00000
      6      -6.5466      2.00000
      7      -6.3590      2.00000
      8      -6.2693      2.00000
      9      -6.2234      2.00000
     10      -6.2128      2.00000
     11      -6.1042      2.00000
     12      -6.0004      2.00000
     13      -5.9749      2.00000
     14      -5.8456      2.00000
     15      -5.8402      2.00000
     16      -5.8275      2.00000
     17      -5.7416      2.00000
     18      -5.5360      2.00000
     19      -5.4254      2.00000
     20      -5.4159      2.00000
     21      -5.4123      2.00000
     22      -5.3856      2.00000
     23      -5.3363      2.00000
     24      -5.3025      2.00000
     25      -5.2776      2.00000
     26      -5.2318      2.00000
     27      -5.2190      2.00000
     28      -5.2139      2.00000
     29      -5.1574      2.00000
     30      -5.1157      2.00000
     31      -5.1063      2.00000
     32      -5.0390      2.00000
     33      -5.0189      2.00000
     34      -5.0115      2.00000
     35      -5.0091      2.00000
     36      -4.8652      2.00000
     37      -4.8128      2.00000
     38      -4.7814      2.00000
     39      -4.7722      2.00000
     40      -4.7492      2.00000
     41      -4.5852      2.00000
     42      -4.4969      2.00000
     43      -4.4916      2.00000
     44      -4.4472      2.00000
     45      -4.4179      2.00000
     46      -4.4019      2.00000
     47      -4.3892      2.00000
     48      -4.2908      2.00000
     49      -4.2117      2.00000
     50      -4.1501      2.00000
     51      -4.1261      2.00000
     52      -4.1136      2.00000
     53      -4.0686      2.00000
     54      -4.0497      2.00000
     55      -4.0013      2.00000
     56      -3.8289      2.00000
     57      -3.7358      2.00000
     58      -3.7309      2.00000
     59      -3.6805      2.00000
     60      -3.6634      2.00000
     61      -3.6366      2.00000
     62      -3.5808      2.00000
     63      -3.5670      2.00000
     64      -3.5599      2.00000
     65      -3.5297      2.00000
     66      -3.5250      2.00000
     67      -3.4517      2.00000
     68      -3.4394      2.00000
     69      -3.4040      2.00000
     70      -3.3740      2.00000
     71      -3.3613      2.00000
     72      -3.3237      2.00000
     73      -3.2742      2.00000
     74      -3.2663      2.00000
     75      -3.2599      2.00000
     76      -3.1808      2.00000
     77      -3.1750      2.00000
     78      -3.1604      2.00000
     79      -3.1305      2.00000
     80      -3.0911      2.00000
     81      -3.0711      2.00000
     82      -3.0638      2.00000
     83      -3.0358      2.00000
     84      -3.0076      2.00000
     85      -2.9664      2.00000
     86      -2.9527      2.00000
     87      -2.9418      2.00000
     88      -2.9373      2.00000
     89      -2.9174      2.00000
     90      -2.9039      2.00000
     91      -2.8630      2.00000
     92      -2.8259      2.00000
     93      -2.8005      2.00000
     94      -2.7864      2.00000
     95      -2.7722      2.00000
     96      -2.7640      2.00000
     97      -2.7521      2.00000
     98      -2.7266      2.00000
     99      -2.6995      2.00000
    100      -2.6936      2.00000
    101      -2.6102      2.00000
    102      -2.5655      2.00000
    103      -2.5500      2.00000
    104      -2.5236      2.00000
    105      -2.5062      2.00000
    106      -2.5036      2.00000
    107      -2.4982      2.00000
    108      -2.4850      2.00000
    109      -2.4448      2.00000
    110      -2.4370      2.00000
    111      -2.4261      2.00000
    112      -2.4126      2.00000
    113      -2.1890      2.00000
    114      -2.0728      2.00000
    115      -2.0288      2.00000
    116      -2.0141      2.00000
    117      -1.9958      2.00000
    118      -1.9883      2.00000
    119      -1.9861      2.00000
    120      -1.9461      2.00000
    121      -1.9417      2.00000
    122      -1.8755      2.00000
    123      -1.8029      2.00000
    124      -1.7816      2.00000
    125      -1.7092      2.00000
    126      -1.6545      2.00000
    127      -1.6510      2.00000
    128      -1.5958      2.00000
    129      -1.5867      2.00000
    130      -1.5786      2.00000
    131      -1.5423      2.00000
    132      -1.5315      2.00000
    133      -1.5263      2.00000
    134      -1.4454      2.00000
    135      -1.4039      2.00000
    136      -1.3947      2.00000
    137      -1.3863      2.00000
    138      -1.3783      2.00000
    139      -1.2678      2.00000
    140      -1.1957      2.00000
    141      -1.1776      2.00000
    142      -1.1619      2.00000
    143      -1.1496      2.00000
    144      -1.1397      2.00000
    145      -1.1203      2.00000
    146      -1.0635      2.00000
    147      -1.0322      2.00000
    148      -1.0030      2.00000
    149      -0.9882      2.00000
    150      -0.9803      2.00000
    151      -0.9303      2.00000
    152      -0.9172      2.00000
    153      -0.9052      2.00000
    154      -0.8975      2.00000
    155      -0.8176      2.00000
    156      -0.7919      2.00000
    157      -0.7735      2.00000
    158      -0.7602      2.00000
    159      -0.7278      2.00000
    160      -0.6704      2.00000
    161      -0.6445      2.00000
    162      -0.6176      2.00000
    163      -0.6021      2.00000
    164      -0.5900      2.00000
    165      -0.5670      2.00000
    166      -0.5448      2.00000
    167      -0.4813      2.00000
    168      -0.4735      2.00000
    169      -0.4164      2.00001
    170      -0.4040      2.00003
    171      -0.3959      2.00005
    172      -0.3835      2.00011
    173      -0.3565      2.00047
    174      -0.3507      2.00063
    175      -0.3451      2.00084
    176      -0.3378      2.00120
    177      -0.3271      2.00197
    178      -0.2730      2.01627
    179      -0.2700      2.01786
    180      -0.1340      1.84434
    181      -0.1214      1.71598
    182      -0.0996      1.42491
    183      -0.0871      1.22814
    184      -0.0685      0.91502
    185      -0.0668      0.88676
    186      -0.0344      0.39011
    187      -0.0192      0.21454
    188      -0.0001      0.05776
    189       0.0085      0.00973
    190       0.0759     -0.05584
    191       0.1064     -0.02896
    192       0.1313     -0.01365
    193       0.1854     -0.00154
    194       0.2930     -0.00000
    195       0.3064     -0.00000
    196       0.3142     -0.00000
    197       0.3542     -0.00000
    198       0.7034     -0.00000
    199       0.7531     -0.00000
    200       1.2561     -0.00000
    201       1.4648     -0.00000
    202       1.4820     -0.00000
    203       1.5978     -0.00000
    204       2.4035     -0.00000
    205       2.8138      0.00000
    206       2.9098      0.00000
    207       3.5633      0.00000
    208       3.6494      0.00000
    209       3.6641      0.00000
    210       3.7433      0.00000
    211       3.9835      0.00000
    212       4.4347      0.00000
    213       4.6068      0.00000
    214       4.7514      0.00000
    215       4.9532      0.00000
    216       4.9968      0.00000
    217       5.0348      0.00000
    218       5.2254      0.00000
    219       5.2899      0.00000
    220       5.4716      0.00000
    221       5.6551      0.00000
    222       5.6997      0.00000
    223       5.8208      0.00000
    224       5.9161      0.00000
    225       6.0753      0.00000
    226       6.1575      0.00000
    227       6.2040      0.00000
    228       6.3442      0.00000
    229       6.3567      0.00000
    230       6.5394      0.00000
    231       6.7042      0.00000
    232       6.7714      0.00000
    233       6.8069      0.00000
    234       6.8614      0.00000
    235       6.9110      0.00000
    236       7.0705      0.00000
    237       7.2708      0.00000
    238       7.4772      0.00000
    239       7.5679      0.00000
    240       7.6152      0.00000

 k-point     3 :       0.2000    0.2000    0.0000
  band No.  band energies     occupation 
      1      -8.7548      2.00000
      2      -7.6833      2.00000
      3      -7.0420      2.00000
      4      -6.9237      2.00000
      5      -6.5625      2.00000
      6      -6.5466      2.00000
      7      -6.3591      2.00000
      8      -6.2670      2.00000
      9      -6.2229      2.00000
     10      -6.2153      2.00000
     11      -6.1040      2.00000
     12      -6.0004      2.00000
     13      -5.9775      2.00000
     14      -5.8438      2.00000
[...]
    148      -1.1040      2.00000
    149      -1.1000      2.00000
    150      -1.0866      2.00000
    151      -1.0627      2.00000
    152      -1.0423      2.00000
    153      -1.0279      2.00000
    154      -0.8823      2.00000
    155      -0.8447      2.00000
    156      -0.8026      2.00000
    157      -0.7558      2.00000
    158      -0.7041      2.00000
    159      -0.6299      2.00000
    160      -0.6147      2.00000
    161      -0.5658      2.00000
    162      -0.5171      2.00000
    163      -0.5096      2.00000
    164      -0.4887      2.00000
    165      -0.4108      2.00002
    166      -0.3834      2.00011
    167      -0.3143      2.00347
    168      -0.2959      2.00726
    169      -0.2906      2.00885
    170      -0.2708      2.01742
    171      -0.2666      2.01985
    172      -0.2400      2.04023
    173      -0.2162      2.06151
    174      -0.1768      2.05638
    175      -0.1116      1.59508
    176      -0.1089      1.55865
    177      -0.0773      1.06462
    178      -0.0653      0.86097
    179      -0.0568      0.72089
    180      -0.0494      0.60493
    181      -0.0404      0.47220
    182       0.0255     -0.04814
    183       0.1189     -0.02026
    184       0.1541     -0.00593
    185       0.1643     -0.00392
    186       0.1685     -0.00328
    187       0.1744     -0.00254
    188       0.2276     -0.00018
    189       0.2731     -0.00001
    190       0.3500     -0.00000
    191       0.4328     -0.00000
    192       1.2301     -0.00000
    193       1.3367     -0.00000
    194       1.3564     -0.00000
    195       1.5175     -0.00000
    196       1.5677     -0.00000
    197       1.6760     -0.00000
    198       1.7007     -0.00000
    199       1.7208     -0.00000
    200       2.0721     -0.00000
    201       2.2910     -0.00000
    202       2.3480     -0.00000
    203       2.5654     -0.00000
    204       2.7830      0.00000
    205       2.8056      0.00000
    206       2.8679      0.00000
    207       2.9384      0.00000
    208       3.0992      0.00000
    209       3.1776      0.00000
    210       3.2505      0.00000
    211       3.3050      0.00000
    212       3.5685      0.00000
    213       3.6740      0.00000
    214       3.7700      0.00000
    215       4.2077      0.00000
    216       4.3769      0.00000
    217       4.4285      0.00000
    218       4.6504      0.00000
    219       4.7492      0.00000
    220       5.3679      0.00000
    221       5.5427      0.00000
    222       5.5882      0.00000
    223       5.6553      0.00000
    224       5.7167      0.00000
    225       5.7773      0.00000
    226       5.9790      0.00000
    227       5.9913      0.00000
    228       6.0007      0.00000
    229       6.0109      0.00000
    230       6.0367      0.00000
    231       6.3245      0.00000
    232       6.4211      0.00000
    233       6.6136      0.00000
    234       6.7459      0.00000
    235       6.8068      0.00000
    236       6.8431      0.00000
    237       6.8540      0.00000
    238       7.1086      0.00000
    239       7.2338      0.00000
    240       7.3446      0.00000


--------------------------------------------------------------------------------------------------------


 soft charge-density along one line, spin component           1
         0         1         2         3         4         5         6         7         8         9
 total charge-density along one line
 
 pseudopotential strength for first ion, spin component:           1
 -6.578   0.000   0.000  -0.010  -0.000  -6.672   0.000   0.000
  0.000  -6.463   0.000  -0.000  -0.010   0.000  -6.561   0.000
  0.000   0.000  -6.452  -0.000   0.000   0.000   0.000  -6.551
 -0.010  -0.000  -0.000  -6.462  -0.000  -0.009  -0.000  -0.000
 -0.000  -0.010   0.000  -0.000  -6.577  -0.000  -0.010   0.000
 -6.672   0.000   0.000  -0.009  -0.000  -6.751   0.000   0.000
  0.000  -6.561   0.000  -0.000  -0.010   0.000  -6.642   0.000
  0.000   0.000  -6.551  -0.000   0.000   0.000   0.000  -6.633
 -0.009  -0.000  -0.000  -6.559  -0.000  -0.009  -0.000  -0.000
 -0.000  -0.010   0.000  -0.000  -6.672  -0.000  -0.010   0.000
  0.000  -0.000  -0.035   0.000  -0.000   0.000  -0.000  -0.034
  0.000  -0.000  -0.052   0.000  -0.000   0.000  -0.000  -0.051
 -0.000  -0.005   0.000  -0.000   0.000  -0.000  -0.004   0.000
 -0.000   0.000  -0.008  -0.000   0.000  -0.000   0.000  -0.008
  0.000  -0.000   0.000  -0.005  -0.000   0.000  -0.000   0.000
 -0.000  -0.004   0.000  -0.000   0.001  -0.000  -0.003   0.000
 -0.000  -0.000  -0.009  -0.000   0.000  -0.000  -0.000  -0.008
  0.000  -0.000   0.000  -0.004  -0.000   0.000  -0.000   0.000
 total augmentation occupancy for first ion, spin component:           1
  3.230  -0.003  -0.000  -0.251  -0.007  -1.901   0.003   0.001   0.075   0.005   0.001   0.000   0.006   0.001  -0.043  -0.001
 -0.003   4.247   0.007  -0.013  -0.247   0.003  -2.188  -0.003   0.011   0.079   0.007  -0.002  -0.247   0.001   0.002   0.014
 -0.000   0.007   4.353  -0.006   0.011   0.001  -0.003  -2.547   0.006  -0.007   0.839  -0.184  -0.002  -0.279  -0.002   0.000
 -0.251  -0.013  -0.006   4.277  -0.005   0.083   0.011   0.005  -2.206   0.004  -0.001  -0.001   0.002   0.006  -0.248  -0.000
 -0.007  -0.247   0.011  -0.005   3.237   0.005   0.071  -0.007   0.004  -1.904   0.003  -0.001  -0.048  -0.001   0.006   0.004
 -1.901   0.003   0.001   0.083   0.005   2.219  -0.003  -0.001   0.043  -0.003  -0.002   0.001  -0.007  -0.001   0.042   0.000
  0.003  -2.188  -0.003   0.011   0.071  -0.003   1.982   0.001  -0.010   0.047  -0.005   0.001   0.237  -0.002  -0.002  -0.019
  0.001  -0.003  -2.547   0.005  -0.007  -0.001   0.001   2.522  -0.006   0.004  -0.707   0.127   0.003   0.336   0.004  -0.000
  0.075   0.011   0.006  -2.206   0.004   0.043  -0.010  -0.006   1.990  -0.004  -0.000   0.001  -0.002  -0.006   0.237   0.000
  0.005   0.079  -0.007   0.004  -1.904  -0.003   0.047   0.004  -0.004   2.221  -0.002   0.001   0.049   0.000  -0.006  -0.004
  0.001   0.007   0.839  -0.001   0.003  -0.002  -0.005  -0.707  -0.000  -0.002   2.505  -0.576  -0.003   0.192  -0.005   0.000
  0.000  -0.002  -0.184  -0.001  -0.001   0.001   0.001   0.127   0.001   0.001  -0.576   0.148   0.001  -0.068   0.001  -0.000
  0.006  -0.247  -0.002   0.002  -0.048  -0.007   0.237   0.003  -0.002   0.049  -0.003   0.001   0.254   0.000  -0.000  -0.018
  0.001   0.001  -0.279   0.006  -0.001  -0.001  -0.002   0.336  -0.006   0.000   0.192  -0.068   0.000   0.142  -0.000   0.000
 -0.043   0.002  -0.002  -0.248   0.006   0.042  -0.002   0.004   0.237  -0.006  -0.005   0.001  -0.000  -0.000   0.254   0.000
 -0.001   0.014   0.000  -0.000   0.004   0.000  -0.019  -0.000   0.000  -0.004   0.000  -0.000  -0.018   0.000   0.000   0.001
 -0.000   0.000   0.007  -0.001  -0.000   0.000   0.000  -0.023   0.000   0.000  -0.021   0.007   0.000  -0.011   0.000  -0.000
  0.004  -0.000   0.000   0.014  -0.000  -0.003   0.000  -0.000  -0.019   0.000   0.000  -0.000   0.000   0.000  -0.018  -0.000


------------------------ aborting loop because EDIFF is reached ----------------------------------------


    CHARGE:  cpu time      0.7586: real time      0.7651
    FORLOC:  cpu time      0.0192: real time      0.0193
    FORNL :  cpu time      2.7220: real time      2.7458
    STRESS:  cpu time      7.7906: real time      7.8507
    FORCOR:  cpu time      2.3179: real time      2.3326
    FORHAR:  cpu time      0.0195: real time      0.0197
    MIXING:  cpu time      0.0042: real time      0.0042
    OFIELD:  cpu time      0.0000: real time      0.0000

  FORCE on cell =-STRESS in cart. coord.  units (eV):
  Direction    XX          YY          ZZ          XY          YZ          ZX
  --------------------------------------------------------------------------------------
  Alpha Z   797.33613   797.33613   797.33613
  Ewald  152003.26651151969.39532************     2.37382     5.49886     2.36022
  Hartree157942.08413157932.57304************     0.77081     1.34990     0.55659
  E(xc)   -1657.52392 -1657.91801 -1666.88714     0.02539     0.02664     0.02916
  Local  ************************321404.59432    -2.65638    -6.25094    -2.21586
  n-local   109.32419   108.80802    86.49918     0.18056     0.68964     0.18894
  augment  1890.58199  1891.96211  1954.52416    -0.22694    -0.23564    -0.29665
  Kinetic  5207.01617  5212.90196  5370.48283    -0.46336    -0.84655    -0.62008
  Fock        0.00000     0.00000     0.00000     0.00000     0.00000     0.00000
  -------------------------------------------------------------------------------------
  Total     -32.91733   -32.82983     2.23001     0.00389     0.23192     0.00232
  in kB     -34.01480   -33.92439     2.30436     0.00402     0.23965     0.00239
  external pressure =      -21.88 kB  Pullay stress =        0.00 kB


 VOLUME and BASIS-vectors are now :
 -----------------------------------------------------------------------------
  energy-cutoff  :      680.29
  volume of cell :     1550.48
      direct lattice vectors                 reciprocal lattice vectors
     8.468310000  0.000000000  0.000000000     0.118087316 -0.068177744  0.000000000
     4.234155000  7.333771587  0.000000000     0.000000000  0.136355488  0.000000000
     0.000000000  0.000000000 24.965661990     0.000000000  0.000000000  0.040055016

  length of vectors
     8.468310000  8.468310000 24.965661990     0.136355488  0.136355488  0.040055016


 FORCES acting on ions
    electron-ion (+dipol)            ewald-force                    non-local-force                 convergence-correction
 -----------------------------------------------------------------------------------------------
   -.355E+01 -.228E+01 0.248E+04   0.350E+01 0.225E+01 -.248E+04   0.895E-01 0.689E-01 -.130E+01   0.465E-01 -.944E-02 -.406E-01
   -.434E+00 -.409E+01 0.248E+04   0.454E+00 0.410E+01 -.247E+04   0.197E-01 0.985E-01 -.132E+01   -.232E-01 -.492E-01 -.209E-01
   0.343E+01 -.595E+01 0.248E+04   -.343E+01 0.589E+01 -.247E+04   -.300E-01 0.122E+00 -.130E+01   -.230E-01 0.208E-02 -.491E-01
   -.361E+01 0.148E+01 0.248E+04   0.359E+01 -.144E+01 -.247E+04   0.937E-01 -.242E-01 -.128E+01   -.216E-01 -.387E-01 -.353E-01
   -.118E+00 -.174E+00 0.247E+04   0.118E+00 0.177E+00 -.247E+04   -.278E-02 0.436E-02 -.129E+01   0.159E-01 -.152E-01 -.503E-01
   0.355E+01 -.209E+01 0.247E+04   -.353E+01 0.205E+01 -.247E+04   -.732E-01 0.280E-01 -.131E+01   0.530E-02 0.236E-01 -.585E-01
   -.324E+01 0.616E+01 0.248E+04   0.319E+01 -.613E+01 -.247E+04   0.738E-01 -.101E+00 -.128E+01   0.215E-01 0.218E-01 -.561E-01
   0.382E-01 0.434E+01 0.247E+04   -.688E-01 -.436E+01 -.247E+04   -.209E-01 -.697E-01 -.131E+01   0.455E-01 0.423E-01 -.503E-01
   0.362E+01 0.235E+01 0.248E+04   -.352E+01 -.235E+01 -.247E+04   -.990E-01 -.540E-01 -.128E+01   -.675E-01 0.233E-01 -.448E-01
   -.475E+01 -.502E+01 0.835E+03   0.465E+01 0.506E+01 -.834E+03   0.125E+00 0.897E-01 -.289E+00   0.246E-01 -.430E-01 -.179E+00
   0.150E+01 -.682E+01 0.835E+03   -.140E+01 0.685E+01 -.835E+03   -.443E-01 0.108E+00 -.288E+00   -.492E-01 -.455E-01 -.173E+00
   0.297E+01 -.735E+01 0.833E+03   -.298E+01 0.730E+01 -.833E+03   -.774E-01 0.151E+00 -.292E+00   0.239E-01 -.146E-01 -.176E+00
   -.333E+01 0.351E+01 0.834E+03   0.334E+01 -.349E+01 -.833E+03   0.613E-01 -.266E-01 -.281E+00   -.117E-01 -.319E-01 -.162E+00
   0.231E+01 0.145E+01 0.837E+03   -.231E+01 -.151E+01 -.837E+03   -.460E-01 0.195E-01 -.332E+00   0.106E-01 0.220E-01 -.215E+00
   0.136E+01 -.103E+00 0.835E+03   -.135E+01 0.579E-01 -.834E+03   -.728E-01 0.505E-01 -.301E+00   0.246E-02 0.194E-02 -.199E+00
   -.230E+01 0.716E+01 0.835E+03   0.225E+01 -.713E+01 -.835E+03   0.374E-01 -.176E+00 -.311E+00   0.483E-01 0.406E-01 -.181E+00
   0.499E+00 0.311E+01 0.838E+03   -.477E+00 -.313E+01 -.837E+03   -.385E-01 -.101E+00 -.375E+00   -.894E-02 0.512E-01 -.215E+00
   0.270E+01 0.375E+01 0.834E+03   -.262E+01 -.370E+01 -.833E+03   -.119E+00 -.124E+00 -.282E+00   -.386E-01 0.194E-01 -.156E+00
   -.480E-01 -.271E+00 -.825E+03   0.180E+00 0.463E+00 0.825E+03   -.153E+00 -.140E+00 0.245E+00   0.252E-01 -.557E-01 -.216E+00
   -.556E+00 -.381E+01 -.835E+03   0.559E+00 0.391E+01 0.835E+03   0.257E-02 -.456E-01 0.493E+00   -.496E-02 -.566E-01 -.204E+00
   0.464E+00 -.419E+00 -.821E+03   -.601E+00 0.615E+00 0.821E+03   0.149E+00 -.126E+00 0.263E+00   -.167E-01 -.713E-01 -.173E+00
   -.221E+01 0.342E+01 -.830E+03   0.224E+01 -.352E+01 0.829E+03   -.348E-01 0.640E-01 0.459E+00   0.654E-02 0.300E-01 -.197E+00
   0.234E+01 0.400E+01 -.827E+03   -.234E+01 -.409E+01 0.827E+03   0.359E-01 0.721E-01 0.458E+00   -.251E-01 0.277E-01 -.183E+00
   0.224E+00 0.198E+01 -.811E+03   -.241E+00 -.207E+01 0.810E+03   0.103E-01 0.481E-01 0.526E+00   0.118E-01 0.479E-01 -.201E+00
   0.195E+00 -.992E+00 -.817E+03   -.187E+00 0.952E+00 0.817E+03   0.663E-02 0.165E-01 0.460E+00   -.852E-02 0.141E-01 -.163E+00
   0.243E+00 -.114E+01 -.812E+03   -.268E+00 0.113E+01 0.812E+03   0.192E-01 -.280E-01 0.497E+00   0.931E-02 0.374E-01 -.202E+00
   -.643E+00 -.160E+01 -.812E+03   0.660E+00 0.160E+01 0.812E+03   -.739E-02 -.214E-01 0.495E+00   -.687E-02 0.261E-01 -.184E+00
   0.129E+00 0.347E+00 -.246E+04   -.977E-01 -.306E+00 0.245E+04   -.130E-01 -.483E-02 0.115E+01   -.142E-01 -.347E-01 -.729E-01
   -.341E+00 -.123E+01 -.245E+04   0.299E+00 0.848E+00 0.245E+04   0.272E-01 0.401E+00 0.130E+01   0.196E-01 -.211E-01 -.792E-01
   -.352E+00 0.339E+00 -.245E+04   0.307E+00 -.322E+00 0.245E+04   0.555E-01 -.273E-02 0.115E+01   -.479E-02 -.111E-01 -.793E-01
   0.176E+02 0.416E+01 -.246E+04   -.176E+02 -.412E+01 0.246E+04   -.909E-01 -.376E-01 -.803E-01   0.328E-01 -.234E-01 -.557E-01
   -.169E+02 0.343E+01 -.246E+04   0.170E+02 -.341E+01 0.246E+04   -.149E-01 0.159E-01 -.114E-01   0.365E-02 -.361E-01 -.620E-01
   0.264E+00 -.613E+00 -.245E+04   -.233E+00 0.645E+00 0.245E+04   -.376E-02 0.126E-02 0.117E+01   -.287E-01 -.389E-01 -.461E-01
   -.401E+00 -.206E+01 -.245E+04   0.383E+00 0.342E+01 0.245E+04   0.209E-01 -.141E+01 0.142E+01   0.303E-02 0.465E-01 -.701E-01
   0.134E+01 0.151E+01 -.245E+04   -.124E+01 -.147E+01 0.245E+04   -.931E-01 -.885E-01 0.121E+01   -.261E-03 0.478E-01 -.551E-01
   -.148E+01 0.102E+01 -.245E+04   0.136E+01 -.102E+01 0.245E+04   0.141E+00 -.721E-01 0.121E+01   -.215E-02 0.731E-01 -.664E-01
   -.402E+00 -.573E+01 -.310E+03   0.443E+00 0.627E+01 0.311E+03   -.335E-01 -.495E+00 -.153E+01   0.468E-02 -.516E-03 0.524E-02
 -----------------------------------------------------------------------------------------------
   0.728E-01 0.177E+01 0.791E+01   -.302E-13 0.959E-13 0.307E-11   -.992E-01 -.178E+01 -.354E+01   0.512E-02 0.156E-02 -.437E+01
 
 
 POSITION                                       TOTAL-FORCE (eV/Angst)
 -----------------------------------------------------------------------------------
      0.00000      0.00000      8.50000         0.083137      0.026476     -0.151858
      2.82843      0.00000      8.50000         0.017009      0.053189     -0.097766
      5.65685      0.00000      8.50000        -0.048456      0.060700     -0.144804
      1.41421      2.44949      8.50000         0.048604     -0.024297     -0.079204
      4.24264      2.44949      8.50000         0.014349     -0.006656     -0.053639
      7.07107      2.44949      8.50000        -0.041346      0.011769     -0.074539
      2.82843      4.89898      8.50000         0.048970     -0.049889     -0.113667
      5.65685      4.89898      8.50000        -0.005459     -0.043259     -0.083783
      8.48528      4.89898      8.50000        -0.061179     -0.035198     -0.098026
      1.41421      0.81650     10.80940         0.053698      0.079737      0.116553
      4.24264      0.81650     10.80940         0.011446      0.100386      0.106702
      7.07107      0.81650     10.80940        -0.065665      0.086693      0.017647
      2.82843      3.26599     10.80940         0.055876     -0.039733      0.197733
      5.65685      3.26599     10.80940        -0.033139     -0.019344      0.094414
      8.48528      3.26599     10.80940        -0.056755      0.007186      0.133423
      4.24264      5.71548     10.80940         0.030732     -0.108395      0.077365
      7.07107      5.71548     10.80940        -0.024539     -0.074860      0.055232
      9.89949      5.71548     10.80940        -0.078348     -0.054550      0.106083
      8.48271      1.64750     13.10760         0.004864     -0.003254      0.014212
      2.82813      1.64264     13.11937         0.001744     -0.002357     -0.015658
      5.64382      1.64438     13.10384        -0.004074      0.000181      0.004992
      9.89050      4.08023     13.10987        -0.002383     -0.001897     -0.000635
      4.23800      4.07912     13.10761         0.008707      0.005269     -0.006250
      7.06291      4.08170     13.08652         0.005764      0.005940      0.005842
     11.29836      6.53026     13.09324         0.006202     -0.008982      0.008180
      5.64986      6.52750     13.08737         0.004361     -0.001304      0.007578
      8.47648      6.52673     13.08791         0.003534      0.003678     -0.001987
      8.46888      0.00380     15.42367         0.004197      0.001332     -0.000283
      7.05618      7.31566     15.41451         0.006032     -0.002335      0.001742
      5.64465      0.00256     15.42257         0.006346      0.003775      0.000227
      9.85337      2.43678     15.49187        -0.041958     -0.023970     -0.033727
      4.26801      2.43370     15.48627         0.009885     -0.001335     -0.014001
      7.05910      2.45162     15.42388        -0.000645     -0.005450     -0.007834
     11.29135      4.93367     15.43615         0.006270      0.007486      0.004473
      5.65329      4.90086     15.41524         0.008495     -0.001318      0.005547
      8.45902      4.89994     15.41520         0.010184      0.003174      0.005924
      2.82306      2.93209     16.40967         0.013540      0.051413      0.013792
 -----------------------------------------------------------------------------------
    total drift:                               -0.021264     -0.010667      0.008068


--------------------------------------------------------------------------------------------------------



  FREE ENERGIE OF THE ION-ELECTRON SYSTEM (eV)
  ---------------------------------------------------
  free  energy   TOTEN  =      -104.57626253 eV

  energy  without entropy=     -104.47987888  energy(sigma->0) =     -104.54413465
 


--------------------------------------------------------------------------------------------------------


    POTLOK:  cpu time      2.3882: real time      2.4175


--------------------------------------------------------------------------------------------------------


 writing wavefunctions
     LOOP+:  cpu time    168.1728: real time    170.4263
    4ORBIT:  cpu time      0.0000: real time      0.0000

 total amount of memory used by VASP MPI-rank0   148549. kBytes
=======================================================================

   base      :      30000. kBytes
   nonlr-proj:      22476. kBytes
   fftplans  :       5213. kBytes
   grid      :      24541. kBytes
   one-center:        575. kBytes
   wavefun   :      65744. kBytes
 
  
  
 General timing and accounting informations for this job:
 ========================================================
  
                  Total CPU time used (sec):      180.998
                            User time (sec):      177.544
                          System time (sec):        3.454
                         Elapsed time (sec):      190.406
  
                   Maximum memory used (kb):      630236.
                   Average memory used (kb):          N/A
  
                          Minor page faults:       232875
                          Major page faults:          688
                 Voluntary context switches:         5648
