<?xml version="1.0" encoding="ISO-8859-1"?>
<modeling>
 <generator>
  <i name="program" type="string">vasp </i>
  <i name="version" type="string">6.4.2  </i>
  <i name="subversion" type="string">20Jul23 (build Mar 01 2024 16:46:03) complex                          parallel </i>
  <i name="platform" type="string">LinuxIFC </i>
  <i name="date" type="string">2025 01 15 </i>
  <i name="time" type="string">06:06:10 </i>
 </generator>
 <incar>
  <i type="string" name="ALGO">Fast</i>
  <i type="int" name="ISPIN">     1</i>
  <i type="int" name="IBRION">    -1</i>
  <i name="EDIFF">      0.00001000</i>
  <i type="int" name="ISYM">     0</i>
  <i name="ENCUT">    680.29000000</i>
  <i type="string" name="LREAL">Auto</i>
  <i type="int" name="ISMEAR">     1</i>
  <i name="SIGMA">      0.10000000</i>
  <i type="string" name="GGA">BF</i>
  <i type="logical" name="LUSE_VDW"> T  </i>
  <i name="Zab_VDW">     -1.88670000</i>
 </incar>
 <primitive_cell>
  <structure name="primitive_cell" >
   <crystal>
    <varray name="basis" >
     <v>       8.46831000       0.00000000       0.00000000 </v>
     <v>       4.23415500       7.33377159       0.00000000 </v>
     <v>       0.00000000       0.00000000      24.96566199 </v>
    </varray>
    <i name="volume">   1550.48373159 </i>
    <varray name="rec_basis" >
     <v>       0.11808732      -0.06817774       0.00000000 </v>
     <v>       0.00000000       0.13635549       0.00000000 </v>
     <v>       0.00000000       0.00000000       0.04005502 </v>
    </varray>
   </crystal>
   <varray name="positions" >
    <v>       0.00000000       0.00000000       0.34046764 </v>
    <v>       0.33400137       0.00000000       0.34046764 </v>
    <v>       0.66800274       0.00000000       0.34046764 </v>
    <v>       1.00000000       0.33400137       0.34046764 </v>
    <v>       0.33400137       0.33400137       0.34046764 </v>
    <v>       0.66800274       0.33400137       0.34046764 </v>
    <v>       1.00000000       0.66800274       0.34046764 </v>
    <v>       0.33400137       0.66800274       0.34046764 </v>
    <v>       0.66800274       0.66800274       0.34046764 </v>
    <v>       0.11133379       0.11133379       0.43297074 </v>
    <v>       0.44533516       0.11133379       0.43297074 </v>
    <v>       0.77933653       0.11133379       0.43297074 </v>
    <v>       0.11133379       0.44533516       0.43297074 </v>
    <v>       0.44533516       0.44533516       0.43297074 </v>
    <v>       0.77933653       0.44533516       0.43297074 </v>
    <v>       0.11133379       0.77933653       0.43297074 </v>
    <v>       0.44533516       0.77933653       0.43297074 </v>
    <v>       0.77933653       0.77933653       0.43297074 </v>
    <v>       0.88937723       0.22464561       0.52502500 </v>
    <v>       0.22197502       0.22398340       0.52549664 </v>
    <v>       0.55435298       0.22422065       0.52487439 </v>
    <v>       0.88976223       0.55636186       0.52511596 </v>
    <v>       0.22234896       0.55621072       0.52502544 </v>
    <v>       0.55575891       0.55656222       0.52418085 </v>
    <v>       0.88897528       0.89043618       0.52444990 </v>
    <v>       0.22214585       0.89006107       0.52421476 </v>
    <v>       0.55598742       0.88995493       0.52423650 </v>
    <v>       0.99980850       0.00051834       0.61779528 </v>
    <v>       0.33448031       0.99753026       0.61742826 </v>
    <v>       0.66638679       0.00034864       0.61775135 </v>
    <v>       0.99742460       0.33226787       0.62052692 </v>
    <v>       0.33807410       0.33184857       0.62030268 </v>
    <v>       0.66644408       0.33429204       0.61780365 </v>
    <v>       0.99699904       0.67273247       0.61829515 </v>
    <v>       0.33345195       0.66825902       0.61745771 </v>
    <v>       0.66483639       0.66813337       0.61745597 </v>
    <v>       0.13346414       0.39980622       0.65728943 </v>
   </varray>
  </structure>
  <varray name="primitive_index" >
   <v type="int" >        1 </v>
   <v type="int" >        2 </v>
   <v type="int" >        3 </v>
   <v type="int" >        4 </v>
   <v type="int" >        5 </v>
   <v type="int" >        6 </v>
   <v type="int" >        7 </v>
   <v type="int" >        8 </v>
   <v type="int" >        9 </v>
   <v type="int" >       10 </v>
   <v type="int" >       11 </v>
   <v type="int" >       12 </v>
   <v type="int" >       13 </v>
   <v type="int" >       14 </v>
   <v type="int" >       15 </v>
   <v type="int" >       16 </v>
   <v type="int" >       17 </v>
   <v type="int" >       18 </v>
   <v type="int" >       19 </v>
   <v type="int" >       20 </v>
   <v type="int" >       21 </v>
   <v type="int" >       22 </v>
   <v type="int" >       23 </v>
   <v type="int" >       24 </v>
   <v type="int" >       25 </v>
   <v type="int" >       26 </v>
   <v type="int" >       27 </v>
   <v type="int" >       28 </v>
   <v type="int" >       29 </v>
   <v type="int" >       30 </v>
   <v type="int" >       31 </v>
   <v type="int" >       32 </v>
   <v type="int" >       33 </v>
   <v type="int" >       34 </v>
   <v type="int" >       35 </v>
   <v type="int" >       36 </v>
   <v type="int" >       37 </v>
  </varray>
 </primitive_cell>
 <kpoints>
  <generation param="Monkhorst-Pack">
   <v type="int" name="divisions">       5        5        1 </v>
   <v name="usershift">      0.00000000       0.00000000       0.00000000 </v>
   <v name="genvec1">      0.20000000      -0.00000000       0.00000000 </v>
   <v name="genvec2">      0.00000000       0.20000000       0.00000000 </v>
   <v name="genvec3">      0.00000000       0.00000000       1.00000000 </v>
   <v name="shift">      0.00000000       0.00000000       0.00000000 </v>
  </generation>
  <varray name="kpointlist" >
   <v>       0.00000000       0.00000000       0.00000000 </v>
   <v>       0.20000000       0.00000000       0.00000000 </v>
   <v>       0.20000000       0.20000000       0.00000000 </v>
   <v>       0.00000000       0.20000000       0.00000000 </v>
   <v>       0.40000000       0.00000000       0.00000000 </v>
   <v>       0.40000000       0.40000000       0.00000000 </v>
   <v>       0.00000000       0.40000000       0.00000000 </v>
   <v>       0.40000000       0.20000000       0.00000000 </v>
   <v>       0.20000000       0.40000000       0.00000000 </v>
   <v>      -0.20000000       0.20000000       0.00000000 </v>
   <v>      -0.40000000       0.20000000       0.00000000 </v>
   <v>       0.40000000      -0.40000000       0.00000000 </v>
   <v>      -0.20000000       0.40000000       0.00000000 </v>
  </varray>
  <varray name="weights" >
   <v>       0.04000000 </v>
   <v>       0.08000000 </v>
   <v>       0.08000000 </v>
   <v>       0.08000000 </v>
   <v>       0.08000000 </v>
   <v>       0.08000000 </v>
   <v>       0.08000000 </v>
   <v>       0.08000000 </v>
   <v>       0.08000000 </v>
   <v>       0.08000000 </v>
   <v>       0.08000000 </v>
   <v>       0.08000000 </v>
   <v>       0.08000000 </v>
  </varray>
 </kpoints>
 <parameters>
  <separator name="general" >
   <i type="string" name="SYSTEM">unknown system</i>
   <i type="logical" name="LCOMPAT"> F  </i>
  </separator>
  <separator name="electronic" >
   <i type="string" name="PREC">normal</i>
   <i name="ENMAX">    680.29000000</i>
   <i name="ENAUG">    400.00000000</i>
   <i name="EDIFF">      0.00001000</i>
   <i type="int" name="IALGO">    68</i>
   <i type="int" name="IWAVPR">    10</i>
   <i type="int" name="NBANDS">   240</i>
   <i type="int" name="NBANDSLOW">    -1</i>
   <i type="int" name="NBANDSHIGH">    -1</i>
   <i name="NELECT">    361.00000000</i>
   <i type="int" name="TURBO">     0</i>
   <i type="int" name="IRESTART">     0</i>
   <i type="int" name="NREBOOT">     0</i>
   <i type="int" name="NMIN">     0</i>
   <i name="EREF">      0.00000000</i>
   <separator name="electronic smearing" >
    <i type="int" name="ISMEAR">     1</i>
    <i name="SIGMA">      0.10000000</i>
    <i name="KSPACING">      0.50000000</i>
    <i type="logical" name="KGAMMA"> T  </i>
    <i type="logical" name="KBLOWUP"> T  </i>
   </separator>
   <separator name="electronic projectors" >
    <i type="logical" name="LREAL"> T  </i>
    <v name="ROPT">     -0.00050000     -0.00050000</v>
    <i type="int" name="LMAXPAW">  -100</i>
    <i type="int" name="LMAXMIX">     2</i>
    <i type="logical" name="NLSPLINE"> F  </i>
   </separator>
   <separator name="electronic startup" >
    <i type="int" name="ISTART">     1</i>
    <i type="int" name="ICHARG">     0</i>
    <i type="int" name="INIWAV">     1</i>
   </separator>
   <separator name="electronic spin" >
    <i type="int" name="ISPIN">     1</i>
    <i type="logical" name="LNONCOLLINEAR"> F  </i>
    <v name="MAGMOM">      1.00000000      1.00000000      1.00000000      1.00000000      1.00000000      1.00000000      1.00000000      1.00000000      1.00000000      1.00000000      1.00000000      1.00000000      1.00000000      1.00000000      1.00000000      1.00000000      1.00000000      1.00000000      1.00000000      1.00000000
      1.00000000      1.00000000      1.00000000      1.00000000      1.00000000      1.00000000      1.00000000      1.00000000      1.00000000      1.00000000      1.00000000      1.00000000      1.00000000      1.00000000      1.00000000      1.00000000      1.00000000</v>
    <i name="NUPDOWN">     -1.00000000</i>
    <i type="logical" name="LSORBIT"> F  </i>
    <v name="SAXIS">      0.00000000      0.00000000      1.00000000</v>
    <i type="logical" name="LSPIRAL"> F  </i>
    <v name="QSPIRAL">      0.00000000      0.00000000      0.00000000</v>
    <i type="logical" name="LZEROZ"> F  </i>
   </separator>
   <separator name="electronic exchange-correlation" >
    <i type="logical" name="LASPH"> F  </i>
    <i type="logical" name="LMETAGGA"> F  </i>
   </separator>
   <separator name="electronic convergence" >
    <i type="int" name="NELM">    60</i>
    <i type="int" name="NELMDL">     0</i>
    <i type="int" name="NELMIN">     2</i>
    <i name="ENINI">    680.29000000</i>
    <separator name="electronic convergence detail" >
     <i type="logical" name="LDIAG"> T  </i>
     <i type="logical" name="LSUBROT"> F  </i>
     <i name="WEIMIN">      0.00000000</i>
     <i name="EBREAK">      0.00000001</i>
     <i name="DEPER">      0.30000000</i>
     <i type="int" name="NRMM">     4</i>
     <i name="TIME">      0.40000000</i>
    </separator>
   </separator>
   <separator name="electronic mixer" >
    <i name="AMIX">      0.40000000</i>
    <i name="BMIX">      1.00000000</i>
    <i name="AMIN">      0.10000000</i>
    <i name="AMIX_MAG">      1.60000000</i>
    <i name="BMIX_MAG">      1.00000000</i>
    <separator name="electronic mixer details" >
     <i type="int" name="IMIX">     4</i>
     <i type="logical" name="MIXFIRST"> F  </i>
     <i type="int" name="MAXMIX">   -45</i>
     <i name="WC">    100.00000000</i>
     <i type="int" name="INIMIX">     1</i>
     <i type="int" name="MIXPRE">     1</i>
     <i type="int" name="MREMOVE">     5</i>
    </separator>
   </separator>
   <separator name="electronic dipolcorrection" >
    <i type="logical" name="LDIPOL"> F  </i>
    <i type="logical" name="LMONO"> F  </i>
    <i type="int" name="IDIPOL">     0</i>
    <i name="EPSILON">      1.00000000</i>
    <v name="DIPOL">   -100.00000000   -100.00000000   -100.00000000</v>
    <i name="EFIELD">      0.00000000</i>
   </separator>
  </separator>
  <separator name="grids" >
   <i type="int" name="NGX">    54</i>
   <i type="int" name="NGY">    54</i>
   <i type="int" name="NGZ">   160</i>
   <i type="int" name="NGXF">   108</i>
   <i type="int" name="NGYF">   108</i>
   <i type="int" name="NGZF">   320</i>
   <i type="logical" name="ADDGRID"> F  </i>
  </separator>
  <separator name="ionic" >
   <i type="int" name="NSW">     0</i>
   <i type="int" name="IBRION">    -1</i>
   <i type="int" name="MDALGO">     0</i>
   <i type="int" name="ISIF">     2</i>
   <i name="PSTRESS">      0.00000000</i>
   <i name="EDIFFG">      0.00010000</i>
   <i type="int" name="NFREE">     0</i>
   <i name="POTIM">      0.50000000</i>
   <i name="SMASS">     -3.00000000</i>
   <i name="SCALEE">      1.00000000</i>
  </separator>
  <separator name="ionic md" >
   <i name="TEBEG">      0.00010000</i>
   <i name="TEEND">      0.00010000</i>
   <i type="int" name="NBLOCK">     1</i>
   <i type="int" name="KBLOCK">     1</i>
   <i type="int" name="NPACO">   256</i>
   <i name="APACO">     10.00000000</i>
  </separator>
  <separator name="symmetry" >
   <i type="int" name="ISYM">     0</i>
   <i name="SYMPREC">      0.00001000</i>
  </separator>
  <separator name="dos" >
   <i type="int" name="LORBIT">     0</i>
   <v name="RWIGS">     -1.00000000     -1.00000000</v>
   <i type="int" name="NEDOS">   301</i>
   <i name="EMIN">     10.00000000</i>
   <i name="EMAX">    -10.00000000</i>
   <i name="EFERMI">      0.00000000</i>
  </separator>
  <separator name="writing" >
   <i type="int" name="NWRITE">     2</i>
   <i type="logical" name="LWAVE"> T  </i>
   <i type="logical" name="LDOWNSAMPLE"> F  </i>
   <i type="logical" name="LCHARG"> T  </i>
   <i type="logical" name="LPARD"> F  </i>
   <i type="logical" name="LVTOT"> F  </i>
   <i type="logical" name="LVHAR"> F  </i>
   <i type="logical" name="LELF"> F  </i>
   <i type="logical" name="LOPTICS"> F  </i>
   <v name="STM">      0.00000000      0.00000000      0.00000000      0.00000000      0.00000000      0.00000000      0.00000000</v>
  </separator>
  <separator name="performance" >
   <i type="int" name="NPAR">    48</i>
   <i type="int" name="NSIM">     4</i>
   <i type="int" name="NBLK">    -1</i>
   <i type="logical" name="LPLANE"> T  </i>
   <i type="logical" name="LSCALAPACK"> T  </i>
   <i type="logical" name="LSCAAWARE"> F  </i>
   <i type="logical" name="LSCALU"> F  </i>
   <i type="logical" name="LASYNC"> F  </i>
   <i type="logical" name="LORBITALREAL"> F  </i>
  </separator>
  <separator name="miscellaneous" >
   <i type="int" name="IDIOT">     3</i>
   <i type="int" name="PHON_NSTRUCT">    -1</i>
   <i type="logical" name="LMUSIC"> F  </i>
   <v name="POMASS">    195.08000000      1.00000000</v>
   <v name="DARWINR">      0.00000000      0.00000000</v>
   <v name="DARWINV">      1.00000000      1.00000000</v>
   <i type="logical" name="LCORR"> T  </i>
  </separator>
  <i type="logical" name="GGA_COMPAT"> T  </i>
  <i type="logical" name="LBERRY"> F  </i>
  <i type="int" name="ICORELEVEL">     0</i>
  <i type="logical" name="LDAU"> F  </i>
  <i type="int" name="I_CONSTRAINED_M">     0</i>
  <separator name="electronic exchange-correlation" >
   <i type="string" name="GGA">BF</i>
   <i type="int" name="VOSKOWN">     0</i>
   <i type="logical" name="LHFCALC"> F  </i>
   <i type="string" name="PRECFOCK"></i>
   <i type="logical" name="LSYMGRAD"> F  </i>
   <i type="logical" name="LHFONE"> F  </i>
   <i type="logical" name="LRHFCALC"> F  </i>
   <i type="logical" name="LTHOMAS"> F  </i>
   <i type="logical" name="LMODELHF"> F  </i>
   <i type="logical" name="LFOCKACE"> F  </i>
   <i name="ENCUT4O">     -1.00000000</i>
   <i type="int" name="EXXOEP">     0</i>
   <i type="int" name="FOURORBIT">     0</i>
   <i name="AEXX">      0.00000000</i>
   <i name="HFALPHA">      0.00000000</i>
   <i name="MCALPHA">      0.00000000</i>
   <i name="ALDAX">      1.00000000</i>
   <i name="AGGAX">      1.00000000</i>
   <i name="ALDAC">      1.00000000</i>
   <i name="AGGAC">      1.00000000</i>
   <i type="int" name="NKREDX">     1</i>
   <i type="int" name="NKREDY">     1</i>
   <i type="int" name="NKREDZ">     1</i>
   <i type="logical" name="SHIFTRED"> F  </i>
   <i type="logical" name="ODDONLY"> F  </i>
   <i type="logical" name="EVENONLY"> F  </i>
   <i type="int" name="LMAXFOCK">     0</i>
   <i type="int" name="NMAXFOCKAE">     0</i>
   <i type="logical" name="LFOCKAEDFT"> F  </i>
   <i name="HFSCREEN">      0.00000000</i>
   <i name="HFSCREENC">      0.00000000</i>
   <i type="int" name="NBANDSGWLOW">     0</i>
  </separator>
  <separator name="vdW DFT" >
   <i type="logical" name="LUSE_VDW"> T  </i>
   <i type="int" name="IVDW_NL">     1</i>
   <i type="logical" name="LSPIN_VDW"> F  </i>
   <i name="Zab_VDW">     -1.88670000</i>
   <i name="PARAM1">      0.12340000</i>
   <i name="PARAM2">      1.00000000</i>
   <i name="PARAM3">      0.00000000</i>
  </separator>
  <separator name="model GW" >
   <i type="int" name="MODEL_GW">     0</i>
   <i name="MODEL_EPS0">     25.14297943</i>
   <i name="MODEL_ALPHA">      1.00000000</i>
  </separator>
  <separator name="linear response parameters" >
   <i type="logical" name="LEPSILON"> F  </i>
   <i type="logical" name="LRPA"> F  </i>
   <i type="logical" name="LNABLA"> F  </i>
   <i type="logical" name="LVEL"> F  </i>
   <i name="CSHIFT">      0.10000000</i>
   <i name="OMEGAMAX">     -1.00000000</i>
   <i name="DEG_THRESHOLD">      0.00200000</i>
   <i name="RTIME">     -0.10000000</i>
   <i name="WPLASMAI">      0.00000000</i>
   <v name="DFIELD">      0.00000000      0.00000000      0.00000000</v>
   <v name="WPLASMA">      0.00000000      0.00000000      0.00000000      0.00000000      0.00000000      0.00000000      0.00000000      0.00000000      0.00000000</v>
  </separator>
  <separator name="orbital magnetization" >
   <i type="logical" name="NUCIND"> F  </i>
   <v name="MAGPOS">      0.00000000      0.00000000      0.00000000</v>
   <i type="logical" name="LNICSALL"> T  </i>
   <i type="logical" name="ORBITALMAG"> F  </i>
   <i type="logical" name="LMAGBLOCH"> F  </i>
   <i type="logical" name="LCHIMAG"> F  </i>
   <i type="logical" name="LGAUGE"> T  </i>
   <i type="int" name="MAGATOM">     0</i>
   <v name="MAGDIPOL">      0.00000000      0.00000000      0.00000000</v>
   <v name="AVECCONST">      0.00000000      0.00000000      0.00000000</v>
  </separator>
  <separator name="response functions" >
   <i type="logical" name="LALL_IN_ONE"> F  </i>
   <i type="int" name="IALL_IN_ONE">    -1</i>
   <i type="int" name="NBANDS_WAVE">    -1</i>
   <i type="logical" name="LFINITE_TEMPERATURE"> F  </i>
   <i type="logical" name="LADDER"> F  </i>
   <i type="logical" name="LRPAFORCE"> F  </i>
   <i type="logical" name="LFXC"> F  </i>
   <i type="logical" name="LHARTREE"> T  </i>
   <i type="int" name="IBSE">     0</i>
   <v type="int" name="KPOINT">    -1     0     0     0</v>
   <i type="logical" name="LTCTC"> F  </i>
   <i type="logical" name="LTCTE"> F  </i>
   <i type="logical" name="LTETE"> F  </i>
   <i type="logical" name="LTRIPLET"> F  </i>
   <i type="logical" name="LFXCEPS"> F  </i>
   <i type="logical" name="LFXHEG"> F  </i>
   <i type="int" name="NATURALO">     2</i>
   <i type="logical" name="LHOLEGF"> F  </i>
   <i type="logical" name="L2ORDER"> F  </i>
   <i type="logical" name="LDMP1"> F  </i>
   <i type="logical" name="LMP2LT"> F  </i>
   <i type="logical" name="LSMP2LT"> F  </i>
   <i type="logical" name="LGWLF"> F  </i>
   <i name="ENCUTGW">     -1.60000002</i>
   <i name="ENCUTGWSOFT">     -1.60000002</i>
   <i name="ENCUTLF">     -1.00000000</i>
   <i type="logical" name="LESF_SPLINES"> F  </i>
   <i type="int" name="LMAXMP2">    -1</i>
   <i name="SCISSOR">      0.00000000</i>
   <i type="int" name="NOMEGA">     0</i>
   <i type="int" name="NOMEGAR">     0</i>
   <i type="int" name="NBANDSGW">    -1</i>
   <i type="int" name="NBANDSO">    -1</i>
   <i type="int" name="NBANDSV">    -1</i>
   <i type="int" name="NELMGW">     1</i>
   <i type="int" name="NELMHF">     1</i>
   <i type="int" name="DIM">     3</i>
   <i type="int" name="IESPILON">     4</i>
   <i type="int" name="ANTIRES">     0</i>
   <i name="OMEGAMAX">    -30.00000000</i>
   <i name="OMEGAMIN">    -30.00000000</i>
   <i name="OMEGATL">   -200.00000000</i>
   <i type="int" name="OMEGAGRID">     0</i>
   <i name="CSHIFT">     -0.10000000</i>
   <i type="logical" name="LSELFENERGY"> F  </i>
   <i type="logical" name="LSPECTRAL"> F  </i>
   <i type="logical" name="LSPECTRALGW"> F  </i>
   <i type="logical" name="LSINGLES"> F  </i>
   <i type="logical" name="LFERMIGW"> F  </i>
   <i type="logical" name="ODDONLYGW"> F  </i>
   <i type="logical" name="EVENONLYGW"> F  </i>
   <i type="int" name="NKREDLFX">     1</i>
   <i type="int" name="NKREDLFY">     1</i>
   <i type="int" name="NKREDLFZ">     1</i>
   <i type="int" name="MAXMEM">  2800</i>
   <i type="int" name="TELESCOPE">     0</i>
   <i type="int" name="NTAUPAR">    -1</i>
   <i type="int" name="NOMEGAPAR">    -1</i>
   <i name="DAMP_NEWTON">      0.80000001</i>
   <i name="LAMBDA">      1.00000000</i>
  </separator>
  <separator name="External order field" >
   <i name="OFIELD_KAPPA">      0.00000000</i>
   <v name="OFIELD_K">      0.00000000      0.00000000      0.00000000</v>
   <i name="OFIELD_Q6_NEAR">      0.00000000</i>
   <i name="OFIELD_Q6_FAR">      0.00000000</i>
   <i name="OFIELD_A">      0.00000000</i>
  </separator>
  <separator name="optional k-points parameters" >
   <i type="int" name="KPOINTS_OPT_MODE">     1</i>
   <i type="logical" name="LKPOINTS_OPT"> F  </i>
  </separator>
 </parameters>
 <atominfo>
  <atoms>      37 </atoms>
  <types>       2 </types>
  <array name="atoms" >
   <dimension dim="1">ion</dimension>
   <field type="string">element</field>
   <field type="int">atomtype</field>
   <set>
    <rc><c>Pt</c><c>   1</c></rc>
    <rc><c>Pt</c><c>   1</c></rc>
    <rc><c>Pt</c><c>   1</c></rc>
    <rc><c>Pt</c><c>   1</c></rc>
    <rc><c>Pt</c><c>   1</c></rc>
    <rc><c>Pt</c><c>   1</c></rc>
    <rc><c>Pt</c><c>   1</c></rc>
    <rc><c>Pt</c><c>   1</c></rc>
    <rc><c>Pt</c><c>   1</c></rc>
    <rc><c>Pt</c><c>   1</c></rc>
    <rc><c>Pt</c><c>   1</c></rc>
    <rc><c>Pt</c><c>   1</c></rc>
    <rc><c>Pt</c><c>   1</c></rc>
    <rc><c>Pt</c><c>   1</c></rc>
    <rc><c>Pt</c><c>   1</c></rc>
    <rc><c>Pt</c><c>   1</c></rc>
    <rc><c>Pt</c><c>   1</c></rc>
    <rc><c>Pt</c><c>   1</c></rc>
    <rc><c>Pt</c><c>   1</c></rc>
    <rc><c>Pt</c><c>   1</c></rc>
    <rc><c>Pt</c><c>   1</c></rc>
    <rc><c>Pt</c><c>   1</c></rc>
    <rc><c>Pt</c><c>   1</c></rc>
    <rc><c>Pt</c><c>   1</c></rc>
    <rc><c>Pt</c><c>   1</c></rc>
    <rc><c>Pt</c><c>   1</c></rc>
    <rc><c>Pt</c><c>   1</c></rc>
    <rc><c>Pt</c><c>   1</c></rc>
    <rc><c>Pt</c><c>   1</c></rc>
    <rc><c>Pt</c><c>   1</c></rc>
    <rc><c>Pt</c><c>   1</c></rc>
    <rc><c>Pt</c><c>   1</c></rc>
    <rc><c>Pt</c><c>   1</c></rc>
    <rc><c>Pt</c><c>   1</c></rc>
    <rc><c>Pt</c><c>   1</c></rc>
    <rc><c>Pt</c><c>   1</c></rc>
    <rc><c>H </c><c>   2</c></rc>
   </set>
  </array>
  <array name="atomtypes" >
   <dimension dim="1">type</dimension>
   <field type="int">atomspertype</field>
   <field type="string">element</field>
   <field>mass</field>
   <field>valence</field>
   <field type="string">pseudopotential</field>
   <set>
    <rc><c>  36</c><c>Pt</c><c>    195.08000000</c><c>     10.00000000</c><c>  PAW_PBE Pt 04Feb2005                  </c></rc>
    <rc><c>   1</c><c>H </c><c>      1.00000000</c><c>      1.00000000</c><c>  PAW_PBE H 15Jun2001                   </c></rc>
   </set>
  </array>
 </atominfo>
 <structure name="initialpos" >
  <crystal>
   <varray name="basis" >
    <v>       8.46831000       0.00000000       0.00000000 </v>
    <v>       4.23415500       7.33377159       0.00000000 </v>
    <v>       0.00000000       0.00000000      24.96566199 </v>
   </varray>
   <i name="volume">   1550.48373159 </i>
   <varray name="rec_basis" >
    <v>       0.11808732      -0.06817774       0.00000000 </v>
    <v>       0.00000000       0.13635549       0.00000000 </v>
    <v>       0.00000000       0.00000000       0.04005502 </v>
   </varray>
  </crystal>
  <varray name="positions" >
   <v>       0.00000000       0.00000000       0.34046764 </v>
   <v>       0.33400137       0.00000000       0.34046764 </v>
   <v>       0.66800274       0.00000000       0.34046764 </v>
   <v>       0.00000000       0.33400137       0.34046764 </v>
   <v>       0.33400137       0.33400137       0.34046764 </v>
   <v>       0.66800274       0.33400137       0.34046764 </v>
   <v>       0.00000000       0.66800274       0.34046764 </v>
   <v>       0.33400137       0.66800274       0.34046764 </v>
   <v>       0.66800274       0.66800274       0.34046764 </v>
   <v>       0.11133379       0.11133379       0.43297074 </v>
   <v>       0.44533516       0.11133379       0.43297074 </v>
   <v>       0.77933653       0.11133379       0.43297074 </v>
   <v>       0.11133379       0.44533516       0.43297074 </v>
   <v>       0.44533516       0.44533516       0.43297074 </v>
   <v>       0.77933653       0.44533516       0.43297074 </v>
   <v>       0.11133379       0.77933653       0.43297074 </v>
   <v>       0.44533516       0.77933653       0.43297074 </v>
   <v>       0.77933653       0.77933653       0.43297074 </v>
   <v>       0.88937723       0.22464561       0.52502500 </v>
   <v>       0.22197502       0.22398340       0.52549664 </v>
   <v>       0.55435298       0.22422065       0.52487439 </v>
   <v>       0.88976223       0.55636186       0.52511596 </v>
   <v>       0.22234896       0.55621072       0.52502544 </v>
   <v>       0.55575891       0.55656222       0.52418085 </v>
   <v>       0.88897528       0.89043618       0.52444990 </v>
   <v>       0.22214585       0.89006107       0.52421476 </v>
   <v>       0.55598742       0.88995493       0.52423650 </v>
   <v>       0.99980850       0.00051834       0.61779528 </v>
   <v>       0.33448031       0.99753026       0.61742826 </v>
   <v>       0.66638679       0.00034864       0.61775135 </v>
   <v>       0.99742460       0.33226787       0.62052692 </v>
   <v>       0.33807410       0.33184857       0.62030268 </v>
   <v>       0.66644408       0.33429204       0.61780365 </v>
   <v>       0.99699904       0.67273247       0.61829515 </v>
   <v>       0.33345195       0.66825902       0.61745771 </v>
   <v>       0.66483639       0.66813337       0.61745597 </v>
   <v>       0.13346414       0.39980622       0.65728943 </v>
  </varray>
  <varray name="selective"  type="logical" >
   <v type="logical" >  F  F  F </v>
   <v type="logical" >  F  F  F </v>
   <v type="logical" >  F  F  F </v>
   <v type="logical" >  F  F  F </v>
   <v type="logical" >  F  F  F </v>
   <v type="logical" >  F  F  F </v>
   <v type="logical" >  F  F  F </v>
   <v type="logical" >  F  F  F </v>
   <v type="logical" >  F  F  F </v>
   <v type="logical" >  F  F  F </v>
   <v type="logical" >  F  F  F </v>
   <v type="logical" >  F  F  F </v>
   <v type="logical" >  F  F  F </v>
   <v type="logical" >  F  F  F </v>
   <v type="logical" >  F  F  F </v>
   <v type="logical" >  F  F  F </v>
   <v type="logical" >  F  F  F </v>
   <v type="logical" >  F  F  F </v>
   <v type="logical" >  T  T  T </v>
   <v type="logical" >  T  T  T </v>
   <v type="logical" >  T  T  T </v>
   <v type="logical" >  T  T  T </v>
   <v type="logical" >  T  T  T </v>
   <v type="logical" >  T  T  T </v>
   <v type="logical" >  T  T  T </v>
   <v type="logical" >  T  T  T </v>
   <v type="logical" >  T  T  T </v>
   <v type="logical" >  T  T  T </v>
   <v type="logical" >  T  T  T </v>
   <v type="logical" >  T  T  T </v>
   <v type="logical" >  T  T  T </v>
   <v type="logical" >  T  T  T </v>
   <v type="logical" >  T  T  T </v>
   <v type="logical" >  T  T  T </v>
   <v type="logical" >  T  T  T </v>
   <v type="logical" >  T  T  T </v>
   <v type="logical" >  T  T  T </v>
  </varray>
  <nose>
   <v>      -3.00000000       0.00000000       0.00010000       0.00010000 </v>
  </nose>
 </structure>
 <calculation>
  <scstep>
   <time name="dav">   14.98   15.09</time>
   <time name="total">   18.70   18.85</time>
   <energy>
    <i name="alphaZ">    797.33612757 </i>
    <i name="ewald"> 132252.66860241 </i>
    <i name="hartreedc">-159658.16599652 </i>
    <i name="XCdc">     89.71272285 </i>
    <i name="pawpsdc">  32180.05323575 </i>
    <i name="pawaedc"> -31182.19986229 </i>
    <i name="eentropy">     -0.09483222 </i>
    <i name="bandstr">  -1080.70019579 </i>
    <i name="atom">  26496.80315902 </i>
    <i name="e_fr_energy">   -104.58703924 </i>
    <i name="e_wo_entrp">   -104.49220702 </i>
    <i name="e_0_energy">   -104.55542850 </i>
   </energy>
  </scstep>
  <scstep>
   <time name="diag">    3.38    3.41</time>
   <time name="diis">    8.29    8.35</time>
   <time name="orth">    0.57    0.57</time>
   <time name="total">   15.35   15.46</time>
   <energy>
    <i name="e_fr_energy">   -104.94458498 </i>
    <i name="e_wo_entrp">   -104.85883126 </i>
    <i name="e_0_energy">   -104.91600041 </i>
   </energy>
  </scstep>
  <scstep>
   <time name="diag">    2.73    2.75</time>
   <time name="diis">    8.58    8.65</time>
   <time name="orth">    0.66    0.67</time>
   <time name="total">   15.12   15.32</time>
   <energy>
    <i name="e_fr_energy">   -104.61614874 </i>
    <i name="e_wo_entrp">   -104.51876030 </i>
    <i name="e_0_energy">   -104.58368593 </i>
   </energy>
  </scstep>
  <scstep>
   <time name="diag">    3.18    3.20</time>
   <time name="diis">    8.44    8.50</time>
   <time name="orth">    0.68    0.68</time>
   <time name="total">   15.51   15.64</time>
   <energy>
    <i name="e_fr_energy">   -104.57689111 </i>
    <i name="e_wo_entrp">   -104.48049476 </i>
    <i name="e_0_energy">   -104.54475899 </i>
   </energy>
  </scstep>
  <scstep>
   <time name="diag">    2.80    2.82</time>
   <time name="diis">    8.58    8.65</time>
   <time name="orth">    0.59    0.59</time>
   <time name="total">   15.14   15.31</time>
   <energy>
    <i name="e_fr_energy">   -104.57654841 </i>
    <i name="e_wo_entrp">   -104.48029070 </i>
    <i name="e_0_energy">   -104.54446251 </i>
   </energy>
  </scstep>
  <scstep>
   <time name="diag">    3.04    3.16</time>
   <time name="diis">    8.99    9.05</time>
   <time name="orth">    0.63    0.63</time>
   <time name="total">   15.85   16.07</time>
   <energy>
    <i name="e_fr_energy">   -104.57625610 </i>
    <i name="e_wo_entrp">   -104.47978879 </i>
    <i name="e_0_energy">   -104.54410033 </i>
   </energy>
  </scstep>
  <scstep>
   <time name="diag">    2.83    2.86</time>
   <time name="diis">    8.90    8.97</time>
   <time name="orth">    0.58    0.58</time>
   <time name="total">   15.47   15.64</time>
   <energy>
    <i name="e_fr_energy">   -104.57635015 </i>
    <i name="e_wo_entrp">   -104.47997821 </i>
    <i name="e_0_energy">   -104.54422617 </i>
   </energy>
  </scstep>
  <scstep>
   <time name="diag">    2.78    2.80</time>
   <time name="diis">    8.96    9.02</time>
   <time name="orth">    0.48    0.48</time>
   <time name="total">   15.63   15.76</time>
   <energy>
    <i name="e_fr_energy">   -104.57625883 </i>
    <i name="e_wo_entrp">   -104.47978582 </i>
    <i name="e_0_energy">   -104.54410116 </i>
   </energy>
  </scstep>
  <scstep>
   <time name="diag">    2.84    2.87</time>
   <time name="diis">    8.07    8.13</time>
   <time name="orth">    0.53    0.53</time>
   <time name="total">   13.78   13.94</time>
   <energy>
    <i name="alphaZ">    797.33612757 </i>
    <i name="ewald"> 132252.66860241 </i>
    <i name="hartreedc">-159651.21215939 </i>
    <i name="XCdc">     89.70820818 </i>
    <i name="pawpsdc">  32179.06108804 </i>
    <i name="pawaedc"> -31181.20057987 </i>
    <i name="eentropy">     -0.09638365 </i>
    <i name="bandstr">  -1087.64432484 </i>
    <i name="atom">  26496.80315902 </i>
    <i name="e_fr_energy">   -104.57626253 </i>
    <i name="e_wo_entrp">   -104.47987888 </i>
    <i name="e_0_energy">   -104.54413465 </i>
   </energy>
  </scstep>
  <structure>
   <crystal>
    <varray name="basis" >
     <v>       8.46831000       0.00000000       0.00000000 </v>
     <v>       4.23415500       7.33377159       0.00000000 </v>
     <v>       0.00000000       0.00000000      24.96566199 </v>
    </varray>
    <i name="volume">   1550.48373159 </i>
    <varray name="rec_basis" >
     <v>       0.11808732      -0.06817774       0.00000000 </v>
     <v>       0.00000000       0.13635549       0.00000000 </v>
     <v>       0.00000000       0.00000000       0.04005502 </v>
    </varray>
   </crystal>
   <varray name="positions" >
    <v>       0.00000000       0.00000000       0.34046764 </v>
    <v>       0.33400137       0.00000000       0.34046764 </v>
    <v>       0.66800274       0.00000000       0.34046764 </v>
    <v>       0.00000000       0.33400137       0.34046764 </v>
    <v>       0.33400137       0.33400137       0.34046764 </v>
    <v>       0.66800274       0.33400137       0.34046764 </v>
    <v>       0.00000000       0.66800274       0.34046764 </v>
    <v>       0.33400137       0.66800274       0.34046764 </v>
    <v>       0.66800274       0.66800274       0.34046764 </v>
    <v>       0.11133379       0.11133379       0.43297074 </v>
    <v>       0.44533516       0.11133379       0.43297074 </v>
    <v>       0.77933653       0.11133379       0.43297074 </v>
    <v>       0.11133379       0.44533516       0.43297074 </v>
    <v>       0.44533516       0.44533516       0.43297074 </v>
    <v>       0.77933653       0.44533516       0.43297074 </v>
    <v>       0.11133379       0.77933653       0.43297074 </v>
    <v>       0.44533516       0.77933653       0.43297074 </v>
    <v>       0.77933653       0.77933653       0.43297074 </v>
    <v>       0.88937723       0.22464561       0.52502500 </v>
    <v>       0.22197502       0.22398340       0.52549664 </v>
    <v>       0.55435298       0.22422065       0.52487439 </v>
    <v>       0.88976223       0.55636186       0.52511596 </v>
    <v>       0.22234896       0.55621072       0.52502544 </v>
    <v>       0.55575891       0.55656222       0.52418085 </v>
    <v>       0.88897528       0.89043618       0.52444990 </v>
    <v>       0.22214585       0.89006107       0.52421476 </v>
    <v>       0.55598742       0.88995493       0.52423650 </v>
    <v>       0.99980850       0.00051834       0.61779528 </v>
    <v>       0.33448031       0.99753026       0.61742826 </v>
    <v>       0.66638679       0.00034864       0.61775135 </v>
    <v>       0.99742460       0.33226787       0.62052692 </v>
    <v>       0.33807410       0.33184857       0.62030268 </v>
    <v>       0.66644408       0.33429204       0.61780365 </v>
    <v>       0.99699904       0.67273247       0.61829515 </v>
    <v>       0.33345195       0.66825902       0.61745771 </v>
    <v>       0.66483639       0.66813337       0.61745597 </v>
    <v>       0.13346414       0.39980622       0.65728943 </v>
   </varray>
  </structure>
  <varray name="forces" >
   <v>       0.08313731       0.02647624      -0.15185799 </v>
   <v>       0.01700859       0.05318881      -0.09776597 </v>
   <v>      -0.04845564       0.06070012      -0.14480381 </v>
   <v>       0.04860361      -0.02429719      -0.07920403 </v>
   <v>       0.01434946      -0.00665627      -0.05363890 </v>
   <v>      -0.04134612       0.01176897      -0.07453894 </v>
   <v>       0.04896978      -0.04988876      -0.11366673 </v>
   <v>      -0.00545892      -0.04325949      -0.08378289 </v>
   <v>      -0.06117863      -0.03519776      -0.09802599 </v>
   <v>       0.05369833       0.07973666       0.11655250 </v>
   <v>       0.01144619       0.10038593       0.10670177 </v>
   <v>      -0.06566530       0.08669326       0.01764741 </v>
   <v>       0.05587596      -0.03973254       0.19773275 </v>
   <v>      -0.03313945      -0.01934360       0.09441385 </v>
   <v>      -0.05675521       0.00718618       0.13342271 </v>
   <v>       0.03073191      -0.10839506       0.07736495 </v>
   <v>      -0.02453901      -0.07486043       0.05523213 </v>
   <v>      -0.07834820      -0.05455009       0.10608298 </v>
   <v>       0.00486415      -0.00325371       0.01421197 </v>
   <v>       0.00174353      -0.00235711      -0.01565771 </v>
   <v>      -0.00407352       0.00018089       0.00499239 </v>
   <v>      -0.00238332      -0.00189744      -0.00063461 </v>
   <v>       0.00870685       0.00526943      -0.00625010 </v>
   <v>       0.00576437       0.00593967       0.00584188 </v>
   <v>       0.00620211      -0.00898153       0.00818032 </v>
   <v>       0.00436070      -0.00130364       0.00757789 </v>
   <v>       0.00353431       0.00367810      -0.00198712 </v>
   <v>       0.00419718       0.00133169      -0.00028312 </v>
   <v>       0.00603242      -0.00233535       0.00174158 </v>
   <v>       0.00634620       0.00377464       0.00022707 </v>
   <v>      -0.04195848      -0.02397018      -0.03372709 </v>
   <v>       0.00988462      -0.00133529      -0.01400069 </v>
   <v>      -0.00064517      -0.00544971      -0.00783397 </v>
   <v>       0.00626964       0.00748601       0.00447326 </v>
   <v>       0.00849488      -0.00131850       0.00554705 </v>
   <v>       0.01018439       0.00317378       0.00592354 </v>
   <v>       0.01354045       0.05141328       0.01379166 </v>
  </varray>
  <varray name="stress" >
   <v>     -34.01480295       0.00401703       0.00239291 </v>
   <v>       0.00401673     -33.92438919       0.23965320 </v>
   <v>       0.00239242       0.23965311       2.30435870 </v>
  </varray>
  <energy>
   <i name="e_fr_energy">   -104.57626253 </i>
   <i name="e_wo_entrp">   -104.47987888 </i>
   <i name="e_0_energy">   -104.54413465 </i>
  </energy>
  <time name="totalsc">  168.17  170.43</time>
  <eigenvalues>
   <array>
    <dimension dim="1">band</dimension>
    <dimension dim="2">kpoint</dimension>
    <dimension dim="3">spin</dimension>
    <field>eigene</field>
    <field>occ</field>
    <set>
     <set comment="spin 1">
      <set comment="kpoint 1">
       <r>   -8.9029    1.0000 </r>
       <r>   -7.8062    1.0000 </r>
       <r>   -7.0878    1.0000 </r>
       <r>   -6.5019    1.0000 </r>
       <r>   -6.4703    1.0000 </r>
       <r>   -6.4623    1.0000 </r>
       <r>   -6.4599    1.0000 </r>
       <r>   -6.4382    1.0000 </r>
       <r>   -6.4313    1.0000 </r>
       <r>   -6.4262    1.0000 </r>
       <r>   -6.1354    1.0000 </r>
       <r>   -5.9175    1.0000 </r>
       <r>   -5.9117    1.0000 </r>
       <r>   -5.9087    1.0000 </r>
       <r>   -5.9053    1.0000 </r>
       <r>   -5.8993    1.0000 </r>
       <r>   -5.8242    1.0000 </r>
       <r>   -5.4743    1.0000 </r>
       <r>   -5.4655    1.0000 </r>
       <r>   -5.4516    1.0000 </r>
       <r>   -5.4489    1.0000 </r>
       <r>   -5.4395    1.0000 </r>
       <r>   -5.3513    1.0000 </r>
       <r>   -5.2329    1.0000 </r>
       <r>   -5.2294    1.0000 </r>
       <r>   -5.2246    1.0000 </r>
       <r>   -5.2192    1.0000 </r>
       <r>   -5.2159    1.0000 </r>
       <r>   -5.1251    1.0000 </r>
       <r>   -5.0383    1.0000 </r>
       <r>   -5.0322    1.0000 </r>
       <r>   -5.0220    1.0000 </r>
       <r>   -5.0179    1.0000 </r>
       <r>   -5.0077    1.0000 </r>
       <r>   -4.9695    1.0000 </r>
       <r>   -4.9591    1.0000 </r>
       <r>   -4.9532    1.0000 </r>
       <r>   -4.9488    1.0000 </r>
       <r>   -4.9178    1.0000 </r>
       <r>   -4.9138    1.0000 </r>
       <r>   -4.5839    1.0000 </r>
       <r>   -4.3806    1.0000 </r>
       <r>   -4.3803    1.0000 </r>
       <r>   -4.3519    1.0000 </r>
       <r>   -4.3381    1.0000 </r>
       <r>   -4.3265    1.0000 </r>
       <r>   -4.3150    1.0000 </r>
       <r>   -4.2938    1.0000 </r>
       <r>   -4.2910    1.0000 </r>
       <r>   -4.2857    1.0000 </r>
       <r>   -4.1356    1.0000 </r>
       <r>   -4.1333    1.0000 </r>
       <r>   -4.0699    1.0000 </r>
       <r>   -4.0353    1.0000 </r>
       <r>   -4.0309    1.0000 </r>
       <r>   -3.5828    1.0000 </r>
       <r>   -3.5808    1.0000 </r>
       <r>   -3.5703    1.0000 </r>
       <r>   -3.5605    1.0000 </r>
       <r>   -3.5547    1.0000 </r>
       <r>   -3.4988    1.0000 </r>
       <r>   -3.4735    1.0000 </r>
       <r>   -3.3921    1.0000 </r>
       <r>   -3.3784    1.0000 </r>
       <r>   -3.3720    1.0000 </r>
       <r>   -3.3715    1.0000 </r>
       <r>   -3.3641    1.0000 </r>
       <r>   -3.3536    1.0000 </r>
       <r>   -3.3502    1.0000 </r>
       <r>   -3.3209    1.0000 </r>
       <r>   -3.3091    1.0000 </r>
       <r>   -3.3034    1.0000 </r>
       <r>   -3.3006    1.0000 </r>
       <r>   -3.2975    1.0000 </r>
       <r>   -3.2695    1.0000 </r>
       <r>   -3.2605    1.0000 </r>
       <r>   -3.2540    1.0000 </r>
       <r>   -3.1530    1.0000 </r>
       <r>   -3.1511    1.0000 </r>
       <r>   -3.1471    1.0000 </r>
       <r>   -3.1388    1.0000 </r>
       <r>   -3.1375    1.0000 </r>
       <r>   -3.1294    1.0000 </r>
       <r>   -2.9442    1.0000 </r>
       <r>   -2.9350    1.0000 </r>
       <r>   -2.9301    1.0000 </r>
       <r>   -2.9244    1.0000 </r>
       <r>   -2.9146    1.0000 </r>
       <r>   -2.9025    1.0000 </r>
       <r>   -2.8990    1.0000 </r>
       <r>   -2.8886    1.0000 </r>
       <r>   -2.8375    1.0000 </r>
       <r>   -2.8286    1.0000 </r>
       <r>   -2.7786    1.0000 </r>
       <r>   -2.7677    1.0000 </r>
       <r>   -2.7433    1.0000 </r>
       <r>   -2.7309    1.0000 </r>
       <r>   -2.7120    1.0000 </r>
       <r>   -2.6924    1.0000 </r>
       <r>   -2.6867    1.0000 </r>
       <r>   -2.6270    1.0000 </r>
       <r>   -2.5228    1.0000 </r>
       <r>   -2.5191    1.0000 </r>
       <r>   -2.5128    1.0000 </r>
       <r>   -2.5074    1.0000 </r>
       <r>   -2.4991    1.0000 </r>
       <r>   -2.4969    1.0000 </r>
       <r>   -2.2651    1.0000 </r>
       <r>   -2.0240    1.0000 </r>
       <r>   -2.0044    1.0000 </r>
       <r>   -2.0010    1.0000 </r>
       <r>   -1.9924    1.0000 </r>
       <r>   -1.9867    1.0000 </r>
       <r>   -1.9845    1.0000 </r>
       <r>   -1.9774    1.0000 </r>
       <r>   -1.9735    1.0000 </r>
       <r>   -1.9566    1.0000 </r>
       <r>   -1.9518    1.0000 </r>
       <r>   -1.9448    1.0000 </r>
       <r>   -1.8700    1.0000 </r>
       <r>   -1.8614    1.0000 </r>
       <r>   -1.8077    1.0000 </r>
       <r>   -1.7355    1.0000 </r>
       <r>   -1.7337    1.0000 </r>
       <r>   -1.7221    1.0000 </r>
       <r>   -1.7170    1.0000 </r>
       <r>   -1.7077    1.0000 </r>
       <r>   -1.5993    1.0000 </r>
       <r>   -1.5885    1.0000 </r>
       <r>   -1.5374    1.0000 </r>
       <r>   -1.5356    1.0000 </r>
       <r>   -1.5121    1.0000 </r>
       <r>   -1.5000    1.0000 </r>
       <r>   -1.2906    1.0000 </r>
       <r>   -1.2787    1.0000 </r>
       <r>   -1.2720    1.0000 </r>
       <r>   -1.2583    1.0000 </r>
       <r>   -1.2527    1.0000 </r>
       <r>   -1.2500    1.0000 </r>
       <r>   -1.1861    1.0000 </r>
       <r>   -1.1756    1.0000 </r>
       <r>   -1.0486    1.0000 </r>
       <r>   -1.0466    1.0000 </r>
       <r>   -1.0300    1.0000 </r>
       <r>   -1.0255    1.0000 </r>
       <r>   -1.0223    1.0000 </r>
       <r>   -1.0180    1.0000 </r>
       <r>   -0.9079    1.0000 </r>
       <r>   -0.8820    1.0000 </r>
       <r>   -0.8656    1.0000 </r>
       <r>   -0.8438    1.0000 </r>
       <r>   -0.8308    1.0000 </r>
       <r>   -0.8256    1.0000 </r>
       <r>   -0.8249    1.0000 </r>
       <r>   -0.8158    1.0000 </r>
       <r>   -0.8044    1.0000 </r>
       <r>   -0.8022    1.0000 </r>
       <r>   -0.7991    1.0000 </r>
       <r>   -0.7972    1.0000 </r>
       <r>   -0.7309    1.0000 </r>
       <r>   -0.7231    1.0000 </r>
       <r>   -0.6976    1.0000 </r>
       <r>   -0.6816    1.0000 </r>
       <r>   -0.6681    1.0000 </r>
       <r>   -0.6559    1.0000 </r>
       <r>   -0.6461    1.0000 </r>
       <r>   -0.6411    1.0000 </r>
       <r>   -0.6022    1.0000 </r>
       <r>   -0.5887    1.0000 </r>
       <r>   -0.5786    1.0000 </r>
       <r>   -0.5575    1.0000 </r>
       <r>   -0.5507    1.0000 </r>
       <r>   -0.5451    1.0000 </r>
       <r>   -0.5381    1.0000 </r>
       <r>   -0.5365    1.0000 </r>
       <r>   -0.4566    1.0000 </r>
       <r>   -0.4474    1.0000 </r>
       <r>   -0.4420    1.0000 </r>
       <r>   -0.4393    1.0000 </r>
       <r>   -0.4313    1.0000 </r>
       <r>   -0.4271    1.0000 </r>
       <r>   -0.3834    1.0001 </r>
       <r>   -0.3433    1.0005 </r>
       <r>   -0.3360    1.0007 </r>
       <r>   -0.3212    1.0013 </r>
       <r>   -0.3203    1.0013 </r>
       <r>   -0.3110    1.0020 </r>
       <r>   -0.3035    1.0027 </r>
       <r>   -0.1152    0.8209 </r>
       <r>   -0.1047    0.7503 </r>
       <r>   -0.0185    0.1038 </r>
       <r>   -0.0124    0.0752 </r>
       <r>   -0.0075    0.0547 </r>
       <r>    0.0080    0.0061 </r>
       <r>    0.0086    0.0047 </r>
       <r>    0.0128   -0.0045 </r>
       <r>    0.5398   -0.0000 </r>
       <r>    0.8223   -0.0000 </r>
       <r>    0.8429   -0.0000 </r>
       <r>    0.8737   -0.0000 </r>
       <r>    0.8951   -0.0000 </r>
       <r>    0.9009   -0.0000 </r>
       <r>    0.9070   -0.0000 </r>
       <r>    2.8643    0.0000 </r>
       <r>    3.1253    0.0000 </r>
       <r>    3.1599    0.0000 </r>
       <r>    3.2022    0.0000 </r>
       <r>    3.2196    0.0000 </r>
       <r>    3.2214    0.0000 </r>
       <r>    4.6218    0.0000 </r>
       <r>    4.7160    0.0000 </r>
       <r>    4.7894    0.0000 </r>
       <r>    4.8142    0.0000 </r>
       <r>    4.8227    0.0000 </r>
       <r>    4.8258    0.0000 </r>
       <r>    4.9407    0.0000 </r>
       <r>    5.1001    0.0000 </r>
       <r>    5.2085    0.0000 </r>
       <r>    5.4363    0.0000 </r>
       <r>    5.5125    0.0000 </r>
       <r>    5.7886    0.0000 </r>
       <r>    5.8155    0.0000 </r>
       <r>    5.8533    0.0000 </r>
       <r>    5.8645    0.0000 </r>
       <r>    5.8687    0.0000 </r>
       <r>    6.0408    0.0000 </r>
       <r>    6.3840    0.0000 </r>
       <r>    6.5996    0.0000 </r>
       <r>    6.6130    0.0000 </r>
       <r>    6.6260    0.0000 </r>
       <r>    6.8132    0.0000 </r>
       <r>    7.0377    0.0000 </r>
       <r>    7.1442    0.0000 </r>
       <r>    7.1536    0.0000 </r>
       <r>    7.1755    0.0000 </r>
       <r>    7.1789    0.0000 </r>
       <r>    7.1859    0.0000 </r>
       <r>    7.2222    0.0000 </r>
       <r>    7.2633    0.0000 </r>
       <r>    7.4826    0.0000 </r>
      </set>
      <set comment="kpoint 2">
       <r>   -8.7548    1.0000 </r>
       <r>   -7.6833    1.0000 </r>
       <r>   -7.0444    1.0000 </r>
       <r>   -6.9225    1.0000 </r>
       <r>   -6.5610    1.0000 </r>
       <r>   -6.5466    1.0000 </r>
       <r>   -6.3590    1.0000 </r>
       <r>   -6.2693    1.0000 </r>
       <r>   -6.2234    1.0000 </r>
       <r>   -6.2128    1.0000 </r>
       <r>   -6.1042    1.0000 </r>
       <r>   -6.0004    1.0000 </r>
       <r>   -5.9749    1.0000 </r>
       <r>   -5.8456    1.0000 </r>
       <r>   -5.8402    1.0000 </r>
       <r>   -5.8275    1.0000 </r>
       <r>   -5.7416    1.0000 </r>
       <r>   -5.5360    1.0000 </r>
       <r>   -5.4254    1.0000 </r>
       <r>   -5.4159    1.0000 </r>
       <r>   -5.4123    1.0000 </r>
       <r>   -5.3856    1.0000 </r>
       <r>   -5.3363    1.0000 </r>
       <r>   -5.3025    1.0000 </r>
       <r>   -5.2776    1.0000 </r>
       <r>   -5.2318    1.0000 </r>
       <r>   -5.2190    1.0000 </r>
       <r>   -5.2139    1.0000 </r>
       <r>   -5.1574    1.0000 </r>
       <r>   -5.1157    1.0000 </r>
       <r>   -5.1063    1.0000 </r>
       <r>   -5.0390    1.0000 </r>
       <r>   -5.0189    1.0000 </r>
       <r>   -5.0115    1.0000 </r>
       <r>   -5.0091    1.0000 </r>
       <r>   -4.8652    1.0000 </r>
       <r>   -4.8128    1.0000 </r>
       <r>   -4.7814    1.0000 </r>
       <r>   -4.7722    1.0000 </r>
       <r>   -4.7492    1.0000 </r>
       <r>   -4.5852    1.0000 </r>
       <r>   -4.4969    1.0000 </r>
       <r>   -4.4916    1.0000 </r>
       <r>   -4.4472    1.0000 </r>
       <r>   -4.4179    1.0000 </r>
       <r>   -4.4019    1.0000 </r>
       <r>   -4.3892    1.0000 </r>
       <r>   -4.2908    1.0000 </r>
       <r>   -4.2117    1.0000 </r>
       <r>   -4.1501    1.0000 </r>
       <r>   -4.1261    1.0000 </r>
       <r>   -4.1136    1.0000 </r>
       <r>   -4.0686    1.0000 </r>
       <r>   -4.0497    1.0000 </r>
       <r>   -4.0013    1.0000 </r>
       <r>   -3.8289    1.0000 </r>
       <r>   -3.7358    1.0000 </r>
       <r>   -3.7309    1.0000 </r>
       <r>   -3.6805    1.0000 </r>
       <r>   -3.6634    1.0000 </r>
       <r>   -3.6366    1.0000 </r>
       <r>   -3.5808    1.0000 </r>
       <r>   -3.5670    1.0000 </r>
       <r>   -3.5599    1.0000 </r>
       <r>   -3.5297    1.0000 </r>
       <r>   -3.5250    1.0000 </r>
       <r>   -3.4517    1.0000 </r>
       <r>   -3.4394    1.0000 </r>
       <r>   -3.4040    1.0000 </r>
       <r>   -3.3740    1.0000 </r>
       <r>   -3.3613    1.0000 </r>
       <r>   -3.3237    1.0000 </r>
       <r>   -3.2742    1.0000 </r>
       <r>   -3.2663    1.0000 </r>
       <r>   -3.2599    1.0000 </r>
       <r>   -3.1808    1.0000 </r>
       <r>   -3.1750    1.0000 </r>
       <r>   -3.1604    1.0000 </r>
       <r>   -3.1305    1.0000 </r>
       <r>   -3.0911    1.0000 </r>
       <r>   -3.0711    1.0000 </r>
       <r>   -3.0638    1.0000 </r>
       <r>   -3.0358    1.0000 </r>
       <r>   -3.0076    1.0000 </r>
       <r>   -2.9664    1.0000 </r>
       <r>   -2.9527    1.0000 </r>
       <r>   -2.9418    1.0000 </r>
       <r>   -2.9373    1.0000 </r>
       <r>   -2.9174    1.0000 </r>
       <r>   -2.9039    1.0000 </r>
       <r>   -2.8630    1.0000 </r>
       <r>   -2.8259    1.0000 </r>
       <r>   -2.8005    1.0000 </r>
       <r>   -2.7864    1.0000 </r>
       <r>   -2.7722    1.0000 </r>
       <r>   -2.7640    1.0000 </r>
       <r>   -2.7521    1.0000 </r>
       <r>   -2.7266    1.0000 </r>
       <r>   -2.6995    1.0000 </r>
       <r>   -2.6936    1.0000 </r>
       <r>   -2.6102    1.0000 </r>
       <r>   -2.5655    1.0000 </r>
       <r>   -2.5500    1.0000 </r>
       <r>   -2.5236    1.0000 </r>
       <r>   -2.5062    1.0000 </r>
       <r>   -2.5036    1.0000 </r>
       <r>   -2.4982    1.0000 </r>
       <r>   -2.4850    1.0000 </r>
       <r>   -2.4448    1.0000 </r>
       <r>   -2.4370    1.0000 </r>
       <r>   -2.4261    1.0000 </r>
       <r>   -2.4126    1.0000 </r>
       <r>   -2.1890    1.0000 </r>
       <r>   -2.0728    1.0000 </r>
       <r>   -2.0288    1.0000 </r>
       <r>   -2.0141    1.0000 </r>
       <r>   -1.9958    1.0000 </r>
       <r>   -1.9883    1.0000 </r>
       <r>   -1.9861    1.0000 </r>
       <r>   -1.9461    1.0000 </r>
       <r>   -1.9417    1.0000 </r>
       <r>   -1.8755    1.0000 </r>
       <r>   -1.8029    1.0000 </r>
       <r>   -1.7816    1.0000 </r>
       <r>   -1.7092    1.0000 </r>
       <r>   -1.6545    1.0000 </r>
       <r>   -1.6510    1.0000 </r>
       <r>   -1.5958    1.0000 </r>
       <r>   -1.5867    1.0000 </r>
       <r>   -1.5786    1.0000 </r>
       <r>   -1.5423    1.0000 </r>
       <r>   -1.5315    1.0000 </r>
       <r>   -1.5263    1.0000 </r>
       <r>   -1.4454    1.0000 </r>
       <r>   -1.4039    1.0000 </r>
       <r>   -1.3947    1.0000 </r>
       <r>   -1.3863    1.0000 </r>
       <r>   -1.3783    1.0000 </r>
       <r>   -1.2678    1.0000 </r>
       <r>   -1.1957    1.0000 </r>
       <r>   -1.1776    1.0000 </r>
       <r>   -1.1619    1.0000 </r>
       <r>   -1.1496    1.0000 </r>
       <r>   -1.1397    1.0000 </r>
       <r>   -1.1203    1.0000 </r>
       <r>   -1.0635    1.0000 </r>
       <r>   -1.0322    1.0000 </r>
       <r>   -1.0030    1.0000 </r>
       <r>   -0.9882    1.0000 </r>
       <r>   -0.9803    1.0000 </r>
       <r>   -0.9303    1.0000 </r>
       <r>   -0.9172    1.0000 </r>
       <r>   -0.9052    1.0000 </r>
       <r>   -0.8975    1.0000 </r>
       <r>   -0.8176    1.0000 </r>
       <r>   -0.7919    1.0000 </r>
       <r>   -0.7735    1.0000 </r>
       <r>   -0.7602    1.0000 </r>
       <r>   -0.7278    1.0000 </r>
       <r>   -0.6704    1.0000 </r>
       <r>   -0.6445    1.0000 </r>
       <r>   -0.6176    1.0000 </r>
       <r>   -0.6021    1.0000 </r>
       <r>   -0.5900    1.0000 </r>
       <r>   -0.5670    1.0000 </r>
       <r>   -0.5448    1.0000 </r>
       <r>   -0.4813    1.0000 </r>
       <r>   -0.4735    1.0000 </r>
       <r>   -0.4164    1.0000 </r>
       <r>   -0.4040    1.0000 </r>
       <r>   -0.3959    1.0000 </r>
       <r>   -0.3835    1.0001 </r>
       <r>   -0.3565    1.0002 </r>
       <r>   -0.3507    1.0003 </r>
       <r>   -0.3451    1.0004 </r>
       <r>   -0.3378    1.0006 </r>
       <r>   -0.3271    1.0010 </r>
       <r>   -0.2730    1.0081 </r>
       <r>   -0.2700    1.0089 </r>
       <r>   -0.1340    0.9222 </r>
       <r>   -0.1214    0.8580 </r>
       <r>   -0.0996    0.7125 </r>
       <r>   -0.0871    0.6141 </r>
       <r>   -0.0685    0.4575 </r>
       <r>   -0.0668    0.4434 </r>
       <r>   -0.0344    0.1951 </r>
       <r>   -0.0192    0.1073 </r>
       <r>   -0.0001    0.0289 </r>
       <r>    0.0085    0.0049 </r>
       <r>    0.0759   -0.0279 </r>
       <r>    0.1064   -0.0145 </r>
       <r>    0.1313   -0.0068 </r>
       <r>    0.1854   -0.0008 </r>
       <r>    0.2930   -0.0000 </r>
       <r>    0.3064   -0.0000 </r>
       <r>    0.3142   -0.0000 </r>
       <r>    0.3542   -0.0000 </r>
       <r>    0.7034   -0.0000 </r>
       <r>    0.7531   -0.0000 </r>
       <r>    1.2561   -0.0000 </r>
       <r>    1.4648   -0.0000 </r>
       <r>    1.4820   -0.0000 </r>
       <r>    1.5978   -0.0000 </r>
       <r>    2.4035   -0.0000 </r>
       <r>    2.8138    0.0000 </r>
       <r>    2.9098    0.0000 </r>
       <r>    3.5633    0.0000 </r>
       <r>    3.6494    0.0000 </r>
       <r>    3.6641    0.0000 </r>
       <r>    3.7433    0.0000 </r>
       <r>    3.9835    0.0000 </r>
       <r>    4.4347    0.0000 </r>
       <r>    4.6068    0.0000 </r>
       <r>    4.7514    0.0000 </r>
       <r>    4.9532    0.0000 </r>
       <r>    4.9968    0.0000 </r>
       <r>    5.0348    0.0000 </r>
       <r>    5.2254    0.0000 </r>
       <r>    5.2899    0.0000 </r>
       <r>    5.4716    0.0000 </r>
       <r>    5.6551    0.0000 </r>
       <r>    5.6997    0.0000 </r>
       <r>    5.8208    0.0000 </r>
       <r>    5.9161    0.0000 </r>
       <r>    6.0753    0.0000 </r>
       <r>    6.1575    0.0000 </r>
       <r>    6.2040    0.0000 </r>
       <r>    6.3442    0.0000 </r>
       <r>    6.3567    0.0000 </r>
       <r>    6.5394    0.0000 </r>
       <r>    6.7042    0.0000 </r>
       <r>    6.7714    0.0000 </r>
       <r>    6.8069    0.0000 </r>
       <r>    6.8614    0.0000 </r>
       <r>    6.9110    0.0000 </r>
       <r>    7.0705    0.0000 </r>
       <r>    7.2708    0.0000 </r>
       <r>    7.4772    0.0000 </r>
       <r>    7.5679    0.0000 </r>
       <r>    7.6152    0.0000 </r>
      </set>
      <set comment="kpoint 3">
       <r>   -8.7548    1.0000 </r>
       <r>   -7.6833    1.0000 </r>
       <r>   -7.0420    1.0000 </r>
       <r>   -6.9237    1.0000 </r>
       <r>   -6.5625    1.0000 </r>
       <r>   -6.5466    1.0000 </r>
       <r>   -6.3591    1.0000 </r>
       <r>   -6.2670    1.0000 </r>
       <r>   -6.2229    1.0000 </r>
       <r>   -6.2153    1.0000 </r>
       <r>   -6.1040    1.0000 </r>
       <r>   -6.0004    1.0000 </r>
       <r>   -5.9775    1.0000 </r>
       <r>   -5.8438    1.0000 </r>
       <r>   -5.8391    1.0000 </r>
       <r>   -5.8276    1.0000 </r>
       <r>   -5.7404    1.0000 </r>
       <r>   -5.5373    1.0000 </r>
       <r>   -5.4251    1.0000 </r>
       <r>   -5.4148    1.0000 </r>
       <r>   -5.4100    1.0000 </r>
       <r>   -5.3854    1.0000 </r>
       <r>   -5.3379    1.0000 </r>
       <r>   -5.3037    1.0000 </r>
       <r>   -5.2785    1.0000 </r>
       <r>   -5.2319    1.0000 </r>
       <r>   -5.2188    1.0000 </r>
       <r>   -5.2124    1.0000 </r>
       <r>   -5.1563    1.0000 </r>
       <r>   -5.1184    1.0000 </r>
       <r>   -5.1075    1.0000 </r>
       <r>   -5.0368    1.0000 </r>
       <r>   -5.0202    1.0000 </r>
       <r>   -5.0111    1.0000 </r>
       <r>   -5.0092    1.0000 </r>
       <r>   -4.8644    1.0000 </r>
       <r>   -4.8133    1.0000 </r>
       <r>   -4.7810    1.0000 </r>
       <r>   -4.7730    1.0000 </r>
       <r>   -4.7506    1.0000 </r>
       <r>   -4.5861    1.0000 </r>
       <r>   -4.4977    1.0000 </r>
       <r>   -4.4918    1.0000 </r>
       <r>   -4.4468    1.0000 </r>
       <r>   -4.4182    1.0000 </r>
       <r>   -4.3990    1.0000 </r>
       <r>   -4.3891    1.0000 </r>
       <r>   -4.2919    1.0000 </r>
       <r>   -4.2121    1.0000 </r>
       <r>   -4.1512    1.0000 </r>
       <r>   -4.1250    1.0000 </r>
       <r>   -4.1148    1.0000 </r>
       <r>   -4.0695    1.0000 </r>
       <r>   -4.0490    1.0000 </r>
       <r>   -4.0019    1.0000 </r>
       <r>   -3.8321    1.0000 </r>
       <r>   -3.7353    1.0000 </r>
       <r>   -3.7305    1.0000 </r>
       <r>   -3.6839    1.0000 </r>
       <r>   -3.6674    1.0000 </r>
       <r>   -3.6375    1.0000 </r>
       <r>   -3.5847    1.0000 </r>
       <r>   -3.5632    1.0000 </r>
       <r>   -3.5554    1.0000 </r>
       <r>   -3.5287    1.0000 </r>
       <r>   -3.5238    1.0000 </r>
       <r>   -3.4512    1.0000 </r>
       <r>   -3.4418    1.0000 </r>
       <r>   -3.4025    1.0000 </r>
       <r>   -3.3753    1.0000 </r>
       <r>   -3.3622    1.0000 </r>
       <r>   -3.3239    1.0000 </r>
       <r>   -3.2687    1.0000 </r>
       <r>   -3.2624    1.0000 </r>
       <r>   -3.2555    1.0000 </r>
       <r>   -3.1818    1.0000 </r>
       <r>   -3.1767    1.0000 </r>
       <r>   -3.1612    1.0000 </r>
       <r>   -3.1299    1.0000 </r>
       <r>   -3.0921    1.0000 </r>
       <r>   -3.0761    1.0000 </r>
       <r>   -3.0698    1.0000 </r>
       <r>   -3.0315    1.0000 </r>
       <r>   -3.0069    1.0000 </r>
       <r>   -2.9646    1.0000 </r>
       <r>   -2.9502    1.0000 </r>
       <r>   -2.9421    1.0000 </r>
       <r>   -2.9384    1.0000 </r>
       <r>   -2.9180    1.0000 </r>
       <r>   -2.9041    1.0000 </r>
       <r>   -2.8630    1.0000 </r>
       <r>   -2.8267    1.0000 </r>
       <r>   -2.7983    1.0000 </r>
       <r>   -2.7869    1.0000 </r>
       <r>   -2.7732    1.0000 </r>
       <r>   -2.7653    1.0000 </r>
       <r>   -2.7547    1.0000 </r>
       <r>   -2.7257    1.0000 </r>
       <r>   -2.6970    1.0000 </r>
       <r>   -2.6906    1.0000 </r>
       <r>   -2.6107    1.0000 </r>
       <r>   -2.5650    1.0000 </r>
       <r>   -2.5515    1.0000 </r>
       <r>   -2.5237    1.0000 </r>
       <r>   -2.5055    1.0000 </r>
       <r>   -2.5013    1.0000 </r>
       <r>   -2.4966    1.0000 </r>
       <r>   -2.4843    1.0000 </r>
       <r>   -2.4477    1.0000 </r>
       <r>   -2.4346    1.0000 </r>
       <r>   -2.4266    1.0000 </r>
       <r>   -2.4135    1.0000 </r>
       <r>   -2.1917    1.0000 </r>
       <r>   -2.0760    1.0000 </r>
       <r>   -2.0291    1.0000 </r>
       <r>   -2.0127    1.0000 </r>
       <r>   -1.9968    1.0000 </r>
       <r>   -1.9879    1.0000 </r>
       <r>   -1.9817    1.0000 </r>
       <r>   -1.9452    1.0000 </r>
       <r>   -1.9408    1.0000 </r>
       <r>   -1.8751    1.0000 </r>
       <r>   -1.8029    1.0000 </r>
       <r>   -1.7796    1.0000 </r>
       <r>   -1.7066    1.0000 </r>
       <r>   -1.6529    1.0000 </r>
       <r>   -1.6513    1.0000 </r>
       <r>   -1.6007    1.0000 </r>
       <r>   -1.5841    1.0000 </r>
       <r>   -1.5760    1.0000 </r>
       <r>   -1.5423    1.0000 </r>
       <r>   -1.5315    1.0000 </r>
       <r>   -1.5249    1.0000 </r>
       <r>   -1.4466    1.0000 </r>
       <r>   -1.4040    1.0000 </r>
       <r>   -1.3922    1.0000 </r>
       <r>   -1.3858    1.0000 </r>
       <r>   -1.3802    1.0000 </r>
       <r>   -1.2681    1.0000 </r>
       <r>   -1.1961    1.0000 </r>
       <r>   -1.1763    1.0000 </r>
       <r>   -1.1617    1.0000 </r>
       <r>   -1.1516    1.0000 </r>
       <r>   -1.1404    1.0000 </r>
       <r>   -1.1226    1.0000 </r>
       <r>   -1.0621    1.0000 </r>
       <r>   -1.0330    1.0000 </r>
       <r>   -1.0019    1.0000 </r>
       <r>   -0.9903    1.0000 </r>
       <r>   -0.9814    1.0000 </r>
       <r>   -0.9313    1.0000 </r>
       <r>   -0.9154    1.0000 </r>
       <r>   -0.9069    1.0000 </r>
       <r>   -0.8985    1.0000 </r>
       <r>   -0.8158    1.0000 </r>
       <r>   -0.7915    1.0000 </r>
       <r>   -0.7742    1.0000 </r>
       <r>   -0.7606    1.0000 </r>
       <r>   -0.7261    1.0000 </r>
       <r>   -0.6701    1.0000 </r>
       <r>   -0.6449    1.0000 </r>
       <r>   -0.6160    1.0000 </r>
       <r>   -0.6015    1.0000 </r>
       <r>   -0.5890    1.0000 </r>
       <r>   -0.5665    1.0000 </r>
       <r>   -0.5444    1.0000 </r>
       <r>   -0.4810    1.0000 </r>
       <r>   -0.4734    1.0000 </r>
       <r>   -0.4173    1.0000 </r>
       <r>   -0.4040    1.0000 </r>
       <r>   -0.3941    1.0000 </r>
       <r>   -0.3852    1.0000 </r>
       <r>   -0.3546    1.0003 </r>
       <r>   -0.3526    1.0003 </r>
       <r>   -0.3454    1.0004 </r>
       <r>   -0.3368    1.0006 </r>
       <r>   -0.3286    1.0009 </r>
       <r>   -0.2708    1.0087 </r>
       <r>   -0.2683    1.0094 </r>
       <r>   -0.1324    0.9148 </r>
       <r>   -0.1201    0.8508 </r>
       <r>   -0.1010    0.7235 </r>
       <r>   -0.0864    0.6077 </r>
       <r>   -0.0711    0.4795 </r>
       <r>   -0.0678    0.4520 </r>
       <r>   -0.0377    0.2170 </r>
       <r>   -0.0207    0.1146 </r>
       <r>   -0.0028    0.0376 </r>
       <r>    0.0067    0.0094 </r>
       <r>    0.0762   -0.0278 </r>
       <r>    0.1065   -0.0144 </r>
       <r>    0.1307   -0.0070 </r>
       <r>    0.1865   -0.0007 </r>
       <r>    0.2932   -0.0000 </r>
       <r>    0.3049   -0.0000 </r>
       <r>    0.3145   -0.0000 </r>
       <r>    0.3560   -0.0000 </r>
       <r>    0.7021   -0.0000 </r>
       <r>    0.7494   -0.0000 </r>
       <r>    1.2560   -0.0000 </r>
       <r>    1.4648   -0.0000 </r>
       <r>    1.4835   -0.0000 </r>
       <r>    1.5993   -0.0000 </r>
       <r>    2.4061   -0.0000 </r>
       <r>    2.8128    0.0000 </r>
       <r>    2.9064    0.0000 </r>
       <r>    3.5623    0.0000 </r>
       <r>    3.6504    0.0000 </r>
       <r>    3.6641    0.0000 </r>
       <r>    3.7416    0.0000 </r>
       <r>    3.9858    0.0000 </r>
       <r>    4.4354    0.0000 </r>
       <r>    4.6070    0.0000 </r>
       <r>    4.7554    0.0000 </r>
       <r>    4.9528    0.0000 </r>
       <r>    4.9960    0.0000 </r>
       <r>    5.0347    0.0000 </r>
       <r>    5.2235    0.0000 </r>
       <r>    5.2903    0.0000 </r>
       <r>    5.4675    0.0000 </r>
       <r>    5.6560    0.0000 </r>
       <r>    5.7030    0.0000 </r>
       <r>    5.8219    0.0000 </r>
       <r>    5.9136    0.0000 </r>
       <r>    6.0750    0.0000 </r>
       <r>    6.1575    0.0000 </r>
       <r>    6.2035    0.0000 </r>
       <r>    6.3432    0.0000 </r>
       <r>    6.3529    0.0000 </r>
       <r>    6.5376    0.0000 </r>
       <r>    6.7031    0.0000 </r>
       <r>    6.7712    0.0000 </r>
       <r>    6.8087    0.0000 </r>
       <r>    6.8622    0.0000 </r>
       <r>    6.9117    0.0000 </r>
       <r>    7.0725    0.0000 </r>
       <r>    7.2735    0.0000 </r>
       <r>    7.4802    0.0000 </r>
       <r>    7.5630    0.0000 </r>
       <r>    7.6211    0.0000 </r>
      </set>
      <set comment="kpoint 4">
       <r>   -8.7557    1.0000 </r>
       <r>   -7.6925    1.0000 </r>
       <r>   -7.0732    1.0000 </r>
       <r>   -6.8885    1.0000 </r>
       <r>   -6.5632    1.0000 </r>
       <r>   -6.5532    1.0000 </r>
       <r>   -6.3593    1.0000 </r>
       <r>   -6.2690    1.0000 </r>
       <r>   -6.2180    1.0000 </r>
       <r>   -6.2147    1.0000 </r>
       <r>   -6.1363    1.0000 </r>
       <r>   -6.0013    1.0000 </r>
       <r>   -5.9114    1.0000 </r>
       <r>   -5.8452    1.0000 </r>
       <r>   -5.8399    1.0000 </r>
       <r>   -5.8298    1.0000 </r>
       <r>   -5.7766    1.0000 </r>
       <r>   -5.5341    1.0000 </r>
       <r>   -5.4176    1.0000 </r>
       <r>   -5.4157    1.0000 </r>
       <r>   -5.4082    1.0000 </r>
       <r>   -5.3574    1.0000 </r>
       <r>   -5.3365    1.0000 </r>
       <r>   -5.3087    1.0000 </r>
       <r>   -5.2757    1.0000 </r>
       <r>   -5.2557    1.0000 </r>
       <r>   -5.2220    1.0000 </r>
       <r>   -5.2135    1.0000 </r>
       <r>   -5.1210    1.0000 </r>
       <r>   -5.1140    1.0000 </r>
       <r>   -5.1110    1.0000 </r>
       <r>   -5.0310    1.0000 </r>
       <r>   -5.0171    1.0000 </r>
       <r>   -5.0100    1.0000 </r>
       <r>   -5.0079    1.0000 </r>
       <r>   -4.8488    1.0000 </r>
       <r>   -4.8124    1.0000 </r>
       <r>   -4.7803    1.0000 </r>
       <r>   -4.7779    1.0000 </r>
       <r>   -4.7590    1.0000 </r>
       <r>   -4.5763    1.0000 </r>
       <r>   -4.4963    1.0000 </r>
       <r>   -4.4928    1.0000 </r>
       <r>   -4.4440    1.0000 </r>
       <r>   -4.4154    1.0000 </r>
       <r>   -4.4087    1.0000 </r>
       <r>   -4.3918    1.0000 </r>
       <r>   -4.3029    1.0000 </r>
       <r>   -4.2160    1.0000 </r>
       <r>   -4.1523    1.0000 </r>
       <r>   -4.1257    1.0000 </r>
       <r>   -4.1177    1.0000 </r>
       <r>   -4.0686    1.0000 </r>
       <r>   -4.0458    1.0000 </r>
       <r>   -3.9839    1.0000 </r>
       <r>   -3.8307    1.0000 </r>
       <r>   -3.7346    1.0000 </r>
       <r>   -3.7298    1.0000 </r>
       <r>   -3.6799    1.0000 </r>
       <r>   -3.6717    1.0000 </r>
       <r>   -3.6391    1.0000 </r>
       <r>   -3.5838    1.0000 </r>
       <r>   -3.5682    1.0000 </r>
       <r>   -3.5521    1.0000 </r>
       <r>   -3.5265    1.0000 </r>
       <r>   -3.5247    1.0000 </r>
       <r>   -3.4686    1.0000 </r>
       <r>   -3.4397    1.0000 </r>
       <r>   -3.3944    1.0000 </r>
       <r>   -3.3781    1.0000 </r>
       <r>   -3.3654    1.0000 </r>
       <r>   -3.3306    1.0000 </r>
       <r>   -3.2680    1.0000 </r>
       <r>   -3.2633    1.0000 </r>
       <r>   -3.2572    1.0000 </r>
       <r>   -3.1826    1.0000 </r>
       <r>   -3.1733    1.0000 </r>
       <r>   -3.1626    1.0000 </r>
       <r>   -3.1304    1.0000 </r>
       <r>   -3.0885    1.0000 </r>
       <r>   -3.0755    1.0000 </r>
       <r>   -3.0709    1.0000 </r>
       <r>   -3.0334    1.0000 </r>
       <r>   -3.0034    1.0000 </r>
       <r>   -2.9674    1.0000 </r>
       <r>   -2.9568    1.0000 </r>
       <r>   -2.9371    1.0000 </r>
       <r>   -2.9337    1.0000 </r>
       <r>   -2.9113    1.0000 </r>
       <r>   -2.9099    1.0000 </r>
       <r>   -2.8605    1.0000 </r>
       <r>   -2.8292    1.0000 </r>
       <r>   -2.8021    1.0000 </r>
       <r>   -2.7884    1.0000 </r>
       <r>   -2.7779    1.0000 </r>
       <r>   -2.7640    1.0000 </r>
       <r>   -2.7611    1.0000 </r>
       <r>   -2.7303    1.0000 </r>
       <r>   -2.6985    1.0000 </r>
       <r>   -2.6842    1.0000 </r>
       <r>   -2.6155    1.0000 </r>
       <r>   -2.5614    1.0000 </r>
       <r>   -2.5486    1.0000 </r>
       <r>   -2.5367    1.0000 </r>
       <r>   -2.5140    1.0000 </r>
       <r>   -2.4991    1.0000 </r>
       <r>   -2.4961    1.0000 </r>
       <r>   -2.4936    1.0000 </r>
       <r>   -2.4461    1.0000 </r>
       <r>   -2.4378    1.0000 </r>
       <r>   -2.4355    1.0000 </r>
       <r>   -2.4151    1.0000 </r>
       <r>   -2.1811    1.0000 </r>
       <r>   -2.0798    1.0000 </r>
       <r>   -2.0373    1.0000 </r>
       <r>   -2.0082    1.0000 </r>
       <r>   -1.9972    1.0000 </r>
       <r>   -1.9865    1.0000 </r>
       <r>   -1.9830    1.0000 </r>
       <r>   -1.9492    1.0000 </r>
       <r>   -1.9332    1.0000 </r>
       <r>   -1.9114    1.0000 </r>
       <r>   -1.8154    1.0000 </r>
       <r>   -1.7822    1.0000 </r>
       <r>   -1.7047    1.0000 </r>
       <r>   -1.6595    1.0000 </r>
       <r>   -1.6492    1.0000 </r>
       <r>   -1.6026    1.0000 </r>
       <r>   -1.5911    1.0000 </r>
       <r>   -1.5785    1.0000 </r>
       <r>   -1.5468    1.0000 </r>
       <r>   -1.5319    1.0000 </r>
       <r>   -1.5281    1.0000 </r>
       <r>   -1.4436    1.0000 </r>
       <r>   -1.3970    1.0000 </r>
       <r>   -1.3931    1.0000 </r>
       <r>   -1.3815    1.0000 </r>
       <r>   -1.3784    1.0000 </r>
       <r>   -1.2082    1.0000 </r>
       <r>   -1.1998    1.0000 </r>
       <r>   -1.1780    1.0000 </r>
       <r>   -1.1575    1.0000 </r>
       <r>   -1.1554    1.0000 </r>
       <r>   -1.1415    1.0000 </r>
       <r>   -1.1249    1.0000 </r>
       <r>   -1.0525    1.0000 </r>
       <r>   -1.0387    1.0000 </r>
       <r>   -1.0157    1.0000 </r>
       <r>   -0.9905    1.0000 </r>
       <r>   -0.9817    1.0000 </r>
       <r>   -0.9378    1.0000 </r>
       <r>   -0.9225    1.0000 </r>
       <r>   -0.9074    1.0000 </r>
       <r>   -0.9016    1.0000 </r>
       <r>   -0.8186    1.0000 </r>
       <r>   -0.7997    1.0000 </r>
       <r>   -0.7688    1.0000 </r>
       <r>   -0.7605    1.0000 </r>
       <r>   -0.7131    1.0000 </r>
       <r>   -0.6683    1.0000 </r>
       <r>   -0.6661    1.0000 </r>
       <r>   -0.6186    1.0000 </r>
       <r>   -0.6050    1.0000 </r>
       <r>   -0.6016    1.0000 </r>
       <r>   -0.5596    1.0000 </r>
       <r>   -0.5417    1.0000 </r>
       <r>   -0.4843    1.0000 </r>
       <r>   -0.4732    1.0000 </r>
       <r>   -0.4091    1.0000 </r>
       <r>   -0.4055    1.0000 </r>
       <r>   -0.3871    1.0000 </r>
       <r>   -0.3727    1.0001 </r>
       <r>   -0.3603    1.0002 </r>
       <r>   -0.3498    1.0003 </r>
       <r>   -0.3450    1.0004 </r>
       <r>   -0.3354    1.0007 </r>
       <r>   -0.3280    1.0009 </r>
       <r>   -0.2713    1.0086 </r>
       <r>   -0.2668    1.0099 </r>
       <r>   -0.1271    0.8892 </r>
       <r>   -0.1188    0.8428 </r>
       <r>   -0.1064    0.7621 </r>
       <r>   -0.0818    0.5697 </r>
       <r>   -0.0676    0.4501 </r>
       <r>   -0.0644    0.4228 </r>
       <r>   -0.0384    0.2224 </r>
       <r>   -0.0114    0.0708 </r>
       <r>   -0.0077    0.0554 </r>
       <r>    0.0050    0.0139 </r>
       <r>    0.0957   -0.0189 </r>
       <r>    0.1035   -0.0156 </r>
       <r>    0.1298   -0.0072 </r>
       <r>    0.1906   -0.0006 </r>
       <r>    0.2956   -0.0000 </r>
       <r>    0.3008   -0.0000 </r>
       <r>    0.3132   -0.0000 </r>
       <r>    0.3604   -0.0000 </r>
       <r>    0.7046   -0.0000 </r>
       <r>    0.7404   -0.0000 </r>
       <r>    1.2688   -0.0000 </r>
       <r>    1.4560   -0.0000 </r>
       <r>    1.4832   -0.0000 </r>
       <r>    1.6054   -0.0000 </r>
       <r>    2.3837   -0.0000 </r>
       <r>    2.8599    0.0000 </r>
       <r>    2.9028    0.0000 </r>
       <r>    3.5335    0.0000 </r>
       <r>    3.6513    0.0000 </r>
       <r>    3.6873    0.0000 </r>
       <r>    3.7353    0.0000 </r>
       <r>    3.9546    0.0000 </r>
       <r>    4.4239    0.0000 </r>
       <r>    4.6087    0.0000 </r>
       <r>    4.7457    0.0000 </r>
       <r>    4.9717    0.0000 </r>
       <r>    5.0008    0.0000 </r>
       <r>    5.0339    0.0000 </r>
       <r>    5.2394    0.0000 </r>
       <r>    5.3415    0.0000 </r>
       <r>    5.4542    0.0000 </r>
       <r>    5.6054    0.0000 </r>
       <r>    5.7064    0.0000 </r>
       <r>    5.8648    0.0000 </r>
       <r>    5.8898    0.0000 </r>
       <r>    6.0795    0.0000 </r>
       <r>    6.1586    0.0000 </r>
       <r>    6.2535    0.0000 </r>
       <r>    6.3480    0.0000 </r>
       <r>    6.3488    0.0000 </r>
       <r>    6.6074    0.0000 </r>
       <r>    6.6951    0.0000 </r>
       <r>    6.7455    0.0000 </r>
       <r>    6.7960    0.0000 </r>
       <r>    6.8046    0.0000 </r>
       <r>    6.9131    0.0000 </r>
       <r>    7.0626    0.0000 </r>
       <r>    7.2396    0.0000 </r>
       <r>    7.4668    0.0000 </r>
       <r>    7.6158    0.0000 </r>
       <r>    7.6227    0.0000 </r>
      </set>
      <set comment="kpoint 5">
       <r>   -8.3298    1.0000 </r>
       <r>   -7.7007    1.0000 </r>
       <r>   -7.3672    1.0000 </r>
       <r>   -6.8330    1.0000 </r>
       <r>   -6.5915    1.0000 </r>
       <r>   -6.5744    1.0000 </r>
       <r>   -6.3970    1.0000 </r>
       <r>   -6.2317    1.0000 </r>
       <r>   -6.0908    1.0000 </r>
       <r>   -5.9724    1.0000 </r>
       <r>   -5.8852    1.0000 </r>
       <r>   -5.8721    1.0000 </r>
       <r>   -5.8311    1.0000 </r>
       <r>   -5.7149    1.0000 </r>
       <r>   -5.6674    1.0000 </r>
       <r>   -5.6572    1.0000 </r>
       <r>   -5.6526    1.0000 </r>
       <r>   -5.6438    1.0000 </r>
       <r>   -5.5159    1.0000 </r>
       <r>   -5.4822    1.0000 </r>
       <r>   -5.4761    1.0000 </r>
       <r>   -5.4423    1.0000 </r>
       <r>   -5.4322    1.0000 </r>
       <r>   -5.4263    1.0000 </r>
       <r>   -5.3578    1.0000 </r>
       <r>   -5.3123    1.0000 </r>
       <r>   -5.3092    1.0000 </r>
       <r>   -5.2454    1.0000 </r>
       <r>   -5.0614    1.0000 </r>
       <r>   -5.0508    1.0000 </r>
       <r>   -5.0440    1.0000 </r>
       <r>   -5.0320    1.0000 </r>
       <r>   -5.0199    1.0000 </r>
       <r>   -4.9390    1.0000 </r>
       <r>   -4.7990    1.0000 </r>
       <r>   -4.7933    1.0000 </r>
       <r>   -4.7863    1.0000 </r>
       <r>   -4.7476    1.0000 </r>
       <r>   -4.7373    1.0000 </r>
       <r>   -4.6541    1.0000 </r>
       <r>   -4.5435    1.0000 </r>
       <r>   -4.4813    1.0000 </r>
       <r>   -4.4675    1.0000 </r>
       <r>   -4.4518    1.0000 </r>
       <r>   -4.4220    1.0000 </r>
       <r>   -4.3959    1.0000 </r>
       <r>   -4.3445    1.0000 </r>
       <r>   -4.3190    1.0000 </r>
       <r>   -4.3109    1.0000 </r>
       <r>   -4.2851    1.0000 </r>
       <r>   -4.2520    1.0000 </r>
       <r>   -4.1381    1.0000 </r>
       <r>   -4.0928    1.0000 </r>
       <r>   -4.0874    1.0000 </r>
       <r>   -4.0741    1.0000 </r>
       <r>   -4.0051    1.0000 </r>
       <r>   -3.9362    1.0000 </r>
       <r>   -3.9041    1.0000 </r>
       <r>   -3.8741    1.0000 </r>
       <r>   -3.8652    1.0000 </r>
       <r>   -3.8377    1.0000 </r>
       <r>   -3.7156    1.0000 </r>
       <r>   -3.6670    1.0000 </r>
       <r>   -3.6624    1.0000 </r>
       <r>   -3.6553    1.0000 </r>
       <r>   -3.6398    1.0000 </r>
       <r>   -3.5516    1.0000 </r>
       <r>   -3.5349    1.0000 </r>
       <r>   -3.5112    1.0000 </r>
       <r>   -3.4306    1.0000 </r>
       <r>   -3.4101    1.0000 </r>
       <r>   -3.4026    1.0000 </r>
       <r>   -3.3468    1.0000 </r>
       <r>   -3.3010    1.0000 </r>
       <r>   -3.2976    1.0000 </r>
       <r>   -3.2550    1.0000 </r>
       <r>   -3.2487    1.0000 </r>
       <r>   -3.2138    1.0000 </r>
       <r>   -3.1840    1.0000 </r>
       <r>   -3.1692    1.0000 </r>
       <r>   -3.1551    1.0000 </r>
       <r>   -3.1426    1.0000 </r>
       <r>   -3.1326    1.0000 </r>
       <r>   -3.1232    1.0000 </r>
       <r>   -3.1096    1.0000 </r>
       <r>   -3.1029    1.0000 </r>
       <r>   -3.0087    1.0000 </r>
       <r>   -2.9905    1.0000 </r>
       <r>   -2.9806    1.0000 </r>
       <r>   -2.9653    1.0000 </r>
       <r>   -2.9577    1.0000 </r>
       <r>   -2.9519    1.0000 </r>
       <r>   -2.9263    1.0000 </r>
       <r>   -2.8305    1.0000 </r>
       <r>   -2.7920    1.0000 </r>
       <r>   -2.7814    1.0000 </r>
       <r>   -2.7519    1.0000 </r>
       <r>   -2.7408    1.0000 </r>
       <r>   -2.7125    1.0000 </r>
       <r>   -2.6914    1.0000 </r>
       <r>   -2.6582    1.0000 </r>
       <r>   -2.6483    1.0000 </r>
       <r>   -2.5745    1.0000 </r>
       <r>   -2.5353    1.0000 </r>
       <r>   -2.4955    1.0000 </r>
       <r>   -2.4727    1.0000 </r>
       <r>   -2.4534    1.0000 </r>
       <r>   -2.4351    1.0000 </r>
       <r>   -2.4202    1.0000 </r>
       <r>   -2.2830    1.0000 </r>
       <r>   -2.2507    1.0000 </r>
       <r>   -2.1882    1.0000 </r>
       <r>   -2.1687    1.0000 </r>
       <r>   -2.1233    1.0000 </r>
       <r>   -2.1071    1.0000 </r>
       <r>   -2.0671    1.0000 </r>
       <r>   -2.0543    1.0000 </r>
       <r>   -2.0489    1.0000 </r>
       <r>   -2.0452    1.0000 </r>
       <r>   -2.0064    1.0000 </r>
       <r>   -1.9906    1.0000 </r>
       <r>   -1.9475    1.0000 </r>
       <r>   -1.9448    1.0000 </r>
       <r>   -1.9344    1.0000 </r>
       <r>   -1.9056    1.0000 </r>
       <r>   -1.8869    1.0000 </r>
       <r>   -1.8834    1.0000 </r>
       <r>   -1.8555    1.0000 </r>
       <r>   -1.8291    1.0000 </r>
       <r>   -1.7394    1.0000 </r>
       <r>   -1.7046    1.0000 </r>
       <r>   -1.6981    1.0000 </r>
       <r>   -1.6370    1.0000 </r>
       <r>   -1.6078    1.0000 </r>
       <r>   -1.5080    1.0000 </r>
       <r>   -1.5051    1.0000 </r>
       <r>   -1.4094    1.0000 </r>
       <r>   -1.3974    1.0000 </r>
       <r>   -1.3487    1.0000 </r>
       <r>   -1.2955    1.0000 </r>
       <r>   -1.2309    1.0000 </r>
       <r>   -1.2195    1.0000 </r>
       <r>   -1.1708    1.0000 </r>
       <r>   -1.1614    1.0000 </r>
       <r>   -1.1339    1.0000 </r>
       <r>   -1.1205    1.0000 </r>
       <r>   -1.0917    1.0000 </r>
       <r>   -1.0626    1.0000 </r>
       <r>   -1.0280    1.0000 </r>
       <r>   -1.0189    1.0000 </r>
       <r>   -0.9654    1.0000 </r>
       <r>   -0.9248    1.0000 </r>
       <r>   -0.9098    1.0000 </r>
       <r>   -0.8684    1.0000 </r>
       <r>   -0.8569    1.0000 </r>
       <r>   -0.8507    1.0000 </r>
       <r>   -0.8349    1.0000 </r>
       <r>   -0.7818    1.0000 </r>
       <r>   -0.6979    1.0000 </r>
       <r>   -0.6564    1.0000 </r>
       <r>   -0.5943    1.0000 </r>
       <r>   -0.5806    1.0000 </r>
       <r>   -0.5690    1.0000 </r>
       <r>   -0.5495    1.0000 </r>
       <r>   -0.5034    1.0000 </r>
       <r>   -0.4569    1.0000 </r>
       <r>   -0.4477    1.0000 </r>
       <r>   -0.3768    1.0001 </r>
       <r>   -0.3631    1.0002 </r>
       <r>   -0.3501    1.0003 </r>
       <r>   -0.3375    1.0006 </r>
       <r>   -0.2943    1.0039 </r>
       <r>   -0.2654    1.0103 </r>
       <r>   -0.2531    1.0146 </r>
       <r>   -0.2238    1.0275 </r>
       <r>   -0.1206    0.8537 </r>
       <r>   -0.1149    0.8195 </r>
       <r>   -0.0967    0.6907 </r>
       <r>   -0.0867    0.6101 </r>
       <r>   -0.0815    0.5670 </r>
       <r>   -0.0752    0.5143 </r>
       <r>   -0.0503    0.3096 </r>
       <r>   -0.0381    0.2200 </r>
       <r>    0.1301   -0.0071 </r>
       <r>    0.1529   -0.0031 </r>
       <r>    0.1631   -0.0021 </r>
       <r>    0.1705   -0.0015 </r>
       <r>    0.1773   -0.0011 </r>
       <r>    0.3158   -0.0000 </r>
       <r>    0.3699   -0.0000 </r>
       <r>    0.6274   -0.0000 </r>
       <r>    0.7606   -0.0000 </r>
       <r>    0.7982   -0.0000 </r>
       <r>    0.9909   -0.0000 </r>
       <r>    1.2118   -0.0000 </r>
       <r>    1.2238   -0.0000 </r>
       <r>    1.4899   -0.0000 </r>
       <r>    1.5937   -0.0000 </r>
       <r>    1.7076   -0.0000 </r>
       <r>    1.9058   -0.0000 </r>
       <r>    2.1845   -0.0000 </r>
       <r>    2.4418   -0.0000 </r>
       <r>    2.4496   -0.0000 </r>
       <r>    2.5094   -0.0000 </r>
       <r>    2.6285   -0.0000 </r>
       <r>    2.6741    0.0000 </r>
       <r>    2.7751    0.0000 </r>
       <r>    2.8121    0.0000 </r>
[...]
       <r>    6.8431    0.0000 </r>
       <r>    6.8540    0.0000 </r>
       <r>    7.1086    0.0000 </r>
       <r>    7.2338    0.0000 </r>
       <r>    7.3446    0.0000 </r>
      </set>
     </set>
    </set>
   </array>
  </eigenvalues>
  <separator name="orbital magnetization" >
   <v name="MAGDIPOLOUT">      0.00000000      0.00000000      0.00000000</v>
  </separator>
  <dos>
   <i name="efermi">     -0.07352151 </i>
   <total>
    <array>
     <dimension dim="1">gridpoints</dimension>
     <dimension dim="2">spin</dimension>
     <field>energy</field>
     <field>total</field>
     <field>integrated</field>
     <set>
      <set comment="spin 1">
       <r>    -9.9029     0.0000     0.0000 </r>
       <r>    -9.8411     0.0000     0.0000 </r>
       <r>    -9.7794     0.0000     0.0000 </r>
       <r>    -9.7176    -0.0000    -0.0000 </r>
       <r>    -9.6559    -0.0000    -0.0000 </r>
       <r>    -9.5941    -0.0000    -0.0000 </r>
       <r>    -9.5324    -0.0000    -0.0000 </r>
       <r>    -9.4706    -0.0000    -0.0000 </r>
       <r>    -9.4089    -0.0000    -0.0000 </r>
       <r>    -9.3471    -0.0000    -0.0000 </r>
       <r>    -9.2854    -0.0000    -0.0000 </r>
       <r>    -9.2236    -0.0000    -0.0000 </r>
       <r>    -9.1619    -0.0010    -0.0001 </r>
       <r>    -9.1001    -0.0104    -0.0007 </r>
       <r>    -9.0384    -0.0336    -0.0028 </r>
       <r>    -8.9766     0.0518     0.0004 </r>
       <r>    -8.9148     0.3306     0.0208 </r>
       <r>    -8.8531     0.6100     0.0585 </r>
       <r>    -8.7913     2.0575     0.1856 </r>
       <r>    -8.7296     3.8120     0.4210 </r>
       <r>    -8.6678     2.2402     0.5593 </r>
       <r>    -8.6061    -0.0261     0.5577 </r>
       <r>    -8.5443     0.2055     0.5704 </r>
       <r>    -8.4826     2.5893     0.7303 </r>
       <r>    -8.4208     3.8171     0.9660 </r>
       <r>    -8.3591     3.5790     1.1870 </r>
       <r>    -8.2973     3.7373     1.4178 </r>
       <r>    -8.2356     1.8253     1.5305 </r>
       <r>    -8.1738    -0.0225     1.5291 </r>
       <r>    -8.1121    -0.3796     1.5057 </r>
       <r>    -8.0503    -0.1250     1.4979 </r>
       <r>    -7.9886     2.4940     1.6520 </r>
       <r>    -7.9268     6.5228     2.0548 </r>
       <r>    -7.8651     5.6443     2.4033 </r>
       <r>    -7.8033     1.9722     2.5251 </r>
       <r>    -7.7416     3.3035     2.7291 </r>
       <r>    -7.6798     7.1310     3.1694 </r>
       <r>    -7.6181     5.1422     3.4870 </r>
       <r>    -7.5563     2.0388     3.6129 </r>
       <r>    -7.4946     2.9659     3.7960 </r>
       <r>    -7.4328     4.4361     4.0700 </r>
       <r>    -7.3710     6.8135     4.4907 </r>
       <r>    -7.3093     6.0283     4.8630 </r>
       <r>    -7.2475     5.3457     5.1931 </r>
       <r>    -7.1858     9.8037     5.7985 </r>
       <r>    -7.1240     9.1658     6.3645 </r>
       <r>    -7.0623     5.2237     6.6871 </r>
       <r>    -7.0005     3.4015     6.8971 </r>
       <r>    -6.9388     3.0709     7.0867 </r>
       <r>    -6.8770     6.3030     7.4760 </r>
       <r>    -6.8153     8.9928     8.0313 </r>
       <r>    -6.7535     5.8318     8.3914 </r>
       <r>    -6.6918     3.1815     8.5879 </r>
       <r>    -6.6300     6.7401     9.0041 </r>
       <r>    -6.5683    13.7786     9.8550 </r>
       <r>    -6.5065    14.9748    10.7797 </r>
       <r>    -6.4448    11.8683    11.5126 </r>
       <r>    -6.3830    10.8523    12.1827 </r>
       <r>    -6.3213     8.3361    12.6975 </r>
       <r>    -6.2595     9.2330    13.2677 </r>
       <r>    -6.1978    18.0825    14.3843 </r>
       <r>    -6.1360    31.0409    16.3011 </r>
       <r>    -6.0743    37.2244    18.5998 </r>
       <r>    -6.0125    31.8821    20.5686 </r>
       <r>    -5.9508    29.4307    22.3860 </r>
       <r>    -5.8890    32.3178    24.3817 </r>
       <r>    -5.8272    36.1809    26.6159 </r>
       <r>    -5.7655    31.1063    28.5368 </r>
       <r>    -5.7037    26.1105    30.1492 </r>
       <r>    -5.6420    32.4771    32.1547 </r>
       <r>    -5.5802    39.6946    34.6059 </r>
       <r>    -5.5185    42.4701    37.2285 </r>
       <r>    -5.4567    50.5284    40.3488 </r>
       <r>    -5.3950    62.9074    44.2334 </r>
       <r>    -5.3332    64.2236    48.1994 </r>
       <r>    -5.2715    55.2713    51.6125 </r>
       <r>    -5.2097    46.0707    54.4574 </r>
       <r>    -5.1480    41.9833    57.0500 </r>
       <r>    -5.0862    49.3350    60.0965 </r>
       <r>    -5.0245    69.3441    64.3786 </r>
       <r>    -4.9627    63.6290    68.3079 </r>
       <r>    -4.9010    33.0856    70.3510 </r>
       <r>    -4.8392    23.3946    71.7956 </r>
       <r>    -4.7775    38.6546    74.1826 </r>
       <r>    -4.7157    40.0110    76.6534 </r>
       <r>    -4.6540    23.9018    78.1294 </r>
       <r>    -4.5922    24.2879    79.6292 </r>
       <r>    -4.5305    40.8658    82.1527 </r>
       <r>    -4.4687    56.4581    85.6391 </r>
       <r>    -4.4070    62.0308    89.4696 </r>
       <r>    -4.3452    54.5433    92.8378 </r>
       <r>    -4.2834    44.4890    95.5851 </r>
       <r>    -4.2217    39.0013    97.9935 </r>
       <r>    -4.1599    46.0433   100.8368 </r>
       <r>    -4.0982    61.3563   104.6256 </r>
       <r>    -4.0364    60.0729   108.3353 </r>
       <r>    -3.9747    49.6147   111.3991 </r>
       <r>    -3.9129    44.7214   114.1607 </r>
       <r>    -3.8512    41.8544   116.7453 </r>
       <r>    -3.7894    36.7703   119.0159 </r>
       <r>    -3.7277    42.2198   121.6231 </r>
       <r>    -3.6659    59.9065   125.3224 </r>
       <r>    -3.6042    61.9071   129.1453 </r>
       <r>    -3.5424    54.2313   132.4942 </r>
       <r>    -3.4807    55.7302   135.9357 </r>
       <r>    -3.4189    68.5092   140.1662 </r>
       <r>    -3.3572    76.8618   144.9126 </r>
       <r>    -3.2954    71.4645   149.3257 </r>
       <r>    -3.2337    64.9740   153.3380 </r>
       <r>    -3.1719    71.2920   157.7404 </r>
       <r>    -3.1102    87.4270   163.1392 </r>
       <r>    -3.0484    85.9738   168.4482 </r>
       <r>    -2.9867    78.4181   173.2907 </r>
       <r>    -2.9249    79.3081   178.1881 </r>
       <r>    -2.8632    74.7450   182.8038 </r>
       <r>    -2.8014    84.1671   188.0013 </r>
       <r>    -2.7396   102.8171   194.3504 </r>
       <r>    -2.6779   103.7814   200.7591 </r>
       <r>    -2.6161    83.6952   205.9275 </r>
       <r>    -2.5544    62.5661   209.7911 </r>
       <r>    -2.4926    63.1189   213.6888 </r>
       <r>    -2.4309    61.3636   217.4781 </r>
       <r>    -2.3691    44.4317   220.2219 </r>
       <r>    -2.3074    29.2963   222.0310 </r>
       <r>    -2.2456    23.9828   223.5119 </r>
       <r>    -2.1839    29.9897   225.3639 </r>
       <r>    -2.1221    43.8730   228.0731 </r>
       <r>    -2.0604    64.0294   232.0270 </r>
       <r>    -1.9986    86.9556   237.3967 </r>
       <r>    -1.9369    92.9214   243.1348 </r>
       <r>    -1.8751    81.4727   248.1659 </r>
       <r>    -1.8134    61.0785   251.9376 </r>
       <r>    -1.7516    43.6304   254.6319 </r>
       <r>    -1.6899    41.4831   257.1936 </r>
       <r>    -1.6281    47.9986   260.1576 </r>
       <r>    -1.5664    58.0483   263.7422 </r>
       <r>    -1.5046    58.0094   267.3244 </r>
       <r>    -1.4429    51.8865   270.5285 </r>
       <r>    -1.3811    57.9466   274.1068 </r>
       <r>    -1.3194    61.1660   277.8839 </r>
       <r>    -1.2576    51.6072   281.0707 </r>
       <r>    -1.1958    54.4736   284.4346 </r>
       <r>    -1.1341    74.0653   289.0083 </r>
       <r>    -1.0723    85.2246   294.2711 </r>
       <r>    -1.0106    85.4614   299.5485 </r>
       <r>    -0.9488    71.4277   303.9593 </r>
       <r>    -0.8871    57.5491   307.5131 </r>
       <r>    -0.8253    56.7803   311.0194 </r>
       <r>    -0.7636    51.6362   314.2080 </r>
       <r>    -0.7018    42.8778   316.8558 </r>
       <r>    -0.6401    50.6384   319.9828 </r>
       <r>    -0.5783    62.6917   323.8541 </r>
       <r>    -0.5166    60.0246   327.5608 </r>
       <r>    -0.4548    58.8665   331.1959 </r>
       <r>    -0.3931    69.0359   335.4590 </r>
       <r>    -0.3313    88.6247   340.9318 </r>
       <r>    -0.2696    95.3245   346.8182 </r>
       <r>    -0.2078    71.6024   351.2398 </r>
       <r>    -0.1461    55.7610   354.6832 </r>
       <r>    -0.0843    84.4846   359.9003 </r>
       <r>    -0.0226    96.8365   365.8801 </r>
       <r>     0.0392    56.5604   369.3728 </r>
       <r>     0.1009    32.5589   371.3834 </r>
       <r>     0.1627    51.0312   374.5347 </r>
       <r>     0.2244    56.1942   378.0048 </r>
       <r>     0.2862    43.9145   380.7166 </r>
       <r>     0.3480    38.8169   383.1136 </r>
       <r>     0.4097    27.5043   384.8121 </r>
       <r>     0.4715    12.9405   385.6112 </r>
       <r>     0.5332     3.5217   385.8286 </r>
       <r>     0.5950     1.1247   385.8981 </r>
       <r>     0.6567     4.5749   386.1806 </r>
       <r>     0.7185    11.7589   386.9067 </r>
       <r>     0.7802    17.0157   387.9575 </r>
       <r>     0.8420    12.6195   388.7368 </r>
       <r>     0.9037     7.6392   389.2085 </r>
       <r>     0.9655    10.5019   389.8570 </r>
       <r>     1.0272     9.9107   390.4690 </r>
       <r>     1.0890     2.5671   390.6276 </r>
       <r>     1.1507     1.5508   390.7233 </r>
       <r>     1.2125     9.9928   391.3404 </r>
       <r>     1.2742    15.2242   392.2805 </r>
       <r>     1.3360    13.4789   393.1129 </r>
       <r>     1.3977    10.8104   393.7804 </r>
       <r>     1.4595    14.3698   394.6678 </r>
       <r>     1.5212    26.0388   396.2757 </r>
       <r>     1.5830    26.3747   397.9044 </r>
       <r>     1.6447    18.2363   399.0306 </r>
       <r>     1.7065    15.3164   399.9764 </r>
       <r>     1.7682    10.4330   400.6206 </r>
       <r>     1.8300     2.5888   400.7805 </r>
       <r>     1.8918     1.6233   400.8807 </r>
       <r>     1.9535     3.9835   401.1267 </r>
       <r>     2.0153     5.8701   401.4892 </r>
       <r>     2.0770     6.5485   401.8936 </r>
       <r>     2.1388     5.2859   402.2200 </r>
       <r>     2.2005     8.5138   402.7458 </r>
       <r>     2.2623    11.5328   403.4579 </r>
       <r>     2.3240    10.8378   404.1272 </r>
       <r>     2.3858    14.4191   405.0176 </r>
       <r>     2.4475    21.1806   406.3256 </r>
       <r>     2.5093    20.9272   407.6179 </r>
       <r>     2.5710    11.8458   408.3494 </r>
       <r>     2.6328     6.5251   408.7523 </r>
       <r>     2.6945     6.3527   409.1446 </r>
       <r>     2.7563    10.1358   409.7705 </r>
       <r>     2.8180    18.6157   410.9201 </r>
       <r>     2.8798    19.6417   412.1330 </r>
       <r>     2.9415    13.2252   412.9496 </r>
       <r>     3.0033     8.0081   413.4442 </r>
       <r>     3.0650    11.1064   414.1300 </r>
       <r>     3.1268    14.1815   415.0057 </r>
       <r>     3.1885    11.0070   415.6854 </r>
       <r>     3.2503     9.8805   416.2956 </r>
       <r>     3.3120     8.5385   416.8229 </r>
       <r>     3.3738     3.3547   417.0300 </r>
       <r>     3.4356    -0.1875   417.0184 </r>
       <r>     3.4973     2.6956   417.1849 </r>
       <r>     3.5591    11.3477   417.8856 </r>
       <r>     3.6208    20.9945   419.1821 </r>
       <r>     3.6826    26.0274   420.7893 </r>
       <r>     3.7443    21.7383   422.1317 </r>
       <r>     3.8061    11.7632   422.8581 </r>
       <r>     3.8678     4.9690   423.1650 </r>
       <r>     3.9296     3.1480   423.3594 </r>
       <r>     3.9913     3.3652   423.5672 </r>
       <r>     4.0531     3.8317   423.8038 </r>
       <r>     4.1148     6.5501   424.2083 </r>
       <r>     4.1766     9.2079   424.7769 </r>
       <r>     4.2383     8.0798   425.2758 </r>
       <r>     4.3001     5.6633   425.6255 </r>
       <r>     4.3618    11.6443   426.3446 </r>
       <r>     4.4236    24.2578   427.8426 </r>
       <r>     4.4853    21.4385   429.1664 </r>
       <r>     4.5471     8.2130   429.6736 </r>
       <r>     4.6088     7.1104   430.1127 </r>
       <r>     4.6706    12.6703   430.8951 </r>
       <r>     4.7323    15.2443   431.8365 </r>
       <r>     4.7941    12.8601   432.6306 </r>
       <r>     4.8558     8.0267   433.1263 </r>
       <r>     4.9176     5.5918   433.4716 </r>
       <r>     4.9794     8.1223   433.9731 </r>
       <r>     5.0411     9.5650   434.5638 </r>
       <r>     5.1029     5.7500   434.9189 </r>
       <r>     5.1646     5.7183   435.2720 </r>
       <r>     5.2264    11.4814   435.9810 </r>
       <r>     5.2881    15.0835   436.9124 </r>
       <r>     5.3499    13.0489   437.7182 </r>
       <r>     5.4116    10.3298   438.3561 </r>
       <r>     5.4734    13.9626   439.2183 </r>
       <r>     5.5351    20.9617   440.5128 </r>
       <r>     5.5969    26.5939   442.1550 </r>
       <r>     5.6586    25.7963   443.7480 </r>
       <r>     5.7204    21.8619   445.0980 </r>
       <r>     5.7821    20.2629   446.3492 </r>
       <r>     5.8439    18.2899   447.4787 </r>
       <r>     5.9056    15.6617   448.4458 </r>
       <r>     5.9674    21.3963   449.7671 </r>
       <r>     6.0291    32.7629   451.7903 </r>
       <r>     6.0909    30.1848   453.6542 </r>
       <r>     6.1526    16.4862   454.6723 </r>
       <r>     6.2144    12.4998   455.4442 </r>
       <r>     6.2761    19.2658   456.6339 </r>
       <r>     6.3379    29.9084   458.4808 </r>
       <r>     6.3996    29.7118   460.3155 </r>
       <r>     6.4614    19.1776   461.4998 </r>
       <r>     6.5232    16.2895   462.5057 </r>
       <r>     6.5849    20.1473   463.7498 </r>
       <r>     6.6467    23.3031   465.1889 </r>
       <r>     6.7084    25.2611   466.7488 </r>
       <r>     6.7702    26.8097   468.4043 </r>
       <r>     6.8319    25.3769   469.9714 </r>
       <r>     6.8937    19.3060   471.1636 </r>
       <r>     6.9554     9.7545   471.7659 </r>
       <r>     7.0172     8.0003   472.2600 </r>
       <r>     7.0789    19.2342   473.4477 </r>
       <r>     7.1407    25.8573   475.0445 </r>
       <r>     7.2024    21.9579   476.4004 </r>
       <r>     7.2642    17.1513   477.4595 </r>
       <r>     7.3259    10.9625   478.1365 </r>
       <r>     7.3877     4.9260   478.4407 </r>
       <r>     7.4494     3.3131   478.6453 </r>
       <r>     7.5112     4.7937   478.9413 </r>
       <r>     7.5729     6.3285   479.3321 </r>
       <r>     7.6347     7.0049   479.7647 </r>
       <r>     7.6964     3.8543   480.0027 </r>
       <r>     7.7582     0.3416   480.0238 </r>
       <r>     7.8199    -0.3000   480.0052 </r>
       <r>     7.8817    -0.0781   480.0004 </r>
       <r>     7.9434    -0.0066   480.0000 </r>
       <r>     8.0052    -0.0002   480.0000 </r>
       <r>     8.0670    -0.0000   480.0000 </r>
       <r>     8.1287    -0.0000   480.0000 </r>
       <r>     8.1905    -0.0000   480.0000 </r>
       <r>     8.2522    -0.0000   480.0000 </r>
       <r>     8.3140     0.0000   480.0000 </r>
       <r>     8.3757     0.0000   480.0000 </r>
       <r>     8.4375     0.0000   480.0000 </r>
       <r>     8.4992     0.0000   480.0000 </r>
       <r>     8.5610     0.0000   480.0000 </r>
       <r>     8.6227     0.0000   480.0000 </r>
      </set>
     </set>
    </array>
   </total>
  </dos>
 </calculation>
 <structure name="finalpos" >
  <crystal>
   <varray name="basis" >
    <v>       8.46831000       0.00000000       0.00000000 </v>
    <v>       4.23415500       7.33377159       0.00000000 </v>
    <v>       0.00000000       0.00000000      24.96566199 </v>
   </varray>
   <i name="volume">   1550.48373159 </i>
   <varray name="rec_basis" >
    <v>       0.11808732      -0.06817774       0.00000000 </v>
    <v>       0.00000000       0.13635549       0.00000000 </v>
    <v>       0.00000000       0.00000000       0.04005502 </v>
   </varray>
  </crystal>
  <varray name="positions" >
   <v>       0.00000000       0.00000000       0.34046764 </v>
   <v>       0.33400137       0.00000000       0.34046764 </v>
   <v>       0.66800274       0.00000000       0.34046764 </v>
   <v>       0.00000000       0.33400137       0.34046764 </v>
   <v>       0.33400137       0.33400137       0.34046764 </v>
   <v>       0.66800274       0.33400137       0.34046764 </v>
   <v>       0.00000000       0.66800274       0.34046764 </v>
   <v>       0.33400137       0.66800274       0.34046764 </v>
   <v>       0.66800274       0.66800274       0.34046764 </v>
   <v>       0.11133379       0.11133379       0.43297074 </v>
   <v>       0.44533516       0.11133379       0.43297074 </v>
   <v>       0.77933653       0.11133379       0.43297074 </v>
   <v>       0.11133379       0.44533516       0.43297074 </v>
   <v>       0.44533516       0.44533516       0.43297074 </v>
   <v>       0.77933653       0.44533516       0.43297074 </v>
   <v>       0.11133379       0.77933653       0.43297074 </v>
   <v>       0.44533516       0.77933653       0.43297074 </v>
   <v>       0.77933653       0.77933653       0.43297074 </v>
   <v>       0.88937723       0.22464561       0.52502500 </v>
   <v>       0.22197502       0.22398340       0.52549664 </v>
   <v>       0.55435298       0.22422065       0.52487439 </v>
   <v>       0.88976223       0.55636186       0.52511596 </v>
   <v>       0.22234896       0.55621072       0.52502544 </v>
   <v>       0.55575891       0.55656222       0.52418085 </v>
   <v>       0.88897528       0.89043618       0.52444990 </v>
   <v>       0.22214585       0.89006107       0.52421476 </v>
   <v>       0.55598742       0.88995493       0.52423650 </v>
   <v>       0.99980850       0.00051834       0.61779528 </v>
   <v>       0.33448031       0.99753026       0.61742826 </v>
   <v>       0.66638679       0.00034864       0.61775135 </v>
   <v>       0.99742460       0.33226787       0.62052692 </v>
   <v>       0.33807410       0.33184857       0.62030268 </v>
   <v>       0.66644408       0.33429204       0.61780365 </v>
   <v>       0.99699904       0.67273247       0.61829515 </v>
   <v>       0.33345195       0.66825902       0.61745771 </v>
   <v>       0.66483639       0.66813337       0.61745597 </v>
   <v>       0.13346414       0.39980622       0.65728943 </v>
  </varray>
  <varray name="selective"  type="logical" >
   <v type="logical" >  F  F  F </v>
   <v type="logical" >  F  F  F </v>
   <v type="logical" >  F  F  F </v>
   <v type="logical" >  F  F  F </v>
   <v type="logical" >  F  F  F </v>
   <v type="logical" >  F  F  F </v>
   <v type="logical" >  F  F  F </v>
   <v type="logical" >  F  F  F </v>
   <v type="logical" >  F  F  F </v>
   <v type="logical" >  F  F  F </v>
   <v type="logical" >  F  F  F </v>
   <v type="logical" >  F  F  F </v>
   <v type="logical" >  F  F  F </v>
   <v type="logical" >  F  F  F </v>
   <v type="logical" >  F  F  F </v>
   <v type="logical" >  F  F  F </v>
   <v type="logical" >  F  F  F </v>
   <v type="logical" >  F  F  F </v>
   <v type="logical" >  T  T  T </v>
   <v type="logical" >  T  T  T </v>
   <v type="logical" >  T  T  T </v>
   <v type="logical" >  T  T  T </v>
   <v type="logical" >  T  T  T </v>
   <v type="logical" >  T  T  T </v>
   <v type="logical" >  T  T  T </v>
   <v type="logical" >  T  T  T </v>
   <v type="logical" >  T  T  T </v>
   <v type="logical" >  T  T  T </v>
   <v type="logical" >  T  T  T </v>
   <v type="logical" >  T  T  T </v>
   <v type="logical" >  T  T  T </v>
   <v type="logical" >  T  T  T </v>
   <v type="logical" >  T  T  T </v>
   <v type="logical" >  T  T  T </v>
   <v type="logical" >  T  T  T </v>
   <v type="logical" >  T  T  T </v>
   <v type="logical" >  T  T  T </v>
  </varray>
  <nose>
   <v>      -3.00000000       0.00000000       0.00010000       0.00010000 </v>
  </nose>
 </structure>
</modeling>
