unknown system                          
           1
     8.468310    0.000000    0.000000
     4.234155    7.333772    0.000000
     0.000000    0.000000   24.965662
   Pt   H 
    36     1
Direct configuration=     1
   0.00000000  0.00000000  0.34046764
   0.33400137  0.00000000  0.34046764
   0.66800274  0.00000000  0.34046764
   0.00000000  0.33400137  0.34046764
   0.33400137  0.33400137  0.34046764
   0.66800274  0.33400137  0.34046764
   0.00000000  0.66800274  0.34046764
   0.33400137  0.66800274  0.34046764
   0.66800274  0.66800274  0.34046764
   0.11133379  0.11133379  0.43297074
   0.44533516  0.11133379  0.43297074
   0.77933653  0.11133379  0.43297074
   0.11133379  0.44533516  0.43297074
   0.44533516  0.44533516  0.43297074
   0.77933653  0.44533516  0.43297074
   0.11133379  0.77933653  0.43297074
   0.44533516  0.77933653  0.43297074
   0.77933653  0.77933653  0.43297074
   0.88937723  0.22464561  0.52502500
   0.22197502  0.22398340  0.52549664
   0.55435298  0.22422065  0.52487439
   0.88976223  0.55636186  0.52511596
   0.22234896  0.55621072  0.52502544
   0.55575891  0.55656222  0.52418085
   0.88897528  0.89043618  0.52444990
   0.22214585  0.89006107  0.52421476
   0.55598742  0.88995493  0.52423650
   0.99980850  0.00051834  0.61779528
   0.33448031  0.99753026  0.61742826
   0.66638679  0.00034864  0.61775135
   0.99742460  0.33226787  0.62052692
   0.33807410  0.33184857  0.62030268
   0.66644408  0.33429204  0.61780365
   0.99699904  0.67273247  0.61829515
   0.33345195  0.66825902  0.61745771
   0.66483639  0.66813337  0.61745597
   0.13346414  0.39980622  0.65728943
