
     Program PWSCF v.7.1 starts on  4Feb2025 at 14: 9:44 
        Git branch: heads/qe-7.1
        Last git commit: 48ba0178f8fede6d020eb786884699a9f063f55d-dirty
        Last git commit date: Fri Jan 27 14:22:33 2023 +0000
        Last git commit subject: Merge branch 'fix_hubbard' into 'develop'

     This program is part of the open-source Quantum ESPRESSO suite
     for quantum simulation of materials; please cite
         "P. Giannozzi et al., J. Phys.:Condens. Matter 21 395502 (2009);
         "P. Giannozzi et al., J. Phys.:Condens. Matter 29 465901 (2017);
         "P. Giannozzi et al., J. Chem. Phys. 152 154105 (2020);
          URL http://www.quantum-espresso.org", 
     in publications or presentations arising from this work. More details at
     http://www.quantum-espresso.org/quote

     Parallel version (MPI), running on    48 processors

     MPI processes distributed on     1 nodes
     187484 MiB available memory on the printing compute node when the environment starts

     Reading input from espresso.pwi
Warning: card &CELL ignored
Warning: card / ignored
Warning: card &FCP ignored
Warning: card / ignored
Warning: card &RISM ignored
Warning: card / ignored

     Current dimensions of program PWSCF are:
     Max number of different atomic species (ntypx) = 10
     Max number of k-points (npk) =  40000
     Max angular momentum in pseudopotentials (lmaxx) =  4
     file Pt.pbe-n-kjpaw_psl.1.0.0.UPF: wavefunction(s)  6S 5D renormalized
     file H.pbe-kjpaw_psl.1.0.0.UPF: wavefunction(s)  1S renormalized

     **************************************************************************
     Initializing libbeef V0.1.2 with the BEEF-vdW functional.
     Citation: Wellendorff et al., PRB 85, 235149 (2012).
     **************************************************************************


     IMPORTANT: XC functional enforced from input :
     Exchange-correlation= BEEF-VDW
                           (   1   4  43  14   2   0   0)
     Any further DFT definition will be discarded
     Please, verify this is what you really want


     R & G space division:  proc/nbgrp/npool/nimage =      48
     Subspace diagonalization in iterative solution of the eigenvalue problem:
     one sub-group per band group will be used
     custom distributed-memory algorithm (size of sub-group:  2*  2 procs)


     Parallelization info
     --------------------
     sticks:   dense  smooth     PW     G-vecs:    dense   smooth      PW
     Min         150      59     16                30552     7447    1068
     Max         151      60     17                30571     7456    1081
     Sum        7243    2839    769              1467143   357639   51591

     Using Slab Decomposition



     bravais-lattice index     =            0
     lattice parameter (alat)  =      16.0028  a.u.
     unit-cell volume          =   10463.1828 (a.u.)^3
     number of atoms/cell      =           37
     number of atomic types    =            2
     number of electrons       =       361.00
     number of Kohn-Sham states=          217
     kinetic-energy cutoff     =      40.0000  Ry
     charge density cutoff     =     410.0000  Ry
     scf convergence threshold =      1.0E-06
     mixing beta               =       0.7000
     number of iterations used =            8  local-TF  mixing
     Exchange-correlation= BEEF-VDW
                           (   1   4  43  14   2   0   0)

     celldm(1)=  16.002787  celldm(2)=   0.000000  celldm(3)=   0.000000
     celldm(4)=   0.000000  celldm(5)=   0.000000  celldm(6)=   0.000000

     crystal axes: (cart. coord. in units of alat)
               a(1) = (   1.000000   0.000000   0.000000 )  
               a(2) = (   0.500000   0.866025   0.000000 )  
               a(3) = (   0.000000   0.000000   2.948128 )  

     reciprocal axes: (cart. coord. in units 2 pi/alat)
               b(1) = (  1.000000 -0.577350  0.000000 )  
               b(2) = (  0.000000  1.154701  0.000000 )  
               b(3) = (  0.000000  0.000000  0.339198 )  


     PseudoPot. # 1 for Pt read from file:
     /users/kbadger1/espresso/pseudo/pslibrary.1.0.0/pbe/PSEUDOPOTENTIALS/Pt.pbe-n-kjpaw_psl.1.0.0.UPF
     MD5 check sum: 2e24a0b5bf98a4ed1a57fa81bca8c143
     Pseudo is Projector augmented-wave + core cor, Zval = 10.0
     Generated using 'atomic' code by A. Dal Corso  v.7.0
     Shape of augmentation charge: PSQ
     Using radial grid of 1277 points,  6 beta functions with: 
                l(1) =   0
                l(2) =   0
                l(3) =   1
                l(4) =   1
                l(5) =   2
                l(6) =   2
     Q(r) pseudized with 0 coefficients 


     PseudoPot. # 2 for H  read from file:
     /users/kbadger1/espresso/pseudo/pslibrary.1.0.0/pbe/PSEUDOPOTENTIALS/H.pbe-kjpaw_psl.1.0.0.UPF
     MD5 check sum: fe4c6fa958fa6d3815bf5d2419cbf1df
     Pseudo is Projector augmented-wave, Zval =  1.0
     Generated using 'atomic' code by A. Dal Corso  v.7.0
     Shape of augmentation charge: PSQ
     Using radial grid of  929 points,  2 beta functions with: 
                l(1) =   0
                l(2) =   0
     Q(r) pseudized with 0 coefficients 


     atomic species   valence    mass     pseudopotential
        Pt            10.00   195.08400     Pt( 1.00)
        H              1.00     1.00800     H ( 1.00)

     No symmetry found



   Cartesian axes

     site n.     atom                  positions (alat units)
         1           Pt  tau(   1) = (   0.0000000   0.0000000   1.0037422  )
         2           Pt  tau(   2) = (   0.3340014   0.0000000   1.0037422  )
         3           Pt  tau(   3) = (   0.6680027   0.0000000   1.0037422  )
         4           Pt  tau(   4) = (   0.1670007   0.2892537   1.0037422  )
         5           Pt  tau(   5) = (   0.5010021   0.2892537   1.0037422  )
         6           Pt  tau(   6) = (   0.8350034   0.2892537   1.0037422  )
         7           Pt  tau(   7) = (   0.3340014   0.5785073   1.0037422  )
         8           Pt  tau(   8) = (   0.6680027   0.5785073   1.0037422  )
         9           Pt  tau(   9) = (   1.0020041   0.5785073   1.0037422  )
        10           Pt  tau(  10) = (   0.1670007   0.0964179   1.2764532  )
        11           Pt  tau(  11) = (   0.5010021   0.0964179   1.2764532  )
        12           Pt  tau(  12) = (   0.8350034   0.0964179   1.2764532  )
        13           Pt  tau(  13) = (   0.3340014   0.3856716   1.2764532  )
        14           Pt  tau(  14) = (   0.6680027   0.3856716   1.2764532  )
        15           Pt  tau(  15) = (   1.0020041   0.3856716   1.2764532  )
        16           Pt  tau(  16) = (   0.5010021   0.6749252   1.2764532  )
        17           Pt  tau(  17) = (   0.8350034   0.6749252   1.2764532  )
        18           Pt  tau(  18) = (   1.1690048   0.6749252   1.2764532  )
        19           Pt  tau(  19) = (   0.0051126   0.1927892   1.5500115  )
        20           Pt  tau(  20) = (   0.3362584   0.1915130   1.5485129  )
        21           Pt  tau(  21) = (   0.6690121   0.1918607   1.5480040  )
        22           Pt  tau(  22) = (   0.1697533   0.4788047   1.5477216  )
        23           Pt  tau(  23) = (   0.5026468   0.4789596   1.5473550  )
        24           Pt  tau(  24) = (   0.8367363   0.4795318   1.5456869  )
        25           Pt  tau(  25) = (   0.3366812   0.7690745   1.5459284  )
        26           Pt  tau(  26) = (   0.6695010   0.7680837   1.5462023  )
        27           Pt  tau(  27) = (   1.0034833   0.7677726   1.5459904  )
        28           Pt  tau(  28) = (   0.0048801  -0.0052618   1.8218538  )
        29           Pt  tau(  29) = (   0.3387596  -0.0088452   1.8205874  )
        30           Pt  tau(  30) = (   0.6717202  -0.0050619   1.8219542  )
        31           Pt  tau(  31) = (   0.1710492   0.2820883   1.8339969  )
        32           Pt  tau(  32) = (   0.5055332   0.2828071   1.8301305  )
        33           Pt  tau(  33) = (   0.8375695   0.2836546   1.8222764  )
        34           Pt  tau(  34) = (   0.3382645   0.5755043   1.8205531  )
        35           Pt  tau(  35) = (   0.6716799   0.5717116   1.8214363  )
        36           Pt  tau(  36) = (   1.0053453   0.5721274   1.8213607  )
        37           H   tau(  37) = (   0.3061917   0.2910411   1.9715251  )

     number of k points=    13  Marzari-Vanderbilt smearing, width (Ry)=  0.0200
                       cart. coord. in units 2pi/alat
        k(    1) = (   0.0000000   0.0000000   0.0000000), wk =   0.0800000
        k(    2) = (   0.0000000   0.2309401   0.0000000), wk =   0.1600000
        k(    3) = (   0.0000000   0.4618802   0.0000000), wk =   0.1600000
        k(    4) = (   0.2000000  -0.1154701   0.0000000), wk =   0.1600000
        k(    5) = (   0.2000000   0.1154701   0.0000000), wk =   0.1600000
        k(    6) = (   0.2000000   0.3464102   0.0000000), wk =   0.1600000
        k(    7) = (   0.2000000  -0.5773503   0.0000000), wk =   0.1600000
        k(    8) = (   0.2000000  -0.3464102   0.0000000), wk =   0.1600000
        k(    9) = (   0.4000000  -0.2309401   0.0000000), wk =   0.1600000
        k(   10) = (   0.4000000   0.0000000   0.0000000), wk =   0.1600000
        k(   11) = (   0.4000000   0.2309401   0.0000000), wk =   0.1600000
        k(   12) = (   0.4000000  -0.6928203   0.0000000), wk =   0.1600000
        k(   13) = (   0.4000000  -0.4618802   0.0000000), wk =   0.1600000

     Dense  grid:  1467143 G-vectors     FFT dimensions: ( 108, 108, 320)

     Smooth grid:   357639 G-vectors     FFT dimensions: (  72,  72, 192)

     Estimated max dynamical RAM per process >     211.30 MB

     Estimated total dynamical RAM >       9.90 GB

     Initial potential from superposition of free atoms

     starting charge     360.9939, renormalised to     361.0000

     negative rho (up, down):  3.621E-03 0.000E+00


     %%%%%%%%%%%%%%%%%%%%%%%%%%%%%%%%%%%%%%%%%%%%%%%%%%%%%%%%%%%%%%%%%%%%%%%%
     %                                                                      %
     % You are using vdW-DF, which was implemented by the Thonhauser group. %
     % Please cite the following two papers that made this development      %
     % possible and the two reviews that describe the various versions:     %
     %                                                                      %
     %   T. Thonhauser et al., PRL 115, 136402 (2015).                      %
     %   T. Thonhauser et al., PRB 76, 125112 (2007).                       %
     %   K. Berland et al., Rep. Prog. Phys. 78, 066501 (2015).             %
     %   D.C. Langreth et al., J. Phys.: Condens. Matter 21, 084203 (2009). %
     %                                                                      %
     % If you are calculating stress with vdW-DF, please also cite:         %
     %                                                                      %
     %   R. Sabatini et al., J. Phys.: Condens. Matter 24, 424209 (2012).   %
     %                                                                      %
     %%%%%%%%%%%%%%%%%%%%%%%%%%%%%%%%%%%%%%%%%%%%%%%%%%%%%%%%%%%%%%%%%%%%%%%%

     %%%%%%%%%%%%%%%%%%%%%%%%%%%%%%%%%%%%%%%%%%%%%%%%%%%%%%%%%%%%%%%%%%%%%%%%
     %                                                                      %
     %  vdW-DF NEWS:                                                        %
     %                                                                      %
     %  * vdW-DF3 is now available. DOI: 10.1021/acs.jctc.0c00471           %
     %    use with input_dft = 'vdW-DF3-opt1' or 'vdW-DF3-opt2'             %
     %                                                                      %
     %  * Unscreened and range-separated hybrid vdW-DF-cx functionals       %
     %    DOI: 10.1063/1.4986522 and 10.1088/1361-648X/ac2ad2               %
     %    use with input_dft = 'vdW-DF-cx0'    and 'vdW-DF-ahcx'            %
     %  * Unscreened and range-separated hybrid vdW-DF2-b86r functionals    %
     %    DOI: 10.1063/1.4986522 and DOI: 10.1103/PhysRevX.12.041003        %
     %    use with input_dft = 'vdW-DF2-br0' and 'vdW-DF2-ahbr'             %
     %                                                                      %
     %%%%%%%%%%%%%%%%%%%%%%%%%%%%%%%%%%%%%%%%%%%%%%%%%%%%%%%%%%%%%%%%%%%%%%%%


     Starting wfcs are  325 randomized atomic wfcs
     Checking if some PAW data can be deallocated... 

     total cpu time spent up to now is       23.0 secs

     per-process dynamical memory:   208.7 Mb

     Self-consistent Calculation

     iteration #  1     ecut=    40.00 Ry     beta= 0.70
     Davidson diagonalization with overlap
     ethr =  1.00E-02,  avg # of iterations =  2.0

     Threshold (ethr) on eigenvalues was too large:
     Diagonalizing with lowered threshold

     Davidson diagonalization with overlap
     ethr =  3.80E-04,  avg # of iterations =  3.8

     negative rho (up, down):  1.813E-02 0.000E+00

     total cpu time spent up to now is       65.8 secs

     total energy              =  -27755.28535933 Ry
     estimated scf accuracy    <       1.57406228 Ry

     iteration #  2     ecut=    40.00 Ry     beta= 0.70
     Davidson diagonalization with overlap
     ethr =  4.36E-04,  avg # of iterations =  2.0

     negative rho (up, down):  1.639E-02 0.000E+00

     total cpu time spent up to now is       89.8 secs

     total energy              =  -27755.38516422 Ry
     estimated scf accuracy    <       0.79298211 Ry

     iteration #  3     ecut=    40.00 Ry     beta= 0.70
     Davidson diagonalization with overlap
     ethr =  2.20E-04,  avg # of iterations =  2.0

     negative rho (up, down):  1.111E-02 0.000E+00

     total cpu time spent up to now is      115.0 secs

     total energy              =  -27755.43807326 Ry
     estimated scf accuracy    <       0.09532762 Ry

     iteration #  4     ecut=    40.00 Ry     beta= 0.70
     Davidson diagonalization with overlap
     c_bands:  2 eigenvalues not converged
     c_bands:  1 eigenvalues not converged
     c_bands:  1 eigenvalues not converged
     c_bands:  1 eigenvalues not converged
     c_bands:  1 eigenvalues not converged
     c_bands:  1 eigenvalues not converged
     ethr =  2.64E-05,  avg # of iterations = 16.5

     negative rho (up, down):  8.370E-03 0.000E+00

     total cpu time spent up to now is      171.4 secs

     total energy              =  -27755.48727448 Ry
     estimated scf accuracy    <       0.08360290 Ry

     iteration #  5     ecut=    40.00 Ry     beta= 0.70
     Davidson diagonalization with overlap
     ethr =  2.32E-05,  avg # of iterations =  4.2

     negative rho (up, down):  4.090E-03 0.000E+00

     total cpu time spent up to now is      185.5 secs

     total energy              =  -27755.48724642 Ry
     estimated scf accuracy    <       0.02899976 Ry

     iteration #  6     ecut=    40.00 Ry     beta= 0.70
     Davidson diagonalization with overlap
     ethr =  8.03E-06,  avg # of iterations =  6.4

     negative rho (up, down):  2.178E-03 0.000E+00

     total cpu time spent up to now is      212.5 secs

     total energy              =  -27755.48940321 Ry
     estimated scf accuracy    <       0.00252954 Ry

     iteration #  7     ecut=    40.00 Ry     beta= 0.70
     Davidson diagonalization with overlap
     c_bands:  2 eigenvalues not converged
     ethr =  7.01E-07,  avg # of iterations = 11.2

     negative rho (up, down):  1.695E-03 0.000E+00

     total cpu time spent up to now is      264.2 secs

     total energy              =  -27755.48993088 Ry
     estimated scf accuracy    <       0.00201567 Ry

     iteration #  8     ecut=    40.00 Ry     beta= 0.70
     Davidson diagonalization with overlap
     ethr =  5.58E-07,  avg # of iterations =  1.9

     negative rho (up, down):  1.443E-03 0.000E+00

     total cpu time spent up to now is      288.7 secs

     total energy              =  -27755.49008607 Ry
     estimated scf accuracy    <       0.00020277 Ry

     iteration #  9     ecut=    40.00 Ry     beta= 0.70
     Davidson diagonalization with overlap
     ethr =  5.62E-08,  avg # of iterations =  5.2

     negative rho (up, down):  1.087E-03 0.000E+00

     total cpu time spent up to now is      326.8 secs

     total energy              =  -27755.49021193 Ry
     estimated scf accuracy    <       0.00008479 Ry

     iteration # 10     ecut=    40.00 Ry     beta= 0.70
     Davidson diagonalization with overlap
     ethr =  2.35E-08,  avg # of iterations =  3.8

     negative rho (up, down):  1.028E-03 0.000E+00

     total cpu time spent up to now is      359.4 secs

     total energy              =  -27755.49022933 Ry
     estimated scf accuracy    <       0.00008382 Ry

     iteration # 11     ecut=    40.00 Ry     beta= 0.70
     Davidson diagonalization with overlap
     ethr =  2.32E-08,  avg # of iterations =  1.2

     negative rho (up, down):  1.096E-03 0.000E+00

     total cpu time spent up to now is      385.6 secs

     total energy              =  -27755.49023372 Ry
     estimated scf accuracy    <       0.00004887 Ry

     iteration # 12     ecut=    40.00 Ry     beta= 0.70
     Davidson diagonalization with overlap
     ethr =  1.35E-08,  avg # of iterations =  1.3

     negative rho (up, down):  1.287E-03 0.000E+00

     total cpu time spent up to now is      410.2 secs

     total energy              =  -27755.49023687 Ry
     estimated scf accuracy    <       0.00002155 Ry

     iteration # 13     ecut=    40.00 Ry     beta= 0.70
     Davidson diagonalization with overlap
     ethr =  5.97E-09,  avg # of iterations =  2.0

     negative rho (up, down):  1.732E-03 0.000E+00

     total cpu time spent up to now is      423.0 secs

     total energy              =  -27755.49023937 Ry
     estimated scf accuracy    <       0.00001305 Ry

     iteration # 14     ecut=    40.00 Ry     beta= 0.70
     Davidson diagonalization with overlap
     ethr =  3.62E-09,  avg # of iterations =  2.0

     negative rho (up, down):  2.075E-03 0.000E+00

     total cpu time spent up to now is      448.8 secs

     total energy              =  -27755.49024299 Ry
     estimated scf accuracy    <       0.00000745 Ry

     iteration # 15     ecut=    40.00 Ry     beta= 0.70
     Davidson diagonalization with overlap
     ethr =  2.06E-09,  avg # of iterations =  1.8

     negative rho (up, down):  2.967E-03 0.000E+00

     total cpu time spent up to now is      473.3 secs

     total energy              =  -27755.49023956 Ry
     estimated scf accuracy    <       0.00000718 Ry

     iteration # 16     ecut=    40.00 Ry     beta= 0.70
     Davidson diagonalization with overlap
     ethr =  1.99E-09,  avg # of iterations =  1.5

     negative rho (up, down):  3.414E-03 0.000E+00

     total cpu time spent up to now is      485.2 secs

     End of self-consistent calculation

          k = 0.0000 0.0000 0.0000 ( 44645 PWs)   bands (ev):

    -6.6419  -5.4251  -4.5582  -4.2428  -4.2303  -4.2063  -4.2016  -4.1905
    -4.1859  -4.1754  -3.8242  -3.6641  -3.6622  -3.6500  -3.6423  -3.6385
    -3.5398  -3.1961  -3.1891  -3.1854  -3.1796  -3.1775  -3.0826  -2.9780
    -2.9711  -2.9679  -2.9632  -2.9548  -2.8533  -2.7549  -2.7505  -2.7440
    -2.7424  -2.7336  -2.7183  -2.7052  -2.6928  -2.6888  -2.6687  -2.6569
    -2.3945  -2.1238  -2.1219  -2.0841  -2.0758  -2.0578  -2.0446  -2.0319
    -2.0225  -2.0219  -1.8987  -1.8817  -1.8685  -1.7808  -1.7533  -1.3385
    -1.3186  -1.3106  -1.3088  -1.2901  -1.2540  -1.2448  -1.1206  -1.1145
    -1.1141  -1.1017  -1.0985  -1.0895  -1.0857  -1.0629  -1.0460  -1.0423
    -1.0408  -1.0291  -1.0039  -0.9925  -0.9899  -0.9116  -0.8991  -0.8890
    -0.8747  -0.8697  -0.8592  -0.7006  -0.6642  -0.6588  -0.6553  -0.6434
    -0.6324  -0.6220  -0.6137  -0.5624  -0.5351  -0.5171  -0.4939  -0.4617
    -0.4612  -0.4226  -0.4210  -0.3961  -0.3499  -0.2743  -0.2612  -0.2474
    -0.2421  -0.2372  -0.2163   0.0349   0.2396   0.2550   0.2636   0.2697
     0.2763   0.2856   0.2989   0.3097   0.3176   0.3267   0.3416   0.3747
     0.3929   0.4501   0.5425   0.5467   0.5594   0.5609   0.5782   0.6551
     0.6686   0.7058   0.7245   0.7291   0.7722   0.9469   0.9834   0.9950
     1.0067   1.0153   1.0237   1.0603   1.0908   1.1314   1.2251   1.2337
     1.2432   1.2452   1.2522   1.3244   1.4112   1.4124   1.4260   1.4308
     1.4363   1.4401   1.4522   1.4601   1.4610   1.4648   1.4675   1.5374
     1.5745   1.5779   1.5940   1.6016   1.6095   1.6259   1.6350   1.6829
     1.6904   1.7156   1.7168   1.7215   1.7338   1.7382   1.7439   1.8113
     1.8217   1.8267   1.8322   1.8398   1.8452   1.8564   1.9044   1.9232
     1.9334   1.9377   1.9521   1.9602   2.1239   2.1590   2.2306   2.2378
     2.2516   2.2599   2.2671   2.2696   2.7214   3.0792   3.0999   3.1396
     3.1454   3.1591   3.1611   4.9508   5.3975   5.4314   5.4519   5.4851
     5.4924   6.7621   7.0495   7.0885   7.1067   7.1183   7.1283   7.1853
     7.3207

          k = 0.0000 0.2309 0.0000 ( 44694 PWs)   bands (ev):

    -6.4946  -5.2890  -4.7488  -4.4409  -4.3135  -4.2985  -4.1004  -4.0222
    -3.9636  -3.9579  -3.8718  -3.7444  -3.6185  -3.5957  -3.5833  -3.5692
    -3.5092  -3.2766  -3.1550  -3.1486  -3.1423  -3.0734  -3.0636  -3.0343
    -3.0099  -3.0010  -2.9759  -2.9579  -2.8582  -2.8528  -2.8419  -2.7704
    -2.7576  -2.7319  -2.7249  -2.5694  -2.5353  -2.5257  -2.5157  -2.4965
    -2.3723  -2.2408  -2.2306  -2.2057  -2.1526  -2.1472  -2.1195  -2.0453
    -1.9429  -1.8965  -1.8680  -1.8502  -1.8125  -1.7817  -1.7466  -1.5616
    -1.4737  -1.4667  -1.4122  -1.3922  -1.3726  -1.3261  -1.3168  -1.2894
    -1.2733  -1.2509  -1.2280  -1.1872  -1.1411  -1.1195  -1.0908  -1.0818
    -1.0455  -1.0163  -1.0073  -0.9207  -0.9023  -0.8902  -0.8741  -0.8199
    -0.8134  -0.7985  -0.7918  -0.7091  -0.7054  -0.6923  -0.6762  -0.6652
    -0.6323  -0.6243  -0.5929  -0.5579  -0.5324  -0.5214  -0.5095  -0.4906
    -0.4863  -0.4432  -0.4334  -0.4155  -0.3452  -0.2774  -0.2740  -0.2588
    -0.2509  -0.2423  -0.2215  -0.2143  -0.1743  -0.1607  -0.1585  -0.1306
     0.0941   0.1827   0.2066   0.2441   0.2528   0.2761   0.2893   0.3135
     0.3313   0.3610   0.4589   0.4857   0.5421   0.5926   0.6133   0.6403
     0.6646   0.6870   0.7190   0.7361   0.7455   0.8445   0.8567   0.8724
     0.8807   0.8900   1.0113   1.0657   1.0849   1.1004   1.1102   1.1284
     1.1470   1.1930   1.2237   1.2487   1.2768   1.2868   1.3325   1.3541
     1.3639   1.3696   1.4311   1.4647   1.4938   1.5123   1.5551   1.5976
     1.6299   1.6440   1.6544   1.6682   1.6905   1.7231   1.7807   1.7980
     1.8379   1.8516   1.8685   1.8856   1.9046   1.9161   1.9221   1.9304
     1.9390   1.9795   1.9853   2.1199   2.1234   2.1526   2.1874   2.1937
     2.2052   2.2257   2.2578   2.2741   2.2836   2.3562   2.3845   2.4023
     2.4362   2.5678   2.5774   2.5813   2.6105   2.9522   3.0039   3.4867
     3.7128   3.7470   3.8763   4.5750   5.0921   5.1733   5.7463   5.9293
     5.9497   6.0067   6.1985   6.6412   6.8874   6.9768   7.2750   7.2931
     7.3067

          k = 0.0000 0.4619 0.0000 ( 44748 PWs)   bands (ev):

    -6.0714  -5.4405  -4.9152  -4.4359  -4.3434  -4.3349  -4.0746  -3.9443
    -3.8350  -3.7141  -3.6204  -3.6147  -3.5452  -3.4606  -3.4411  -3.4081
    -3.3986  -3.3884  -3.2618  -3.2309  -3.2234  -3.1887  -3.1788  -3.1517
    -3.0878  -3.0487  -3.0461  -2.8081  -2.7921  -2.7850  -2.7815  -2.7586
    -2.7513  -2.6227  -2.5345  -2.5202  -2.5090  -2.4916  -2.4709  -2.4045
    -2.3014  -2.2087  -2.2021  -2.1804  -2.1781  -2.1213  -2.1006  -2.0504
    -2.0445  -2.0189  -1.9781  -1.9493  -1.8275  -1.8096  -1.7952  -1.7659
    -1.6750  -1.6339  -1.6006  -1.5925  -1.5523  -1.4575  -1.4094  -1.3897
    -1.3853  -1.3645  -1.2908  -1.2753  -1.2672  -1.1724  -1.1639  -1.1511
    -1.1164  -1.0296  -1.0143  -1.0026  -0.9826  -0.9728  -0.9435  -0.8936
    -0.8896  -0.8759  -0.8695  -0.8631  -0.8578  -0.8287  -0.7792  -0.7186
    -0.7155  -0.7074  -0.6954  -0.6750  -0.6677  -0.6170  -0.5322  -0.5286
    -0.5028  -0.4700  -0.4381  -0.4320  -0.4246  -0.4086  -0.3017  -0.2648
    -0.2380  -0.2297  -0.1818  -0.1662  -0.1391  -0.0046   0.0263   0.0455
     0.0982   0.1437   0.1831   0.1952   0.2122   0.2215   0.2349   0.2485
     0.2996   0.3170   0.3304   0.3435   0.3476   0.3717   0.3866   0.4114
     0.4561   0.5258   0.5490   0.5665   0.6405   0.6676   0.7572   0.7645
     0.8439   0.8693   0.9018   0.9728   1.0218   1.0395   1.0642   1.0911
     1.1304   1.1405   1.1699   1.1985   1.2357   1.2465   1.2835   1.3274
     1.3557   1.3900   1.4104   1.4211   1.4350   1.4686   1.5419   1.5926
     1.6398   1.6897   1.7013   1.7184   1.7574   1.8066   1.8234   1.8622
     1.8976   1.9076   1.9117   1.9819   1.9901   2.0026   2.0279   2.1206
     2.1435   2.1575   2.1671   2.1802   2.1917   2.2172   2.2264   2.3943
     2.4102   2.4304   2.4364   2.4471   2.6116   2.6513   2.8918   3.0139
     3.0754   3.2075   3.4840   3.4884   3.7777   3.8766   3.9367   4.2205
     4.4745   4.7104   4.7140   4.7539   4.8921   4.9296   5.0593   5.0809
     5.3114   5.3669   5.7883   6.0005   6.3484   6.5110   6.8494   6.9687
     7.3566

          k = 0.2000-0.1155 0.0000 ( 44694 PWs)   bands (ev):

    -6.4938  -5.2840  -4.7211  -4.4663  -4.3118  -4.2927  -4.0993  -4.0052
    -3.9780  -3.9642  -3.8264  -3.7488  -3.7089  -3.5861  -3.5763  -3.5709
    -3.4464  -3.2846  -3.1590  -3.1481  -3.1452  -3.1218  -3.0646  -3.0411
    -3.0099  -2.9710  -2.9571  -2.9405  -2.9023  -2.8615  -2.8542  -2.7679
    -2.7584  -2.7472  -2.7318  -2.6001  -2.5360  -2.5221  -2.5106  -2.4867
    -2.3720  -2.2426  -2.2369  -2.1948  -2.1525  -2.1361  -2.1227  -2.0372
    -1.9474  -1.9072  -1.8601  -1.8425  -1.8119  -1.7895  -1.7527  -1.5775
    -1.4799  -1.4686  -1.4316  -1.4109  -1.3715  -1.3431  -1.2903  -1.2776
    -1.2639  -1.2524  -1.2150  -1.1881  -1.1532  -1.1149  -1.1040  -1.0684
    -1.0077  -0.9904  -0.9786  -0.9256  -0.9171  -0.8873  -0.8706  -0.8521
    -0.8413  -0.8248  -0.7656  -0.7185  -0.6957  -0.6884  -0.6762  -0.6722
    -0.6416  -0.6211  -0.5934  -0.5526  -0.5302  -0.5170  -0.5073  -0.4890
    -0.4719  -0.4350  -0.4269  -0.4099  -0.3428  -0.2842  -0.2566  -0.2497
    -0.2356  -0.2276  -0.2212  -0.2038  -0.1734  -0.1609  -0.1458  -0.1293
     0.0337   0.1776   0.2185   0.2519   0.2670   0.2767   0.2808   0.3073
     0.3270   0.4083   0.4727   0.4932   0.5436   0.6016   0.6201   0.6259
     0.6768   0.6956   0.7200   0.7406   0.7572   0.8303   0.8509   0.8695
     0.8798   0.8887   0.9558   1.0862   1.0951   1.1064   1.1175   1.1293
     1.1438   1.1884   1.2234   1.2575   1.2723   1.2873   1.3093   1.3522
     1.3674   1.3800   1.4216   1.4735   1.4864   1.5049   1.5382   1.6172
     1.6399   1.6497   1.6668   1.6776   1.7007   1.7194   1.7815   1.7999
     1.8423   1.8553   1.8650   1.8789   1.9004   1.9123   1.9232   1.9293
     1.9333   1.9921   2.0001   2.1182   2.1404   2.1546   2.1689   2.1792
     2.1881   2.2120   2.2338   2.2488   2.2788   2.3437   2.3879   2.4056
     2.4457   2.5596   2.5727   2.5892   2.6142   2.9168   2.9959   3.4872
     3.7360   3.7550   3.8699   4.6289   5.0118   5.1604   5.7643   5.9319
     5.9371   6.0133   6.2587   6.6541   6.8915   6.9997   7.2427   7.2911
     7.2968

          k = 0.2000 0.1155 0.0000 ( 44694 PWs)   bands (ev):

    -6.4939  -5.2838  -4.7203  -4.4785  -4.3110  -4.2816  -4.0997  -4.0122
    -3.9793  -3.9569  -3.8245  -3.7493  -3.7030  -3.5939  -3.5815  -3.5698
    -3.4491  -3.2747  -3.1601  -3.1500  -3.1415  -3.1279  -3.0630  -3.0389
    -3.0096  -2.9741  -2.9554  -2.9403  -2.9142  -2.8612  -2.8464  -2.7766
    -2.7605  -2.7462  -2.7279  -2.6038  -2.5380  -2.5226  -2.5051  -2.4833
    -2.3729  -2.2410  -2.2334  -2.1801  -2.1580  -2.1312  -2.1215  -2.0363
    -1.9367  -1.9037  -1.8674  -1.8487  -1.8068  -1.7890  -1.7664  -1.5665
    -1.4761  -1.4721  -1.4227  -1.3981  -1.3657  -1.3278  -1.3024  -1.2935
    -1.2747  -1.2545  -1.2032  -1.1899  -1.1459  -1.1157  -1.1014  -1.0730
    -1.0242  -1.0084  -0.9956  -0.9246  -0.9154  -0.8900  -0.8690  -0.8363
    -0.8328  -0.7934  -0.7756  -0.7201  -0.7080  -0.6923  -0.6841  -0.6687
    -0.6435  -0.6188  -0.5920  -0.5511  -0.5312  -0.5183  -0.5072  -0.4919
    -0.4640  -0.4454  -0.4312  -0.4124  -0.3426  -0.2840  -0.2534  -0.2488
    -0.2379  -0.2305  -0.2278  -0.2032  -0.1712  -0.1599  -0.1456  -0.1280
     0.0725   0.1867   0.2025   0.2467   0.2561   0.2773   0.2786   0.3171
     0.3244   0.4204   0.4741   0.4882   0.5348   0.5969   0.6176   0.6360
     0.6713   0.6892   0.7164   0.7371   0.7552   0.8135   0.8453   0.8719
     0.8787   0.8899   0.9300   1.0654   1.0978   1.1036   1.1205   1.1312
     1.1468   1.1872   1.2307   1.2624   1.2772   1.2869   1.3353   1.3523
     1.3693   1.3786   1.4388   1.4722   1.4853   1.5082   1.5387   1.6096
     1.6477   1.6517   1.6589   1.6734   1.6869   1.7201   1.7845   1.7968
     1.8252   1.8564   1.8659   1.8756   1.8999   1.9159   1.9261   1.9271
     1.9356   1.9823   1.9897   2.1098   2.1364   2.1576   2.1781   2.1844
     2.1966   2.2214   2.2501   2.2658   2.2800   2.3518   2.3870   2.4043
     2.4339   2.5667   2.5761   2.5849   2.6053   2.9405   3.0096   3.4734
     3.7332   3.7498   3.8669   4.6199   5.0066   5.1725   5.7684   5.9299
     5.9370   6.0183   6.2589   6.6418   6.8909   7.0010   7.2468   7.2909
     7.2997

          k = 0.2000 0.3464 0.0000 ( 44714 PWs)   bands (ev):

    -6.2078  -5.0606  -4.9640  -4.9508  -4.3290  -3.8960  -3.8884  -3.8791
    -3.8590  -3.8323  -3.8066  -3.7899  -3.7094  -3.6988  -3.4786  -3.3294
    -3.3145  -3.2983  -3.2907  -3.2323  -3.1971  -3.0714  -3.0623  -3.0587
    -3.0441  -2.9807  -2.9379  -2.9033  -2.8973  -2.8952  -2.8349  -2.8122
    -2.7984  -2.7414  -2.7352  -2.6564  -2.5095  -2.3943  -2.3176  -2.2966
    -2.2651  -2.2530  -2.2460  -2.2362  -2.1788  -2.1589  -2.1032  -2.0137
    -2.0084  -1.9601  -1.8936  -1.8757  -1.8287  -1.8217  -1.7860  -1.7289
    -1.7087  -1.5663  -1.5330  -1.5289  -1.4552  -1.4394  -1.4214  -1.4115
    -1.3923  -1.3426  -1.3201  -1.2160  -1.1996  -1.1818  -1.1709  -1.1252
    -1.1151  -1.0552  -1.0426  -1.0164  -0.9765  -0.9014  -0.8842  -0.8632
    -0.8502  -0.8404  -0.8246  -0.8042  -0.7866  -0.7613  -0.7525  -0.7305
    -0.7005  -0.6774  -0.5965  -0.5823  -0.5636  -0.5375  -0.5197  -0.5033
    -0.4825  -0.4569  -0.4355  -0.4268  -0.4198  -0.4078  -0.3945  -0.3833
    -0.3451  -0.3230  -0.2447  -0.2249  -0.1745  -0.1190  -0.1023  -0.0916
    -0.0708   0.0775   0.1230   0.1340   0.2164   0.2376   0.2780   0.2858
     0.3181   0.3358   0.3523   0.3905   0.3965   0.4206   0.4363   0.5195
     0.5789   0.6100   0.6722   0.6848   0.7264   0.7339   0.7556   0.8030
     0.8553   0.9185   0.9254   0.9580   1.0061   1.0286   1.0563   1.1255
     1.1444   1.1537   1.1993   1.2109   1.2296   1.2405   1.2504   1.2609
     1.2780   1.2820   1.3000   1.3912   1.4438   1.4919   1.6035   1.6191
     1.6395   1.7571   1.7816   1.8066   1.8126   1.8498   1.9082   1.9386
     1.9484   1.9658   1.9775   1.9939   2.0088   2.0116   2.0222   2.0560
     2.0731   2.1127   2.1600   2.1881   2.2005   2.2363   2.2472   2.2792
     2.4206   2.4412   2.4845   2.4916   2.5482   2.5564   2.5683   2.6651
     2.7118   2.9957   3.2305   3.2396   3.6293   3.7787   3.7873   3.8014
     4.1922   4.4694   4.4851   4.6822   4.7280   4.7527   5.3636   5.7156
     5.9096   5.9194   6.1062   6.2977   6.6234   6.6732   6.6866   6.7225
     6.7383

          k = 0.2000-0.5774 0.0000 ( 44692 PWs)   bands (ev):

    -5.6776  -5.6690  -5.0528  -4.6847  -4.4349  -4.0670  -3.8977  -3.8024
    -3.7460  -3.7028  -3.6023  -3.5895  -3.5002  -3.4895  -3.4015  -3.3857
    -3.3635  -3.3310  -3.3280  -3.2993  -3.1915  -3.1728  -3.1586  -3.1378
    -3.1202  -3.1033  -3.0196  -2.9112  -2.8864  -2.7746  -2.7680  -2.7570
    -2.7411  -2.7101  -2.6564  -2.6276  -2.5455  -2.5186  -2.4472  -2.3355
    -2.3167  -2.2843  -2.1833  -2.1443  -2.1172  -2.1007  -2.0082  -1.9614
    -1.9277  -1.9094  -1.8849  -1.8372  -1.8232  -1.7960  -1.7169  -1.7107
    -1.6969  -1.6770  -1.6641  -1.6554  -1.6263  -1.5866  -1.5522  -1.4784
    -1.4586  -1.4049  -1.3583  -1.3062  -1.2531  -1.2454  -1.2363  -1.1882
    -1.1804  -1.1588  -1.0999  -1.0625  -1.0550  -1.0327  -1.0008  -0.9600
    -0.9318  -0.9105  -0.8516  -0.8250  -0.8095  -0.7930  -0.7397  -0.6899
    -0.6444  -0.6219  -0.6072  -0.5959  -0.5601  -0.5514  -0.5369  -0.5304
    -0.5202  -0.4914  -0.4743  -0.4390  -0.4133  -0.4082  -0.3855  -0.3794
    -0.3694  -0.3630  -0.3396  -0.2994  -0.2769  -0.1259  -0.0699   0.0092
     0.0396   0.0544   0.1283   0.1479   0.1713   0.1921   0.2154   0.2339
     0.2531   0.2724   0.3077   0.3712   0.3834   0.4126   0.4391   0.4605
     0.5127   0.5221   0.5526   0.6386   0.7379   0.7812   0.7937   0.8194
     0.8521   0.8864   0.9101   0.9220   0.9437   0.9486   0.9786   0.9846
     1.0644   1.1130   1.1213   1.1539   1.1675   1.1879   1.2062   1.2157
     1.2261   1.3784   1.4019   1.4429   1.4922   1.5610   1.6281   1.6443
     1.7072   1.7268   1.7587   1.7778   1.8178   1.8684   1.9269   1.9531
     1.9598   1.9840   1.9907   2.0112   2.0458   2.0847   2.1474   2.1570
     2.1689   2.1766   2.2066   2.2084   2.2188   2.2843   2.3979   2.4181
     2.4290   2.4383   2.4486   2.4981   2.5317   2.6214   2.7145   3.4141
     3.5996   3.6080   3.7718   3.8359   3.9687   3.9788   3.9867   4.3127
     4.5671   4.6192   4.8369   5.0507   5.0799   5.1339   5.2150   5.3698
     5.4429   5.5174   5.5793   5.8296   5.9573   6.0458   6.4376   6.6444
     6.6913

          k = 0.2000-0.3464 0.0000 ( 44714 PWs)   bands (ev):

    -6.2076  -5.0616  -4.9607  -4.9525  -4.3248  -3.8946  -3.8831  -3.8769
    -3.8585  -3.8318  -3.8125  -3.7986  -3.7104  -3.6983  -3.4806  -3.3169
    -3.3066  -3.3026  -3.2954  -3.2192  -3.2025  -3.0719  -3.0644  -3.0595
    -3.0453  -2.9815  -2.9476  -2.9092  -2.9000  -2.8943  -2.8364  -2.8140
    -2.7890  -2.7481  -2.7316  -2.6429  -2.4884  -2.3913  -2.3175  -2.3036
    -2.2730  -2.2598  -2.2442  -2.2351  -2.1911  -2.1740  -2.1331  -2.0163
    -2.0053  -1.9414  -1.9004  -1.8678  -1.8291  -1.8187  -1.7812  -1.7262
    -1.7119  -1.5738  -1.5406  -1.5349  -1.4687  -1.4377  -1.4268  -1.4083
    -1.3912  -1.3473  -1.3256  -1.2164  -1.1933  -1.1689  -1.1611  -1.1234
    -1.1019  -1.0674  -1.0463  -1.0227  -0.9702  -0.9072  -0.8847  -0.8667
    -0.8479  -0.8366  -0.8308  -0.7967  -0.7833  -0.7615  -0.7472  -0.7183
    -0.6914  -0.6804  -0.5901  -0.5843  -0.5590  -0.5363  -0.5083  -0.5001
    -0.4814  -0.4568  -0.4450  -0.4285  -0.4234  -0.4066  -0.4037  -0.3819
    -0.3433  -0.3221  -0.2558  -0.2217  -0.1737  -0.1380  -0.0933  -0.0869
    -0.0700   0.0828   0.1189   0.1272   0.2303   0.2443   0.2806   0.2955
     0.3131   0.3296   0.3655   0.3802   0.4011   0.4171   0.4364   0.4981
     0.6007   0.6231   0.6691   0.6935   0.7199   0.7397   0.7607   0.8073
     0.8634   0.9078   0.9348   0.9851   0.9975   1.0323   1.0681   1.1115
     1.1294   1.1506   1.1837   1.2149   1.2294   1.2396   1.2517   1.2602
     1.2754   1.2785   1.2939   1.3703   1.4646   1.4858   1.5868   1.6255
     1.6492   1.7481   1.7905   1.8035   1.8135   1.8818   1.9128   1.9292
     1.9453   1.9612   1.9822   2.0011   2.0093   2.0170   2.0272   2.0570
     2.0739   2.0967   2.1693   2.1818   2.2169   2.2375   2.2448   2.2849
     2.3692   2.4294   2.4738   2.4846   2.5388   2.5583   2.5665   2.6733
     2.7129   3.0107   3.2377   3.2475   3.6188   3.7685   3.7827   3.7944
     4.1979   4.4720   4.4879   4.6890   4.7269   4.7524   5.3723   5.7135
     5.8984   5.9169   6.1022   6.2855   6.6215   6.6726   6.6939   6.7255
     6.7351

          k = 0.4000-0.2309 0.0000 ( 44748 PWs)   bands (ev):

    -6.0677  -5.4274  -4.8977  -4.4323  -4.3424  -4.3099  -4.0657  -3.9618
    -3.8337  -3.7132  -3.6315  -3.6231  -3.5670  -3.4575  -3.4138  -3.4004
    -3.3915  -3.3608  -3.2513  -3.2344  -3.2164  -3.1843  -3.1680  -3.1617
    -3.0751  -3.0582  -3.0513  -3.0047  -2.7921  -2.7898  -2.7806  -2.7760
    -2.7639  -2.6887  -2.5380  -2.5342  -2.5191  -2.4902  -2.4751  -2.4021
    -2.2781  -2.2061  -2.1930  -2.1825  -2.1588  -2.1305  -2.0814  -2.0715
    -2.0391  -2.0205  -1.9839  -1.9217  -1.8307  -1.8249  -1.8003  -1.7524
    -1.6871  -1.6670  -1.6214  -1.5985  -1.5730  -1.4594  -1.4011  -1.3843
    -1.3782  -1.3510  -1.2997  -1.2794  -1.2196  -1.1445  -1.1303  -1.1145
    -1.0703  -1.0352  -1.0166  -0.9973  -0.9908  -0.9674  -0.9329  -0.9171
    -0.8935  -0.8879  -0.8775  -0.8582  -0.8355  -0.8326  -0.7748  -0.7368
    -0.7231  -0.7075  -0.6985  -0.6897  -0.6633  -0.5824  -0.5261  -0.5080
    -0.4756  -0.4642  -0.4549  -0.4253  -0.3840  -0.3632  -0.3145  -0.2546
    -0.2367  -0.2254  -0.1835  -0.1488  -0.1187  -0.0082   0.0070   0.0764
     0.1026   0.1376   0.1703   0.1902   0.1980   0.2111   0.2195   0.2520
     0.3009   0.3171   0.3327   0.3412   0.3604   0.3787   0.4022   0.4129
     0.4252   0.5449   0.5718   0.5812   0.6347   0.6571   0.7614   0.7742
     0.8370   0.8719   0.8990   0.9498   1.0186   1.0513   1.0926   1.1087
     1.1222   1.1373   1.1642   1.1902   1.2220   1.2412   1.2833   1.3173
     1.3544   1.3866   1.4110   1.4260   1.4403   1.4908   1.5366   1.6084
     1.6667   1.6906   1.7129   1.7222   1.7502   1.8077   1.8269   1.8657
     1.8950   1.9141   1.9210   1.9677   2.0043   2.0175   2.0291   2.1248
     2.1411   2.1536   2.1695   2.1750   2.1799   2.1908   2.2113   2.3933
     2.3986   2.4005   2.4211   2.4268   2.6098   2.6511   2.8297   3.0018
     3.0849   3.2444   3.4789   3.4929   3.7707   3.8749   3.9535   4.1689
     4.4234   4.7044   4.7167   4.7592   4.9092   4.9567   5.0126   5.0570
     5.3178   5.3648   5.8370   5.9753   6.3777   6.5338   6.7924   6.9899
     7.3091

          k = 0.4000 0.0000 0.0000 ( 44714 PWs)   bands (ev):

    -6.2054  -5.0348  -4.9768  -4.9437  -4.3050  -3.8901  -3.8872  -3.8766
    -3.8611  -3.8336  -3.8306  -3.7887  -3.7072  -3.7012  -3.5073  -3.3089
    -3.3053  -3.2936  -3.2643  -3.2233  -3.1962  -3.0738  -3.0631  -3.0568
    -3.0497  -3.0255  -2.9502  -2.9202  -2.9015  -2.8932  -2.8594  -2.8212
    -2.7909  -2.7606  -2.7420  -2.6440  -2.5935  -2.3993  -2.3139  -2.2977
    -2.2717  -2.2546  -2.2398  -2.2361  -2.1783  -2.1506  -2.1097  -2.0137
    -1.9976  -1.9393  -1.9006  -1.8550  -1.8330  -1.8208  -1.7739  -1.7328
    -1.7245  -1.5647  -1.5567  -1.5361  -1.4782  -1.4429  -1.4291  -1.4036
    -1.3891  -1.3413  -1.3293  -1.2063  -1.1779  -1.1635  -1.1517  -1.1214
    -1.1068  -1.0675  -1.0312  -1.0103  -0.9631  -0.9130  -0.8899  -0.8711
    -0.8590  -0.8421  -0.8142  -0.7943  -0.7844  -0.7608  -0.7288  -0.7109
    -0.6801  -0.6509  -0.5929  -0.5762  -0.5606  -0.5359  -0.5158  -0.4972
    -0.4775  -0.4491  -0.4363  -0.4222  -0.4148  -0.4018  -0.3985  -0.3855
    -0.3595  -0.3144  -0.2331  -0.1917  -0.1848  -0.1564  -0.0929  -0.0820
    -0.0660   0.0838   0.1164   0.1428   0.2356   0.2505   0.2788   0.2908
     0.3042   0.3240   0.3520   0.3787   0.4068   0.4102   0.4423   0.4911
     0.5481   0.6298   0.6684   0.6868   0.7215   0.7434   0.7753   0.8070
     0.8492   0.9057   0.9326   0.9458   1.0067   1.0215   1.0742   1.1253
     1.1458   1.1611   1.1827   1.2037   1.2289   1.2351   1.2492   1.2672
     1.2702   1.2798   1.2990   1.4022   1.4586   1.4959   1.5942   1.6207
     1.6441   1.7359   1.8006   1.8050   1.8081   1.8773   1.9047   1.9219
     1.9523   1.9648   1.9841   1.9956   2.0144   2.0202   2.0321   2.0627
     2.0760   2.0918   2.1726   2.1864   2.2132   2.2354   2.2466   2.2851
     2.3983   2.4378   2.4557   2.4727   2.5405   2.5575   2.5711   2.6942
     2.7140   2.9719   3.2158   3.2558   3.5768   3.7695   3.7848   3.7938
     4.2101   4.4759   4.4871   4.6585   4.7208   4.7539   5.3389   5.6875
     5.9114   5.9178   6.1653   6.3354   6.6275   6.6701   6.6986   6.7316
     6.7365

          k = 0.4000 0.2309 0.0000 ( 44748 PWs)   bands (ev):

    -6.0680  -5.4284  -4.8968  -4.4367  -4.3448  -4.3010  -4.0614  -3.9817
    -3.8317  -3.7146  -3.6332  -3.6179  -3.5649  -3.4601  -3.4181  -3.4019
    -3.3954  -3.3577  -3.2542  -3.2306  -3.2099  -3.1870  -3.1698  -3.1638
    -3.0768  -3.0547  -3.0484  -3.0171  -2.7939  -2.7849  -2.7777  -2.7726
    -2.7594  -2.6904  -2.5403  -2.5281  -2.5146  -2.4908  -2.4750  -2.4036
    -2.2684  -2.2066  -2.1949  -2.1843  -2.1482  -2.1252  -2.0856  -2.0583
    -2.0425  -2.0108  -1.9806  -1.9319  -1.8264  -1.8219  -1.7918  -1.7516
    -1.6807  -1.6443  -1.6098  -1.6003  -1.5598  -1.4585  -1.3993  -1.3924
    -1.3793  -1.3591  -1.2888  -1.2853  -1.2310  -1.1603  -1.1413  -1.1263
    -1.0996  -1.0340  -1.0120  -0.9990  -0.9824  -0.9679  -0.9407  -0.9069
    -0.8926  -0.8799  -0.8771  -0.8528  -0.8436  -0.8356  -0.8013  -0.7295
    -0.7178  -0.7053  -0.6949  -0.6881  -0.6570  -0.5746  -0.5335  -0.5232
    -0.4828  -0.4743  -0.4418  -0.4223  -0.3923  -0.3857  -0.3128  -0.2610
    -0.2327  -0.2091  -0.1830  -0.1464  -0.1262  -0.0053   0.0114   0.0817
     0.1042   0.1388   0.1675   0.2034   0.2078   0.2162   0.2243   0.2815
     0.3032   0.3121   0.3230   0.3328   0.3630   0.3798   0.3862   0.4019
     0.4309   0.5357   0.5609   0.5712   0.6236   0.6529   0.7471   0.7602
     0.8142   0.8648   0.8994   0.9660   1.0265   1.0472   1.0838   1.1010
     1.1228   1.1413   1.1564   1.2021   1.2376   1.2423   1.3014   1.3286
     1.3563   1.3936   1.4130   1.4190   1.4395   1.4617   1.5621   1.6066
     1.6652   1.6939   1.7091   1.7212   1.7351   1.8128   1.8255   1.8524
     1.8958   1.9090   1.9165   1.9697   1.9868   2.0130   2.0265   2.1181
     2.1461   2.1557   2.1718   2.1799   2.1828   2.2047   2.2214   2.3915
     2.4012   2.4256   2.4319   2.4423   2.6089   2.6513   2.8359   3.0171
     3.0705   3.2418   3.4814   3.4893   3.7617   3.8768   3.9495   4.1799
     4.4281   4.7096   4.7161   4.7584   4.8952   4.9539   5.0189   5.0682
     5.3160   5.3667   5.8412   5.9822   6.3737   6.5282   6.7914   6.9902
     7.3087

          k = 0.4000-0.6928 0.0000 ( 44692 PWs)   bands (ev):

    -5.6799  -5.6555  -5.0659  -4.6409  -4.4262  -4.1127  -3.8848  -3.8014
    -3.7418  -3.6972  -3.5982  -3.5827  -3.4991  -3.4891  -3.3964  -3.3780
    -3.3657  -3.3354  -3.3242  -3.3049  -3.2043  -3.1664  -3.1605  -3.1337
    -3.1089  -3.0860  -3.0546  -2.9643  -2.9056  -2.8135  -2.7700  -2.7620
    -2.7424  -2.7238  -2.6951  -2.6358  -2.5321  -2.5082  -2.4566  -2.3370
    -2.3164  -2.2373  -2.1882  -2.1576  -2.1272  -2.0800  -2.0078  -1.9543
    -1.9252  -1.9101  -1.8961  -1.8441  -1.8361  -1.7999  -1.7194  -1.7041
    -1.6845  -1.6783  -1.6662  -1.6582  -1.6068  -1.5930  -1.5812  -1.4693
    -1.4445  -1.3977  -1.3639  -1.2941  -1.2680  -1.2430  -1.2087  -1.1744
    -1.1731  -1.1446  -1.0803  -1.0620  -1.0439  -1.0390  -0.9996  -0.9699
    -0.9449  -0.8941  -0.8323  -0.8194  -0.8140  -0.8107  -0.7414  -0.6748
    -0.6549  -0.6177  -0.5992  -0.5843  -0.5572  -0.5463  -0.5428  -0.5293
    -0.4908  -0.4743  -0.4665  -0.4464  -0.4151  -0.3984  -0.3880  -0.3843
    -0.3712  -0.3641  -0.3275  -0.2955  -0.2778  -0.1120  -0.0617  -0.0249
     0.0266   0.0432   0.1329   0.1474   0.1659   0.1859   0.2193   0.2314
     0.2392   0.2589   0.3073   0.3627   0.3893   0.4027   0.4433   0.4619
     0.5154   0.5274   0.5751   0.6946   0.7192   0.7834   0.7851   0.8091
     0.8389   0.8901   0.9182   0.9309   0.9439   0.9567   0.9761   0.9813
     1.0758   1.0890   1.1106   1.1462   1.1740   1.1910   1.2152   1.2244
     1.2343   1.3542   1.4005   1.4568   1.5154   1.5488   1.6244   1.6412
     1.6754   1.7288   1.7593   1.7733   1.8234   1.8617   1.9265   1.9486
     1.9741   1.9909   1.9996   2.0130   2.0465   2.0868   2.1406   2.1596
     2.1648   2.1879   2.2020   2.2113   2.2165   2.2852   2.3911   2.4151
     2.4251   2.4310   2.4484   2.5017   2.5288   2.6282   2.7487   3.3815
     3.6011   3.6060   3.7653   3.8406   3.9297   3.9832   3.9897   4.2913
     4.5918   4.6081   4.7858   5.0508   5.0751   5.1677   5.2104   5.3467
     5.4510   5.5236   5.5657   5.8300   5.9948   6.0423   6.4118   6.6690
     6.7078

          k = 0.4000-0.4619 0.0000 ( 44692 PWs)   bands (ev):

    -5.6802  -5.6542  -5.0658  -4.6450  -4.4241  -4.1084  -3.8791  -3.7932
    -3.7428  -3.7015  -3.6029  -3.5879  -3.4915  -3.4891  -3.3954  -3.3780
    -3.3704  -3.3304  -3.3260  -3.3093  -3.2028  -3.1662  -3.1622  -3.1338
    -3.1063  -3.0765  -3.0539  -2.9641  -2.9099  -2.8166  -2.7683  -2.7621
    -2.7422  -2.7275  -2.6991  -2.6364  -2.5289  -2.5165  -2.4596  -2.3289
    -2.3172  -2.2572  -2.1872  -2.1598  -2.1260  -2.0750  -1.9937  -1.9548
    -1.9223  -1.9062  -1.8943  -1.8600  -1.8539  -1.8099  -1.7167  -1.7085
    -1.6871  -1.6793  -1.6711  -1.6646  -1.6100  -1.5975  -1.5749  -1.4726
    -1.4320  -1.4020  -1.3698  -1.2918  -1.2749  -1.2293  -1.2039  -1.1727
    -1.1543  -1.1335  -1.0818  -1.0678  -1.0486  -1.0433  -0.9990  -0.9524
    -0.9361  -0.9180  -0.8328  -0.8253  -0.8197  -0.8046  -0.7463  -0.6650
    -0.6385  -0.6215  -0.6131  -0.5883  -0.5569  -0.5441  -0.5340  -0.5017
    -0.4872  -0.4721  -0.4653  -0.4569  -0.4096  -0.3940  -0.3893  -0.3782
    -0.3732  -0.3697  -0.3176  -0.2960  -0.2725  -0.1705  -0.0546   0.0021
     0.0313   0.0426   0.1345   0.1420   0.1536   0.1808   0.2209   0.2371
     0.2445   0.2515   0.3183   0.3501   0.3937   0.3979   0.4505   0.4578
     0.5119   0.5397   0.5842   0.7121   0.7353   0.7765   0.7935   0.8066
     0.8408   0.8853   0.9084   0.9246   0.9414   0.9524   0.9706   0.9817
     1.0533   1.1058   1.1122   1.1449   1.1689   1.1954   1.2097   1.2293
     1.2405   1.3717   1.4106   1.4451   1.5090   1.5492   1.6155   1.6352
     1.6763   1.7349   1.7599   1.7691   1.8438   1.8589   1.9335   1.9634
     1.9776   1.9909   1.9985   2.0157   2.0317   2.0779   2.1456   2.1549
     2.1735   2.1924   2.2056   2.2124   2.2162   2.2868   2.3858   2.4023
     2.4213   2.4250   2.4315   2.4971   2.5118   2.6257   2.7487   3.3888
     3.6021   3.6080   3.7757   3.8340   3.9370   3.9847   4.0026   4.2826
     4.5805   4.6096   4.7955   5.0566   5.0697   5.1636   5.2080   5.3080
     5.4394   5.5209   5.5798   5.8318   5.9994   6.0456   6.4095   6.6783
     6.7155

     the Fermi energy is     2.1948 ev

!    total energy              =  -27755.49023811 Ry
     total all-electron energy =  -1326642.255655 Ry
     estimated scf accuracy    <       0.00000070 Ry
     smearing contrib. (-TS)   =       0.00439320 Ry
     internal energy E=F+TS    =  -27755.49463130 Ry

     The total energy is F=E-TS. E is the sum of the following terms:
     one-electron contribution =  -22787.05625492 Ry
     hartree contribution      =   11696.37518602 Ry
     xc contribution           =    -890.77158873 Ry
     ewald contribution        =    9699.95409704 Ry
     one-center paw contrib.   =  -25473.99607072 Ry

     convergence has been achieved in  16 iterations

     negative rho (up, down):  3.414E-03 0.000E+00

     Forces acting on atoms (cartesian axes, Ry/au):

     atom    1 type  1   force =     0.00270057    0.00184835   -0.00590345
     atom    2 type  1   force =     0.00038012    0.00274371   -0.00488342
     atom    3 type  1   force =    -0.00351974    0.00284618   -0.00659805
     atom    4 type  1   force =     0.00166534   -0.00048880   -0.00437010
     atom    5 type  1   force =    -0.00014718    0.00014949   -0.00296769
     atom    6 type  1   force =    -0.00215529    0.00086254   -0.00320233
     atom    7 type  1   force =     0.00130753   -0.00243188   -0.00485764
     atom    8 type  1   force =    -0.00066311   -0.00150616   -0.00375020
     atom    9 type  1   force =    -0.00251026   -0.00066028   -0.00464383
     atom   10 type  1   force =     0.00200755    0.00207568    0.00652440
     atom   11 type  1   force =     0.00236130    0.00250999    0.00346955
     atom   12 type  1   force =    -0.00250976    0.00337005    0.00267547
     atom   13 type  1   force =     0.00327061   -0.00148077    0.00656655
     atom   14 type  1   force =     0.00002074   -0.00164523    0.00463400
     atom   15 type  1   force =    -0.00157667   -0.00156079    0.00700515
     atom   16 type  1   force =     0.00263728   -0.00469696    0.00368023
     atom   17 type  1   force =    -0.00001674   -0.00338378    0.00301448
     atom   18 type  1   force =    -0.00220174   -0.00200712    0.00302911
     atom   19 type  1   force =    -0.00050601   -0.00104999    0.00039148
     atom   20 type  1   force =     0.00061350   -0.00068072    0.00100487
     atom   21 type  1   force =    -0.00093475    0.00001228    0.00050948
     atom   22 type  1   force =     0.00064790    0.00035968   -0.00025037
     atom   23 type  1   force =     0.00073051   -0.00042343   -0.00027151
     atom   24 type  1   force =    -0.00158119    0.00009260    0.00133283
     atom   25 type  1   force =     0.00002177    0.00025370    0.00061144
     atom   26 type  1   force =     0.00011579    0.00012088    0.00018870
     atom   27 type  1   force =    -0.00024759    0.00141186    0.00002970
     atom   28 type  1   force =    -0.00064907    0.00002407   -0.00020387
     atom   29 type  1   force =    -0.00025929    0.00080118    0.00053379
     atom   30 type  1   force =    -0.00065358    0.00088256   -0.00008268
     atom   31 type  1   force =    -0.00172549   -0.00005416   -0.00140923
     atom   32 type  1   force =    -0.00078767   -0.00020839    0.00081796
     atom   33 type  1   force =    -0.00058992    0.00053680   -0.00008550
     atom   34 type  1   force =    -0.00004956    0.00075421    0.00058404
     atom   35 type  1   force =    -0.00018620    0.00012405   -0.00030801
     atom   36 type  1   force =    -0.00126422   -0.00006081    0.00066007
     atom   37 type  2   force =     0.00625452    0.00055942   -0.00347544
     The non-local contrib.  to forces
     atom    1 type  1   force =     0.00133290    0.00055301   -0.01751404
     atom    2 type  1   force =     0.00032579    0.00216074   -0.01690222
     atom    3 type  1   force =     0.00110443    0.00195965   -0.01624894
     atom    4 type  1   force =     0.00283497   -0.00055844   -0.01791712
     atom    5 type  1   force =    -0.00071622    0.00010806   -0.01798293
     atom    6 type  1   force =    -0.00182004    0.00045089   -0.01791055
     atom    7 type  1   force =     0.00160215   -0.00163367   -0.01602729
     atom    8 type  1   force =    -0.00021911   -0.00153689   -0.01737427
     atom    9 type  1   force =    -0.00218719   -0.00121716   -0.01625844
     atom   10 type  1   force =     0.00312929    0.00028372    0.00161777
     atom   11 type  1   force =     0.00004506    0.00068271    0.00114526
     atom   12 type  1   force =     0.00001802    0.00281371    0.00157493
     atom   13 type  1   force =     0.00210593   -0.00051234    0.00053940
     atom   14 type  1   force =     0.00078069   -0.00006109    0.00053329
     atom   15 type  1   force =    -0.00094217    0.00028837    0.00146274
     atom   16 type  1   force =     0.00192765   -0.00447334    0.00034172
     atom   17 type  1   force =     0.00030417   -0.00322663   -0.00011217
     atom   18 type  1   force =    -0.00162675   -0.00451650    0.00074769
     atom   19 type  1   force =    -0.00605946   -0.00618496   -0.00624657
     atom   20 type  1   force =     0.00087652   -0.00236988    0.00696002
     atom   21 type  1   force =     0.00115032   -0.00212572    0.00061832
     atom   22 type  1   force =     0.00090752    0.00496139    0.00068024
     atom   23 type  1   force =     0.00154926    0.00291923    0.00007058
     atom   24 type  1   force =    -0.00114465    0.00185449    0.00408925
     atom   25 type  1   force =    -0.00005429   -0.00133701    0.00377720
     atom   26 type  1   force =     0.00041961   -0.00193910    0.00112838
     atom   27 type  1   force =    -0.00034695   -0.00059393    0.00183819
     atom   28 type  1   force =    -0.00005173    0.00105832    0.01569873
     atom   29 type  1   force =    -0.00277119    0.02041660    0.02375899
     atom   30 type  1   force =    -0.00034793   -0.00000176    0.01464388
     atom   31 type  1   force =    -0.00275500    0.00237022   -0.05195922
     atom   32 type  1   force =    -0.03308305    0.00408215    0.01557840
     atom   33 type  1   force =     0.00126230    0.00235317    0.01590539
     atom   34 type  1   force =    -0.00230986   -0.02445946    0.02684982
     atom   35 type  1   force =    -0.00024729    0.00295507    0.01469584
     atom   36 type  1   force =    -0.00119035   -0.00006819    0.01565167
     atom   37 type  2   force =    -0.01592970   -0.00136235   -0.02657308
     The ionic contribution  to forces
     atom    1 type  1   force =     0.13550779    0.09266074  -96.24699365
     atom    2 type  1   force =     0.01503464    0.15701663  -96.19220280
     atom    3 type  1   force =    -0.13006744    0.23383130  -96.20255343
     atom    4 type  1   force =     0.13163048   -0.06357887  -96.17786827
     atom    5 type  1   force =     0.01118103    0.00247405  -96.11855506
     atom    6 type  1   force =    -0.13579213    0.07441348  -96.12977979
     atom    7 type  1   force =     0.12584880   -0.23230345  -96.20760069
     atom    8 type  1   force =     0.00058239   -0.16702217  -96.15231763
     atom    9 type  1   force =    -0.14173802   -0.09073150  -96.16671319
     atom   10 type  1   force =     0.12115814    0.15364253  -32.36555889
     atom   11 type  1   force =    -0.00890289    0.22989799  -32.40259115
     atom   12 type  1   force =    -0.06410530    0.31755914  -32.26513266
     atom   13 type  1   force =     0.14310331   -0.14808143  -32.42686469
     atom   14 type  1   force =    -0.03487190   -0.09256377  -32.47926259
     atom   15 type  1   force =    -0.09459640   -0.07642295  -32.41641778
     atom   16 type  1   force =     0.12804009   -0.24050669  -32.43019626
     atom   17 type  1   force =    -0.02735325   -0.11587075  -32.50087449
     atom   18 type  1   force =    -0.09696082   -0.11487031  -32.38376357
     atom   19 type  1   force =    -0.05619874   -0.04448112   32.47091133
     atom   20 type  1   force =     0.04499636    0.07187158   32.31366132
     atom   21 type  1   force =    -0.02285054    0.01699430   32.04495169
     atom   22 type  1   force =     0.08618634   -0.13424785   32.13125829
     atom   23 type  1   force =     0.01450074   -0.16128324   31.98272138
     atom   24 type  1   force =    -0.08249429   -0.09337042   31.58053591
     atom   25 type  1   force =    -0.00211951    0.10926068   31.64125145
     atom   26 type  1   force =    -0.00810429    0.04635567   31.67656435
     atom   27 type  1   force =     0.02078042    0.12899329   31.62968592
     atom   28 type  1   force =    -0.06350026   -0.09135549   95.29020005
     atom   29 type  1   force =     0.01690750   -0.17387292   94.84294812
     atom   30 type  1   force =     0.01685013    0.01128861   95.32694129
     atom   31 type  1   force =    -1.14470843    0.05996672   95.58294872
     atom   32 type  1   force =     0.69180958    0.06342078   95.72715830
     atom   33 type  1   force =    -0.04139213    0.05831888   95.27553843
     atom   34 type  1   force =     0.06517068    0.14000518   94.83085083
     atom   35 type  1   force =     0.00851416    0.00800253   95.26260168
     atom   36 type  1   force =    -0.09927170    0.00309015   95.22770268
     atom   37 type  2   force =     0.47722545    0.06149870   12.42681484
     The local contribution  to forces
     atom    1 type  1   force =    -0.13396675   -0.09109906   96.24100389
     atom    2 type  1   force =    -0.01486280   -0.15605316   96.18677557
     atom    3 type  1   force =     0.12510581   -0.23234460   96.19461618
     atom    4 type  1   force =    -0.13243504    0.06333620   96.17397481
     atom    5 type  1   force =    -0.01051431   -0.00266097   96.11620659
     atom    6 type  1   force =     0.13501852   -0.07419218   96.12721805
     atom    7 type  1   force =    -0.12586930    0.23121495   96.20125960
     atom    8 type  1   force =    -0.00104116    0.16678540   96.14851857
     atom    9 type  1   force =     0.14102989    0.09126800   96.16101388
     atom   10 type  1   force =    -0.12200973   -0.15154769   32.36994551
     atom   11 type  1   force =     0.01151183   -0.22781669   32.40416384
     atom   12 type  1   force =     0.06137451   -0.31639731   32.26604335
     atom   13 type  1   force =    -0.14164986    0.14669226   32.43220114
     atom   14 type  1   force =     0.03406481    0.09055709   32.48233181
     atom   15 type  1   force =     0.09373760    0.07434481   32.42124421
     atom   16 type  1   force =    -0.12713698    0.23995081   32.43254974
     atom   17 type  1   force =     0.02714855    0.11563045   32.50291272
     atom   18 type  1   force =     0.09604228    0.11744091   32.38529025
     atom   19 type  1   force =     0.06175901    0.04914563  -32.46205295
     atom   20 type  1   force =    -0.04520727   -0.07035006  -32.31672587
     atom   21 type  1   force =     0.02082591   -0.01537351  -32.04289523
     atom   22 type  1   force =    -0.08610854    0.12942101  -32.12936672
     atom   23 type  1   force =    -0.01541418    0.15763975  -31.98048170
     atom   24 type  1   force =     0.08197913    0.09154604  -31.58089953
     atom   25 type  1   force =     0.00205281   -0.10716334  -31.64229285
     atom   26 type  1   force =     0.00781105   -0.04398834  -31.67530935
     atom   27 type  1   force =    -0.02042629   -0.12657449  -31.62936290
     atom   28 type  1   force =     0.06313388    0.09049769  -95.28930450
     atom   29 type  1   force =    -0.01451074    0.15482268  -94.84998065
     atom   30 type  1   force =    -0.01744272   -0.01017344  -95.32505461
     atom   31 type  1   force =     1.13414323   -0.06244795  -95.52689910
     atom   32 type  1   force =    -0.65611602   -0.06760145  -95.72871529
     atom   33 type  1   force =     0.03977204   -0.06002401  -95.27460809
     atom   34 type  1   force =    -0.06289207   -0.11524814  -94.84098554
     atom   35 type  1   force =    -0.00863589   -0.01097480  -95.26080108
     atom   36 type  1   force =     0.09927787   -0.00355544  -95.22586701
     atom   37 type  2   force =    -0.45504925   -0.05958316  -12.40377549
     The core correction contribution to forces
     atom    1 type  1   force =    -0.00036312   -0.00025264    0.01762460
     atom    2 type  1   force =     0.00002105   -0.00040711    0.01746991
     atom    3 type  1   force =     0.00038433   -0.00056587    0.01767620
     atom    4 type  1   force =    -0.00041688    0.00016774    0.01740260
     atom    5 type  1   force =     0.00001952   -0.00003647    0.01729847
     atom    6 type  1   force =     0.00036299   -0.00009647    0.01721743
     atom    7 type  1   force =    -0.00033044    0.00058686    0.01744557
     atom    8 type  1   force =     0.00002967    0.00039849    0.01728815
     atom    9 type  1   force =     0.00042561    0.00026398    0.01727290
     atom   10 type  1   force =    -0.00028631   -0.00039578    0.00080672
     atom   11 type  1   force =    -0.00016064   -0.00046675    0.00096959
     atom   12 type  1   force =     0.00007616   -0.00081253    0.00035242
     atom   13 type  1   force =    -0.00035476    0.00029771    0.00096788
     atom   14 type  1   force =     0.00009390    0.00013305    0.00117647
     atom   15 type  1   force =     0.00023965    0.00011148    0.00094635
     atom   16 type  1   force =    -0.00036058    0.00068994    0.00116389
     atom   17 type  1   force =     0.00004004    0.00038858    0.00126715
     atom   18 type  1   force =     0.00034975    0.00032179    0.00095676
     atom   19 type  1   force =     0.00003153    0.00030927   -0.00188933
     atom   20 type  1   force =    -0.00007207   -0.00002831   -0.00256700
     atom   21 type  1   force =    -0.00007245    0.00018970   -0.00192677
     atom   22 type  1   force =    -0.00034589    0.00024553   -0.00243456
     atom   23 type  1   force =    -0.00003983    0.00028108   -0.00220060
     atom   24 type  1   force =     0.00021491    0.00005708   -0.00199833
     atom   25 type  1   force =     0.00002822   -0.00031514   -0.00192452
     atom   26 type  1   force =     0.00001518   -0.00003033   -0.00187928
     atom   27 type  1   force =    -0.00016584   -0.00020902   -0.00190497
     atom   28 type  1   force =    -0.00021603   -0.00010476   -0.01663893
     atom   29 type  1   force =     0.00013575   -0.00054367   -0.01601482
     atom   30 type  1   force =     0.00026189   -0.00024705   -0.01648540
     atom   31 type  1   force =     0.01150541   -0.00000797   -0.00550265
     atom   32 type  1   force =    -0.00340987   -0.00024878   -0.01304007
     atom   33 type  1   force =    -0.00015022   -0.00017811   -0.01667030
     atom   34 type  1   force =    -0.00011489    0.00053829   -0.01587750
     atom   35 type  1   force =     0.00024584    0.00022104   -0.01644652
     atom   36 type  1   force =    -0.00004132    0.00050106   -0.01654672
     atom   37 type  2   force =     0.00000000    0.00000000    0.00000000
     The Hubbard contrib.    to forces
     atom    1 type  1   force =     0.00000000    0.00000000    0.00000000
     atom    2 type  1   force =     0.00000000    0.00000000    0.00000000
     atom    3 type  1   force =     0.00000000    0.00000000    0.00000000
     atom    4 type  1   force =     0.00000000    0.00000000    0.00000000
     atom    5 type  1   force =     0.00000000    0.00000000    0.00000000
     atom    6 type  1   force =     0.00000000    0.00000000    0.00000000
     atom    7 type  1   force =     0.00000000    0.00000000    0.00000000
     atom    8 type  1   force =     0.00000000    0.00000000    0.00000000
     atom    9 type  1   force =     0.00000000    0.00000000    0.00000000
     atom   10 type  1   force =     0.00000000    0.00000000    0.00000000
     atom   11 type  1   force =     0.00000000    0.00000000    0.00000000
     atom   12 type  1   force =     0.00000000    0.00000000    0.00000000
     atom   13 type  1   force =     0.00000000    0.00000000    0.00000000
     atom   14 type  1   force =     0.00000000    0.00000000    0.00000000
     atom   15 type  1   force =     0.00000000    0.00000000    0.00000000
     atom   16 type  1   force =     0.00000000    0.00000000    0.00000000
     atom   17 type  1   force =     0.00000000    0.00000000    0.00000000
     atom   18 type  1   force =     0.00000000    0.00000000    0.00000000
     atom   19 type  1   force =     0.00000000    0.00000000    0.00000000
     atom   20 type  1   force =     0.00000000    0.00000000    0.00000000
     atom   21 type  1   force =     0.00000000    0.00000000    0.00000000
     atom   22 type  1   force =     0.00000000    0.00000000    0.00000000
     atom   23 type  1   force =     0.00000000    0.00000000    0.00000000
     atom   24 type  1   force =     0.00000000    0.00000000    0.00000000
     atom   25 type  1   force =     0.00000000    0.00000000    0.00000000
     atom   26 type  1   force =     0.00000000    0.00000000    0.00000000
     atom   27 type  1   force =     0.00000000    0.00000000    0.00000000
     atom   28 type  1   force =     0.00000000    0.00000000    0.00000000
     atom   29 type  1   force =     0.00000000    0.00000000    0.00000000
     atom   30 type  1   force =     0.00000000    0.00000000    0.00000000
     atom   31 type  1   force =     0.00000000    0.00000000    0.00000000
     atom   32 type  1   force =     0.00000000    0.00000000    0.00000000
     atom   33 type  1   force =     0.00000000    0.00000000    0.00000000
     atom   34 type  1   force =     0.00000000    0.00000000    0.00000000
     atom   35 type  1   force =     0.00000000    0.00000000    0.00000000
     atom   36 type  1   force =     0.00000000    0.00000000    0.00000000
     atom   37 type  2   force =     0.00000000    0.00000000    0.00000000
     The SCF correction term to forces
     atom    1 type  1   force =     0.00000000   -0.00000000   -0.00000000
     atom    2 type  1   force =    -0.00000000    0.00000000   -0.00000000
     atom    3 type  1   force =    -0.00000000   -0.00000000   -0.00000000
     atom    4 type  1   force =     0.00000000    0.00000000   -0.00000000
     atom    5 type  1   force =    -0.00000000    0.00000000    0.00000000
     atom    6 type  1   force =     0.00000000    0.00000000   -0.00000000
     atom    7 type  1   force =     0.00000000   -0.00000000    0.00000000
     atom    8 type  1   force =    -0.00000000   -0.00000000    0.00000000
     atom    9 type  1   force =    -0.00000000   -0.00000000   -0.00000000
     atom   10 type  1   force =     0.00000000    0.00000000   -0.00000000
     atom   11 type  1   force =    -0.00000000    0.00000000   -0.00000000
     atom   12 type  1   force =     0.00000000    0.00000000   -0.00000000
     atom   13 type  1   force =     0.00000000    0.00000000   -0.00000000
     atom   14 type  1   force =    -0.00000000    0.00000000   -0.00000000
     atom   15 type  1   force =    -0.00000000    0.00000000   -0.00000000
     atom   16 type  1   force =     0.00000000   -0.00000000   -0.00000000
     atom   17 type  1   force =    -0.00000000   -0.00000000   -0.00000000
     atom   18 type  1   force =    -0.00000000   -0.00000000   -0.00000000
     atom   19 type  1   force =    -0.00003916    0.00015958   -0.00038410
     atom   20 type  1   force =     0.00001915    0.00019434   -0.00037670
     atom   21 type  1   force =     0.00001120    0.00032591   -0.00029162
     atom   22 type  1   force =     0.00000766   -0.00002200   -0.00044071
     atom   23 type  1   force =     0.00013371    0.00001814   -0.00043427
     atom   24 type  1   force =    -0.00013709    0.00000381   -0.00044755
     atom   25 type  1   force =     0.00011373   -0.00019310   -0.00025294
     atom   26 type  1   force =    -0.00002657   -0.00027863   -0.00036850
     atom   27 type  1   force =    -0.00008974   -0.00020560   -0.00027963
     atom   28 type  1   force =    -0.00001574   -0.00007330   -0.00021232
     atom   29 type  1   force =    -0.00002143   -0.00002311   -0.00023094
     atom   30 type  1   force =     0.00002424    0.00001460   -0.00018094
     atom   31 type  1   force =     0.00008850    0.00006321   -0.00005008
     atom   32 type  1   force =     0.00001087    0.00013731   -0.00021648
     atom   33 type  1   force =    -0.00008271    0.00006527   -0.00030403
     atom   34 type  1   force =     0.00009577   -0.00008327   -0.00030667
     atom   35 type  1   force =    -0.00006382   -0.00008141   -0.00041103
     atom   36 type  1   force =    -0.00003953   -0.00003000   -0.00033365
     atom   37 type  2   force =     0.00000721    0.00000462    0.00000519

     Total force =     0.008772     Total SCF correction =     0.001533
     SCF correction compared to forces is large: reduce conv_thr to get better values

     Writing all to output data dir ./pwscf.save/

     init_run     :     22.34s CPU     22.80s WALL (       1 calls)
     electrons    :    445.58s CPU    462.47s WALL (       1 calls)
     forces       :     15.57s CPU     16.56s WALL (       1 calls)

     Called by init_run:
     wfcinit      :     17.89s CPU     18.19s WALL (       1 calls)
     potinit      :      3.01s CPU      3.09s WALL (       1 calls)
     hinit0       :      0.86s CPU      0.87s WALL (       1 calls)

     Called by electrons:
     c_bands      :    374.47s CPU    387.00s WALL (      17 calls)
     sum_band     :     36.87s CPU     37.96s WALL (      17 calls)
     v_of_rho     :     11.54s CPU     13.67s WALL (      17 calls)
     newd         :      6.53s CPU      7.12s WALL (      17 calls)
     PAW_pot      :      7.37s CPU      7.49s WALL (      17 calls)
     mix_rho      :     10.76s CPU     10.98s WALL (      17 calls)
     vdW_kernel   :      1.67s CPU      1.68s WALL (       1 calls)

     Called by c_bands:
     init_us_2    :      2.45s CPU      2.51s WALL (     468 calls)
     init_us_2:cp :      2.45s CPU      2.51s WALL (     468 calls)
     cegterg      :    366.96s CPU    379.15s WALL (     221 calls)

     Called by *egterg:
     cdiaghg      :     62.31s CPU     63.65s WALL (    1104 calls)
     h_psi        :    201.93s CPU    209.94s WALL (    1130 calls)
     s_psi        :     12.91s CPU     13.15s WALL (    1130 calls)
     g_psi        :      0.42s CPU      0.42s WALL (     896 calls)

     Called by h_psi:
     h_psi:calbec :     29.84s CPU     31.08s WALL (    1130 calls)
     vloc_psi     :    157.48s CPU    163.91s WALL (    1130 calls)
     add_vuspsi   :     13.57s CPU     13.90s WALL (    1130 calls)

     General routines
     calbec       :     49.77s CPU     51.48s WALL (    1403 calls)
     fft          :      9.92s CPU     11.98s WALL (    1131 calls)
     ffts         :      5.18s CPU      5.33s WALL (    4207 calls)
     fftw         :    163.71s CPU    169.46s WALL (  290353 calls)
     interpolate  :      0.61s CPU      0.66s WALL (      17 calls)

     Parallel routines

     PWSCF        :   8m 5.09s CPU   8m26.61s WALL


   This run was terminated on:  14:18:11   4Feb2025            

=------------------------------------------------------------------------------=
   JOB DONE.
=------------------------------------------------------------------------------=
