
     Program PWSCF v.7.1 starts on 14Dec2025 at  9:23:59 
        Git branch: heads/qe-7.1
        Last git commit: 48ba0178f8fede6d020eb786884699a9f063f55d-dirty
        Last git commit date: Fri Jan 27 14:22:33 2023 +0000
        Last git commit subject: Merge branch 'fix_hubbard' into 'develop'

     This program is part of the open-source Quantum ESPRESSO suite
     for quantum simulation of materials; please cite
         "P. Giannozzi et al., J. Phys.:Condens. Matter 21 395502 (2009);
         "P. Giannozzi et al., J. Phys.:Condens. Matter 29 465901 (2017);
         "P. Giannozzi et al., J. Chem. Phys. 152 154105 (2020);
          URL http://www.quantum-espresso.org", 
     in publications or presentations arising from this work. More details at
     http://www.quantum-espresso.org/quote

     Parallel version (MPI), running on    96 processors

     MPI processes distributed on     2 nodes
     200531 MiB available memory on the printing compute node when the environment starts

     Reading input from espresso.pwi
Warning: card &CELL ignored
Warning: card / ignored
Warning: card &FCP ignored
Warning: card / ignored
Warning: card &RISM ignored
Warning: card / ignored

     Current dimensions of program PWSCF are:
     Max number of different atomic species (ntypx) = 10
     Max number of k-points (npk) =  40000
     Max angular momentum in pseudopotentials (lmaxx) =  4
     file Co.pbe-n-kjpaw_psl.1.0.0.UPF: wavefunction(s)  4S 3D renormalized
     file C.pbe-n-kjpaw_psl.1.0.0.UPF: wavefunction(s)  2S 2P renormalized
     file O.pbe-nl-kjpaw_psl.1.0.0.UPF: wavefunction(s)  2S 2P renormalized
     file H.pbe-kjpaw_psl.1.0.0.UPF: wavefunction(s)  1S renormalized

     **************************************************************************
     Initializing libbeef V0.1.2 with the BEEF-vdW functional.
     Citation: Wellendorff et al., PRB 85, 235149 (2012).
     **************************************************************************


     IMPORTANT: XC functional enforced from input :
     Exchange-correlation= BEEF-VDW
                           (   1   4  43  14   2   0   0)
     Any further DFT definition will be discarded
     Please, verify this is what you really want


     R & G space division:  proc/nbgrp/npool/nimage =      96
     Subspace diagonalization in iterative solution of the eigenvalue problem:
     one sub-group per band group will be used
     custom distributed-memory algorithm (size of sub-group:  2*  2 procs)


     Parallelization info
     --------------------
     sticks:   dense  smooth     PW     G-vecs:    dense   smooth      PW
     Min          43      28      7                 7829     4248     595
     Max          44      29      8                 7845     4281     630
     Sum        4153    2773    757               752179   409445   59217

     Using Slab Decomposition



     bravais-lattice index     =            0
     lattice parameter (alat)  =      14.1729  a.u.
     unit-cell volume          =    8574.3059 (a.u.)^3
     number of atoms/cell      =           39
     number of atomic types    =            4
     number of electrons       =       335.00
     number of Kohn-Sham states=          202
     kinetic-energy cutoff     =      50.0000  Ry
     charge density cutoff     =     300.0000  Ry
     scf convergence threshold =      1.0E-08
     mixing beta               =       0.7000
     number of iterations used =            8  local-TF  mixing
     Exchange-correlation= BEEF-VDW
                           (   1   4  43  14   2   0   0)

     celldm(1)=  14.172946  celldm(2)=   0.000000  celldm(3)=   0.000000
     celldm(4)=   0.000000  celldm(5)=   0.000000  celldm(6)=   0.000000

     crystal axes: (cart. coord. in units of alat)
               a(1) = (   1.000000   0.000000   0.000000 )  
               a(2) = (   0.500000   0.866025   0.000000 )  
               a(3) = (   0.000000   0.000000   3.477667 )  

     reciprocal axes: (cart. coord. in units 2 pi/alat)
               b(1) = (  1.000000 -0.577350  0.000000 )  
               b(2) = (  0.000000  1.154701  0.000000 )  
               b(3) = (  0.000000  0.000000  0.287549 )  


     PseudoPot. # 1 for Co read from file:
     /users/kbadger1/espresso/pseudo/pslibrary.1.0.0/pbe/PSEUDOPOTENTIALS/Co.pbe-n-kjpaw_psl.1.0.0.UPF
     MD5 check sum: 88af6ec42553d4236c267fdfcb472151
     Pseudo is Projector augmented-wave + core cor, Zval =  9.0
     Generated using 'atomic' code by A. Dal Corso  v.7.0
     Shape of augmentation charge: PSQ
     Using radial grid of 1193 points,  6 beta functions with: 
                l(1) =   0
                l(2) =   0
                l(3) =   1
                l(4) =   1
                l(5) =   2
                l(6) =   2
     Q(r) pseudized with 0 coefficients 


     PseudoPot. # 2 for C  read from file:
     /users/kbadger1/espresso/pseudo/pslibrary.1.0.0/pbe/PSEUDOPOTENTIALS/C.pbe-n-kjpaw_psl.1.0.0.UPF
     MD5 check sum: 6408e75cdba28732cea38a4db8498ce4
     Pseudo is Projector augmented-wave + core cor, Zval =  4.0
     Generated using 'atomic' code by A. Dal Corso  v.7.0
     Shape of augmentation charge: PSQ
     Using radial grid of 1073 points,  4 beta functions with: 
                l(1) =   0
                l(2) =   0
                l(3) =   1
                l(4) =   1
     Q(r) pseudized with 0 coefficients 


     PseudoPot. # 3 for O  read from file:
     /users/kbadger1/espresso/pseudo/pslibrary.1.0.0/pbe/PSEUDOPOTENTIALS/O.pbe-nl-kjpaw_psl.1.0.0.UPF
     MD5 check sum: f0439fab3598ca4e468f064226030408
     Pseudo is Projector augmented-wave + core cor, Zval =  6.0
     Generated using 'atomic' code by A. Dal Corso  v.7.0
     Shape of augmentation charge: PSQ
     Using radial grid of 1095 points,  4 beta functions with: 
                l(1) =   0
                l(2) =   0
                l(3) =   1
                l(4) =   1
     Q(r) pseudized with 0 coefficients 


     PseudoPot. # 4 for H  read from file:
     /users/kbadger1/espresso/pseudo/pslibrary.1.0.0/pbe/PSEUDOPOTENTIALS/H.pbe-kjpaw_psl.1.0.0.UPF
     MD5 check sum: fe4c6fa958fa6d3815bf5d2419cbf1df
     Pseudo is Projector augmented-wave, Zval =  1.0
     Generated using 'atomic' code by A. Dal Corso  v.7.0
     Shape of augmentation charge: PSQ
     Using radial grid of  929 points,  2 beta functions with: 
                l(1) =   0
                l(2) =   0
     Q(r) pseudized with 0 coefficients 


     atomic species   valence    mass     pseudopotential
        Co             9.00    58.93319     Co( 1.00)
        C              4.00    12.00000     C ( 1.00)
        O              6.00    15.99491     O ( 1.00)
        H              1.00     1.00783     H ( 1.00)

     Starting magnetic structure 
     atomic species   magnetization
        Co           1.000
        C            1.000
        O            0.000
        H            0.000

     No symmetry found



   Cartesian axes

     site n.     atom                  positions (alat units)
         1           Co  tau(   1) = (   0.0000000   0.1924501   1.3333333  )
         2           Co  tau(   2) = (   0.3333333   0.1924501   1.3333333  )
         3           Co  tau(   3) = (   0.6666667   0.1924501   1.3333333  )
         4           Co  tau(   4) = (   0.1666667   0.4811252   1.3333333  )
         5           Co  tau(   5) = (   0.5000000   0.4811252   1.3333333  )
         6           Co  tau(   6) = (   0.8333333   0.4811252   1.3333333  )
         7           Co  tau(   7) = (   0.3333333   0.7698004   1.3333333  )
         8           Co  tau(   8) = (   0.6666667   0.7698004   1.3333333  )
         9           Co  tau(   9) = (   1.0000000   0.7698004   1.3333333  )
        10           Co  tau(  10) = (   0.0000000   0.0000000   1.6036667  )
        11           Co  tau(  11) = (   0.3333333   0.0000000   1.6036667  )
        12           Co  tau(  12) = (   0.6666667   0.0000000   1.6036667  )
        13           Co  tau(  13) = (   0.1666667   0.2886751   1.6036667  )
        14           Co  tau(  14) = (   0.5000000   0.2886751   1.6036667  )
        15           Co  tau(  15) = (   0.8333333   0.2886751   1.6036667  )
        16           Co  tau(  16) = (   0.3333333   0.5773503   1.6036667  )
        17           Co  tau(  17) = (   0.6666667   0.5773503   1.6036667  )
        18           Co  tau(  18) = (   1.0000000   0.5773503   1.6036667  )
        19           Co  tau(  19) = (   0.0000000   0.1924501   1.8740000  )
        20           Co  tau(  20) = (   0.3333333   0.1924501   1.8740000  )
        21           Co  tau(  21) = (   0.6666667   0.1924501   1.8740000  )
        22           Co  tau(  22) = (   0.1666667   0.4811252   1.8740000  )
        23           Co  tau(  23) = (   0.5000000   0.4811252   1.8740000  )
        24           Co  tau(  24) = (   0.8333333   0.4811252   1.8740000  )
        25           Co  tau(  25) = (   0.3333333   0.7698004   1.8740000  )
        26           Co  tau(  26) = (   0.6666667   0.7698004   1.8740000  )
        27           Co  tau(  27) = (   1.0000000   0.7698004   1.8740000  )
        28           Co  tau(  28) = (   0.0000000   0.0000000   2.1443333  )
        29           Co  tau(  29) = (   0.3333333   0.0000000   2.1443333  )
        30           Co  tau(  30) = (   0.6666667   0.0000000   2.1443333  )
        31           Co  tau(  31) = (   0.1666667   0.2886751   2.1443333  )
        32           Co  tau(  32) = (   0.5000000   0.2886751   2.1443333  )
        33           Co  tau(  33) = (   0.8333333   0.2886751   2.1443333  )
        34           Co  tau(  34) = (   0.3333333   0.5773503   2.1443333  )
        35           Co  tau(  35) = (   0.6666667   0.5773503   2.1443333  )
        36           Co  tau(  36) = (   1.0000000   0.5773503   2.1443333  )
        37           C   tau(  37) = (   0.4272005   0.2091839   2.3680279  )
        38           O   tau(  38) = (   0.3268294   0.0823337   2.4150807  )
        39           H   tau(  39) = (   0.4903826   0.2885024   2.4744490  )

     number of k points=    13  Marzari-Vanderbilt smearing, width (Ry)=  0.0010
                       cart. coord. in units 2pi/alat
        k(    1) = (   0.0000000   0.0000000   0.0000000), wk =   0.0400000
        k(    2) = (   0.0000000   0.2309401   0.0000000), wk =   0.0800000
        k(    3) = (   0.0000000   0.4618802   0.0000000), wk =   0.0800000
        k(    4) = (   0.2000000  -0.1154701   0.0000000), wk =   0.0800000
        k(    5) = (   0.2000000   0.1154701   0.0000000), wk =   0.0800000
        k(    6) = (   0.2000000   0.3464102   0.0000000), wk =   0.0800000
        k(    7) = (   0.2000000  -0.5773503   0.0000000), wk =   0.0800000
        k(    8) = (   0.2000000  -0.3464102   0.0000000), wk =   0.0800000
        k(    9) = (   0.4000000  -0.2309401   0.0000000), wk =   0.0800000
        k(   10) = (   0.4000000   0.0000000   0.0000000), wk =   0.0800000
        k(   11) = (   0.4000000   0.2309401   0.0000000), wk =   0.0800000
        k(   12) = (   0.4000000  -0.6928203   0.0000000), wk =   0.0800000
        k(   13) = (   0.4000000  -0.4618802   0.0000000), wk =   0.0800000

     Dense  grid:   752179 G-vectors     FFT dimensions: (  80,  80, 288)

     Smooth grid:   409445 G-vectors     FFT dimensions: (  64,  64, 225)

     Estimated max dynamical RAM per process >      99.02 MB

     Estimated total dynamical RAM >       9.28 GB
     Generating pointlists ...
     new r_m :   0.1024 (alat units)  1.4517 (a.u.) for type    1
     new r_m :   0.0606 (alat units)  0.8594 (a.u.) for type    2
     new r_m :   0.0695 (alat units)  0.9849 (a.u.) for type    3
     new r_m :   0.0606 (alat units)  0.8594 (a.u.) for type    4

     Initial potential from superposition of free atoms

     starting charge     334.9897, renormalised to     335.0000

     negative rho (up, down):  3.001E-03 4.703E-04


     %%%%%%%%%%%%%%%%%%%%%%%%%%%%%%%%%%%%%%%%%%%%%%%%%%%%%%%%%%%%%%%%%%%%%%%%
     %                                                                      %
     % You are using vdW-DF, which was implemented by the Thonhauser group. %
     % Please cite the following two papers that made this development      %
     % possible and the two reviews that describe the various versions:     %
     %                                                                      %
     %   T. Thonhauser et al., PRL 115, 136402 (2015).                      %
     %   T. Thonhauser et al., PRB 76, 125112 (2007).                       %
     %   K. Berland et al., Rep. Prog. Phys. 78, 066501 (2015).             %
     %   D.C. Langreth et al., J. Phys.: Condens. Matter 21, 084203 (2009). %
     %                                                                      %
     % If you are calculating stress with vdW-DF, please also cite:         %
     %                                                                      %
     %   R. Sabatini et al., J. Phys.: Condens. Matter 24, 424209 (2012).   %
     %   C.M. Frostenson et al., Electr. Struct. 4, 014001 (2022).          %
     %                                                                      %
     %%%%%%%%%%%%%%%%%%%%%%%%%%%%%%%%%%%%%%%%%%%%%%%%%%%%%%%%%%%%%%%%%%%%%%%%

     %%%%%%%%%%%%%%%%%%%%%%%%%%%%%%%%%%%%%%%%%%%%%%%%%%%%%%%%%%%%%%%%%%%%%%%%
     %                                                                      %
     %  vdW-DF NEWS:                                                        %
     %                                                                      %
     %  * vdW-DF3 is now available. DOI: 10.1021/acs.jctc.0c00471           %
     %    use with input_dft = 'vdW-DF3-opt1' or 'vdW-DF3-opt2'             %
     %                                                                      %
     %  * Unscreened and range-separated hybrid vdW-DF-cx functionals       %
     %    DOI: 10.1063/1.4986522 and 10.1088/1361-648X/ac2ad2               %
     %    use with input_dft = 'vdW-DF-cx0'    and 'vdW-DF-ahcx'            %
     %  * Unscreened and range-separated hybrid vdW-DF2-b86r functionals    %
     %    DOI: 10.1063/1.4986522 and DOI: 10.1103/PhysRevX.12.041003        %
     %    use with input_dft = 'vdW-DF2-br0' and 'vdW-DF2-ahbr'             %
     %                                                                      %
     %%%%%%%%%%%%%%%%%%%%%%%%%%%%%%%%%%%%%%%%%%%%%%%%%%%%%%%%%%%%%%%%%%%%%%%%


     Starting wfcs are  333 randomized atomic wfcs
     Checking if some PAW data can be deallocated... 

     total cpu time spent up to now is       16.9 secs

     per-process dynamical memory:   230.2 Mb

     Self-consistent Calculation

     iteration #  1     ecut=    50.00 Ry     beta= 0.70
     Davidson diagonalization with overlap
     ethr =  1.00E-02,  avg # of iterations =  2.0

     negative rho (up, down):  2.242E-05 4.422E-08

     total cpu time spent up to now is       38.9 secs

     total energy              =   -6053.06232497 Ry
     estimated scf accuracy    <      39.79443807 Ry

     total magnetization       =    69.00 Bohr mag/cell
     absolute magnetization    =    81.17 Bohr mag/cell

     iteration #  2     ecut=    50.00 Ry     beta= 0.70
     Davidson diagonalization with overlap
     ethr =  1.00E-02,  avg # of iterations =  1.0

     negative rho (up, down):  2.389E-06 5.246E-09

     total cpu time spent up to now is       53.1 secs

     total energy              =   -6052.45995634 Ry
     estimated scf accuracy    <      25.40830961 Ry

     total magnetization       =    68.89 Bohr mag/cell
     absolute magnetization    =    76.74 Bohr mag/cell

     iteration #  3     ecut=    50.00 Ry     beta= 0.70
     Davidson diagonalization with overlap
     ethr =  7.58E-03,  avg # of iterations =  1.0

     negative rho (up, down):  1.260E-08 0.000E+00

     total cpu time spent up to now is       72.4 secs

     total energy              =   -6055.15114433 Ry
     estimated scf accuracy    <      84.88429895 Ry

     total magnetization       =    66.12 Bohr mag/cell
     absolute magnetization    =    73.25 Bohr mag/cell

     iteration #  4     ecut=    50.00 Ry     beta= 0.70
     Davidson diagonalization with overlap
     ethr =  7.58E-03,  avg # of iterations =  1.0

     total cpu time spent up to now is       86.0 secs

     total energy              =   -6056.34625041 Ry
     estimated scf accuracy    <       5.74056978 Ry

     total magnetization       =    60.66 Bohr mag/cell
     absolute magnetization    =    70.46 Bohr mag/cell

     iteration #  5     ecut=    50.00 Ry     beta= 0.70
     Davidson diagonalization with overlap
     ethr =  1.71E-03,  avg # of iterations =  1.1

     total cpu time spent up to now is      104.4 secs

     total energy              =   -6056.37547520 Ry
     estimated scf accuracy    <       3.35344450 Ry

     total magnetization       =    60.38 Bohr mag/cell
     absolute magnetization    =    69.79 Bohr mag/cell

     iteration #  6     ecut=    50.00 Ry     beta= 0.70
     Davidson diagonalization with overlap
     ethr =  1.00E-03,  avg # of iterations =  1.4

     total cpu time spent up to now is      118.4 secs

     total energy              =   -6056.48059429 Ry
     estimated scf accuracy    <       0.55108621 Ry

     total magnetization       =    60.43 Bohr mag/cell
     absolute magnetization    =    69.61 Bohr mag/cell

     iteration #  7     ecut=    50.00 Ry     beta= 0.70
     Davidson diagonalization with overlap
     ethr =  1.65E-04,  avg # of iterations =  5.3

     total cpu time spent up to now is      142.2 secs

     total energy              =   -6056.51073033 Ry
     estimated scf accuracy    <       0.76584134 Ry

     total magnetization       =    60.49 Bohr mag/cell
     absolute magnetization    =    69.35 Bohr mag/cell

     iteration #  8     ecut=    50.00 Ry     beta= 0.70
     Davidson diagonalization with overlap
     ethr =  1.65E-04,  avg # of iterations =  2.2

     total cpu time spent up to now is      160.7 secs

     total energy              =   -6056.52643690 Ry
     estimated scf accuracy    <       0.17253448 Ry

     total magnetization       =    60.66 Bohr mag/cell
     absolute magnetization    =    69.31 Bohr mag/cell

     iteration #  9     ecut=    50.00 Ry     beta= 0.70
     Davidson diagonalization with overlap
     c_bands:  3 eigenvalues not converged
     c_bands:  1 eigenvalues not converged
     ethr =  5.15E-05,  avg # of iterations = 11.0

     total cpu time spent up to now is      189.8 secs

     total energy              =   -6056.54104286 Ry
     estimated scf accuracy    <       0.16582459 Ry

     total magnetization       =    61.31 Bohr mag/cell
     absolute magnetization    =    69.46 Bohr mag/cell

     iteration # 10     ecut=    50.00 Ry     beta= 0.70
     Davidson diagonalization with overlap
     ethr =  4.95E-05,  avg # of iterations =  2.5

     total cpu time spent up to now is      205.0 secs

     total energy              =   -6056.54107586 Ry
     estimated scf accuracy    <       0.16408632 Ry

     total magnetization       =    61.33 Bohr mag/cell
     absolute magnetization    =    69.31 Bohr mag/cell

     iteration # 11     ecut=    50.00 Ry     beta= 0.70
     Davidson diagonalization with overlap
     ethr =  4.90E-05,  avg # of iterations =  1.3

     total cpu time spent up to now is      223.1 secs

     total energy              =   -6056.53610204 Ry
     estimated scf accuracy    <       0.09817395 Ry

     total magnetization       =    61.34 Bohr mag/cell
     absolute magnetization    =    69.20 Bohr mag/cell

     iteration # 12     ecut=    50.00 Ry     beta= 0.70
     Davidson diagonalization with overlap
     c_bands:  1 eigenvalues not converged
     ethr =  2.93E-05,  avg # of iterations =  2.8

     negative rho (up, down):  1.562E-06 0.000E+00

     total cpu time spent up to now is      239.3 secs

     total energy              =   -6056.53820246 Ry
     estimated scf accuracy    <       0.07924254 Ry

     total magnetization       =    61.27 Bohr mag/cell
     absolute magnetization    =    68.98 Bohr mag/cell

     iteration # 13     ecut=    50.00 Ry     beta= 0.70
     Davidson diagonalization with overlap
     ethr =  2.37E-05,  avg # of iterations =  1.5

     total cpu time spent up to now is      257.8 secs

     total energy              =   -6056.53651167 Ry
     estimated scf accuracy    <       0.08873630 Ry

     total magnetization       =    61.32 Bohr mag/cell
     absolute magnetization    =    68.95 Bohr mag/cell

     iteration # 14     ecut=    50.00 Ry     beta= 0.70
     Davidson diagonalization with overlap
     ethr =  2.37E-05,  avg # of iterations =  1.6

     negative rho (up, down):  3.046E-03 2.089E-03

     total cpu time spent up to now is      276.2 secs

     total energy              =   -6056.52988093 Ry
     estimated scf accuracy    <       0.06125339 Ry

     total magnetization       =    61.34 Bohr mag/cell
     absolute magnetization    =    69.00 Bohr mag/cell

     iteration # 15     ecut=    50.00 Ry     beta= 0.70
     Davidson diagonalization with overlap
     ethr =  1.83E-05,  avg # of iterations =  3.3

     negative rho (up, down):  8.421E-03 7.068E-03

     total cpu time spent up to now is      292.0 secs

     total energy              =   -6056.52806371 Ry
     estimated scf accuracy    <       0.06933215 Ry

     total magnetization       =    61.33 Bohr mag/cell
     absolute magnetization    =    68.93 Bohr mag/cell

     iteration # 16     ecut=    50.00 Ry     beta= 0.70
     Davidson diagonalization with overlap
     ethr =  1.83E-05,  avg # of iterations =  1.3

     negative rho (up, down):  1.661E-02 1.500E-02

     total cpu time spent up to now is      311.5 secs

     total energy              =   -6056.52743341 Ry
     estimated scf accuracy    <       0.03522995 Ry

     total magnetization       =    61.34 Bohr mag/cell
     absolute magnetization    =    68.91 Bohr mag/cell

     iteration # 17     ecut=    50.00 Ry     beta= 0.70
     Davidson diagonalization with overlap
     c_bands:  3 eigenvalues not converged
     c_bands:  2 eigenvalues not converged
     c_bands:  2 eigenvalues not converged
     ethr =  1.05E-05,  avg # of iterations =  4.5

     negative rho (up, down):  2.632E-02 2.451E-02

     total cpu time spent up to now is      328.3 secs

     total energy              =   -6056.52537273 Ry
     estimated scf accuracy    <       0.03028745 Ry

     total magnetization       =    61.34 Bohr mag/cell
     absolute magnetization    =    68.89 Bohr mag/cell

     iteration # 18     ecut=    50.00 Ry     beta= 0.70
     Davidson diagonalization with overlap
     c_bands:  4 eigenvalues not converged
     ethr =  9.04E-06,  avg # of iterations =  3.5

     negative rho (up, down):  1.527E-02 1.377E-02

     total cpu time spent up to now is      348.7 secs

     total energy              =   -6056.52605494 Ry
     estimated scf accuracy    <       0.03972580 Ry

     total magnetization       =    61.33 Bohr mag/cell
     absolute magnetization    =    68.86 Bohr mag/cell

     iteration # 19     ecut=    50.00 Ry     beta= 0.70
     Davidson diagonalization with overlap
     ethr =  9.04E-06,  avg # of iterations =  1.2

     negative rho (up, down):  2.100E-02 1.937E-02

     total cpu time spent up to now is      367.6 secs

     total energy              =   -6056.52522570 Ry
     estimated scf accuracy    <       0.01366975 Ry

     total magnetization       =    61.33 Bohr mag/cell
     absolute magnetization    =    68.87 Bohr mag/cell

     iteration # 20     ecut=    50.00 Ry     beta= 0.70
     Davidson diagonalization with overlap
     c_bands:  3 eigenvalues not converged
     ethr =  4.08E-06,  avg # of iterations =  3.7

     negative rho (up, down):  1.593E-02 1.462E-02

     total cpu time spent up to now is      384.0 secs

     total energy              =   -6056.52355266 Ry
     estimated scf accuracy    <       0.01164482 Ry

     total magnetization       =    61.33 Bohr mag/cell
     absolute magnetization    =    68.86 Bohr mag/cell

     iteration # 21     ecut=    50.00 Ry     beta= 0.70
     Davidson diagonalization with overlap
     ethr =  3.48E-06,  avg # of iterations =  2.5

     negative rho (up, down):  1.609E-02 1.489E-02

     total cpu time spent up to now is      403.8 secs

     total energy              =   -6056.52262324 Ry
     estimated scf accuracy    <       0.02887213 Ry

     total magnetization       =    61.33 Bohr mag/cell
     absolute magnetization    =    68.85 Bohr mag/cell

     iteration # 22     ecut=    50.00 Ry     beta= 0.70
     Davidson diagonalization with overlap
     ethr =  3.48E-06,  avg # of iterations =  1.3

     negative rho (up, down):  2.092E-02 1.988E-02

     total cpu time spent up to now is      417.8 secs

     total energy              =   -6056.52323590 Ry
     estimated scf accuracy    <       0.00788564 Ry

     total magnetization       =    61.33 Bohr mag/cell
     absolute magnetization    =    68.85 Bohr mag/cell

     iteration # 23     ecut=    50.00 Ry     beta= 0.70
     Davidson diagonalization with overlap
     ethr =  2.35E-06,  avg # of iterations =  1.7

     negative rho (up, down):  1.557E-02 1.470E-02

     total cpu time spent up to now is      437.3 secs

     total energy              =   -6056.52319948 Ry
     estimated scf accuracy    <       0.00122685 Ry

     total magnetization       =    61.33 Bohr mag/cell
     absolute magnetization    =    68.85 Bohr mag/cell

     iteration # 24     ecut=    50.00 Ry     beta= 0.70
     Davidson diagonalization with overlap
     ethr =  3.66E-07,  avg # of iterations =  5.6

     negative rho (up, down):  9.145E-03 8.391E-03

     total cpu time spent up to now is      460.1 secs

     total energy              =   -6056.52318571 Ry
     estimated scf accuracy    <       0.00229770 Ry

     total magnetization       =    61.34 Bohr mag/cell
     absolute magnetization    =    68.85 Bohr mag/cell

     iteration # 25     ecut=    50.00 Ry     beta= 0.70
     Davidson diagonalization with overlap
     ethr =  3.66E-07,  avg # of iterations =  2.0

     negative rho (up, down):  7.914E-03 7.191E-03

     total cpu time spent up to now is      474.9 secs

     total energy              =   -6056.52332634 Ry
     estimated scf accuracy    <       0.00069528 Ry

     total magnetization       =    61.33 Bohr mag/cell
     absolute magnetization    =    68.86 Bohr mag/cell

     iteration # 26     ecut=    50.00 Ry     beta= 0.70
     Davidson diagonalization with overlap
     c_bands:  1 eigenvalues not converged
     ethr =  2.08E-07,  avg # of iterations =  2.9

     negative rho (up, down):  6.421E-03 5.649E-03

     total cpu time spent up to now is      496.3 secs

     total energy              =   -6056.52337768 Ry
     estimated scf accuracy    <       0.00183975 Ry

     total magnetization       =    61.33 Bohr mag/cell
     absolute magnetization    =    68.85 Bohr mag/cell

     iteration # 27     ecut=    50.00 Ry     beta= 0.70
     Davidson diagonalization with overlap
     ethr =  2.08E-07,  avg # of iterations =  1.7

     negative rho (up, down):  5.193E-03 4.350E-03

     total cpu time spent up to now is      510.1 secs

     total energy              =   -6056.52343947 Ry
     estimated scf accuracy    <       0.00029756 Ry

     total magnetization       =    61.33 Bohr mag/cell
     absolute magnetization    =    68.86 Bohr mag/cell

     iteration # 28     ecut=    50.00 Ry     beta= 0.70
     Davidson diagonalization with overlap
     ethr =  8.88E-08,  avg # of iterations =  2.5

     negative rho (up, down):  5.206E-03 4.375E-03

     total cpu time spent up to now is      529.8 secs

     total energy              =   -6056.52343625 Ry
     estimated scf accuracy    <       0.00024610 Ry

     total magnetization       =    61.33 Bohr mag/cell
     absolute magnetization    =    68.86 Bohr mag/cell

     iteration # 29     ecut=    50.00 Ry     beta= 0.70
     Davidson diagonalization with overlap
     ethr =  7.35E-08,  avg # of iterations =  1.7

     negative rho (up, down):  3.589E-03 2.650E-03

     total cpu time spent up to now is      549.0 secs

     total energy              =   -6056.52340801 Ry
     estimated scf accuracy    <       0.00010625 Ry

     total magnetization       =    61.33 Bohr mag/cell
     absolute magnetization    =    68.86 Bohr mag/cell

     iteration # 30     ecut=    50.00 Ry     beta= 0.70
     Davidson diagonalization with overlap
     ethr =  3.17E-08,  avg # of iterations =  3.4

     negative rho (up, down):  2.408E-03 1.309E-03

     total cpu time spent up to now is      565.5 secs

     total energy              =   -6056.52341910 Ry
     estimated scf accuracy    <       0.00023655 Ry

     total magnetization       =    61.33 Bohr mag/cell
     absolute magnetization    =    68.85 Bohr mag/cell

     iteration # 31     ecut=    50.00 Ry     beta= 0.70
     Davidson diagonalization with overlap
     ethr =  3.17E-08,  avg # of iterations =  2.0

     negative rho (up, down):  2.706E-03 1.606E-03

     total cpu time spent up to now is      585.1 secs

     total energy              =   -6056.52342737 Ry
     estimated scf accuracy    <       0.00004320 Ry

     total magnetization       =    61.33 Bohr mag/cell
     absolute magnetization    =    68.85 Bohr mag/cell

     iteration # 32     ecut=    50.00 Ry     beta= 0.70
     Davidson diagonalization with overlap
     ethr =  1.29E-08,  avg # of iterations =  4.7

     negative rho (up, down):  2.627E-03 1.578E-03

     total cpu time spent up to now is      607.1 secs

     total energy              =   -6056.52342767 Ry
     estimated scf accuracy    <       0.00014035 Ry

     total magnetization       =    61.33 Bohr mag/cell
     absolute magnetization    =    68.85 Bohr mag/cell

     iteration # 33     ecut=    50.00 Ry     beta= 0.70
     Davidson diagonalization with overlap
     ethr =  1.29E-08,  avg # of iterations =  1.8

     negative rho (up, down):  2.581E-03 1.515E-03

     total cpu time spent up to now is      622.0 secs

     total energy              =   -6056.52343334 Ry
     estimated scf accuracy    <       0.00001305 Ry

     total magnetization       =    61.33 Bohr mag/cell
     absolute magnetization    =    68.85 Bohr mag/cell

     iteration # 34     ecut=    50.00 Ry     beta= 0.70
     Davidson diagonalization with overlap
     ethr =  3.90E-09,  avg # of iterations =  5.1

     negative rho (up, down):  2.475E-03 1.397E-03

     total cpu time spent up to now is      644.1 secs

     total energy              =   -6056.52343362 Ry
     estimated scf accuracy    <       0.00001196 Ry

     total magnetization       =    61.33 Bohr mag/cell
     absolute magnetization    =    68.85 Bohr mag/cell

     iteration # 35     ecut=    50.00 Ry     beta= 0.70
     Davidson diagonalization with overlap
     ethr =  3.57E-09,  avg # of iterations =  1.8

     negative rho (up, down):  2.453E-03 1.374E-03

     total cpu time spent up to now is      658.3 secs

     total energy              =   -6056.52343402 Ry
     estimated scf accuracy    <       0.00000947 Ry

     total magnetization       =    61.33 Bohr mag/cell
     absolute magnetization    =    68.85 Bohr mag/cell

     iteration # 36     ecut=    50.00 Ry     beta= 0.70
     Davidson diagonalization with overlap
     ethr =  2.83E-09,  avg # of iterations =  1.3

     negative rho (up, down):  2.471E-03 1.375E-03

     total cpu time spent up to now is      677.4 secs

     total energy              =   -6056.52343438 Ry
     estimated scf accuracy    <       0.00000445 Ry

     total magnetization       =    61.33 Bohr mag/cell
     absolute magnetization    =    68.85 Bohr mag/cell

     iteration # 37     ecut=    50.00 Ry     beta= 0.70
     Davidson diagonalization with overlap
     ethr =  1.33E-09,  avg # of iterations =  3.2

     negative rho (up, down):  2.370E-03 1.292E-03

     total cpu time spent up to now is      697.5 secs

     total energy              =   -6056.52343430 Ry
     estimated scf accuracy    <       0.00000422 Ry

     total magnetization       =    61.33 Bohr mag/cell
     absolute magnetization    =    68.85 Bohr mag/cell

     iteration # 38     ecut=    50.00 Ry     beta= 0.70
     Davidson diagonalization with overlap
     ethr =  1.26E-09,  avg # of iterations =  1.9

     negative rho (up, down):  2.355E-03 1.262E-03

     total cpu time spent up to now is      712.1 secs

     total energy              =   -6056.52343465 Ry
     estimated scf accuracy    <       0.00000099 Ry

     total magnetization       =    61.33 Bohr mag/cell
     absolute magnetization    =    68.85 Bohr mag/cell

     iteration # 39     ecut=    50.00 Ry     beta= 0.70
     Davidson diagonalization with overlap
     ethr =  2.95E-10,  avg # of iterations =  7.0

     negative rho (up, down):  2.330E-03 1.234E-03

     total cpu time spent up to now is      736.5 secs

     total energy              =   -6056.52343475 Ry
     estimated scf accuracy    <       0.00000127 Ry

     total magnetization       =    61.33 Bohr mag/cell
     absolute magnetization    =    68.85 Bohr mag/cell

     iteration # 40     ecut=    50.00 Ry     beta= 0.70
     Davidson diagonalization with overlap
     ethr =  2.95E-10,  avg # of iterations =  1.7

     negative rho (up, down):  2.322E-03 1.226E-03

     total cpu time spent up to now is      750.8 secs

     total energy              =   -6056.52343475 Ry
     estimated scf accuracy    <       0.00000185 Ry

     total magnetization       =    61.33 Bohr mag/cell
     absolute magnetization    =    68.85 Bohr mag/cell

     iteration # 41     ecut=    50.00 Ry     beta= 0.70
     Davidson diagonalization with overlap
     ethr =  2.95E-10,  avg # of iterations =  1.0

     negative rho (up, down):  2.313E-03 1.216E-03

     total cpu time spent up to now is      768.9 secs

     total energy              =   -6056.52343479 Ry
     estimated scf accuracy    <       0.00000057 Ry

     total magnetization       =    61.33 Bohr mag/cell
     absolute magnetization    =    68.85 Bohr mag/cell

     iteration # 42     ecut=    50.00 Ry     beta= 0.70
     Davidson diagonalization with overlap
     ethr =  1.71E-10,  avg # of iterations =  1.5

     negative rho (up, down):  2.270E-03 1.173E-03

     total cpu time spent up to now is      787.6 secs

     total energy              =   -6056.52343477 Ry
     estimated scf accuracy    <       0.00000072 Ry

     total magnetization       =    61.33 Bohr mag/cell
     absolute magnetization    =    68.85 Bohr mag/cell

     iteration # 43     ecut=    50.00 Ry     beta= 0.70
     Davidson diagonalization with overlap
     ethr =  1.71E-10,  avg # of iterations =  1.3

     negative rho (up, down):  2.258E-03 1.160E-03

     total cpu time spent up to now is      802.1 secs

     total energy              =   -6056.52343478 Ry
     estimated scf accuracy    <       0.00000012 Ry

     total magnetization       =    61.33 Bohr mag/cell
     absolute magnetization    =    68.85 Bohr mag/cell

     iteration # 44     ecut=    50.00 Ry     beta= 0.70
     Davidson diagonalization with overlap
     ethr =  3.61E-11,  avg # of iterations =  4.7

     negative rho (up, down):  2.248E-03 1.148E-03

     total cpu time spent up to now is      824.0 secs

     total energy              =   -6056.52343478 Ry
     estimated scf accuracy    <       0.00000013 Ry

     total magnetization       =    61.33 Bohr mag/cell
     absolute magnetization    =    68.85 Bohr mag/cell

     iteration # 45     ecut=    50.00 Ry     beta= 0.70
     Davidson diagonalization with overlap
     ethr =  3.61E-11,  avg # of iterations =  1.7

     negative rho (up, down):  2.225E-03 1.124E-03

     total cpu time spent up to now is      838.0 secs

     total energy              =   -6056.52343474 Ry
     estimated scf accuracy    <       0.00000008 Ry

     total magnetization       =    61.33 Bohr mag/cell
     absolute magnetization    =    68.85 Bohr mag/cell

     iteration # 46     ecut=    50.00 Ry     beta= 0.70
     Davidson diagonalization with overlap
     ethr =  2.26E-11,  avg # of iterations =  2.8

     negative rho (up, down):  2.239E-03 1.139E-03

     total cpu time spent up to now is      859.4 secs

     total energy              =   -6056.52343477 Ry
     estimated scf accuracy    <       0.00000020 Ry

     total magnetization       =    61.33 Bohr mag/cell
     absolute magnetization    =    68.85 Bohr mag/cell

     iteration # 47     ecut=    50.00 Ry     beta= 0.70
     Davidson diagonalization with overlap
     ethr =  2.26E-11,  avg # of iterations =  1.3

     negative rho (up, down):  2.243E-03 1.143E-03

     total cpu time spent up to now is      877.6 secs

     total energy              =   -6056.52343478 Ry
     estimated scf accuracy    <       0.00000002 Ry

     total magnetization       =    61.33 Bohr mag/cell
     absolute magnetization    =    68.85 Bohr mag/cell

     iteration # 48     ecut=    50.00 Ry     beta= 0.70
     Davidson diagonalization with overlap
     ethr =  6.99E-12,  avg # of iterations =  3.7

     negative rho (up, down):  2.239E-03 1.138E-03

     total cpu time spent up to now is      894.1 secs

     total energy              =   -6056.52343478 Ry
     estimated scf accuracy    <       0.00000002 Ry

     total magnetization       =    61.33 Bohr mag/cell
     absolute magnetization    =    68.85 Bohr mag/cell

     iteration # 49     ecut=    50.00 Ry     beta= 0.70
     Davidson diagonalization with overlap
     ethr =  6.08E-12,  avg # of iterations =  1.7

     negative rho (up, down):  2.231E-03 1.129E-03

     total cpu time spent up to now is      914.5 secs

     total energy              =   -6056.52343476 Ry
     estimated scf accuracy    <       0.00000001 Ry

     total magnetization       =    61.33 Bohr mag/cell
     absolute magnetization    =    68.85 Bohr mag/cell

     iteration # 50     ecut=    50.00 Ry     beta= 0.70
     Davidson diagonalization with overlap
     ethr =  4.27E-12,  avg # of iterations =  2.8

     negative rho (up, down):  2.229E-03 1.128E-03

     total cpu time spent up to now is      930.0 secs

     total energy              =   -6056.52343476 Ry
     estimated scf accuracy    <       0.00000003 Ry

     total magnetization       =    61.33 Bohr mag/cell
     absolute magnetization    =    68.85 Bohr mag/cell

     iteration # 51     ecut=    50.00 Ry     beta= 0.70
     Davidson diagonalization with overlap
     ethr =  4.27E-12,  avg # of iterations =  1.7

     negative rho (up, down):  2.230E-03 1.129E-03

     total cpu time spent up to now is      949.5 secs

     total energy              =   -6056.52343476 Ry
     estimated scf accuracy    <       0.00000002 Ry

     total magnetization       =    61.33 Bohr mag/cell
     absolute magnetization    =    68.85 Bohr mag/cell

     iteration # 52     ecut=    50.00 Ry     beta= 0.70
     Davidson diagonalization with overlap
     ethr =  4.27E-12,  avg # of iterations =  1.0

     negative rho (up, down):  2.222E-03 1.122E-03

     Magnetic moment per site  (integrated on atomic sphere of radius R)
     atom   1 (R=0.102)  charge=  6.2201  magn=  1.7698
     atom   2 (R=0.102)  charge=  6.2198  magn=  1.7623
     atom   3 (R=0.102)  charge=  6.2199  magn=  1.7663
     atom   4 (R=0.102)  charge=  6.2201  magn=  1.7691
     atom   5 (R=0.102)  charge=  6.2202  magn=  1.7648
     atom   6 (R=0.102)  charge=  6.2197  magn=  1.7685
     atom   7 (R=0.102)  charge=  6.2206  magn=  1.7706
     atom   8 (R=0.102)  charge=  6.2198  magn=  1.7697
     atom   9 (R=0.102)  charge=  6.2197  magn=  1.7637
     atom  10 (R=0.102)  charge=  6.2255  magn=  1.6911
     atom  11 (R=0.102)  charge=  6.2259  magn=  1.7057
     atom  12 (R=0.102)  charge=  6.2255  magn=  1.7005
     atom  13 (R=0.102)  charge=  6.2261  magn=  1.7017
     atom  14 (R=0.102)  charge=  6.2265  magn=  1.6856
     atom  15 (R=0.102)  charge=  6.2262  magn=  1.6942
     atom  16 (R=0.102)  charge=  6.2258  magn=  1.6960
     atom  17 (R=0.102)  charge=  6.2263  magn=  1.7015
     atom  18 (R=0.102)  charge=  6.2264  magn=  1.6919
     atom  19 (R=0.102)  charge=  6.2255  magn=  1.6868
     atom  20 (R=0.102)  charge=  6.2220  magn=  1.7237
     atom  21 (R=0.102)  charge=  6.2267  magn=  1.6699
     atom  22 (R=0.102)  charge=  6.2261  magn=  1.7007
     atom  23 (R=0.102)  charge=  6.2279  magn=  1.6611
     atom  24 (R=0.102)  charge=  6.2249  magn=  1.7055
     atom  25 (R=0.102)  charge=  6.2257  magn=  1.6941
     atom  26 (R=0.102)  charge=  6.2246  magn=  1.6862
     atom  27 (R=0.102)  charge=  6.2257  magn=  1.6826
     atom  28 (R=0.102)  charge=  6.2236  magn=  1.7891
     atom  29 (R=0.102)  charge=  6.2264  magn=  1.6719
     atom  30 (R=0.102)  charge=  6.2233  magn=  1.7652
     atom  31 (R=0.102)  charge=  6.2291  magn=  1.7496
     atom  32 (R=0.102)  charge=  6.2496  magn=  1.1200
     atom  33 (R=0.102)  charge=  6.2195  magn=  1.7721
     atom  34 (R=0.102)  charge=  6.2206  magn=  1.7627
     atom  35 (R=0.102)  charge=  6.2214  magn=  1.7717
     atom  36 (R=0.102)  charge=  6.2198  magn=  1.7886
     atom  37 (R=0.061)  charge=  0.8401  magn= -0.0198
     atom  38 (R=0.069)  charge=  3.2094  magn= -0.0079
     atom  39 (R=0.061)  charge=  0.5056  magn= -0.0027

     total cpu time spent up to now is      966.9 secs

     End of self-consistent calculation

 ------ SPIN UP ------------


          k = 0.0000 0.0000 0.0000 ( 51087 PWs)   bands (ev):

   -21.3828  -9.9957  -7.4892  -6.6565  -6.1495  -5.5806  -5.1007  -4.6140
    -4.5847  -4.5820  -4.5799  -4.5782  -4.5635  -4.5262  -4.2270  -4.0577
    -4.0516  -4.0500  -4.0448  -4.0234  -3.9875  -3.5426  -3.5377  -3.5339
    -3.5271  -3.5131  -3.4854  -3.4070  -3.4034  -3.3957  -3.3934  -3.3911
    -3.3653  -3.3307  -3.3263  -3.0190  -3.0130  -3.0117  -3.0105  -2.9682
    -2.9528  -2.9476  -2.9463  -2.9402  -2.9385  -2.9367  -2.9290  -2.7851
    -2.7809  -2.7379  -2.7251  -2.7155  -2.7065  -2.7010  -2.6953  -2.6794
    -2.6767  -2.6711  -2.6631  -2.5780  -2.5759  -2.5726  -2.5643  -2.5530
    -2.5078  -2.1202  -2.0540  -2.0350  -2.0343  -2.0314  -2.0276  -1.9278
    -1.9067  -1.9044  -1.8859  -1.8739  -1.8578  -1.8543  -1.8503  -1.8391
    -1.8221  -1.8020  -1.7963  -1.7553  -1.7515  -1.7416  -1.7303  -1.7223
    -1.7206  -1.7102  -1.7070  -1.6948  -1.6815  -1.6791  -1.6745  -1.6707
    -1.6694  -1.6652  -1.6620  -1.6594  -1.6575  -1.6537  -1.6493  -1.6479
    -1.6438  -1.5954  -1.5839  -1.5747  -1.5656  -1.4984  -1.4935  -1.4358
    -1.3008  -1.2180  -1.2142  -1.2078  -1.2062  -1.2036  -1.1842  -1.1660
    -1.1646  -1.1569  -1.1275  -1.1148  -1.1127  -1.0429  -1.0000  -0.9877
    -0.9775  -0.9629  -0.8680  -0.8060  -0.7939  -0.7850  -0.7770  -0.7509
    -0.7414  -0.7223  -0.7175  -0.7153  -0.7128  -0.6916  -0.6300  -0.5972
    -0.5347  -0.4759  -0.4721  -0.4689  -0.4461  -0.4226  -0.4083  -0.4051
    -0.4001  -0.3974  -0.3950  -0.3887  -0.3855  -0.3824  -0.3812  -0.3714
    -0.3628  -0.3617  -0.3379  -0.3308  -0.3258  -0.3231  -0.3210  -0.3141
    -0.2975  -0.2958  -0.2724  -0.2715  -0.2675  -0.2556  -0.2492  -0.2451
    -0.2434  -0.2392  -0.2124  -0.1931  -0.1841  -0.1699  -0.1672  -0.1649
    -0.1602  -0.1551  -0.1470  -0.1345  -0.1271  -0.1165  -0.0759  -0.0754
    -0.0724  -0.0677  -0.0102  -0.0054  -0.0021   0.0022   0.0200   0.0492
     0.4036   0.9579

          k = 0.0000 0.2309 0.0000 ( 51134 PWs)   bands (ev):

   -21.3828  -9.9962  -7.3425  -6.6273  -6.0680  -5.5713  -5.3190  -5.0909
    -4.8294  -4.8136  -4.4697  -4.3388  -4.2438  -4.2390  -4.1771  -4.1301
    -4.0910  -4.0496  -3.9797  -3.9272  -3.9065  -3.6603  -3.5496  -3.5373
    -3.4635  -3.4406  -3.4172  -3.4097  -3.4073  -3.4000  -3.3841  -3.3642
    -3.3341  -3.2885  -3.2855  -3.2603  -3.2571  -3.0691  -3.0361  -3.0270
    -2.9809  -2.9762  -2.9690  -2.9589  -2.8952  -2.8530  -2.8405  -2.8133
    -2.8046  -2.7996  -2.7696  -2.7603  -2.6821  -2.6668  -2.6437  -2.6044
    -2.5966  -2.5715  -2.5626  -2.5465  -2.5274  -2.5137  -2.4948  -2.4882
    -2.4341  -2.1953  -2.1571  -2.1399  -2.1249  -2.1005  -2.0578  -2.0062
    -2.0024  -1.9924  -1.9858  -1.9676  -1.9586  -1.9343  -1.9116  -1.8781
    -1.8573  -1.8448  -1.8370  -1.8013  -1.7938  -1.7871  -1.7821  -1.7690
    -1.7580  -1.7513  -1.7478  -1.7446  -1.7403  -1.7064  -1.6742  -1.6517
    -1.6405  -1.6174  -1.5797  -1.5651  -1.5628  -1.5551  -1.5475  -1.5366
    -1.5273  -1.5183  -1.5057  -1.5042  -1.4920  -1.4785  -1.4624  -1.4497
    -1.4322  -1.4221  -1.4007  -1.3678  -1.3249  -1.2909  -1.2454  -1.2316
    -1.2267  -1.2193  -1.2041  -1.1988  -1.1895  -1.1744  -1.0799  -1.0406
    -1.0234  -1.0099  -0.9711  -0.9445  -0.9252  -0.8864  -0.8649  -0.8381
    -0.8098  -0.7746  -0.7488  -0.7347  -0.7106  -0.6971  -0.6700  -0.6604
    -0.6563  -0.6352  -0.6154  -0.5821  -0.5716  -0.5616  -0.5471  -0.5447
    -0.5218  -0.4864  -0.4694  -0.4684  -0.4496  -0.4289  -0.4043  -0.3963
    -0.3915  -0.3818  -0.3791  -0.3765  -0.3562  -0.3435  -0.3403  -0.3119
    -0.2753  -0.2600  -0.2566  -0.2266  -0.2151  -0.1938  -0.1742  -0.1518
    -0.1423  -0.1375  -0.1299  -0.1161  -0.1096  -0.0945  -0.0858  -0.0636
    -0.0472  -0.0105   0.0039   0.0091   0.0285   0.0335   0.0763   0.0847
     0.1014   0.1410   0.3766   0.3825   0.4534   0.5534   0.6349   0.6705
     0.6897   0.8341

          k = 0.0000 0.4619 0.0000 ( 51204 PWs)   bands (ev):

   -21.3828  -9.9970  -6.9364  -6.5819  -6.1631  -5.8665  -5.4141  -5.1184
    -4.9732  -4.9354  -4.8340  -4.1454  -4.0891  -4.0741  -4.0313  -4.0017
    -3.8851  -3.8830  -3.8466  -3.7553  -3.7496  -3.7417  -3.6583  -3.5707
    -3.5648  -3.5588  -3.5556  -3.5058  -3.4595  -3.4509  -3.4409  -3.2854
    -3.2826  -3.2754  -3.2532  -3.2385  -3.2322  -3.1354  -3.1308  -3.1174
    -3.1091  -3.1019  -2.9991  -2.9059  -2.8960  -2.8132  -2.8015  -2.7749
    -2.7605  -2.7270  -2.7220  -2.7157  -2.6949  -2.6845  -2.6267  -2.6168
    -2.5912  -2.5569  -2.5485  -2.4265  -2.4117  -2.4002  -2.3762  -2.3462
    -2.2988  -2.2899  -2.2721  -2.2527  -2.2075  -2.1651  -2.1267  -2.1227
    -2.1195  -2.1069  -2.0924  -2.0833  -2.0768  -2.0580  -2.0258  -2.0060
    -1.9901  -1.9638  -1.9473  -1.9185  -1.9067  -1.8792  -1.8167  -1.8008
    -1.7973  -1.7857  -1.7657  -1.7560  -1.7184  -1.6913  -1.6896  -1.6786
    -1.6671  -1.6450  -1.6418  -1.6146  -1.6106  -1.5992  -1.5896  -1.5651
    -1.5548  -1.5473  -1.4939  -1.4499  -1.4317  -1.4130  -1.3888  -1.3801
    -1.3615  -1.3501  -1.3087  -1.2833  -1.2684  -1.2580  -1.2533  -1.2480
    -1.2379  -1.2332  -1.2249  -1.2153  -1.2079  -1.1984  -1.1817  -1.1687
    -1.1518  -1.1233  -1.0816  -1.0495  -1.0113  -1.0079  -0.9886  -0.9743
    -0.9460  -0.9091  -0.8991  -0.8817  -0.8611  -0.8362  -0.8183  -0.7661
    -0.7401  -0.7117  -0.6922  -0.6771  -0.6621  -0.6438  -0.6308  -0.5804
    -0.5442  -0.4917  -0.4798  -0.4728  -0.4638  -0.4600  -0.4461  -0.4416
    -0.4261  -0.4173  -0.3420  -0.3293  -0.3140  -0.2931  -0.2912  -0.2797
    -0.2741  -0.2598  -0.2511  -0.2426  -0.2205  -0.2047  -0.1379  -0.1193
    -0.1123  -0.0991  -0.0790  -0.0623  -0.0205  -0.0010   0.0155   0.0472
     0.0609   0.1034   0.1068   0.1245   0.1288   0.1338   0.1534   0.1695
     0.2328   0.2652   0.3435   0.9634   1.1368   1.3091   1.3721   1.3902
     1.6117   1.7691

          k = 0.2000-0.1155 0.0000 ( 51134 PWs)   bands (ev):

   -21.3828  -9.9954  -7.3438  -6.6276  -6.0740  -5.5871  -5.2962  -5.0878
    -4.8341  -4.8234  -4.4646  -4.3138  -4.2451  -4.2405  -4.1730  -4.1243
    -4.0990  -4.0696  -3.9678  -3.9313  -3.9126  -3.6587  -3.5509  -3.5360
    -3.4604  -3.4324  -3.4229  -3.4109  -3.4080  -3.3945  -3.3883  -3.3675
    -3.3340  -3.2895  -3.2859  -3.2630  -3.2573  -3.0638  -3.0329  -3.0281
    -2.9836  -2.9775  -2.9679  -2.9614  -2.8851  -2.8502  -2.8408  -2.8132
    -2.8030  -2.8003  -2.7771  -2.7573  -2.6789  -2.6683  -2.6394  -2.6079
    -2.5915  -2.5761  -2.5645  -2.5530  -2.5309  -2.5179  -2.4938  -2.4901
    -2.4262  -2.1960  -2.1565  -2.1413  -2.1225  -2.0993  -2.0571  -2.0050
    -2.0010  -1.9950  -1.9769  -1.9754  -1.9586  -1.9345  -1.9034  -1.8798
    -1.8616  -1.8513  -1.8397  -1.8020  -1.7922  -1.7883  -1.7844  -1.7706
    -1.7564  -1.7520  -1.7479  -1.7445  -1.7294  -1.6936  -1.6732  -1.6640
    -1.6452  -1.6098  -1.5801  -1.5700  -1.5584  -1.5513  -1.5437  -1.5392
    -1.5196  -1.5130  -1.5090  -1.5026  -1.4949  -1.4738  -1.4637  -1.4543
    -1.4345  -1.4257  -1.3895  -1.3463  -1.3334  -1.3105  -1.2553  -1.2337
    -1.2240  -1.2099  -1.2063  -1.1982  -1.1964  -1.1822  -1.1001  -1.0498
    -1.0383  -1.0176  -0.9656  -0.9452  -0.9284  -0.8753  -0.8617  -0.8444
    -0.8207  -0.7496  -0.7393  -0.7212  -0.7010  -0.6932  -0.6783  -0.6659
    -0.6585  -0.6387  -0.6292  -0.5814  -0.5696  -0.5622  -0.5481  -0.5410
    -0.5080  -0.4936  -0.4728  -0.4658  -0.4420  -0.4262  -0.4072  -0.3994
    -0.3924  -0.3834  -0.3766  -0.3711  -0.3565  -0.3417  -0.3373  -0.3248
    -0.2797  -0.2614  -0.2570  -0.2237  -0.2076  -0.2016  -0.1776  -0.1532
    -0.1472  -0.1343  -0.1275  -0.1174  -0.1040  -0.0950  -0.0876  -0.0565
    -0.0506  -0.0097  -0.0004   0.0073   0.0288   0.0334   0.0726   0.0824
     0.0936   0.1381   0.3720   0.3825   0.4881   0.5839   0.6334   0.6556
     0.7430   0.8070

          k = 0.2000 0.1155 0.0000 ( 51134 PWs)   bands (ev):

   -21.3828  -9.9964  -7.3422  -6.6275  -6.0656  -5.5689  -5.3136  -5.1092
    -4.8219  -4.8106  -4.4722  -4.3480  -4.2445  -4.2376  -4.1773  -4.1305
    -4.0812  -4.0511  -3.9826  -3.9235  -3.9073  -3.6618  -3.5464  -3.5410
    -3.4626  -3.4435  -3.4146  -3.4124  -3.4059  -3.3985  -3.3822  -3.3636
    -3.3334  -3.2907  -3.2846  -3.2594  -3.2573  -3.0625  -3.0318  -3.0266
    -2.9792  -2.9739  -2.9688  -2.9654  -2.8865  -2.8544  -2.8425  -2.8187
    -2.8045  -2.8011  -2.7759  -2.7647  -2.6803  -2.6678  -2.6475  -2.6044
    -2.5993  -2.5697  -2.5630  -2.5393  -2.5301  -2.5137  -2.4976  -2.4898
    -2.4353  -2.1870  -2.1594  -2.1437  -2.1207  -2.0997  -2.0583  -2.0044
    -1.9978  -1.9934  -1.9816  -1.9706  -1.9636  -1.9401  -1.8943  -1.8782
    -1.8650  -1.8531  -1.8289  -1.8025  -1.7929  -1.7896  -1.7856  -1.7660
    -1.7563  -1.7546  -1.7487  -1.7428  -1.7343  -1.7096  -1.6755  -1.6551
    -1.6372  -1.6076  -1.5888  -1.5706  -1.5572  -1.5552  -1.5428  -1.5376
    -1.5231  -1.5196  -1.5103  -1.5050  -1.4964  -1.4729  -1.4542  -1.4480
    -1.4345  -1.4292  -1.4103  -1.3681  -1.3285  -1.2839  -1.2474  -1.2312
    -1.2200  -1.2161  -1.2096  -1.1989  -1.1961  -1.1841  -1.0866  -1.0544
    -1.0190  -0.9988  -0.9708  -0.9455  -0.9184  -0.8903  -0.8664  -0.8476
    -0.7952  -0.7684  -0.7477  -0.7240  -0.7093  -0.6990  -0.6775  -0.6662
    -0.6534  -0.6373  -0.6155  -0.5703  -0.5635  -0.5579  -0.5473  -0.5412
    -0.5272  -0.4939  -0.4722  -0.4654  -0.4473  -0.4238  -0.4091  -0.3981
    -0.3934  -0.3852  -0.3799  -0.3688  -0.3523  -0.3465  -0.3335  -0.3143
    -0.2804  -0.2622  -0.2536  -0.2330  -0.2072  -0.2014  -0.1714  -0.1515
    -0.1414  -0.1398  -0.1264  -0.1170  -0.1033  -0.0928  -0.0876  -0.0602
    -0.0447  -0.0073   0.0036   0.0067   0.0318   0.0337   0.0725   0.0788
     0.1085   0.1307   0.3670   0.3813   0.4668   0.5450   0.6349   0.6474
     0.7010   0.8475

          k = 0.2000 0.3464 0.0000 ( 51202 PWs)   bands (ev):

   -21.3828  -9.9974  -7.0610  -6.5918  -5.9363  -5.6750  -5.6669  -5.4003
    -5.0974  -4.5375  -4.5045  -4.2531  -4.2466  -4.2022  -4.0337  -4.0264
    -3.9363  -3.9321  -3.9253  -3.7964  -3.7754  -3.6610  -3.6498  -3.5838
    -3.5407  -3.4492  -3.4420  -3.4258  -3.4084  -3.3978  -3.3841  -3.3615
    -3.3460  -3.3227  -3.3120  -3.2756  -3.2355  -3.1928  -3.1874  -3.0719
    -3.0569  -2.9740  -2.9598  -2.9357  -2.9218  -2.9114  -2.8251  -2.7764
    -2.7697  -2.7358  -2.7315  -2.7174  -2.6771  -2.6626  -2.6547  -2.6421
    -2.6227  -2.5215  -2.5084  -2.4530  -2.4439  -2.4380  -2.3925  -2.3884
    -2.3761  -2.2679  -2.2109  -2.1846  -2.1692  -2.1420  -2.1197  -2.1040
    -2.0846  -2.0794  -2.0706  -2.0554  -2.0391  -2.0226  -2.0194  -1.9994
    -1.9792  -1.9510  -1.9076  -1.8858  -1.8295  -1.8170  -1.8056  -1.7878
    -1.7684  -1.7537  -1.7323  -1.7195  -1.6946  -1.6766  -1.6666  -1.6626
    -1.6526  -1.6483  -1.6351  -1.6179  -1.6122  -1.6074  -1.5873  -1.5676
    -1.5589  -1.5318  -1.5092  -1.4902  -1.4744  -1.4628  -1.4501  -1.4258
    -1.4132  -1.3934  -1.3814  -1.3575  -1.3462  -1.3157  -1.3023  -1.2651
    -1.2586  -1.2481  -1.2438  -1.2251  -1.2105  -1.1962  -1.1823  -1.1475
    -1.0993  -1.0835  -1.0689  -1.0284  -0.9926  -0.9574  -0.9378  -0.8881
    -0.8365  -0.8210  -0.8165  -0.7938  -0.7865  -0.7735  -0.7660  -0.7569
    -0.7287  -0.7188  -0.6851  -0.6675  -0.6585  -0.6393  -0.6215  -0.6152
    -0.5997  -0.5826  -0.5520  -0.5342  -0.5218  -0.5067  -0.4368  -0.4043
    -0.3679  -0.3463  -0.3343  -0.3225  -0.3168  -0.2909  -0.2843  -0.2762
    -0.2601  -0.2504  -0.1947  -0.1754  -0.1645  -0.1617  -0.1229  -0.1165
    -0.0937  -0.0897  -0.0847  -0.0752  -0.0559  -0.0498  -0.0427  -0.0239
    -0.0146   0.0408   0.0675   0.0793   0.0876   0.1271   0.1305   0.1548
     0.4597   0.4728   0.5364   0.5702   0.8079   0.8217   1.1344   1.3418
     1.3667   1.5742

          k = 0.2000-0.5774 0.0000 ( 51262 PWs)   bands (ev):

   -21.3828  -9.9970  -6.7356  -6.4362  -6.3491  -5.8743  -5.6996  -5.2657
    -5.0689  -4.9431  -4.5559  -4.2316  -3.9956  -3.9491  -3.8532  -3.8156
    -3.8134  -3.7942  -3.7857  -3.7647  -3.7107  -3.7016  -3.6991  -3.6948
    -3.6172  -3.5946  -3.5537  -3.5495  -3.5224  -3.5166  -3.4079  -3.3830
    -3.3666  -3.3646  -3.3362  -3.2959  -3.2125  -3.1961  -3.0978  -3.0730
    -3.0679  -2.9920  -2.9837  -2.9707  -2.9389  -2.8586  -2.8534  -2.8475
    -2.7846  -2.7740  -2.6976  -2.6668  -2.6418  -2.6278  -2.5790  -2.5710
    -2.5002  -2.4861  -2.4788  -2.4676  -2.4593  -2.4310  -2.4126  -2.3497
    -2.2924  -2.2704  -2.2633  -2.2539  -2.2198  -2.1973  -2.1572  -2.1330
    -2.1130  -2.0901  -2.0818  -2.0709  -2.0564  -2.0316  -2.0149  -2.0001
    -1.9898  -1.9774  -1.9595  -1.9407  -1.9374  -1.8949  -1.8691  -1.8546
    -1.8402  -1.7975  -1.7742  -1.7565  -1.7183  -1.7036  -1.6881  -1.6813
    -1.6619  -1.6536  -1.6446  -1.6360  -1.6236  -1.6111  -1.5859  -1.5680
    -1.5290  -1.5050  -1.4974  -1.4895  -1.4850  -1.4699  -1.4632  -1.4566
    -1.4467  -1.4385  -1.4197  -1.3956  -1.3831  -1.3479  -1.3345  -1.3145
    -1.2711  -1.2463  -1.2141  -1.1931  -1.1818  -1.1696  -1.1602  -1.1108
    -1.0903  -1.0788  -1.0730  -1.0244  -1.0027  -0.9537  -0.9309  -0.9232
    -0.9099  -0.9016  -0.8912  -0.8672  -0.8509  -0.8307  -0.7991  -0.7704
    -0.7614  -0.7342  -0.7265  -0.7169  -0.6868  -0.6665  -0.6483  -0.6279
    -0.6097  -0.5938  -0.5854  -0.5760  -0.5381  -0.5254  -0.4922  -0.4211
    -0.3622  -0.3262  -0.3175  -0.3072  -0.3058  -0.2946  -0.2840  -0.2752
    -0.2421  -0.2339  -0.2221  -0.2167  -0.1692  -0.1581  -0.0990  -0.0882
    -0.0810  -0.0612  -0.0484  -0.0396   0.0001   0.0096   0.0146   0.0209
     0.0365   0.0782   0.1060   0.1144   0.1275   0.1370   0.1614   0.1967
     0.2761   0.5088   0.6171   0.8545   1.3214   1.4195   1.4679   1.7936
     1.8963   1.9444

          k = 0.2000-0.3464 0.0000 ( 51202 PWs)   bands (ev):

   -21.3828  -9.9958  -7.0656  -6.5913  -5.9519  -5.6938  -5.6600  -5.3898
    -5.0760  -4.5730  -4.4662  -4.2505  -4.2458  -4.2006  -4.0306  -4.0270
    -3.9363  -3.9287  -3.9110  -3.8012  -3.7910  -3.6563  -3.6525  -3.5877
    -3.5421  -3.4530  -3.4461  -3.4199  -3.4085  -3.3928  -3.3875  -3.3610
    -3.3514  -3.3267  -3.3089  -3.2764  -3.2394  -3.1986  -3.1816  -3.0703
    -3.0614  -2.9714  -2.9637  -2.9375  -2.9263  -2.8992  -2.8128  -2.7751
    -2.7563  -2.7415  -2.7328  -2.7123  -2.6821  -2.6719  -2.6495  -2.6348
    -2.6265  -2.5162  -2.5024  -2.4547  -2.4466  -2.4224  -2.4008  -2.3849
    -2.3714  -2.2822  -2.2181  -2.1897  -2.1743  -2.1407  -2.1266  -2.1065
    -2.0959  -2.0757  -2.0587  -2.0483  -2.0362  -2.0282  -2.0149  -2.0020
    -1.9889  -1.9662  -1.9023  -1.8537  -1.8271  -1.8177  -1.7960  -1.7830
    -1.7715  -1.7455  -1.7436  -1.7135  -1.6971  -1.6799  -1.6707  -1.6632
    -1.6603  -1.6457  -1.6342  -1.6213  -1.6080  -1.6022  -1.5830  -1.5716
    -1.5519  -1.5455  -1.5255  -1.4950  -1.4780  -1.4609  -1.4314  -1.4249
    -1.4157  -1.4020  -1.3910  -1.3422  -1.3272  -1.3151  -1.2976  -1.2758
    -1.2617  -1.2524  -1.2423  -1.2277  -1.2159  -1.2041  -1.1796  -1.1424
    -1.1166  -1.0830  -1.0756  -1.0372  -0.9906  -0.9566  -0.9368  -0.8796
    -0.8384  -0.8231  -0.8151  -0.8013  -0.7929  -0.7817  -0.7606  -0.7472
    -0.7338  -0.7118  -0.6886  -0.6774  -0.6544  -0.6363  -0.6269  -0.6093
    -0.6032  -0.5830  -0.5447  -0.5333  -0.5258  -0.5037  -0.4420  -0.3823
    -0.3736  -0.3531  -0.3326  -0.3243  -0.3188  -0.2935  -0.2873  -0.2773
    -0.2602  -0.2478  -0.1885  -0.1801  -0.1715  -0.1619  -0.1248  -0.1133
    -0.0975  -0.0896  -0.0858  -0.0716  -0.0589  -0.0499  -0.0431  -0.0315
    -0.0118   0.0479   0.0718   0.0816   0.0881   0.1250   0.1334   0.1649
     0.4557   0.4716   0.4896   0.6696   0.7671   0.8257   1.1351   1.3465
     1.3669   1.5871

          k = 0.4000-0.2309 0.0000 ( 51204 PWs)   bands (ev):

   -21.3828  -9.9949  -6.9422  -6.5831  -6.1717  -5.8758  -5.4288  -5.0813
    -4.9718  -4.9635  -4.7982  -4.1269  -4.0995  -4.0737  -4.0564  -3.9899
    -3.8882  -3.8836  -3.8430  -3.7583  -3.7502  -3.7405  -3.6473  -3.5721
    -3.5650  -3.5615  -3.5560  -3.5038  -3.4568  -3.4441  -3.4402  -3.2947
    -3.2803  -3.2784  -3.2643  -3.2407  -3.2322  -3.1340  -3.1257  -3.1155
    -3.1082  -3.1019  -2.9856  -2.9114  -2.8937  -2.8136  -2.7975  -2.7770
    -2.7606  -2.7269  -2.7211  -2.7140  -2.7013  -2.6820  -2.6283  -2.6162
    -2.5846  -2.5601  -2.5457  -2.4220  -2.4105  -2.4035  -2.3735  -2.3450
    -2.2953  -2.2829  -2.2659  -2.2539  -2.2118  -2.1732  -2.1400  -2.1210
    -2.1190  -2.1086  -2.1065  -2.0871  -2.0781  -2.0565  -2.0193  -2.0019
    -1.9842  -1.9696  -1.9478  -1.9343  -1.9057  -1.8792  -1.8182  -1.8080
    -1.7992  -1.7722  -1.7592  -1.7456  -1.7096  -1.6918  -1.6866  -1.6777
    -1.6620  -1.6464  -1.6357  -1.6181  -1.5994  -1.5974  -1.5882  -1.5704
    -1.5581  -1.5340  -1.5042  -1.4901  -1.4271  -1.4093  -1.3964  -1.3782
    -1.3640  -1.3430  -1.3218  -1.2902  -1.2704  -1.2558  -1.2504  -1.2479
    -1.2412  -1.2375  -1.2207  -1.2139  -1.2029  -1.2009  -1.1871  -1.1776
    -1.1523  -1.1263  -1.0637  -1.0572  -1.0158  -1.0113  -0.9891  -0.9718
    -0.9395  -0.9307  -0.8907  -0.8826  -0.8665  -0.8261  -0.8069  -0.7647
    -0.7466  -0.7235  -0.6925  -0.6773  -0.6586  -0.6504  -0.6317  -0.5698
    -0.5238  -0.4990  -0.4844  -0.4688  -0.4670  -0.4592  -0.4511  -0.4402
    -0.4245  -0.4185  -0.3484  -0.3287  -0.3082  -0.3040  -0.2927  -0.2904
    -0.2783  -0.2607  -0.2488  -0.2324  -0.2175  -0.2001  -0.1434  -0.1194
    -0.1156  -0.0991  -0.0865  -0.0428  -0.0204   0.0045   0.0156   0.0525
     0.0605   0.1008   0.1059   0.1260   0.1277   0.1340   0.1557   0.1637
     0.2328   0.2637   0.3896   0.8977   1.1641   1.3494   1.3723   1.3982
     1.6494   1.7450

          k = 0.4000 0.0000 0.0000 ( 51202 PWs)   bands (ev):

   -21.3828  -9.9961  -7.0647  -6.5914  -5.9481  -5.6920  -5.6587  -5.3913
    -5.0853  -4.5672  -4.4721  -4.2488  -4.2457  -4.2035  -4.0313  -4.0261
    -3.9373  -3.9292  -3.9139  -3.7974  -3.7893  -3.6615  -3.6489  -3.5863
    -3.5423  -3.4504  -3.4466  -3.4218  -3.4063  -3.3964  -3.3842  -3.3612
    -3.3492  -3.3231  -3.3155  -3.2734  -3.2370  -3.1930  -3.1856  -3.0661
    -3.0572  -2.9721  -2.9614  -2.9397  -2.9108  -2.9088  -2.8185  -2.7716
    -2.7657  -2.7424  -2.7312  -2.7186  -2.6805  -2.6713  -2.6539  -2.6427
    -2.6226  -2.5218  -2.5072  -2.4526  -2.4486  -2.4299  -2.3939  -2.3878
    -2.3747  -2.2831  -2.2007  -2.1849  -2.1658  -2.1372  -2.1270  -2.0996
    -2.0943  -2.0776  -2.0673  -2.0508  -2.0393  -2.0244  -2.0121  -1.9990
    -1.9867  -1.9557  -1.9104  -1.8702  -1.8299  -1.8212  -1.8037  -1.7841
    -1.7765  -1.7555  -1.7208  -1.7160  -1.6983  -1.6751  -1.6718  -1.6621
    -1.6549  -1.6420  -1.6380  -1.6237  -1.6149  -1.6075  -1.5813  -1.5661
    -1.5587  -1.5454  -1.5119  -1.4906  -1.4767  -1.4507  -1.4396  -1.4243
    -1.4160  -1.4072  -1.3866  -1.3601  -1.3331  -1.3207  -1.3006  -1.2766
    -1.2572  -1.2531  -1.2437  -1.2251  -1.2142  -1.1952  -1.1874  -1.1460
    -1.1016  -1.0891  -1.0683  -1.0569  -0.9885  -0.9484  -0.9354  -0.8861
    -0.8311  -0.8223  -0.8154  -0.8010  -0.7926  -0.7752  -0.7659  -0.7341
    -0.7316  -0.7185  -0.6876  -0.6676  -0.6501  -0.6427  -0.6199  -0.6108
    -0.5909  -0.5730  -0.5504  -0.5374  -0.5272  -0.5098  -0.4588  -0.3877
    -0.3678  -0.3485  -0.3354  -0.3226  -0.3176  -0.2942  -0.2837  -0.2774
    -0.2680  -0.2473  -0.1938  -0.1739  -0.1657  -0.1594  -0.1286  -0.1045
    -0.0976  -0.0901  -0.0841  -0.0640  -0.0592  -0.0490  -0.0425  -0.0352
    -0.0132   0.0449   0.0681   0.0792   0.0940   0.1275   0.1350   0.1487
     0.4464   0.4740   0.4993   0.6567   0.7852   0.8273   1.1241   1.3414
     1.3797   1.5619

          k = 0.4000 0.2309 0.0000 ( 51204 PWs)   bands (ev):

   -21.3828  -9.9975  -6.9355  -6.5820  -6.1582  -5.8627  -5.4071  -5.1394
    -4.9722  -4.9228  -4.8528  -4.1480  -4.0770  -4.0721  -4.0320  -4.0050
    -3.8863  -3.8813  -3.8454  -3.7542  -3.7478  -3.7429  -3.6653  -3.5693
    -3.5660  -3.5567  -3.5555  -3.5062  -3.4648  -3.4490  -3.4392  -3.2832
    -3.2816  -3.2704  -3.2515  -3.2372  -3.2290  -3.1313  -3.1220  -3.1139
    -3.1083  -3.1042  -2.9890  -2.9067  -2.9009  -2.8221  -2.8044  -2.7811
    -2.7674  -2.7334  -2.7237  -2.7139  -2.6934  -2.6892  -2.6208  -2.6176
    -2.5930  -2.5616  -2.5512  -2.4310  -2.4097  -2.3977  -2.3866  -2.3470
    -2.3017  -2.2842  -2.2757  -2.2561  -2.1990  -2.1578  -2.1392  -2.1237
    -2.1215  -2.1095  -2.0935  -2.0858  -2.0735  -2.0556  -2.0474  -2.0010
    -1.9740  -1.9608  -1.9454  -1.9148  -1.8906  -1.8753  -1.8278  -1.8031
    -1.7948  -1.7860  -1.7629  -1.7533  -1.7103  -1.6902  -1.6813  -1.6738
    -1.6591  -1.6530  -1.6380  -1.6151  -1.6089  -1.5978  -1.5830  -1.5684
    -1.5539  -1.5382  -1.4982  -1.4795  -1.4287  -1.4106  -1.3890  -1.3796
    -1.3571  -1.3423  -1.3237  -1.2926  -1.2682  -1.2600  -1.2531  -1.2491
    -1.2410  -1.2378  -1.2248  -1.2175  -1.2118  -1.1989  -1.1781  -1.1705
    -1.1604  -1.1194  -1.0822  -1.0450  -1.0130  -1.0068  -0.9957  -0.9744
    -0.9551  -0.9088  -0.8900  -0.8834  -0.8638  -0.8226  -0.8076  -0.7714
    -0.7464  -0.7039  -0.6818  -0.6677  -0.6596  -0.6437  -0.6087  -0.6011
    -0.5465  -0.4907  -0.4826  -0.4697  -0.4648  -0.4583  -0.4477  -0.4436
    -0.4309  -0.4155  -0.3467  -0.3215  -0.3094  -0.3010  -0.2950  -0.2888
    -0.2732  -0.2515  -0.2450  -0.2356  -0.2206  -0.2112  -0.1364  -0.1203
    -0.1119  -0.1056  -0.0781  -0.0556  -0.0209  -0.0013   0.0177   0.0480
     0.0609   0.1029   0.1051   0.1262   0.1289   0.1320   0.1493   0.1789
     0.2328   0.2573   0.3505   0.9489   1.1447   1.3053   1.3655   1.3842
     1.6740   1.7243

          k = 0.4000-0.6928 0.0000 ( 51262 PWs)   bands (ev):

   -21.3828  -9.9973  -6.7356  -6.4346  -6.3458  -5.8822  -5.6931  -5.2334
    -5.1038  -4.9596  -4.5408  -4.2309  -3.9955  -3.9515  -3.8550  -3.8192
    -3.8108  -3.7943  -3.7831  -3.7674  -3.7092  -3.7034  -3.7001  -3.6929
    -3.6158  -3.5986  -3.5521  -3.5479  -3.5207  -3.5182  -3.4041  -3.3846
    -3.3669  -3.3625  -3.3339  -3.2965  -3.2107  -3.1932  -3.0920  -3.0696
    -3.0677  -2.9937  -2.9863  -2.9641  -2.9349  -2.8718  -2.8586  -2.8413
    -2.7921  -2.7782  -2.6931  -2.6716  -2.6390  -2.6275  -2.5785  -2.5730
    -2.5039  -2.4861  -2.4756  -2.4710  -2.4594  -2.4393  -2.4179  -2.3497
    -2.2909  -2.2705  -2.2661  -2.2556  -2.2119  -2.1936  -2.1474  -2.1385
    -2.1121  -2.0881  -2.0817  -2.0682  -2.0656  -2.0399  -2.0159  -1.9940
    -1.9865  -1.9837  -1.9629  -1.9407  -1.9326  -1.8988  -1.8684  -1.8502
    -1.8339  -1.7982  -1.7671  -1.7567  -1.7324  -1.6979  -1.6876  -1.6788
    -1.6588  -1.6548  -1.6475  -1.6332  -1.6259  -1.5950  -1.5862  -1.5590
    -1.5302  -1.5056  -1.4937  -1.4901  -1.4760  -1.4694  -1.4653  -1.4549
    -1.4431  -1.4330  -1.4172  -1.4047  -1.3821  -1.3663  -1.3329  -1.3242
    -1.2845  -1.2487  -1.2109  -1.1906  -1.1844  -1.1782  -1.1648  -1.1046
    -1.0923  -1.0868  -1.0701  -1.0391  -0.9756  -0.9552  -0.9365  -0.9246
    -0.9148  -0.9033  -0.8820  -0.8739  -0.8428  -0.8210  -0.7939  -0.7833
    -0.7617  -0.7352  -0.7218  -0.7160  -0.6886  -0.6522  -0.6429  -0.6204
    -0.6073  -0.5985  -0.5814  -0.5744  -0.5341  -0.5232  -0.5077  -0.4309
    -0.3611  -0.3266  -0.3171  -0.3125  -0.3056  -0.2957  -0.2866  -0.2662
    -0.2484  -0.2355  -0.2221  -0.2116  -0.1712  -0.1545  -0.0990  -0.0875
    -0.0706  -0.0604  -0.0543  -0.0334  -0.0048   0.0099   0.0177   0.0211
     0.0332   0.0756   0.1085   0.1105   0.1278   0.1402   0.1588   0.1906
     0.2832   0.5093   0.6120   0.8687   1.2961   1.4185   1.4723   1.8036
     1.8937   1.9430

          k = 0.4000-0.4619 0.0000 ( 51262 PWs)   bands (ev):

   -21.3828  -9.9957  -6.7410  -6.4425  -6.3481  -5.8554  -5.7186  -5.3241
    -4.9750  -4.9396  -4.5899  -4.2360  -3.9926  -3.9443  -3.8344  -3.8175
    -3.8152  -3.7884  -3.7824  -3.7641  -3.7213  -3.7021  -3.7010  -3.6967
    -3.6136  -3.5953  -3.5518  -3.5506  -3.5225  -3.5152  -3.4195  -3.3799
    -3.3671  -3.3598  -3.3412  -3.2966  -3.2206  -3.1965  -3.0850  -3.0713
    -3.0667  -3.0002  -2.9830  -2.9635  -2.9401  -2.8616  -2.8542  -2.8478
    -2.7838  -2.7737  -2.6988  -2.6665  -2.6369  -2.6294  -2.5783  -2.5709
    -2.4943  -2.4840  -2.4805  -2.4677  -2.4552  -2.4309  -2.4112  -2.3494
    -2.2858  -2.2762  -2.2593  -2.2528  -2.2107  -2.1971  -2.1700  -2.1355
    -2.1256  -2.0892  -2.0828  -2.0743  -2.0509  -2.0248  -2.0110  -2.0024
    -1.9950  -1.9851  -1.9577  -1.9410  -1.9383  -1.9137  -1.8691  -1.8518
    -1.8324  -1.7909  -1.7727  -1.7453  -1.7240  -1.6986  -1.6944  -1.6748
    -1.6620  -1.6547  -1.6444  -1.6376  -1.6224  -1.6185  -1.5922  -1.5832
    -1.5352  -1.5081  -1.4957  -1.4917  -1.4743  -1.4671  -1.4647  -1.4533
    -1.4477  -1.4357  -1.4194  -1.3936  -1.3747  -1.3501  -1.3317  -1.3140
    -1.2543  -1.2483  -1.2306  -1.1958  -1.1803  -1.1711  -1.1599  -1.1122
    -1.0890  -1.0770  -1.0637  -1.0438  -1.0056  -0.9508  -0.9447  -0.9224
    -0.9086  -0.9032  -0.8898  -0.8720  -0.8437  -0.8301  -0.8029  -0.7723
    -0.7639  -0.7365  -0.7164  -0.7091  -0.7009  -0.6660  -0.6339  -0.6288
    -0.6122  -0.5953  -0.5834  -0.5724  -0.5399  -0.5111  -0.4980  -0.4338
    -0.3581  -0.3279  -0.3214  -0.3103  -0.3036  -0.2973  -0.2900  -0.2723
    -0.2471  -0.2314  -0.2221  -0.2148  -0.1640  -0.1608  -0.0984  -0.0935
    -0.0728  -0.0621  -0.0557  -0.0411   0.0029   0.0089   0.0156   0.0239
     0.0346   0.0994   0.1083   0.1177   0.1292   0.1367   0.1611   0.1963
     0.2990   0.5063   0.5765   0.8574   1.3720   1.4136   1.5023   1.7091
     1.8941   1.9617

 ------ SPIN DOWN ----------


          k = 0.0000 0.0000 0.0000 ( 51087 PWs)   bands (ev):

   -21.4080 -10.0821  -7.6192  -6.6844  -6.2064  -5.5792  -5.1167  -4.4130
    -4.3860  -4.3830  -4.3801  -4.3780  -4.3598  -4.2571  -3.5221  -3.5092
    -3.5079  -3.5060  -3.4806  -3.4682  -3.3566  -2.5732  -2.5636  -2.5585
    -2.5547  -2.5341  -2.4845  -2.1032  -2.0946  -2.0920  -2.0906  -2.0841
    -2.0791  -1.9059  -1.8908  -1.8213  -1.8105  -1.8066  -1.7980  -1.7272
    -1.7005  -1.6781  -1.6523  -1.6313  -1.5805  -1.5541  -1.5457  -1.5420
    -1.5259  -1.4978  -1.3181  -1.2875  -1.2767  -1.2735  -1.2694  -1.2615
    -1.2613  -1.2509  -1.2387  -1.2010  -1.1987  -1.1849  -1.1814  -1.1700
    -1.1356  -0.9884  -0.6450  -0.6147  -0.5983  -0.5953  -0.5781  -0.4528
    -0.4033  -0.3015  -0.2794  -0.2767  -0.2666  -0.2640  -0.2593  -0.2214
    -0.2088  -0.2013  -0.1861  -0.1845  -0.1836  -0.1729  -0.1339  -0.0938
    -0.0880  -0.0757  -0.0733  -0.0645  -0.0443  -0.0226  -0.0199  -0.0153
    -0.0151  -0.0094   0.0093   0.0117   0.0185   0.0225   0.0714   0.1034
     0.1545   0.1732   0.1975   0.2262   0.2299   0.2409   0.2434   0.2459
     0.2467   0.2478   0.2492   0.2704   0.3173   0.3183   0.3677   0.3996
     0.4112   0.4258   0.4390   0.4540   0.5850   0.6294   0.6354   0.6851
     0.7142   0.7178   0.7243   0.7281   0.7473   0.8975   1.0314   1.0522
     1.0733   1.0777   1.2277   1.2533   1.2732   1.2869   1.2888   1.2932
     1.2959   1.4428   1.4513   1.4572   1.4631   1.4692   1.4867   1.4937
     1.4982   1.5227   1.5420   1.5508   1.5685   1.5979   1.6046   1.6107
     1.6170   1.6194   1.6203   1.6396   1.6714   1.6901   1.6997   1.7118
     1.7240   1.7374   1.7395   1.7411   1.7434   1.7502   1.7525   1.7901
     1.7939   1.8182   1.8222   1.8269   1.8371   1.8418   1.8429   1.8732
     1.8784   1.8818   1.8897   1.8914   1.8947   1.9021   1.9046   1.9110
     1.9139   1.9605   1.9686   1.9915   2.1173   2.1198   2.1248   2.1269
     2.1295   2.1312

          k = 0.0000 0.2309 0.0000 ( 51134 PWs)   bands (ev):

   -21.4079 -10.0826  -7.4706  -6.6497  -6.1243  -5.5872  -5.3378  -5.1094
    -4.7650  -4.7461  -4.2489  -4.1348  -3.8393  -3.8307  -3.7460  -3.6882
    -3.5447  -3.2975  -3.1693  -3.1402  -3.0640  -2.7950  -2.5776  -2.5453
    -2.5069  -2.4613  -2.4331  -2.2209  -2.1374  -2.1267  -2.1229  -2.0912
    -2.0807  -2.0470  -2.0353  -2.0031  -1.9923  -1.8713  -1.8490  -1.7803
    -1.7672  -1.7435  -1.6569  -1.5966  -1.5812  -1.5681  -1.5224  -1.4606
    -1.4229  -1.4046  -1.3533  -1.3248  -1.3183  -1.2938  -1.2732  -1.2670
    -1.2573  -1.2085  -1.1764  -1.1588  -1.1300  -1.0974  -1.0815  -1.0585
    -1.0009  -0.9215  -0.7209  -0.6606  -0.6490  -0.6232  -0.5968  -0.5574
    -0.4959  -0.4827  -0.4296  -0.4122  -0.3148  -0.2959  -0.2869  -0.2670
    -0.2611  -0.2434  -0.2345  -0.2134  -0.2029  -0.1903  -0.1541  -0.1071
    -0.0869  -0.0735  -0.0677  -0.0429  -0.0275  -0.0103  -0.0051   0.0144
     0.0158   0.0229   0.0297   0.0331   0.0359   0.0483   0.0746   0.0900
     0.1131   0.1280   0.1350   0.1432   0.1698   0.1891   0.1994   0.2138
     0.2463   0.2674   0.3103   0.3175   0.3355   0.3576   0.3611   0.3849
     0.4431   0.5247   0.5692   0.5974   0.6011   0.6430   0.6572   0.6800
     0.6829   0.7029   0.7058   0.7089   0.7885   0.9229   1.0109   1.0332
     1.0414   1.0557   1.0638   1.0796   1.0961   1.1407   1.1937   1.2297
     1.2431   1.2767   1.3188   1.3254   1.3511   1.3799   1.4025   1.4090
     1.4661   1.4894   1.5060   1.5229   1.5318   1.5450   1.5643   1.5733
     1.6038   1.6295   1.6534   1.6785   1.6992   1.7121   1.7202   1.7531
     1.7671   1.7785   1.7841   1.7932   1.8074   1.8344   1.8633   1.8719
     1.8780   1.8808   1.9154   1.9275   1.9366   1.9502   1.9618   1.9779
     1.9851   2.0227   2.0249   2.0298   2.0504   2.0550   2.0644   2.0822
     2.0900   2.1157   2.1224   2.1389   2.2077   2.2207   2.2309   2.2475
     2.3054   2.3173

          k = 0.0000 0.4619 0.0000 ( 51204 PWs)   bands (ev):

   -21.4079 -10.0834  -7.0472  -6.6166  -6.2565  -5.9012  -5.4564  -5.1442
    -4.9855  -4.9354  -4.8256  -3.9077  -3.8662  -3.7610  -3.2962  -3.2180
    -3.2095  -3.0962  -2.9591  -2.9058  -2.7763  -2.7607  -2.6167  -2.6118
    -2.5571  -2.5351  -2.4906  -2.4704  -2.3810  -2.3655  -2.3204  -2.2984
    -2.2837  -2.0876  -2.0760  -2.0040  -1.9940  -1.8914  -1.8766  -1.8706
    -1.8570  -1.8483  -1.6734  -1.5674  -1.5583  -1.5261  -1.5155  -1.4666
    -1.3544  -1.3416  -1.3225  -1.3107  -1.2964  -1.2839  -1.2732  -1.2591
    -1.2098  -1.1598  -1.1575  -1.1459  -1.1206  -1.0768  -0.9787  -0.9467
    -0.8329  -0.8045  -0.7355  -0.6897  -0.6686  -0.6371  -0.6165  -0.5983
    -0.5897  -0.5620  -0.5309  -0.4979  -0.4817  -0.4429  -0.4195  -0.3957
    -0.3713  -0.3366  -0.3223  -0.3129  -0.3017  -0.2407  -0.2053  -0.1646
    -0.1296  -0.1088  -0.0873  -0.0520  -0.0406  -0.0140   0.0053   0.0310
     0.0514   0.0680   0.0749   0.0853   0.0923   0.1055   0.1301   0.1437
     0.1532   0.1800   0.1894   0.1925   0.2038   0.2141   0.2242   0.2474
     0.2605   0.2763   0.3230   0.3668   0.4052   0.4111   0.4410   0.4581
     0.4602   0.4843   0.4910   0.5098   0.5661   0.5692   0.5729   0.6102
     0.6270   0.6443   0.6746   0.6775   0.7040   0.7134   0.8012   0.8609
     0.8992   0.9282   0.9916   1.0442   1.0984   1.1212   1.1367   1.1423
     1.1599   1.1734   1.2048   1.2380   1.2509   1.2953   1.3848   1.4232
     1.4335   1.4406   1.4930   1.5133   1.5400   1.5528   1.5746   1.5945
     1.6243   1.6381   1.6610   1.7110   1.7431   1.7610   1.7728   1.7942
     1.7984   1.8033   1.8205   1.8390   1.8668   1.8767   1.8868   1.9102
     1.9251   1.9671   2.0082   2.0187   2.0307   2.0586   2.0653   2.0761
     2.0841   2.0910   2.1187   2.1249   2.1346   2.1476   2.1549   2.1581
     2.1760   2.2042   2.3093   2.3674   2.3865   2.4756   2.5692   2.8189
     2.9011   2.9393

          k = 0.2000-0.1155 0.0000 ( 51134 PWs)   bands (ev):

   -21.4079 -10.0818  -7.4716  -6.6500  -6.1304  -5.6073  -5.3133  -5.0980
    -4.7722  -4.7593  -4.2425  -4.0985  -3.8391  -3.8321  -3.7561  -3.7175
    -3.5391  -3.2961  -3.1736  -3.1513  -3.0488  -2.7727  -2.5869  -2.5586
    -2.4942  -2.4667  -2.4393  -2.2183  -2.1354  -2.1330  -2.1198  -2.0875
    -2.0809  -2.0487  -2.0349  -2.0010  -1.9959  -1.8804  -1.8481  -1.7728
    -1.7666  -1.7281  -1.6423  -1.6083  -1.5775  -1.5678  -1.5147  -1.4500
    -1.4305  -1.4057  -1.3602  -1.3405  -1.3169  -1.2915  -1.2760  -1.2676
    -1.2547  -1.2227  -1.1760  -1.1572  -1.1290  -1.0963  -1.0838  -1.0591
    -0.9889  -0.9288  -0.7234  -0.6615  -0.6467  -0.6262  -0.5923  -0.5509
    -0.5027  -0.4806  -0.4354  -0.4184  -0.3195  -0.2968  -0.2861  -0.2700
    -0.2589  -0.2446  -0.2344  -0.2137  -0.2075  -0.1856  -0.1561  -0.1054
    -0.0778  -0.0744  -0.0611  -0.0427  -0.0373  -0.0162  -0.0050   0.0103
     0.0195   0.0251   0.0310   0.0343   0.0366   0.0403   0.0788   0.0886
     0.1153   0.1302   0.1393   0.1416   0.1732   0.1873   0.2017   0.2087
     0.2401   0.2562   0.2841   0.3106   0.3446   0.3550   0.3603   0.3846
     0.4595   0.5405   0.5885   0.5976   0.6102   0.6395   0.6564   0.6791
     0.6932   0.7040   0.7049   0.7092   0.7652   0.9166   1.0156   1.0370
     1.0437   1.0523   1.0684   1.0791   1.1025   1.1474   1.1997   1.2301
     1.2512   1.2683   1.3185   1.3271   1.3564   1.3783   1.4048   1.4266
     1.4657   1.4727   1.5087   1.5227   1.5319   1.5459   1.5657   1.5739
     1.5999   1.6190   1.6666   1.6752   1.6986   1.7092   1.7210   1.7273
     1.7746   1.7764   1.7854   1.7881   1.8082   1.8419   1.8640   1.8721
     1.8759   1.8836   1.9126   1.9267   1.9356   1.9483   1.9661   1.9748
     1.9864   2.0230   2.0261   2.0307   2.0512   2.0573   2.0629   2.0876
     2.1036   2.1141   2.1185   2.1409   2.1957   2.2215   2.2285   2.2624
     2.2970   2.3150

          k = 0.2000 0.1155 0.0000 ( 51134 PWs)   bands (ev):

   -21.4080 -10.0828  -7.4703  -6.6498  -6.1220  -5.5829  -5.3356  -5.1271
    -4.7534  -4.7457  -4.2520  -4.1469  -3.8373  -3.8319  -3.7322  -3.6867
    -3.5474  -3.2971  -3.1648  -3.1430  -3.0672  -2.7993  -2.5701  -2.5457
    -2.5058  -2.4602  -2.4367  -2.2207  -2.1345  -2.1241  -2.1203  -2.0866
    -2.0822  -2.0482  -2.0354  -2.0001  -1.9962  -1.8747  -1.8471  -1.7796
    -1.7665  -1.7347  -1.6801  -1.6119  -1.5882  -1.5684  -1.4873  -1.4516
    -1.4312  -1.4073  -1.3544  -1.3405  -1.3116  -1.2916  -1.2745  -1.2699
    -1.2580  -1.2060  -1.1865  -1.1598  -1.1319  -1.0935  -1.0820  -1.0576
    -0.9797  -0.9211  -0.7329  -0.6612  -0.6483  -0.6235  -0.5928  -0.5594
    -0.5080  -0.4811  -0.4271  -0.4100  -0.3248  -0.2918  -0.2834  -0.2798
    -0.2446  -0.2356  -0.2313  -0.2179  -0.2115  -0.1823  -0.1649  -0.1067
    -0.0867  -0.0742  -0.0632  -0.0505  -0.0431  -0.0055  -0.0024   0.0084
     0.0195   0.0207   0.0295   0.0342   0.0384   0.0514   0.0793   0.0901
     0.1154   0.1281   0.1409   0.1432   0.1553   0.1920   0.2056   0.2149
     0.2458   0.2609   0.3075   0.3156   0.3433   0.3529   0.3589   0.3842
     0.4638   0.5337   0.5678   0.5973   0.6053   0.6523   0.6552   0.6811
     0.6937   0.6986   0.7052   0.7075   0.7593   0.9208   1.0152   1.0246
     1.0420   1.0623   1.0732   1.0798   1.1015   1.1613   1.2041   1.2260
     1.2412   1.2624   1.3210   1.3264   1.3533   1.3762   1.3896   1.4079
     1.4703   1.4865   1.5132   1.5270   1.5331   1.5460   1.5623   1.5755
     1.5972   1.6279   1.6612   1.6713   1.6907   1.7124   1.7227   1.7476
     1.7703   1.7795   1.7837   1.7930   1.8039   1.8390   1.8640   1.8722
     1.8764   1.8821   1.9108   1.9276   1.9379   1.9506   1.9612   1.9777
     1.9837   2.0229   2.0248   2.0328   2.0513   2.0551   2.0626   2.0841
     2.0915   2.1171   2.1201   2.1389   2.2065   2.2202   2.2317   2.2459
     2.3044   2.3203

          k = 0.2000 0.3464 0.0000 ( 51202 PWs)   bands (ev):

   -21.4079 -10.0837  -7.1812  -6.6143  -5.9729  -5.7531  -5.7459  -5.4217
    -5.1176  -4.4869  -4.4273  -4.0338  -4.0208  -3.9207  -3.1953  -3.1889
    -3.1814  -3.1731  -3.0735  -2.9770  -2.8946  -2.8871  -2.8746  -2.5148
    -2.4407  -2.4291  -2.4232  -2.3441  -2.3343  -2.3126  -2.2324  -2.2207
    -2.2151  -2.2073  -2.1949  -2.0718  -2.0126  -1.8621  -1.8375  -1.8307
    -1.7746  -1.7614  -1.7078  -1.6914  -1.6217  -1.5199  -1.4918  -1.4410
    -1.3741  -1.3533  -1.3136  -1.3088  -1.3075  -1.2847  -1.2616  -1.2483
    -1.2366  -1.2027  -1.1617  -1.1261  -1.0980  -0.9984  -0.9613  -0.9322
    -0.8652  -0.8348  -0.7282  -0.7201  -0.6378  -0.6123  -0.5846  -0.5590
    -0.5488  -0.5218  -0.5081  -0.5041  -0.4510  -0.4266  -0.3970  -0.3846
    -0.3713  -0.3563  -0.3384  -0.3252  -0.2823  -0.2227  -0.1745  -0.1652
    -0.1425  -0.1254  -0.0831  -0.0659  -0.0446  -0.0385  -0.0246  -0.0150
     0.0053   0.0233   0.0347   0.0483   0.0594   0.0699   0.1064   0.1207
     0.1332   0.1433   0.1620   0.1719   0.1856   0.1901   0.2120   0.2157
     0.2593   0.2985   0.3138   0.3351   0.3815   0.4459   0.4600   0.4676
     0.4981   0.5074   0.5428   0.5944   0.6129   0.6217   0.6278   0.6362
     0.6518   0.6631   0.6915   0.7258   0.7804   0.7950   0.9095   0.9444
     0.9861   1.0445   1.0533   1.0753   1.1031   1.1181   1.1320   1.1461
     1.1621   1.1779   1.1868   1.2050   1.2281   1.2661   1.3206   1.3570
     1.3835   1.3984   1.4189   1.4383   1.4627   1.4750   1.5150   1.5315
     1.5841   1.6342   1.7024   1.7481   1.7511   1.7688   1.7907   1.8090
     1.8204   1.8276   1.8453   1.8576   1.8654   1.9042   1.9241   1.9278
     1.9378   1.9763   1.9838   1.9899   2.0048   2.0274   2.0307   2.0587
     2.0648   2.0710   2.0771   2.1071   2.1097   2.1295   2.1489   2.1777
     2.2058   2.2101   2.3173   2.3350   2.4228   2.4549   2.4870   2.6589
     2.7080   2.7977

          k = 0.2000-0.5774 0.0000 ( 51262 PWs)   bands (ev):

   -21.4079 -10.0833  -6.7846  -6.5572  -6.4220  -5.9263  -5.7537  -5.3158
    -5.0981  -4.9583  -4.5195  -4.0809  -3.5614  -3.4441  -3.2208  -3.2157
    -3.1855  -2.9918  -2.9599  -2.8203  -2.7991  -2.7930  -2.6730  -2.6616
    -2.6552  -2.6393  -2.6223  -2.6022  -2.4120  -2.2887  -2.2561  -2.2463
    -2.2382  -2.2202  -2.1911  -2.1800  -2.0761  -2.0568  -1.8461  -1.7515
    -1.7245  -1.7174  -1.7084  -1.6420  -1.6002  -1.5093  -1.4741  -1.4522
    -1.4270  -1.4165  -1.3832  -1.2931  -1.2532  -1.2420  -1.2349  -1.2088
    -1.1825  -1.1181  -1.0884  -1.0596  -1.0283  -1.0085  -0.9795  -0.8916
    -0.8725  -0.7987  -0.7118  -0.6998  -0.6777  -0.6355  -0.6162  -0.6094
    -0.5683  -0.5377  -0.5137  -0.4914  -0.4676  -0.4387  -0.4070  -0.3966
    -0.3729  -0.3582  -0.3434  -0.3296  -0.3274  -0.3157  -0.2818  -0.2698
    -0.2568  -0.2403  -0.2005  -0.1715  -0.1485  -0.1034  -0.0730  -0.0499
    -0.0098   0.0256   0.0428   0.0654   0.0843   0.0987   0.1038   0.1273
[...]
     atom    8 type  1   force =    -0.00061365   -0.00424008   -0.09916489
     atom    9 type  1   force =     0.00151892    0.00257753   -0.10240955
     atom   10 type  1   force =     0.00013823    0.00113421   -0.01716555
     atom   11 type  1   force =     0.00075544    0.00098671   -0.00861334
     atom   12 type  1   force =     0.00004269    0.00129743   -0.01141675
     atom   13 type  1   force =    -0.00034613   -0.00027881   -0.01032133
     atom   14 type  1   force =     0.00053241    0.00086170   -0.01253065
     atom   15 type  1   force =    -0.00068405    0.00075547   -0.01013076
     atom   16 type  1   force =     0.00139290   -0.00115853   -0.01157428
     atom   17 type  1   force =    -0.00054938   -0.00261981   -0.00970788
     atom   18 type  1   force =    -0.00041270   -0.00075975   -0.01340718
     atom   19 type  1   force =    -0.00036752    0.00182471    0.01319539
     atom   20 type  1   force =    -0.00685513    0.00347477   -0.00063549
     atom   21 type  1   force =     0.00502187   -0.00681457    0.01143976
     atom   22 type  1   force =    -0.00001906   -0.00037098    0.01779113
     atom   23 type  1   force =    -0.00042594    0.00785018    0.01035131
     atom   24 type  1   force =     0.00033264    0.00166189    0.01787459
     atom   25 type  1   force =    -0.00031262    0.00061854    0.01856949
     atom   26 type  1   force =    -0.00718750   -0.00674074    0.00491888
     atom   27 type  1   force =     0.00919080   -0.00372489    0.00228029
     atom   28 type  1   force =     0.02253116    0.00282309    0.13074480
     atom   29 type  1   force =     0.01923599    0.05804457    0.11679759
     atom   30 type  1   force =    -0.02710053    0.00668397    0.13482043
     atom   31 type  1   force =     0.04250356   -0.05042066    0.17519498
     atom   32 type  1   force =    -0.00050446    0.00089230    0.02759459
     atom   33 type  1   force =    -0.00000828    0.00107654    0.10559215
     atom   34 type  1   force =    -0.00108885   -0.00284756    0.10838658
     atom   35 type  1   force =     0.00094706    0.00456604    0.11805508
     atom   36 type  1   force =    -0.00414260    0.00386615    0.10714294
     atom   37 type  2   force =    -0.25365155   -0.30310672    0.20851469
     atom   38 type  3   force =     1.37760920    1.67150270   -1.18269941
     atom   39 type  4   force =    -0.03413857   -0.04253909   -0.05470902
     The ionic contribution  to forces
     atom    1 type  1   force =    -0.00650649    0.00134028 -111.18039612
     atom    2 type  1   force =    -0.00301663    0.00261609 -111.19948998
     atom    3 type  1   force =     0.00952305    0.00092085 -111.18638823
     atom    4 type  1   force =    -0.00365722    0.00505473 -111.17948325
     atom    5 type  1   force =     0.00181720    0.00745187 -111.18319013
     atom    6 type  1   force =     0.00184006   -0.00140384 -111.17591630
     atom    7 type  1   force =     0.00112452   -0.00117623 -111.17534624
     atom    8 type  1   force =    -0.00584120   -0.00600307 -111.18470484
     atom    9 type  1   force =     0.00471671   -0.00880068 -111.18697744
     atom   10 type  1   force =    -0.04260904   -0.01646552  -40.12151290
     atom   11 type  1   force =    -0.01459217   -0.05449224  -40.23682875
     atom   12 type  1   force =     0.05719397   -0.03269694  -40.14929441
     atom   13 type  1   force =    -0.06077098    0.04035890  -40.18382783
     atom   14 type  1   force =     0.04003861    0.04536894  -40.22718955
     atom   15 type  1   force =     0.02074507    0.01252588  -40.10617902
     atom   16 type  1   force =    -0.00665682    0.03963493  -40.11249135
     atom   17 type  1   force =     0.00270161   -0.00712201  -40.11906044
     atom   18 type  1   force =     0.00395303   -0.02711139  -40.10674009
     atom   19 type  1   force =    -0.31326733    0.06533542   31.48595817
     atom   20 type  1   force =    -0.17482153    0.14676583   30.46294629
     atom   21 type  1   force =     0.48535300    0.04013869   31.19249283
     atom   22 type  1   force =    -0.17386881    0.24024968   31.52947690
     atom   23 type  1   force =     0.09361299    0.37131135   31.35046789
     atom   24 type  1   force =     0.08097402   -0.06308273   31.67339625
     atom   25 type  1   force =     0.04674796   -0.05132933   31.69909184
     atom   26 type  1   force =    -0.29001441   -0.30472597   31.27078371
     atom   27 type  1   force =     0.24364999   -0.44412021   31.16747676
     atom   28 type  1   force =    -1.65863507   -0.56018441  103.78201703
     atom   29 type  1   force =    -0.79580129   -3.80570998   97.59260741
     atom   30 type  1   force =     2.36652984   -1.35625501  103.12963844
     atom   31 type  1   force =    -3.05585949    2.07831907  101.74202004
     atom   32 type  1   force =     2.84015765    3.19269402   98.03206731
     atom   33 type  1   force =     0.73383787    0.35089316  104.26617680
     atom   34 type  1   force =    -0.27442710    1.36998782  104.10880820
     atom   35 type  1   force =     0.04539660   -0.28123660  103.98763084
     atom   36 type  1   force =     0.21848192   -0.92232709  104.23863221
     atom   37 type  2   force =     3.71507623    4.78607017   55.96719819
     atom   38 type  3   force =    -5.35080982   -6.38568653   88.23387071
     atom   39 type  4   force =     1.21768351    1.53289208   15.10225905
     The local contribution  to forces
     atom    1 type  1   force =     0.00794340   -0.00413179  111.28717469
     atom    2 type  1   force =     0.00357936   -0.00378384  111.30363805
     atom    3 type  1   force =    -0.01137235    0.00112389  111.29342322
     atom    4 type  1   force =     0.00128639   -0.00326520  111.28641008
     atom    5 type  1   force =    -0.00164122   -0.01149731  111.29143202
     atom    6 type  1   force =     0.00010221    0.00256274  111.28193634
     atom    7 type  1   force =    -0.00073367    0.00174081  111.28313027
     atom    8 type  1   force =     0.00683459    0.01018122  111.28672755
     atom    9 type  1   force =    -0.00661468    0.00642381  111.29141114
     atom   10 type  1   force =     0.04299193    0.01533407   40.11599959
     atom   11 type  1   force =     0.01311680    0.05281058   40.22452317
     atom   12 type  1   force =    -0.05656631    0.03141404   40.14036409
     atom   13 type  1   force =     0.06050406   -0.04109855   40.17333448
     atom   14 type  1   force =    -0.04019606   -0.04524325   40.21766918
     atom   15 type  1   force =    -0.01962392   -0.01388682   40.09552151
     atom   16 type  1   force =     0.00563472   -0.03817939   40.10261090
     atom   17 type  1   force =    -0.00202601    0.00994974   40.10763268
     atom   18 type  1   force =    -0.00313722    0.02820749   40.09826850
     atom   19 type  1   force =     0.31328351   -0.06665475  -31.47630734
     atom   20 type  1   force =     0.18298739   -0.15120708  -30.44181074
     atom   21 type  1   force =    -0.49005667   -0.03343494  -31.18558867
     atom   22 type  1   force =     0.17393298   -0.23898839  -31.52348532
     atom   23 type  1   force =    -0.09260066   -0.37779945  -31.34480460
     atom   24 type  1   force =    -0.08153692    0.06194298  -31.66864508
     atom   25 type  1   force =    -0.04679640    0.05065601  -31.69189366
     atom   26 type  1   force =     0.30060694    0.31210543  -31.25263894
     atom   27 type  1   force =    -0.25439736    0.44853716  -31.14915086
     atom   28 type  1   force =     1.62825407    0.55477231 -103.92289268
     atom   29 type  1   force =     0.76678734    3.72580332  -97.71640277
     atom   30 type  1   force =    -2.32933602    1.34690989 -103.27404171
     atom   31 type  1   force =     3.00355442   -2.01819725 -101.92838097
     atom   32 type  1   force =    -2.83703214   -3.19244140  -98.04897350
     atom   33 type  1   force =    -0.73078777   -0.35034213 -104.37928200
     atom   34 type  1   force =     0.27398471   -1.36077819 -104.22436224
     atom   35 type  1   force =    -0.04643284    0.27426597 -104.11709193
     atom   36 type  1   force =    -0.21369181    0.91422055 -104.35500904
     atom   37 type  2   force =    -3.45968255   -4.48179981  -56.16922823
     atom   38 type  3   force =     3.98725152    4.72867382  -87.06686457
     atom   39 type  4   force =    -1.18488070   -1.48904897  -15.03776238
     The core correction contribution to forces
     atom    1 type  1   force =     0.00021363   -0.00015567    0.01031957
     atom    2 type  1   force =    -0.00000119   -0.00011263    0.01019106
     atom    3 type  1   force =    -0.00019292    0.00008400    0.01048586
     atom    4 type  1   force =    -0.00015893   -0.00002440    0.01010373
     atom    5 type  1   force =     0.00010507   -0.00021736    0.01043342
     atom    6 type  1   force =    -0.00001632   -0.00010617    0.01001841
     atom    7 type  1   force =    -0.00005086   -0.00006313    0.00999506
     atom    8 type  1   force =     0.00015046    0.00038163    0.01051649
     atom    9 type  1   force =    -0.00031471   -0.00002699    0.01020232
     atom   10 type  1   force =     0.00008442    0.00011990   -0.00190680
     atom   11 type  1   force =    -0.00019476    0.00004379   -0.00148674
     atom   12 type  1   force =     0.00018311    0.00004643   -0.00186945
     atom   13 type  1   force =     0.00003812   -0.00007458   -0.00174730
     atom   14 type  1   force =     0.00004080    0.00003526   -0.00187927
     atom   15 type  1   force =    -0.00007414   -0.00006355   -0.00162328
     atom   16 type  1   force =    -0.00003012   -0.00001884   -0.00176859
     atom   17 type  1   force =     0.00010677    0.00001161   -0.00162621
     atom   18 type  1   force =    -0.00004691   -0.00009943   -0.00191190
     atom   19 type  1   force =    -0.00020866   -0.00029716    0.00152272
     atom   20 type  1   force =    -0.00016308   -0.00020037    0.00112788
     atom   21 type  1   force =     0.00075853   -0.00092845    0.00038798
     atom   22 type  1   force =    -0.00029509   -0.00001120    0.00195715
     atom   23 type  1   force =    -0.00014548    0.00148366    0.00020662
     atom   24 type  1   force =     0.00002128    0.00016941    0.00174410
     atom   25 type  1   force =     0.00017055    0.00024520    0.00215065
     atom   26 type  1   force =    -0.00012844    0.00001128    0.00145921
     atom   27 type  1   force =     0.00021003   -0.00019334    0.00065390
     atom   28 type  1   force =     0.00063777    0.00031521   -0.00910211
     atom   29 type  1   force =     0.00257523    0.01018782    0.00446561
     atom   30 type  1   force =    -0.00256650    0.00378962   -0.00773625
     atom   31 type  1   force =     0.00659036   -0.00176811   -0.00503517
     atom   32 type  1   force =    -0.00303193   -0.00287436   -0.00464718
     atom   33 type  1   force =    -0.00251321   -0.00064730   -0.00962175
     atom   34 type  1   force =     0.00078876   -0.00328810   -0.00900424
     atom   35 type  1   force =    -0.00040672   -0.00079477   -0.00960644
     atom   36 type  1   force =    -0.00005777    0.00000637   -0.01056960
     atom   37 type  2   force =     0.00220441    0.00336959   -0.00312735
     atom   38 type  3   force =    -0.01121275   -0.01352428    0.01057953
     atom   39 type  4   force =     0.00000000    0.00000000    0.00000000
     The Hubbard contrib.    to forces
     atom    1 type  1   force =     0.00000000    0.00000000    0.00000000
     atom    2 type  1   force =     0.00000000    0.00000000    0.00000000
     atom    3 type  1   force =     0.00000000    0.00000000    0.00000000
     atom    4 type  1   force =     0.00000000    0.00000000    0.00000000
     atom    5 type  1   force =     0.00000000    0.00000000    0.00000000
     atom    6 type  1   force =     0.00000000    0.00000000    0.00000000
     atom    7 type  1   force =     0.00000000    0.00000000    0.00000000
     atom    8 type  1   force =     0.00000000    0.00000000    0.00000000
     atom    9 type  1   force =     0.00000000    0.00000000    0.00000000
     atom   10 type  1   force =     0.00000000    0.00000000    0.00000000
     atom   11 type  1   force =     0.00000000    0.00000000    0.00000000
     atom   12 type  1   force =     0.00000000    0.00000000    0.00000000
     atom   13 type  1   force =     0.00000000    0.00000000    0.00000000
     atom   14 type  1   force =     0.00000000    0.00000000    0.00000000
     atom   15 type  1   force =     0.00000000    0.00000000    0.00000000
     atom   16 type  1   force =     0.00000000    0.00000000    0.00000000
     atom   17 type  1   force =     0.00000000    0.00000000    0.00000000
     atom   18 type  1   force =     0.00000000    0.00000000    0.00000000
     atom   19 type  1   force =     0.00000000    0.00000000    0.00000000
     atom   20 type  1   force =     0.00000000    0.00000000    0.00000000
     atom   21 type  1   force =     0.00000000    0.00000000    0.00000000
     atom   22 type  1   force =     0.00000000    0.00000000    0.00000000
     atom   23 type  1   force =     0.00000000    0.00000000    0.00000000
     atom   24 type  1   force =     0.00000000    0.00000000    0.00000000
     atom   25 type  1   force =     0.00000000    0.00000000    0.00000000
     atom   26 type  1   force =     0.00000000    0.00000000    0.00000000
     atom   27 type  1   force =     0.00000000    0.00000000    0.00000000
     atom   28 type  1   force =     0.00000000    0.00000000    0.00000000
     atom   29 type  1   force =     0.00000000    0.00000000    0.00000000
     atom   30 type  1   force =     0.00000000    0.00000000    0.00000000
     atom   31 type  1   force =     0.00000000    0.00000000    0.00000000
     atom   32 type  1   force =     0.00000000    0.00000000    0.00000000
     atom   33 type  1   force =     0.00000000    0.00000000    0.00000000
     atom   34 type  1   force =     0.00000000    0.00000000    0.00000000
     atom   35 type  1   force =     0.00000000    0.00000000    0.00000000
     atom   36 type  1   force =     0.00000000    0.00000000    0.00000000
     atom   37 type  2   force =     0.00000000    0.00000000    0.00000000
     atom   38 type  3   force =     0.00000000    0.00000000    0.00000000
     atom   39 type  4   force =     0.00000000    0.00000000    0.00000000
     The SCF correction term to forces
     atom    1 type  1   force =     0.00000000    0.00000000    0.00000000
     atom    2 type  1   force =     0.00000000    0.00000000    0.00000000
     atom    3 type  1   force =    -0.00000000   -0.00000000    0.00000000
     atom    4 type  1   force =     0.00000000    0.00000000    0.00000000
     atom    5 type  1   force =    -0.00000000   -0.00000000    0.00000000
     atom    6 type  1   force =     0.00000000    0.00000000    0.00000000
     atom    7 type  1   force =    -0.00000000   -0.00000000    0.00000000
     atom    8 type  1   force =     0.00000000   -0.00000000    0.00000000
     atom    9 type  1   force =     0.00000000   -0.00000000    0.00000000
     atom   10 type  1   force =    -0.00000000   -0.00000000    0.00000000
     atom   11 type  1   force =     0.00000000    0.00000000    0.00000000
     atom   12 type  1   force =    -0.00000000    0.00000000    0.00000000
     atom   13 type  1   force =     0.00000000   -0.00000000    0.00000000
     atom   14 type  1   force =     0.00000000   -0.00000000    0.00000000
     atom   15 type  1   force =    -0.00000000   -0.00000000    0.00000000
     atom   16 type  1   force =     0.00000000    0.00000000    0.00000000
     atom   17 type  1   force =    -0.00000000    0.00000000    0.00000000
     atom   18 type  1   force =    -0.00000000    0.00000000    0.00000000
     atom   19 type  1   force =    -0.00000000   -0.00000000    0.00000000
     atom   20 type  1   force =    -0.00000000   -0.00000000    0.00000000
     atom   21 type  1   force =     0.00000000    0.00000000    0.00000000
     atom   22 type  1   force =    -0.00000000    0.00000000    0.00000000
     atom   23 type  1   force =     0.00000000   -0.00000000    0.00000000
     atom   24 type  1   force =     0.00000000   -0.00000000    0.00000000
     atom   25 type  1   force =     0.00000000    0.00000000    0.00000000
     atom   26 type  1   force =    -0.00000000    0.00000000    0.00000000
     atom   27 type  1   force =    -0.00000000   -0.00000000    0.00000000
     atom   28 type  1   force =     0.00000000    0.00000000    0.00000000
     atom   29 type  1   force =    -0.00000000   -0.00000000    0.00000000
     atom   30 type  1   force =    -0.00000000   -0.00000000    0.00000000
     atom   31 type  1   force =    -0.00000000   -0.00000000    0.00000000
     atom   32 type  1   force =     0.00000000   -0.00000000   -0.00000000
     atom   33 type  1   force =     0.00000000    0.00000000    0.00000000
     atom   34 type  1   force =    -0.00000000    0.00000000    0.00000000
     atom   35 type  1   force =     0.00000000    0.00000000    0.00000000
     atom   36 type  1   force =    -0.00000000   -0.00000000    0.00000000
     atom   37 type  2   force =    -0.00000252   -0.00000201   -0.00001235
     atom   38 type  3   force =    -0.00000323   -0.00000295   -0.00002630
     atom   39 type  4   force =    -0.00000011   -0.00000009   -0.00000334

     Total force =     0.013485     Total SCF correction =     0.000030

     Writing all to output data dir ./pwscf.save/

     init_run     :     16.07s CPU     16.55s WALL (       1 calls)
     electrons    :    929.18s CPU    950.16s WALL (       1 calls)
     forces       :      4.36s CPU      4.47s WALL (       1 calls)

     Called by init_run:
     wfcinit      :      8.86s CPU      9.21s WALL (       1 calls)
     potinit      :      1.96s CPU      2.04s WALL (       1 calls)
     hinit0       :      4.99s CPU      5.03s WALL (       1 calls)

     Called by electrons:
     c_bands      :    774.02s CPU    790.69s WALL (      52 calls)
     sum_band     :    111.75s CPU    115.02s WALL (      52 calls)
     v_of_rho     :      8.89s CPU      9.28s WALL (      53 calls)
     newd         :      2.97s CPU      3.02s WALL (      53 calls)
     PAW_pot      :     13.37s CPU     13.54s WALL (      53 calls)
     mix_rho      :     19.41s CPU     19.72s WALL (      52 calls)
     vdW_kernel   :      1.09s CPU      1.10s WALL (       1 calls)

     Called by c_bands:
     init_us_2    :      9.50s CPU      9.65s WALL (    2756 calls)
     init_us_2:cp :      9.48s CPU      9.65s WALL (    2756 calls)
     cegterg      :    748.49s CPU    764.43s WALL (    1352 calls)

     Called by *egterg:
     cdiaghg      :    207.06s CPU    211.34s WALL (    4836 calls)
     h_psi        :    355.75s CPU    363.05s WALL (    4862 calls)
     s_psi        :     38.15s CPU     39.00s WALL (    4862 calls)
     g_psi        :      0.97s CPU      1.38s WALL (    3484 calls)

     Called by h_psi:
     h_psi:calbec :     57.39s CPU     58.50s WALL (    4862 calls)
     vloc_psi     :    256.95s CPU    261.99s WALL (    4862 calls)
     add_vuspsi   :     39.01s CPU     40.13s WALL (    4862 calls)

     General routines
     calbec       :     87.13s CPU     88.95s WALL (    6318 calls)
     fft          :     12.49s CPU     12.95s WALL (    4794 calls)
     ffts         :     11.51s CPU     11.74s WALL (   22185 calls)
     fftw         :    305.71s CPU    312.34s WALL ( 1402444 calls)
     interpolate  :      0.40s CPU      0.43s WALL (     106 calls)

     Parallel routines

     PWSCF        :  15m55.76s CPU  16m22.30s WALL


   This run was terminated on:   9:40:21  14Dec2025            

=------------------------------------------------------------------------------=
   JOB DONE.
=------------------------------------------------------------------------------=
