
     Program PWSCF v.7.1 starts on  7Nov2025 at 21:18:56 
        Git branch: heads/qe-7.1
        Last git commit: 48ba0178f8fede6d020eb786884699a9f063f55d-dirty
        Last git commit date: Fri Jan 27 14:22:33 2023 +0000
        Last git commit subject: Merge branch 'fix_hubbard' into 'develop'

     This program is part of the open-source Quantum ESPRESSO suite
     for quantum simulation of materials; please cite
         "P. Giannozzi et al., J. Phys.:Condens. Matter 21 395502 (2009);
         "P. Giannozzi et al., J. Phys.:Condens. Matter 29 465901 (2017);
         "P. Giannozzi et al., J. Chem. Phys. 152 154105 (2020);
          URL http://www.quantum-espresso.org", 
     in publications or presentations arising from this work. More details at
     http://www.quantum-espresso.org/quote

     Parallel version (MPI), running on    48 processors

     MPI processes distributed on     1 nodes
     116844 MiB available memory on the printing compute node when the environment starts

     Reading input from espresso.pwi
Warning: card &CELL ignored
Warning: card / ignored
Warning: card &FCP ignored
Warning: card / ignored
Warning: card &RISM ignored
Warning: card / ignored

     Current dimensions of program PWSCF are:
     Max number of different atomic species (ntypx) = 10
     Max number of k-points (npk) =  40000
     Max angular momentum in pseudopotentials (lmaxx) =  4
     file Pt.pbe-n-kjpaw_psl.1.0.0.UPF: wavefunction(s)  6S 5D renormalized
     file O.pbe-nl-kjpaw_psl.1.0.0.UPF: wavefunction(s)  2S 2P renormalized
     file H.pbe-kjpaw_psl.1.0.0.UPF: wavefunction(s)  1S renormalized

     **************************************************************************
     Initializing libbeef V0.1.2 with the BEEF-vdW functional.
     Citation: Wellendorff et al., PRB 85, 235149 (2012).
     **************************************************************************


     IMPORTANT: XC functional enforced from input :
     Exchange-correlation= BEEF-VDW
                           (   1   4  43  14   2   0   0)
     Any further DFT definition will be discarded
     Please, verify this is what you really want


     R & G space division:  proc/nbgrp/npool/nimage =      48
     Subspace diagonalization in iterative solution of the eigenvalue problem:
     one sub-group per band group will be used
     custom distributed-memory algorithm (size of sub-group:  2*  2 procs)


     Parallelization info
     --------------------
     sticks:   dense  smooth     PW     G-vecs:    dense   smooth      PW
     Min         151      59     16                29407     7165    1028
     Max         152      60     17                29420     7176    1042
     Sum        7267    2839    769              1411785   344073   49691

     Using Slab Decomposition



     bravais-lattice index     =            0
     lattice parameter (alat)  =      16.0349  a.u.
     unit-cell volume          =   10068.6169 (a.u.)^3
     number of atoms/cell      =           39
     number of atomic types    =            3
     number of electrons       =       368.00
     number of Kohn-Sham states=          221
     kinetic-energy cutoff     =      40.0000  Ry
     charge density cutoff     =     410.0000  Ry
     scf convergence threshold =      1.0E-06
     mixing beta               =       0.7000
     number of iterations used =            8  local-TF  mixing
     Exchange-correlation= BEEF-VDW
                           (   1   4  43  14   2   0   0)

     celldm(1)=  16.034858  celldm(2)=   0.000000  celldm(3)=   0.000000
     celldm(4)=   0.000000  celldm(5)=   0.000000  celldm(6)=   0.000000

     crystal axes: (cart. coord. in units of alat)
               a(1) = (   1.000000   0.000000   0.000000 )  
               a(2) = (   0.500000   0.866025   0.000000 )  
               a(3) = (   0.000000   0.000000   2.819966 )  

     reciprocal axes: (cart. coord. in units 2 pi/alat)
               b(1) = (  1.000000 -0.577350  0.000000 )  
               b(2) = (  0.000000  1.154701  0.000000 )  
               b(3) = (  0.000000  0.000000  0.354614 )  


     PseudoPot. # 1 for Pt read from file:
     /users/kbadger1/espresso/pseudo/pslibrary.1.0.0/pbe/PSEUDOPOTENTIALS/Pt.pbe-n-kjpaw_psl.1.0.0.UPF
     MD5 check sum: 2e24a0b5bf98a4ed1a57fa81bca8c143
     Pseudo is Projector augmented-wave + core cor, Zval = 10.0
     Generated using 'atomic' code by A. Dal Corso  v.7.0
     Shape of augmentation charge: PSQ
     Using radial grid of 1277 points,  6 beta functions with: 
                l(1) =   0
                l(2) =   0
                l(3) =   1
                l(4) =   1
                l(5) =   2
                l(6) =   2
     Q(r) pseudized with 0 coefficients 


     PseudoPot. # 2 for O  read from file:
     /users/kbadger1/espresso/pseudo/pslibrary.1.0.0/pbe/PSEUDOPOTENTIALS/O.pbe-nl-kjpaw_psl.1.0.0.UPF
     MD5 check sum: f0439fab3598ca4e468f064226030408
     Pseudo is Projector augmented-wave + core cor, Zval =  6.0
     Generated using 'atomic' code by A. Dal Corso  v.7.0
     Shape of augmentation charge: PSQ
     Using radial grid of 1095 points,  4 beta functions with: 
                l(1) =   0
                l(2) =   0
                l(3) =   1
                l(4) =   1
     Q(r) pseudized with 0 coefficients 


     PseudoPot. # 3 for H  read from file:
     /users/kbadger1/espresso/pseudo/pslibrary.1.0.0/pbe/PSEUDOPOTENTIALS/H.pbe-kjpaw_psl.1.0.0.UPF
     MD5 check sum: fe4c6fa958fa6d3815bf5d2419cbf1df
     Pseudo is Projector augmented-wave, Zval =  1.0
     Generated using 'atomic' code by A. Dal Corso  v.7.0
     Shape of augmentation charge: PSQ
     Using radial grid of  929 points,  2 beta functions with: 
                l(1) =   0
                l(2) =   0
     Q(r) pseudized with 0 coefficients 


     atomic species   valence    mass     pseudopotential
        Pt            10.00   195.08400     Pt( 1.00)
        O              6.00    15.99900     O ( 1.00)
        H              1.00     1.00800     H ( 1.00)

     No symmetry found



   Cartesian axes

     site n.     atom                  positions (alat units)
         1           Pt  tau(   1) = (   0.0000000   0.0000000   1.0017346  )
         2           Pt  tau(   2) = (   0.3333333   0.0000000   1.0017346  )
         3           Pt  tau(   3) = (   0.6666667   0.0000000   1.0017346  )
         4           Pt  tau(   4) = (   0.1666667   0.2886751   1.0017346  )
         5           Pt  tau(   5) = (   0.5000000   0.2886751   1.0017346  )
         6           Pt  tau(   6) = (   0.8333333   0.2886751   1.0017346  )
         7           Pt  tau(   7) = (   0.3333333   0.5773503   1.0017346  )
         8           Pt  tau(   8) = (   0.6666667   0.5773503   1.0017346  )
         9           Pt  tau(   9) = (   1.0000000   0.5773503   1.0017346  )
        10           Pt  tau(  10) = (   0.1666667   0.0962250   1.2739001  )
        11           Pt  tau(  11) = (   0.5000000   0.0962250   1.2739001  )
        12           Pt  tau(  12) = (   0.8333333   0.0962250   1.2739001  )
        13           Pt  tau(  13) = (   0.3333333   0.3849002   1.2739001  )
        14           Pt  tau(  14) = (   0.6666667   0.3849002   1.2739001  )
        15           Pt  tau(  15) = (   1.0000000   0.3849002   1.2739001  )
        16           Pt  tau(  16) = (   0.5000000   0.6735753   1.2739001  )
        17           Pt  tau(  17) = (   0.8333333   0.6735753   1.2739001  )
        18           Pt  tau(  18) = (   1.1666667   0.6735753   1.2739001  )
        19           Pt  tau(  19) = (  -0.0080911   0.1976043   1.5436158  )
        20           Pt  tau(  20) = (   0.3253210   0.1983488   1.5451099  )
        21           Pt  tau(  21) = (   0.6583172   0.1978162   1.5445700  )
        22           Pt  tau(  22) = (   0.1580184   0.4867651   1.5449417  )
        23           Pt  tau(  23) = (   0.4912734   0.4852960   1.5463563  )
        24           Pt  tau(  24) = (   0.8247675   0.4867455   1.5444307  )
        25           Pt  tau(  25) = (   0.3255798   0.7746811   1.5434875  )
        26           Pt  tau(  26) = (   0.6578865   0.7749182   1.5435753  )
        27           Pt  tau(  27) = (   0.9914038   0.7750686   1.5440135  )
        28           Pt  tau(  28) = (  -0.0169462   0.0110184   1.8198723  )
        29           Pt  tau(  29) = (   0.3156868   0.0093370   1.8180813  )
        30           Pt  tau(  30) = (   0.6506572   0.0088467   1.8177111  )
        31           Pt  tau(  31) = (   0.1482042   0.2997574   1.8196521  )
        32           Pt  tau(  32) = (   0.4819116   0.3011620   1.8214945  )
        33           Pt  tau(  33) = (   0.8180050   0.3000333   1.8185680  )
        34           Pt  tau(  34) = (   0.3155704   0.5897397   1.8206339  )
        35           Pt  tau(  35) = (   0.6505442   0.5894307   1.8201383  )
        36           Pt  tau(  36) = (   0.9828742   0.5883329   1.8208852  )
        37           O   tau(  37) = (   0.5066424   0.2578878   2.1158782  )
        38           H   tau(  38) = (   0.5999125   0.3196731   2.1393979  )
        39           H   tau(  39) = (   0.5452479   0.1505406   2.1042129  )

     number of k points=    13  Marzari-Vanderbilt smearing, width (Ry)=  0.0010
                       cart. coord. in units 2pi/alat
        k(    1) = (   0.0000000   0.0000000   0.0000000), wk =   0.0800000
        k(    2) = (   0.0000000   0.2309401   0.0000000), wk =   0.1600000
        k(    3) = (   0.0000000   0.4618802   0.0000000), wk =   0.1600000
        k(    4) = (   0.2000000  -0.1154701   0.0000000), wk =   0.1600000
        k(    5) = (   0.2000000   0.1154701   0.0000000), wk =   0.1600000
        k(    6) = (   0.2000000   0.3464102   0.0000000), wk =   0.1600000
        k(    7) = (   0.2000000  -0.5773503   0.0000000), wk =   0.1600000
        k(    8) = (   0.2000000  -0.3464102   0.0000000), wk =   0.1600000
        k(    9) = (   0.4000000  -0.2309401   0.0000000), wk =   0.1600000
        k(   10) = (   0.4000000  -0.0000000   0.0000000), wk =   0.1600000
        k(   11) = (   0.4000000   0.2309401   0.0000000), wk =   0.1600000
        k(   12) = (   0.4000000  -0.6928203   0.0000000), wk =   0.1600000
        k(   13) = (   0.4000000  -0.4618802   0.0000000), wk =   0.1600000

     Dense  grid:  1411785 G-vectors     FFT dimensions: ( 108, 108, 300)

     Smooth grid:   344073 G-vectors     FFT dimensions: (  72,  72, 192)

     Estimated max dynamical RAM per process >     207.10 MB

     Estimated total dynamical RAM >       9.71 GB

     Initial potential from superposition of free atoms

     starting charge     367.9939, renormalised to     368.0000

     negative rho (up, down):  2.973E-03 0.000E+00


     %%%%%%%%%%%%%%%%%%%%%%%%%%%%%%%%%%%%%%%%%%%%%%%%%%%%%%%%%%%%%%%%%%%%%%%%
     %                                                                      %
     % You are using vdW-DF, which was implemented by the Thonhauser group. %
     % Please cite the following two papers that made this development      %
     % possible and the two reviews that describe the various versions:     %
     %                                                                      %
     %   T. Thonhauser et al., PRL 115, 136402 (2015).                      %
     %   T. Thonhauser et al., PRB 76, 125112 (2007).                       %
     %   K. Berland et al., Rep. Prog. Phys. 78, 066501 (2015).             %
     %   D.C. Langreth et al., J. Phys.: Condens. Matter 21, 084203 (2009). %
     %                                                                      %
     % If you are calculating stress with vdW-DF, please also cite:         %
     %                                                                      %
     %   R. Sabatini et al., J. Phys.: Condens. Matter 24, 424209 (2012).   %
     %                                                                      %
     %%%%%%%%%%%%%%%%%%%%%%%%%%%%%%%%%%%%%%%%%%%%%%%%%%%%%%%%%%%%%%%%%%%%%%%%

     %%%%%%%%%%%%%%%%%%%%%%%%%%%%%%%%%%%%%%%%%%%%%%%%%%%%%%%%%%%%%%%%%%%%%%%%
     %                                                                      %
     %  vdW-DF NEWS:                                                        %
     %                                                                      %
     %  * vdW-DF3 is now available. DOI: 10.1021/acs.jctc.0c00471           %
     %    use with input_dft = 'vdW-DF3-opt1' or 'vdW-DF3-opt2'             %
     %                                                                      %
     %  * Unscreened and range-separated hybrid vdW-DF-cx functionals       %
     %    DOI: 10.1063/1.4986522 and 10.1088/1361-648X/ac2ad2               %
     %    use with input_dft = 'vdW-DF-cx0'    and 'vdW-DF-ahcx'            %
     %  * Unscreened and range-separated hybrid vdW-DF2-b86r functionals    %
     %    DOI: 10.1063/1.4986522 and DOI: 10.1103/PhysRevX.12.041003        %
     %    use with input_dft = 'vdW-DF2-br0' and 'vdW-DF2-ahbr'             %
     %                                                                      %
     %%%%%%%%%%%%%%%%%%%%%%%%%%%%%%%%%%%%%%%%%%%%%%%%%%%%%%%%%%%%%%%%%%%%%%%%


     Starting wfcs are  330 randomized atomic wfcs
     Checking if some PAW data can be deallocated... 

     total cpu time spent up to now is       11.7 secs

     per-process dynamical memory:   212.1 Mb

     Self-consistent Calculation

     iteration #  1     ecut=    40.00 Ry     beta= 0.70
     Davidson diagonalization with overlap
     ethr =  1.00E-02,  avg # of iterations =  2.3

     Threshold (ethr) on eigenvalues was too large:
     Diagonalizing with lowered threshold

     Davidson diagonalization with overlap
     ethr =  4.59E-04,  avg # of iterations =  4.6

     negative rho (up, down):  7.338E-03 0.000E+00

     total cpu time spent up to now is       67.1 secs

     total energy              =  -27798.97512703 Ry
     estimated scf accuracy    <       1.87107089 Ry

     iteration #  2     ecut=    40.00 Ry     beta= 0.70
     Davidson diagonalization with overlap
     ethr =  5.08E-04,  avg # of iterations =  3.0

     negative rho (up, down):  5.288E-03 0.000E+00

     total cpu time spent up to now is       91.2 secs

     total energy              =  -27799.12417889 Ry
     estimated scf accuracy    <       0.68465597 Ry

     iteration #  3     ecut=    40.00 Ry     beta= 0.70
     Davidson diagonalization with overlap
     ethr =  1.86E-04,  avg # of iterations =  3.3

     negative rho (up, down):  1.847E-03 0.000E+00

     total cpu time spent up to now is      116.6 secs

     total energy              =  -27799.17337817 Ry
     estimated scf accuracy    <       0.12741277 Ry

     iteration #  4     ecut=    40.00 Ry     beta= 0.70
     Davidson diagonalization with overlap
     c_bands:  1 eigenvalues not converged
     c_bands:  1 eigenvalues not converged
     ethr =  3.46E-05,  avg # of iterations = 12.4

     negative rho (up, down):  4.103E-04 0.000E+00

     total cpu time spent up to now is      157.6 secs

     total energy              =  -27799.21340610 Ry
     estimated scf accuracy    <       0.08033714 Ry

     iteration #  5     ecut=    40.00 Ry     beta= 0.70
     Davidson diagonalization with overlap
     ethr =  2.18E-05,  avg # of iterations =  2.8

     negative rho (up, down):  1.042E-04 0.000E+00

     total cpu time spent up to now is      182.9 secs

     total energy              =  -27799.21760807 Ry
     estimated scf accuracy    <       0.02545964 Ry

     iteration #  6     ecut=    40.00 Ry     beta= 0.70
     Davidson diagonalization with overlap
     ethr =  6.92E-06,  avg # of iterations =  7.2

     negative rho (up, down):  3.831E-05 0.000E+00

     total cpu time spent up to now is      212.4 secs

     total energy              =  -27799.22098084 Ry
     estimated scf accuracy    <       0.00298498 Ry

     iteration #  7     ecut=    40.00 Ry     beta= 0.70
     Davidson diagonalization with overlap
     c_bands:  3 eigenvalues not converged
     c_bands:  1 eigenvalues not converged
     c_bands:  1 eigenvalues not converged
     c_bands:  1 eigenvalues not converged
     ethr =  8.11E-07,  avg # of iterations = 11.2

     negative rho (up, down):  3.070E-05 0.000E+00

     total cpu time spent up to now is      267.4 secs

     total energy              =  -27799.22267202 Ry
     estimated scf accuracy    <       0.00113601 Ry

     iteration #  8     ecut=    40.00 Ry     beta= 0.70
     Davidson diagonalization with overlap
     ethr =  3.09E-07,  avg # of iterations =  5.8

     negative rho (up, down):  3.079E-05 0.000E+00

     total cpu time spent up to now is      294.7 secs

     total energy              =  -27799.22284591 Ry
     estimated scf accuracy    <       0.00057671 Ry

     iteration #  9     ecut=    40.00 Ry     beta= 0.70
     Davidson diagonalization with overlap
     ethr =  1.57E-07,  avg # of iterations =  3.8

     negative rho (up, down):  3.916E-05 0.000E+00

     total cpu time spent up to now is      311.8 secs

     total energy              =  -27799.22294011 Ry
     estimated scf accuracy    <       0.00033398 Ry

     iteration # 10     ecut=    40.00 Ry     beta= 0.70
     Davidson diagonalization with overlap
     ethr =  9.08E-08,  avg # of iterations =  5.4

     negative rho (up, down):  7.145E-05 0.000E+00

     total cpu time spent up to now is      338.2 secs

     total energy              =  -27799.22302374 Ry
     estimated scf accuracy    <       0.00020167 Ry

     iteration # 11     ecut=    40.00 Ry     beta= 0.70
     Davidson diagonalization with overlap
     ethr =  5.48E-08,  avg # of iterations =  5.2

     negative rho (up, down):  2.374E-04 0.000E+00

     total cpu time spent up to now is      365.2 secs

     total energy              =  -27799.22312231 Ry
     estimated scf accuracy    <       0.00019344 Ry

     iteration # 12     ecut=    40.00 Ry     beta= 0.70
     Davidson diagonalization with overlap
     ethr =  5.26E-08,  avg # of iterations =  3.1

     negative rho (up, down):  9.677E-04 0.000E+00

     total cpu time spent up to now is      389.8 secs

     total energy              =  -27799.22320644 Ry
     estimated scf accuracy    <       0.00014298 Ry

     iteration # 13     ecut=    40.00 Ry     beta= 0.70
     Davidson diagonalization with overlap
     ethr =  3.89E-08,  avg # of iterations =  5.1

     negative rho (up, down):  1.545E-03 0.000E+00

     total cpu time spent up to now is      410.6 secs

     total energy              =  -27799.22322564 Ry
     estimated scf accuracy    <       0.00006336 Ry

     iteration # 14     ecut=    40.00 Ry     beta= 0.70
     Davidson diagonalization with overlap
     ethr =  1.72E-08,  avg # of iterations =  2.0

     negative rho (up, down):  1.966E-03 0.000E+00

     total cpu time spent up to now is      430.7 secs

     total energy              =  -27799.22322827 Ry
     estimated scf accuracy    <       0.00005667 Ry

     iteration # 15     ecut=    40.00 Ry     beta= 0.70
     Davidson diagonalization with overlap
     ethr =  1.54E-08,  avg # of iterations =  1.2

     negative rho (up, down):  2.607E-03 0.000E+00

     total cpu time spent up to now is      453.5 secs

     total energy              =  -27799.22322692 Ry
     estimated scf accuracy    <       0.00001760 Ry

     iteration # 16     ecut=    40.00 Ry     beta= 0.70
     Davidson diagonalization with overlap
     ethr =  4.78E-09,  avg # of iterations =  3.1

     negative rho (up, down):  2.915E-03 0.000E+00

     total cpu time spent up to now is      479.2 secs

     total energy              =  -27799.22322639 Ry
     estimated scf accuracy    <       0.00000694 Ry

     iteration # 17     ecut=    40.00 Ry     beta= 0.70
     Davidson diagonalization with overlap
     ethr =  1.89E-09,  avg # of iterations =  4.0

     negative rho (up, down):  3.042E-03 0.000E+00

     total cpu time spent up to now is      508.4 secs

     total energy              =  -27799.22322685 Ry
     estimated scf accuracy    <       0.00000143 Ry

     iteration # 18     ecut=    40.00 Ry     beta= 0.70
     Davidson diagonalization with overlap
     ethr =  3.88E-10,  avg # of iterations =  4.2

     negative rho (up, down):  2.988E-03 0.000E+00

     total cpu time spent up to now is      541.1 secs

     total energy              =  -27799.22322771 Ry
     estimated scf accuracy    <       0.00000140 Ry

     iteration # 19     ecut=    40.00 Ry     beta= 0.70
     Davidson diagonalization with overlap
     ethr =  3.81E-10,  avg # of iterations =  1.4

     negative rho (up, down):  2.862E-03 0.000E+00

     total cpu time spent up to now is      557.6 secs

     End of self-consistent calculation

          k = 0.0000 0.0000 0.0000 ( 42913 PWs)   bands (ev):

   -18.6981  -6.2997  -6.0435  -4.7709  -3.7028  -3.6529  -3.6507  -3.6320
    -3.6082  -3.6070  -3.6024  -3.5934  -3.1011  -3.0795  -3.0782  -3.0757
    -3.0679  -3.0611  -2.7738  -2.6131  -2.6080  -2.6076  -2.6017  -2.5964
    -2.5864  -2.4012  -2.3890  -2.3839  -2.3828  -2.3812  -2.3687  -2.1780
    -2.1763  -2.1643  -2.1633  -2.1621  -2.1572  -2.1517  -2.1492  -2.1404
    -2.1376  -2.0555  -2.0503  -1.5563  -1.5540  -1.5448  -1.5061  -1.4998
    -1.4698  -1.4664  -1.4652  -1.4617  -1.4613  -1.3265  -1.3120  -1.2862
    -1.2165  -1.0886  -0.7677  -0.7648  -0.7593  -0.7574  -0.7247  -0.7144
    -0.7070  -0.5656  -0.5641  -0.5556  -0.5527  -0.5046  -0.4998  -0.4953
    -0.4911  -0.4864  -0.4840  -0.4653  -0.4575  -0.4348  -0.4312  -0.3969
    -0.3702  -0.3621  -0.3594  -0.3413  -0.2626  -0.2301  -0.1645  -0.1631
    -0.0781  -0.0635  -0.0300  -0.0185  -0.0153  -0.0124   0.0174   0.0258
     0.0757   0.0779   0.0920   0.0948   0.1275   0.1397   0.1417   0.1632
     0.2731   0.2857   0.2910   0.2980   0.3435   0.3891   0.4656   0.8082
     0.8177   0.8225   0.8273   0.8333   0.8343   0.8552   0.8658   0.8699
     0.8741   0.8889   0.8985   0.9344   0.9437   1.0984   1.1087   1.1109
     1.1172   1.1367   1.1499   1.1881   1.2479   1.2562   1.2910   1.2939
     1.3883   1.5412   1.5430   1.5520   1.5546   1.5587   1.5629   1.6158
     1.6497   1.7631   1.7678   1.8053   1.8140   1.8170   1.8305   1.9559
     1.9597   1.9648   1.9684   1.9848   1.9902   1.9969   1.9986   2.0076
     2.0235   2.0448   2.0882   2.1393   2.1429   2.1491   2.1579   2.1643
     2.1746   2.1771   2.1814   2.2281   2.2356   2.2624   2.2657   2.2679
     2.2734   2.2817   2.2842   2.3533   2.3616   2.3710   2.3761   2.3812
     2.3834   2.4367   2.4490   2.4944   2.4983   2.5110   2.5242   2.6059
     2.6731   2.7584   2.7806   2.7863   2.7902   2.7912   2.8182   2.8252
     3.5744   3.6505   3.6572   3.6799   3.7088   3.7113   3.9233   5.9205
     5.9401   5.9639   6.0140   6.0228   6.1663   6.9523   7.5371   7.5520
     7.6090   7.6134   7.6760   7.6831   7.7229

          k = 0.0000 0.2309 0.0000 ( 42996 PWs)   bands (ev):

   -18.6981  -6.2996  -5.8963  -4.6255  -4.1256  -3.7596  -3.7237  -3.5536
    -3.4944  -3.4193  -3.4104  -3.3702  -3.2096  -3.1656  -3.0210  -3.0066
    -3.0000  -2.9867  -2.7626  -2.6979  -2.5828  -2.5671  -2.5572  -2.5441
    -2.5011  -2.4757  -2.4320  -2.4267  -2.4122  -2.3531  -2.3520  -2.3030
    -2.2795  -2.1947  -2.1848  -2.1734  -2.1655  -2.1517  -1.9722  -1.9631
    -1.9504  -1.9225  -1.9118  -1.6923  -1.6684  -1.6471  -1.5971  -1.5566
    -1.5503  -1.5466  -1.4019  -1.3721  -1.3367  -1.2931  -1.2659  -1.2407
    -1.2161  -1.1361  -1.0049  -0.9096  -0.9021  -0.8934  -0.8437  -0.8250
    -0.7894  -0.7074  -0.6960  -0.6868  -0.6830  -0.6655  -0.6249  -0.6017
    -0.5912  -0.5683  -0.4948  -0.4466  -0.4354  -0.3975  -0.3650  -0.3519
    -0.3470  -0.3049  -0.2934  -0.2755  -0.2282  -0.1523  -0.1485  -0.1359
    -0.1063  -0.0965  -0.0926  -0.0780  -0.0636  -0.0399  -0.0230   0.0290
     0.0601   0.0689   0.0930   0.1056   0.1214   0.1246   0.1872   0.2388
     0.2925   0.2958   0.3220   0.3272   0.3317   0.3402   0.3515   0.3861
     0.4056   0.4140   0.4212   0.4600   0.6288   0.7306   0.8010   0.8078
     0.8335   0.8414   0.8731   0.8832   0.8868   1.0252   1.0437   1.0494
     1.1237   1.1518   1.1738   1.2128   1.2955   1.2980   1.3027   1.3162
     1.3209   1.3930   1.3997   1.4242   1.4391   1.4574   1.6149   1.6516
     1.6623   1.6740   1.6858   1.6950   1.7138   1.7863   1.8106   1.8191
     1.8346   1.8535   1.8929   1.9035   1.9141   1.9232   2.0239   2.0395
     2.0531   2.0772   2.1632   2.1896   2.1980   2.2049   2.2162   2.2368
     2.2601   2.3129   2.3302   2.3438   2.3989   2.4117   2.4184   2.4312
     2.4554   2.4687   2.4738   2.4744   2.4976   2.5579   2.5748   2.6765
     2.7007   2.7084   2.7159   2.7205   2.7429   2.7542   2.7663   2.8071
     2.8202   2.9259   2.9308   2.9421   3.0885   3.1005   3.1242   3.1339
     3.2437   3.5268   3.5931   4.2477   4.2859   4.3362   4.4741   5.2993
     5.6690   5.7642   6.4447   6.4543   6.5064   6.5979   6.8517   7.0276
     7.3973   7.4125   7.5592   7.7926   7.8174

          k = 0.0000 0.4619 0.0000 ( 43046 PWs)   bands (ev):

   -18.6981  -6.2997  -5.4719  -4.8333  -4.2174  -3.7808  -3.7653  -3.6593
    -3.3890  -3.2527  -3.1508  -3.1059  -3.0697  -3.0359  -2.9120  -2.8746
    -2.8323  -2.8277  -2.8047  -2.7293  -2.7051  -2.6621  -2.6534  -2.6120
    -2.5902  -2.5722  -2.5386  -2.4817  -2.4785  -2.4643  -2.2231  -2.2187
    -2.2128  -2.2087  -2.1996  -2.1875  -1.9839  -1.9533  -1.9473  -1.9378
    -1.9204  -1.9074  -1.7387  -1.6465  -1.6362  -1.6232  -1.6009  -1.5571
    -1.5485  -1.5201  -1.4848  -1.4662  -1.4148  -1.4020  -1.3003  -1.2678
    -1.2440  -1.2348  -1.1900  -1.1245  -1.0956  -1.0707  -1.0387  -0.9858
    -0.8928  -0.8614  -0.8120  -0.8078  -0.7877  -0.7530  -0.7216  -0.6688
    -0.5829  -0.5711  -0.5568  -0.4793  -0.4740  -0.4651  -0.4416  -0.4276
    -0.4015  -0.3927  -0.3636  -0.3400  -0.3264  -0.3231  -0.2943  -0.2791
    -0.2554  -0.2204  -0.1851  -0.1671  -0.1503  -0.1329  -0.1264  -0.1152
    -0.0281   0.0413   0.0492   0.0819   0.1148   0.1205   0.1404   0.1904
     0.2148   0.2283   0.2949   0.3141   0.3466   0.3889   0.4078   0.4143
     0.5542   0.5629   0.5665   0.6587   0.7136   0.7297   0.7454   0.7648
     0.7707   0.7759   0.7858   0.8537   0.8639   0.8878   0.9072   0.9233
     0.9339   0.9462   0.9763   0.9842   1.0272   1.1297   1.1424   1.1485
     1.2071   1.2763   1.3323   1.3352   1.4353   1.4448   1.4982   1.5454
     1.6051   1.6168   1.6499   1.6648   1.6722   1.7065   1.7516   1.7614
     1.7815   1.7950   1.8672   1.8963   1.9254   1.9599   1.9692   1.9759
     1.9831   2.0891   2.1637   2.1798   2.2406   2.2476   2.2627   2.2712
     2.3525   2.3611   2.3671   2.4541   2.4614   2.4756   2.5036   2.5253
     2.5704   2.5794   2.5908   2.6831   2.6952   2.7018   2.7094   2.7229
     2.7336   2.7358   2.8142   2.9252   2.9294   2.9325   2.9803   2.9896
     3.1517   3.1865   3.5343   3.5736   3.6832   3.8908   4.0174   4.0217
     4.3933   4.4219   4.6018   4.7180   5.2130   5.2306   5.2410   5.3335
     5.4846   5.5064   5.5745   5.6676   5.8807   5.9026   6.4391   6.4964
     7.0389   7.0720   7.2910   7.4878   7.5625

          k = 0.2000-0.1155 0.0000 ( 42996 PWs)   bands (ev):

   -18.6981  -6.2994  -5.8972  -4.6265  -4.1539  -3.7252  -3.7198  -3.5556
    -3.4981  -3.4633  -3.3696  -3.3643  -3.2037  -3.1618  -3.0255  -3.0131
    -3.0097  -3.0032  -2.7694  -2.6764  -2.5834  -2.5708  -2.5673  -2.5544
    -2.4806  -2.4763  -2.4291  -2.4241  -2.4008  -2.3930  -2.3667  -2.2721
    -2.2705  -2.2356  -2.1931  -2.1822  -2.1482  -2.1447  -1.9566  -1.9523
    -1.9458  -1.9382  -1.8782  -1.6655  -1.6599  -1.6378  -1.5941  -1.5834
    -1.5665  -1.5504  -1.3967  -1.3577  -1.3221  -1.2950  -1.2709  -1.2501
    -1.2226  -1.1192  -0.9681  -0.9132  -0.8984  -0.8139  -0.8064  -0.7844
    -0.7793  -0.7727  -0.7575  -0.6924  -0.6824  -0.6626  -0.6152  -0.5594
    -0.5560  -0.5509  -0.5175  -0.5090  -0.4834  -0.4493  -0.3577  -0.3302
    -0.3121  -0.2921  -0.2758  -0.2556  -0.2471  -0.2211  -0.1442  -0.0983
    -0.0915  -0.0859  -0.0766  -0.0681  -0.0620  -0.0445  -0.0401   0.0173
     0.0655   0.0699   0.0805   0.0971   0.1096   0.1180   0.1294   0.2398
     0.2851   0.2887   0.3060   0.3104   0.3308   0.3376   0.3415   0.3900
     0.4114   0.4179   0.4228   0.4444   0.7215   0.7656   0.7758   0.8028
     0.8107   0.8448   0.8471   0.8747   0.8818   1.0145   1.0224   1.0280
     1.1134   1.1408   1.1677   1.1859   1.2865   1.2891   1.2961   1.3048
     1.3097   1.3996   1.4117   1.4170   1.4552   1.4610   1.6116   1.6488
     1.6543   1.6787   1.6850   1.6931   1.7254   1.7863   1.8192   1.8226
     1.8320   1.8716   1.9030   1.9111   1.9185   1.9290   2.0309   2.0435
     2.0712   2.0805   2.1343   2.1812   2.1889   2.2050   2.2066   2.2169
     2.2639   2.2752   2.3355   2.3398   2.3979   2.4069   2.4110   2.4528
     2.4595   2.4622   2.4737   2.4832   2.4888   2.5240   2.5312   2.6507
     2.6546   2.7257   2.7541   2.7655   2.7679   2.7967   2.8183   2.8414
     2.8454   2.9213   2.9272   2.9427   3.0997   3.1075   3.1112   3.1453
     3.1960   3.5872   3.6605   4.2361   4.2551   4.3200   4.4596   5.2369
     5.7250   5.8076   6.4454   6.4463   6.5309   6.6034   6.8019   7.0151
     7.3789   7.4013   7.5294   7.8210   7.8336

          k = 0.2000 0.1155 0.0000 ( 42996 PWs)   bands (ev):

   -18.6981  -6.2996  -5.8963  -4.6256  -4.1270  -3.7596  -3.7219  -3.5538
    -3.4947  -3.4195  -3.4131  -3.3671  -3.2089  -3.1655  -3.0247  -3.0082
    -2.9992  -2.9858  -2.7566  -2.7024  -2.5821  -2.5704  -2.5568  -2.5465
    -2.5013  -2.4734  -2.4323  -2.4241  -2.4136  -2.3550  -2.3512  -2.3020
    -2.2775  -2.1938  -2.1889  -2.1733  -2.1643  -2.1502  -1.9729  -1.9642
    -1.9488  -1.9205  -1.9105  -1.6930  -1.6676  -1.6455  -1.5991  -1.5570
    -1.5513  -1.5465  -1.4026  -1.3720  -1.3373  -1.2911  -1.2625  -1.2416
    -1.2189  -1.1331  -1.0031  -0.9101  -0.8986  -0.8936  -0.8420  -0.8201
    -0.7851  -0.7116  -0.7012  -0.6885  -0.6846  -0.6672  -0.6260  -0.6009
    -0.5934  -0.5693  -0.4901  -0.4464  -0.4369  -0.4082  -0.3612  -0.3494
    -0.3448  -0.3048  -0.2900  -0.2747  -0.2170  -0.1528  -0.1491  -0.1405
    -0.1077  -0.0993  -0.0955  -0.0781  -0.0647  -0.0415  -0.0206   0.0295
     0.0580   0.0663   0.0936   0.1069   0.1170   0.1268   0.1889   0.2399
     0.2910   0.2966   0.3235   0.3261   0.3312   0.3377   0.3488   0.3839
     0.4039   0.4154   0.4181   0.4633   0.6377   0.7334   0.7994   0.8044
     0.8332   0.8417   0.8733   0.8835   0.8863   1.0252   1.0428   1.0485
     1.1246   1.1490   1.1738   1.2139   1.2930   1.2989   1.3054   1.3126
     1.3228   1.3936   1.3991   1.4225   1.4388   1.4606   1.6149   1.6524
     1.6580   1.6749   1.6882   1.6958   1.7090   1.7838   1.8093   1.8189
     1.8333   1.8515   1.8919   1.9010   1.9159   1.9243   2.0262   2.0406
     2.0546   2.0796   2.1643   2.1860   2.1975   2.2061   2.2187   2.2337
     2.2596   2.3164   2.3299   2.3451   2.3974   2.4126   2.4171   2.4296
     2.4558   2.4678   2.4730   2.4750   2.4975   2.5561   2.5684   2.6810
     2.6984   2.7056   2.7148   2.7209   2.7430   2.7581   2.7691   2.8128
     2.8204   2.9241   2.9320   2.9426   3.0919   3.0998   3.1253   3.1391
     3.2331   3.5285   3.6040   4.2431   4.2812   4.3418   4.4736   5.2912
     5.6736   5.7696   6.4443   6.4542   6.5065   6.6022   6.8424   7.0248
     7.3963   7.4139   7.5645   7.7926   7.8196

          k = 0.2000 0.3464 0.0000 ( 43046 PWs)   bands (ev):

   -18.6981  -6.2997  -5.6091  -4.3806  -4.3786  -4.3462  -3.3173  -3.3055
    -3.2963  -3.2896  -3.2687  -3.2539  -3.2521  -3.2311  -3.1228  -3.1187
    -2.7990  -2.7282  -2.7231  -2.6982  -2.6771  -2.6378  -2.6148  -2.5076
    -2.4851  -2.4797  -2.4766  -2.4705  -2.4077  -2.3388  -2.3346  -2.3213
    -2.3193  -2.2464  -2.2098  -2.2008  -2.1671  -2.1631  -2.0259  -1.8354
    -1.7666  -1.7483  -1.7220  -1.6988  -1.6870  -1.6745  -1.6669  -1.6061
    -1.5912  -1.4442  -1.4408  -1.4347  -1.3612  -1.3129  -1.2944  -1.2715
    -1.2494  -1.2022  -1.1566  -1.1000  -1.0082  -1.0004  -0.9652  -0.9450
    -0.9438  -0.8735  -0.8484  -0.8172  -0.7861  -0.7790  -0.6290  -0.6203
    -0.6154  -0.5643  -0.5518  -0.5398  -0.4989  -0.4950  -0.4264  -0.4154
    -0.3771  -0.3371  -0.3297  -0.3119  -0.2852  -0.2359  -0.2080  -0.2032
    -0.1895  -0.1411  -0.1342  -0.1103  -0.0481  -0.0336  -0.0250  -0.0101
     0.0513   0.0663   0.0951   0.1009   0.1035   0.1189   0.1312   0.1529
     0.1614   0.1661   0.1853   0.2117   0.2301   0.2466   0.3358   0.3813
     0.3933   0.4839   0.4892   0.4986   0.5142   0.6668   0.6696   0.7934
     0.8222   0.8567   0.8629   0.8735   0.8768   0.8953   0.9213   0.9323
     0.9696   0.9899   0.9983   1.0128   1.2168   1.2425   1.2463   1.2795
     1.2881   1.3152   1.3581   1.3772   1.4775   1.4816   1.5030   1.5557
     1.5602   1.6374   1.6619   1.6864   1.7099   1.7170   1.7599   1.7861
     1.7897   1.7965   1.8039   1.8069   1.8247   1.8307   1.8676   1.9907
     2.0352   2.0552   2.1892   2.1930   2.2187   2.3437   2.3480   2.3531
     2.3656   2.4476   2.4712   2.4982   2.5052   2.5181   2.5357   2.5434
     2.5783   2.5890   2.5933   2.6166   2.6403   2.6543   2.7447   2.7517
     2.7655   2.7799   2.7830   2.8439   2.9189   2.9732   2.9762   3.0614
     3.0985   3.1038   3.1341   3.2478   3.2593   3.7041   3.7893   3.8028
     4.2808   4.2914   4.3082   4.3576   4.9796   5.0294   5.0992   5.2400
     5.2741   5.3173   5.9328   6.4015   6.4352   6.4585   6.7019   6.9247
     7.1292   7.2037   7.2249   7.2617   7.2855

          k = 0.2000-0.5774 0.0000 ( 43014 PWs)   bands (ev):

   -18.6981  -6.2996  -5.0766  -5.0691  -4.4696  -3.8549  -3.8459  -3.3362
    -3.2900  -3.1714  -3.1321  -3.0466  -3.0175  -2.9200  -2.9045  -2.8257
    -2.8085  -2.7991  -2.7743  -2.7532  -2.7513  -2.7418  -2.7135  -2.5875
    -2.5748  -2.5693  -2.5618  -2.4948  -2.4809  -2.3880  -2.3426  -2.3085
    -2.2008  -2.1912  -2.1862  -2.1560  -2.1468  -2.0714  -2.0633  -1.9567
    -1.9495  -1.7777  -1.7382  -1.7190  -1.6181  -1.6117  -1.5701  -1.5538
    -1.4501  -1.3941  -1.3633  -1.3497  -1.3378  -1.3168  -1.2964  -1.2624
    -1.2166  -1.1482  -1.1432  -1.1276  -1.1188  -1.1168  -1.0874  -1.0438
    -1.0173  -0.9809  -0.9259  -0.8920  -0.8622  -0.7902  -0.7311  -0.7285
    -0.6532  -0.6327  -0.6048  -0.5828  -0.5553  -0.5174  -0.5100  -0.4843
    -0.4687  -0.4384  -0.4239  -0.3935  -0.3741  -0.2861  -0.2435  -0.2406
    -0.2255  -0.2105  -0.1151  -0.0885  -0.0689  -0.0470  -0.0120   0.0059
     0.0184   0.0251   0.0418   0.0489   0.0808   0.1100   0.1228   0.1583
     0.1715   0.1805   0.1865   0.1898   0.2005   0.2148   0.2784   0.2867
     0.3059   0.5051   0.5276   0.5717   0.5870   0.6894   0.7125   0.7184
     0.7235   0.7602   0.7859   0.8093   0.8254   0.8422   0.9096   0.9259
     0.9878   0.9991   1.0103   1.0481   1.0989   1.1229   1.1843   1.2787
     1.3386   1.3494   1.3551   1.3671   1.4508   1.4638   1.4737   1.4936
     1.5099   1.5292   1.5426   1.5567   1.6606   1.6690   1.6861   1.7312
     1.7373   1.7519   1.7646   1.7898   1.8176   1.9313   2.0112   2.0458
     2.1014   2.1145   2.1617   2.1880   2.2657   2.3031   2.3148   2.3330
     2.4163   2.4446   2.4876   2.5317   2.5364   2.5385   2.5477   2.5742
     2.6175   2.6363   2.6873   2.7131   2.7293   2.7506   2.7593   2.7691
     2.8150   2.8464   2.9219   2.9443   2.9561   2.9827   2.9955   3.0456
     3.1095   3.1626   3.2960   4.1229   4.1298   4.3110   4.3402   4.4137
     4.5053   4.5247   4.5688   4.9301   5.1271   5.1492   5.5784   5.5930
     5.6397   5.7112   5.7609   5.8613   6.0253   6.0309   6.0854   6.4210
     6.5532   6.6108   6.9265   7.1990   7.2898

          k = 0.2000-0.3464 0.0000 ( 43046 PWs)   bands (ev):

   -18.6981  -6.2994  -5.6115  -4.3943  -4.3758  -4.3487  -3.3394  -3.3143
    -3.3004  -3.2901  -3.2742  -3.2409  -3.2205  -3.2136  -3.1247  -3.1170
    -2.8019  -2.7470  -2.7365  -2.7146  -2.6822  -2.6632  -2.6208  -2.5086
    -2.4827  -2.4774  -2.4712  -2.4672  -2.3458  -2.3304  -2.3228  -2.3162
    -2.3146  -2.2511  -2.2356  -2.1980  -2.1694  -2.1495  -2.0898  -1.8307
    -1.7452  -1.7291  -1.7110  -1.6979  -1.6751  -1.6659  -1.6380  -1.6197
    -1.5821  -1.4663  -1.4359  -1.4229  -1.3334  -1.3210  -1.3002  -1.2676
    -1.2411  -1.1922  -1.1583  -1.1170  -0.9970  -0.9790  -0.9585  -0.8774
    -0.8704  -0.8492  -0.8261  -0.8090  -0.7874  -0.7658  -0.7121  -0.6243
    -0.6060  -0.5814  -0.5514  -0.5342  -0.5194  -0.5028  -0.4577  -0.4004
    -0.3258  -0.3097  -0.3039  -0.3018  -0.2890  -0.2744  -0.2333  -0.2037
    -0.1970  -0.1887  -0.1520  -0.1312  -0.1014  -0.0500  -0.0273  -0.0020
     0.0352   0.0495   0.0595   0.0728   0.1114   0.1243   0.1351   0.1592
     0.1649   0.1751   0.1923   0.2136   0.2276   0.2388   0.3323   0.3752
     0.4091   0.4464   0.4755   0.4791   0.5114   0.6688   0.6864   0.7672
     0.8011   0.8222   0.8381   0.8719   0.8874   0.9055   0.9295   0.9453
     0.9745   0.9981   1.0110   1.0594   1.1776   1.2110   1.2685   1.2775
     1.2907   1.3101   1.3237   1.3728   1.4695   1.4833   1.4932   1.5451
     1.5623   1.6145   1.6842   1.6980   1.7028   1.7168   1.7730   1.7949
     1.8023   1.8093   1.8128   1.8280   1.8305   1.8521   1.8788   1.9641
     2.0323   2.0614   2.1691   2.1858   2.2159   2.3454   2.3502   2.3560
     2.3788   2.4506   2.4752   2.4972   2.5060   2.5105   2.5293   2.5494
     2.5508   2.5613   2.5805   2.5965   2.6492   2.6823   2.6979   2.7256
     2.7739   2.7892   2.7922   2.8351   2.9850   3.0033   3.0458   3.0770
     3.0934   3.1024   3.1666   3.2308   3.2500   3.6768   3.7664   3.7929
     4.2991   4.3239   4.3471   4.3902   4.9582   5.0140   5.0944   5.2502
     5.2709   5.3248   5.9399   6.4401   6.4471   6.4931   6.6672   6.9161
     7.1012   7.1729   7.2337   7.2452   7.3103

          k = 0.4000-0.2309 0.0000 ( 43046 PWs)   bands (ev):

   -18.6981  -6.2991  -5.4760  -4.8451  -4.2209  -3.7618  -3.7563  -3.6637
    -3.4340  -3.2543  -3.1600  -3.1245  -3.0308  -3.0233  -2.9157  -2.8921
    -2.8390  -2.8285  -2.8258  -2.7610  -2.7079  -2.6415  -2.6380  -2.6131
    -2.6109  -2.5863  -2.5681  -2.4867  -2.4619  -2.4601  -2.2151  -2.2075
    -2.1954  -2.1946  -2.1714  -2.1643  -1.9713  -1.9536  -1.9324  -1.9296
    -1.8968  -1.8891  -1.7290  -1.6467  -1.6385  -1.6131  -1.6109  -1.5723
    -1.5574  -1.5016  -1.4834  -1.4370  -1.4257  -1.4233  -1.2874  -1.2368
    -1.2270  -1.2227  -1.1762  -1.0888  -1.0307  -1.0143  -0.9989  -0.9781
    -0.8837  -0.8378  -0.8355  -0.8270  -0.7962  -0.7402  -0.7108  -0.6606
    -0.6491  -0.6121  -0.5918  -0.5847  -0.4566  -0.4497  -0.4209  -0.4183
    -0.4121  -0.3513  -0.3395  -0.3171  -0.3142  -0.3051  -0.2990  -0.2880
    -0.2754  -0.2534  -0.1697  -0.1395  -0.1318  -0.1232  -0.1064  -0.0865
    -0.0651  -0.0188   0.0328   0.0342   0.0424   0.1225   0.1249   0.1351
     0.1398   0.1648   0.2857   0.3323   0.3489   0.3828   0.3969   0.4168
     0.5454   0.5509   0.6394   0.6461   0.7073   0.7121   0.7416   0.7640
     0.7693   0.8237   0.8336   0.8523   0.8617   0.8705   0.9043   0.9057
     0.9127   0.9148   0.9373   1.0170   1.0632   1.0758   1.1177   1.1224
     1.1993   1.2762   1.2897   1.2966   1.4340   1.4371   1.5457   1.5845
     1.5957   1.6186   1.6223   1.6244   1.7075   1.7153   1.7607   1.7662
     1.8142   1.8177   1.8616   1.9283   1.9418   1.9682   1.9735   1.9835
     1.9945   2.0204   2.1476   2.1822   2.2241   2.2353   2.2452   2.2587
     2.3327   2.3603   2.3639   2.4389   2.4504   2.4531   2.4892   2.5128
     2.5224   2.5774   2.5852   2.6948   2.7007   2.7202   2.7253   2.7625
     2.7749   2.7777   2.7899   2.9171   2.9899   2.9989   3.0086   3.0265
     3.1470   3.1778   3.5945   3.6008   3.6509   3.8601   4.0177   4.0196
     4.4012   4.4101   4.5528   4.7881   5.2343   5.2382   5.2794   5.3121
     5.4548   5.4966   5.6304   5.7176   5.8798   5.8961   6.3607   6.6020
     7.0065   7.0487   7.3163   7.4670   7.5629

          k = 0.4000-0.0000 0.0000 ( 43046 PWs)   bands (ev):

   -18.6981  -6.2993  -5.6117  -4.3945  -4.3762  -4.3489  -3.3392  -3.3138
    -3.3008  -3.2927  -3.2751  -3.2416  -3.2213  -3.2084  -3.1251  -3.1170
    -2.8064  -2.7487  -2.7306  -2.7165  -2.6844  -2.6614  -2.6221  -2.5086
    -2.4823  -2.4793  -2.4711  -2.4677  -2.3425  -2.3301  -2.3235  -2.3179
    -2.3107  -2.2515  -2.2343  -2.2000  -2.1670  -2.1493  -2.0929  -1.8297
    -1.7426  -1.7261  -1.7083  -1.6961  -1.6750  -1.6681  -1.6376  -1.6202
    -1.5834  -1.4687  -1.4368  -1.4231  -1.3333  -1.3189  -1.3010  -1.2663
    -1.2412  -1.1904  -1.1599  -1.1160  -0.9949  -0.9753  -0.9556  -0.8766
    -0.8643  -0.8480  -0.8269  -0.8081  -0.7872  -0.7666  -0.7142  -0.6247
    -0.6084  -0.5827  -0.5567  -0.5364  -0.5167  -0.5025  -0.4566  -0.4040
    -0.3256  -0.3065  -0.3040  -0.2984  -0.2882  -0.2754  -0.2326  -0.2044
    -0.1992  -0.1898  -0.1473  -0.1428  -0.1023  -0.0482  -0.0272  -0.0014
     0.0308   0.0465   0.0566   0.0739   0.1126   0.1253   0.1321   0.1572
     0.1659   0.1762   0.1906   0.2169   0.2276   0.2358   0.3333   0.3757
     0.4073   0.4466   0.4757   0.4787   0.5124   0.6703   0.6873   0.7630
     0.8021   0.8219   0.8385   0.8718   0.8863   0.9062   0.9329   0.9462
     0.9751   0.9988   1.0109   1.0634   1.1757   1.2103   1.2661   1.2779
     1.2914   1.3075   1.3262   1.3712   1.4679   1.4830   1.4950   1.5444
     1.5605   1.6126   1.6803   1.6961   1.7025   1.7191   1.7737   1.7945
     1.8039   1.8094   1.8131   1.8292   1.8306   1.8548   1.8743   1.9696
     2.0325   2.0576   2.1694   2.1832   2.2202   2.3446   2.3513   2.3563
     2.3837   2.4490   2.4720   2.4975   2.5062   2.5108   2.5297   2.5483
     2.5517   2.5603   2.5792   2.5885   2.6437   2.6866   2.7011   2.7226
     2.7744   2.7855   2.7909   2.8316   2.9904   3.0094   3.0493   3.0778
     3.0920   3.1043   3.1752   3.2282   3.2505   3.6748   3.7660   3.7881
     4.3025   4.3265   4.3463   4.3949   4.9571   5.0154   5.0953   5.2505
     5.2669   5.3240   5.9403   6.4396   6.4460   6.5085   6.6662   6.9208
     7.0919   7.1418   7.2312   7.2445   7.3149

          k = 0.4000 0.2309 0.0000 ( 43046 PWs)   bands (ev):

   -18.6981  -6.2996  -5.4721  -4.8340  -4.2177  -3.7807  -3.7643  -3.6597
    -3.3917  -3.2532  -3.1516  -3.1080  -3.0688  -3.0324  -2.9168  -2.8722
    -2.8322  -2.8268  -2.8045  -2.7343  -2.7027  -2.6630  -2.6537  -2.6124
    -2.5910  -2.5728  -2.5388  -2.4819  -2.4792  -2.4631  -2.2213  -2.2172
    -2.2124  -2.2082  -2.1985  -2.1852  -1.9831  -1.9521  -1.9457  -1.9368
    -1.9197  -1.9071  -1.7379  -1.6454  -1.6354  -1.6237  -1.6016  -1.5585
    -1.5486  -1.5151  -1.4850  -1.4663  -1.4158  -1.4040  -1.2994  -1.2675
    -1.2417  -1.2349  -1.1875  -1.1208  -1.0910  -1.0701  -1.0358  -0.9863
    -0.8928  -0.8561  -0.8142  -0.8089  -0.7900  -0.7535  -0.7247  -0.6686
    -0.5884  -0.5779  -0.5541  -0.4825  -0.4730  -0.4658  -0.4422  -0.4266
    -0.3999  -0.3936  -0.3598  -0.3410  -0.3250  -0.3220  -0.2959  -0.2771
    -0.2541  -0.2188  -0.1886  -0.1675  -0.1506  -0.1332  -0.1302  -0.1065
    -0.0279   0.0397   0.0450   0.0827   0.1098   0.1204   0.1398   0.1914
     0.2094   0.2225   0.2961   0.3155   0.3429   0.3854   0.4071   0.4147
     0.5525   0.5637   0.5695   0.6599   0.7128   0.7281   0.7474   0.7638
     0.7704   0.7785   0.7851   0.8542   0.8709   0.8861   0.9087   0.9231
     0.9333   0.9492   0.9708   0.9818   1.0321   1.1280   1.1429   1.1491
     1.2061   1.2799   1.3296   1.3336   1.4338   1.4445   1.4983   1.5440
     1.6066   1.6143   1.6500   1.6605   1.6694   1.7090   1.7510   1.7594
     1.7803   1.7948   1.8656   1.8978   1.9289   1.9618   1.9687   1.9777
     1.9863   2.0818   2.1590   2.1849   2.2381   2.2461   2.2631   2.2698
     2.3515   2.3619   2.3690   2.4515   2.4623   2.4737   2.4998   2.5268
     2.5647   2.5769   2.5962   2.6809   2.6941   2.7044   2.7115   2.7220
     2.7355   2.7358   2.8156   2.9263   2.9299   2.9327   2.9845   2.9983
     3.1513   3.1859   3.5363   3.5847   3.6739   3.8886   4.0174   4.0229
     4.3920   4.4238   4.5975   4.7222   5.2184   5.2303   5.2415   5.3274
     5.4836   5.5109   5.5777   5.6719   5.8791   5.9033   6.4314   6.4994
     7.0368   7.0748   7.3000   7.4900   7.5680

          k = 0.4000-0.6928 0.0000 ( 43014 PWs)   bands (ev):

   -18.6981  -6.2995  -5.0756  -5.0707  -4.4691  -3.8556  -3.8459  -3.3361
    -3.2924  -3.1719  -3.1318  -3.0463  -3.0145  -2.9214  -2.9051  -2.8254
    -2.8079  -2.7969  -2.7803  -2.7537  -2.7503  -2.7430  -2.7146  -2.5861
    -2.5772  -2.5706  -2.5587  -2.4934  -2.4813  -2.3900  -2.3415  -2.3068
    -2.2014  -2.1901  -2.1869  -2.1544  -2.1442  -2.0711  -2.0614  -1.9561
    -1.9488  -1.7785  -1.7380  -1.7174  -1.6228  -1.6086  -1.5698  -1.5535
    -1.4532  -1.3960  -1.3637  -1.3497  -1.3399  -1.3107  -1.2896  -1.2603
    -1.2155  -1.1484  -1.1437  -1.1281  -1.1201  -1.1143  -1.0869  -1.0425
    -1.0212  -0.9785  -0.9242  -0.8929  -0.8627  -0.7851  -0.7301  -0.7280
    -0.6581  -0.6359  -0.6022  -0.5849  -0.5586  -0.5209  -0.5095  -0.4856
    -0.4685  -0.4383  -0.4200  -0.3931  -0.3768  -0.2843  -0.2433  -0.2402
    -0.2232  -0.2132  -0.1168  -0.0870  -0.0703  -0.0469  -0.0082   0.0029
     0.0123   0.0270   0.0387   0.0503   0.0888   0.1077   0.1196   0.1589
     0.1738   0.1808   0.1874   0.1902   0.1954   0.2119   0.2776   0.2846
     0.3015   0.5050   0.5251   0.5745   0.5854   0.6895   0.7152   0.7199
     0.7241   0.7641   0.7847   0.8076   0.8256   0.8450   0.9100   0.9223
     0.9883   1.0026   1.0113   1.0481   1.0964   1.1219   1.1833   1.2788
     1.3413   1.3468   1.3561   1.3681   1.4506   1.4613   1.4716   1.4892
     1.5102   1.5311   1.5403   1.5622   1.6627   1.6715   1.6884   1.7323
     1.7368   1.7480   1.7611   1.7904   1.8179   1.9306   2.0054   2.0457
     2.1025   2.1110   2.1631   2.1915   2.2675   2.3043   2.3161   2.3342
     2.4178   2.4409   2.4858   2.5291   2.5359   2.5378   2.5449   2.5703
     2.6210   2.6399   2.6864   2.7121   2.7295   2.7493   2.7548   2.7700
     2.8151   2.8425   2.9224   2.9435   2.9549   2.9860   3.0029   3.0468
     3.1167   3.1633   3.2959   4.1230   4.1300   4.3130   4.3384   4.4143
     4.5070   4.5254   4.5588   4.9353   5.1269   5.1515   5.5789   5.5943
     5.6315   5.7109   5.7620   5.8773   6.0074   6.0307   6.0997   6.4296
     6.5503   6.6083   6.9297   7.1941   7.2877

          k = 0.4000-0.4619 0.0000 ( 43014 PWs)   bands (ev):

   -18.6981  -6.2992  -5.0796  -5.0778  -4.4598  -3.8573  -3.8509  -3.3362
    -3.3280  -3.1705  -3.1227  -3.0203  -3.0081  -2.9240  -2.9192  -2.8509
    -2.8259  -2.8007  -2.7734  -2.7725  -2.7335  -2.7229  -2.6992  -2.6221
    -2.5791  -2.5741  -2.5378  -2.5354  -2.4810  -2.3955  -2.3211  -2.2731
    -2.1896  -2.1877  -2.1778  -2.1733  -2.1113  -2.0651  -2.0580  -1.9265
    -1.9215  -1.7986  -1.7296  -1.7113  -1.6346  -1.6133  -1.5725  -1.5645
    -1.4931  -1.4053  -1.3786  -1.3659  -1.3260  -1.2701  -1.2426  -1.2210
    -1.2072  -1.1358  -1.1269  -1.1129  -1.0999  -1.0921  -1.0851  -1.0438
    -1.0207  -1.0031  -0.8962  -0.8674  -0.8185  -0.7964  -0.7459  -0.6992
    -0.6913  -0.6481  -0.6422  -0.6166  -0.6027  -0.5343  -0.4913  -0.4827
    -0.4606  -0.4471  -0.4191  -0.3520  -0.3469  -0.3218  -0.2610  -0.2388
    -0.1842  -0.1816  -0.1754  -0.0574  -0.0513  -0.0258  -0.0199   0.0014
     0.0065   0.0109   0.0122   0.0223   0.0278   0.0731   0.0830   0.1159
     0.1554   0.1677   0.1852   0.1883   0.2442   0.2504   0.2522   0.2839
     0.3084   0.4472   0.4994   0.5806   0.5874   0.6914   0.6981   0.7004
     0.7562   0.7832   0.7850   0.7957   0.8543   0.8723   0.9183   0.9263
     0.9533   1.0061   1.0358   1.0598   1.0787   1.0887   1.1430   1.2717
     1.3372   1.3403   1.3741   1.3786   1.4412   1.4746   1.4837   1.4891
     1.5120   1.5244   1.5455   1.5584   1.6767   1.6846   1.7025   1.7351
     1.7386   1.7568   1.7658   1.7726   1.8078   1.9479   1.9526   2.0151
     2.0959   2.1115   2.1897   2.1967   2.2737   2.3059   2.3233   2.3417
     2.4115   2.4339   2.4764   2.4993   2.5183   2.5324   2.5433   2.5819
     2.5998   2.6683   2.6812   2.7093   2.7129   2.7528   2.7601   2.7674
     2.8061   2.8289   2.9399   2.9928   2.9974   3.0028   3.0166   3.0459
     3.1569   3.1771   3.2830   4.1267   4.1285   4.2702   4.3451   4.4371
     4.4908   4.5146   4.5275   4.9841   5.1433   5.1511   5.5746   5.6071
     5.6195   5.7224   5.7330   5.9414   6.0260   6.0799   6.1378   6.4700
     6.5372   6.5528   6.9726   7.1723   7.1801

     the Fermi energy is     2.7284 ev

!    total energy              =  -27799.22322826 Ry
     total all-electron energy =  -1326794.835536 Ry
     estimated scf accuracy    <       0.00000029 Ry
     smearing contrib. (-TS)   =       0.00006205 Ry
     internal energy E=F+TS    =  -27799.22329031 Ry

     The total energy is F=E-TS. E is the sum of the following terms:
     one-electron contribution =  -20546.73005053 Ry
     hartree contribution      =   10587.09172377 Ry
     xc contribution           =    -899.19042328 Ry
     ewald contribution        =    8543.69915454 Ry
     one-center paw contrib.   =  -25484.09369481 Ry

     convergence has been achieved in  19 iterations

     negative rho (up, down):  2.862E-03 0.000E+00

     Forces acting on atoms (cartesian axes, Ry/au):

     atom    1 type  1   force =     0.00187536   -0.00114043   -0.00869743
     atom    2 type  1   force =     0.00148435   -0.00117781   -0.00538905
     atom    3 type  1   force =     0.00230615   -0.00128584   -0.00550188
     atom    4 type  1   force =     0.00190430   -0.00130963   -0.00564583
     atom    5 type  1   force =     0.00191036   -0.00115484   -0.00550983
     atom    6 type  1   force =     0.00226012   -0.00136037   -0.00574445
     atom    7 type  1   force =     0.00216497   -0.00110890   -0.00527241
     atom    8 type  1   force =     0.00165151   -0.00080658   -0.00501742
     atom    9 type  1   force =     0.00205559   -0.00129611   -0.00514333
     atom   10 type  1   force =    -0.00152996    0.00127748    0.00468041
     atom   11 type  1   force =    -0.00207225    0.00254159    0.00526814
     atom   12 type  1   force =    -0.00186805    0.00125255    0.00405744
     atom   13 type  1   force =    -0.00089856    0.00075829    0.00677214
     atom   14 type  1   force =    -0.00307858    0.00075307    0.00606412
     atom   15 type  1   force =    -0.00166037    0.00184158    0.00495993
     atom   16 type  1   force =    -0.00173105   -0.00012426    0.00652350
     atom   17 type  1   force =    -0.00159320    0.00094759    0.00399232
     atom   18 type  1   force =    -0.00239438    0.00063684    0.00484070
     atom   19 type  1   force =    -0.00000814   -0.00003072    0.00002622
     atom   20 type  1   force =     0.00002660   -0.00005201    0.00001552
     atom   21 type  1   force =     0.00001504   -0.00004532    0.00000359
     atom   22 type  1   force =     0.00000234   -0.00009339   -0.00000022
     atom   23 type  1   force =     0.00004920    0.00003145   -0.00010175
     atom   24 type  1   force =     0.00000403   -0.00008802    0.00005161
     atom   25 type  1   force =    -0.00001825   -0.00002995    0.00002396
     atom   26 type  1   force =     0.00001657   -0.00002769    0.00004194
     atom   27 type  1   force =    -0.00002254   -0.00007875    0.00001327
     atom   28 type  1   force =     0.00001266   -0.00015238    0.00002418
     atom   29 type  1   force =     0.00005313   -0.00006378    0.00014288
     atom   30 type  1   force =    -0.00006472   -0.00006527    0.00008293
     atom   31 type  1   force =     0.00004687   -0.00014947    0.00006339
     atom   32 type  1   force =     0.00005310   -0.00030033    0.00013239
     atom   33 type  1   force =     0.00001083   -0.00016814    0.00006276
     atom   34 type  1   force =     0.00001792   -0.00019476   -0.00002932
     atom   35 type  1   force =    -0.00003814   -0.00014484   -0.00000914
     atom   36 type  1   force =     0.00000666   -0.00014269   -0.00001503
     atom   37 type  2   force =    -0.00028202    0.00107185    0.00118422
     atom   38 type  3   force =     0.00032717    0.00114439    0.00077251
     atom   39 type  3   force =    -0.00099463    0.00033561    0.00227701
     The non-local contrib.  to forces
     atom    1 type  1   force =     0.00042473   -0.00046645   -0.01681418
     atom    2 type  1   force =    -0.00012463   -0.00002274   -0.01909169
     atom    3 type  1   force =    -0.00013747   -0.00006840   -0.01860137
     atom    4 type  1   force =    -0.00004202    0.00035747   -0.01960919
     atom    5 type  1   force =     0.00003431    0.00009764   -0.01869556
     atom    6 type  1   force =    -0.00001259    0.00035025   -0.01911884
     atom    7 type  1   force =    -0.00014388   -0.00003170   -0.01951285
     atom    8 type  1   force =    -0.00014075    0.00024222   -0.01909685
     atom    9 type  1   force =     0.00001048   -0.00006385   -0.02053621
     atom   10 type  1   force =    -0.00266255    0.00157537    0.00005876
     atom   11 type  1   force =    -0.00271318    0.00259183    0.00155155
     atom   12 type  1   force =    -0.00274067    0.00161363   -0.00022237
     atom   13 type  1   force =    -0.00208097    0.00139914    0.00250514
     atom   14 type  1   force =    -0.00346186    0.00118578    0.00213591
     atom   15 type  1   force =    -0.00269312    0.00164269    0.00048850
     atom   16 type  1   force =    -0.00280122    0.00167185    0.00029860
     atom   17 type  1   force =    -0.00267961    0.00191437   -0.00014936
     atom   18 type  1   force =    -0.00261135    0.00194998    0.00008394
     atom   19 type  1   force =    -0.00022089    0.00074237    0.00452191
     atom   20 type  1   force =    -0.00354344   -0.00242896   -0.00297253
     atom   21 type  1   force =     0.00125616   -0.00083339   -0.00009511
     atom   22 type  1   force =     0.00000499   -0.00009895    0.00201754
     atom   23 type  1   force =     0.00046277    0.00637587   -0.00543168
     atom   24 type  1   force =     0.00042813   -0.00004131    0.00234824
     atom   25 type  1   force =    -0.00116923    0.00000592    0.00516532
     atom   26 type  1   force =     0.00108018   -0.00019862    0.00518921
     atom   27 type  1   force =     0.00010773   -0.00036989    0.00232731
     atom   28 type  1   force =     0.00361278   -0.00246422    0.01490219
     atom   29 type  1   force =     0.00718426    0.00559619    0.01759815
     atom   30 type  1   force =    -0.00160241    0.00776991    0.01076226
     atom   31 type  1   force =     0.00986660   -0.00238495    0.02077251
     atom   32 type  1   force =     0.01065449   -0.01478925    0.06689028
     atom   33 type  1   force =    -0.00568124   -0.00358167    0.01522204
     atom   34 type  1   force =     0.00588770   -0.00740752    0.01836321
     atom   35 type  1   force =    -0.00027722   -0.00653285    0.01440796
     atom   36 type  1   force =     0.00318867   -0.00189510    0.01568503
     atom   37 type  2   force =     2.35871364   -0.72744855   -0.01805335
     atom   38 type  3   force =    -0.09104670   -0.06503584   -0.02391716
     atom   39 type  3   force =    -0.03423676    0.10705931    0.01209216
     The ionic contribution  to forces
     atom    1 type  1   force =     0.00098434   -0.00209420  -94.10595523
     atom    2 type  1   force =    -0.00007964    0.00124192  -94.10248039
     atom    3 type  1   force =    -0.00126774   -0.00107892  -94.10459712
     atom    4 type  1   force =     0.00311174    0.00481953  -94.09639549
     atom    5 type  1   force =    -0.00241873    0.00577485  -94.09545715
     atom    6 type  1   force =    -0.00099052    0.00466465  -94.10103020
     atom    7 type  1   force =     0.00127329   -0.00578271  -94.09308419
     atom    8 type  1   force =    -0.00301914   -0.00385644  -94.09558146
     atom    9 type  1   force =     0.00140245   -0.00307460  -94.09794836
     atom   10 type  1   force =     0.00242650    0.04774502  -32.99832886
     atom   11 type  1   force =    -0.04749175    0.03570419  -33.01491801
     atom   12 type  1   force =    -0.04839444    0.03592575  -33.02184074
     atom   13 type  1   force =    -0.02956702    0.05477005  -32.96238483
     atom   14 type  1   force =    -0.05877685    0.05786159  -32.97962462
     atom   15 type  1   force =    -0.01647766    0.04929241  -32.97588851
     atom   16 type  1   force =    -0.03340463   -0.06826605  -32.97554796
     atom   17 type  1   force =    -0.03413508   -0.00150332  -33.01081075
     atom   18 type  1   force =    -0.03356818   -0.02005007  -32.99426485
     atom   19 type  1   force =     0.03833565   -0.01192104   28.65565987
     atom   20 type  1   force =    -0.19982111   -0.08533060   28.65540606
     atom   21 type  1   force =     0.14173591   -0.05559068   28.52152823
     atom   22 type  1   force =    -0.06373406    0.02974983   28.88321163
     atom   23 type  1   force =     0.00673829    0.26794634   28.88152055
     atom   24 type  1   force =     0.09149505    0.05364905   28.73335160
     atom   25 type  1   force =     0.05673840   -0.04033810   28.61398327
     atom   26 type  1   force =    -0.04779344   -0.00998776   28.64892446
     atom   27 type  1   force =    -0.00150923   -0.14066878   28.60195631
     atom   28 type  1   force =     0.19153218   -0.10496347   90.51686459
     atom   29 type  1   force =    -0.76465068   -0.78048879   89.29980846
     atom   30 type  1   force =     0.68737363   -1.07675081   88.75132372
     atom   31 type  1   force =    -0.73543470    0.04127867   89.98645507
     atom   32 type  1   force =    -0.50754353    0.61808256   85.93215264
     atom   33 type  1   force =     1.19577300    0.08649295   89.21435756
     atom   34 type  1   force =    -0.29606732    0.53405861   90.21258288
     atom   35 type  1   force =     0.28320077    0.86095886   89.92671434
     atom   36 type  1   force =     0.10603993   -0.18017279   90.66551341
     atom   37 type  2   force =    -3.97503685    1.19899742   60.67783874
     atom   38 type  3   force =     2.97498977    2.12231851   10.58635127
     atom   39 type  3   force =     1.11803139   -3.51941361    9.86063404
     The local contribution  to forces
     atom    1 type  1   force =     0.00043353    0.00147018   94.09706840
     atom    2 type  1   force =     0.00177059   -0.00236534   94.09917948
     atom    3 type  1   force =     0.00373212   -0.00012389   94.10066026
     atom    4 type  1   force =    -0.00105634   -0.00644997   94.09341391
     atom    5 type  1   force =     0.00428377   -0.00693403   94.09175862
     atom    6 type  1   force =     0.00326419   -0.00634495   94.09738919
     atom    7 type  1   force =     0.00111687    0.00452846   94.09043398
     atom    8 type  1   force =     0.00483242    0.00261310   94.09267665
     atom    9 type  1   force =     0.00071055    0.00172579   94.09637215
     atom   10 type  1   force =    -0.00111413   -0.04764027   33.00210471
     atom   11 type  1   force =     0.04785448   -0.03545099   33.01775763
     atom   12 type  1   force =     0.04885554   -0.03605969   33.02511827
     atom   13 type  1   force =     0.03064825   -0.05512824   32.96592720
     atom   14 type  1   force =     0.05871313   -0.05800275   32.98271316
     atom   15 type  1   force =     0.01740529   -0.04876375   32.97940264
     atom   16 type  1   force =     0.03421336    0.06583327   32.98109422
     atom   17 type  1   force =     0.03500651    0.00055282   33.01397353
     atom   18 type  1   force =     0.03358198    0.01864566   32.99813366
     atom   19 type  1   force =    -0.03810511    0.01112170  -28.65875379
     atom   20 type  1   force =     0.20339575    0.08750011  -28.65113084
     atom   21 type  1   force =    -0.14306595    0.05630703  -28.51998657
     atom   22 type  1   force =     0.06397337   -0.02975338  -28.88399189
     atom   23 type  1   force =    -0.00701211   -0.27387682  -28.87533268
     atom   24 type  1   force =    -0.09200573   -0.05370085  -28.73434085
     atom   25 type  1   force =    -0.05567842    0.04022499  -28.61769995
     atom   26 type  1   force =     0.04672492    0.01007076  -28.65280008
     atom   27 type  1   force =     0.00149908    0.14100398  -28.60290154
     atom   28 type  1   force =    -0.19506397    0.10720195  -90.51622457
     atom   29 type  1   force =     0.75784397    0.77550620  -89.30175164
     atom   30 type  1   force =    -0.68599363    1.06963146  -88.74721551
     atom   31 type  1   force =     0.72642827   -0.03920448  -89.99137311
     atom   32 type  1   force =     0.49648963   -0.60349043  -85.98836393
     atom   33 type  1   force =    -1.19076311   -0.08343863  -89.21432945
     atom   34 type  1   force =     0.29055162   -0.52737043  -90.21537857
     atom   35 type  1   force =    -0.28324138   -0.85488410  -89.92570360
     atom   36 type  1   force =    -0.10904920    0.18192957  -90.66568571
     atom   37 type  2   force =     1.63711157   -0.47685421  -60.65886571
     atom   38 type  3   force =    -2.88361755   -2.05613350  -10.56161367
     atom   39 type  3   force =    -1.08479294    3.41268363   -9.87041620
     The core correction contribution to forces
     atom    1 type  1   force =     0.00001691   -0.00004173    0.01716525
     atom    2 type  1   force =    -0.00005987    0.00003136    0.01718711
     atom    3 type  1   force =    -0.00001664    0.00002487    0.01721168
     atom    4 type  1   force =    -0.00004645    0.00005891    0.01716537
     atom    5 type  1   force =    -0.00000683    0.00000344    0.01718050
     atom    6 type  1   force =    -0.00003560    0.00003485    0.01718256
     atom    7 type  1   force =    -0.00005777    0.00003513    0.01716512
     atom    8 type  1   force =    -0.00006343    0.00005645    0.01721078
     atom    9 type  1   force =    -0.00003768    0.00001344    0.01712987
     atom   10 type  1   force =    -0.00006057   -0.00030016    0.00083490
     atom   11 type  1   force =     0.00024547   -0.00010388    0.00091596
     atom   12 type  1   force =     0.00033393   -0.00021666    0.00096043
     atom   13 type  1   force =     0.00024002   -0.00026075    0.00074814
     atom   14 type  1   force =     0.00023720   -0.00027362    0.00081328
     atom   15 type  1   force =     0.00018569   -0.00028928    0.00084409
     atom   16 type  1   force =     0.00020304    0.00039781    0.00072722
     atom   17 type  1   force =     0.00018091   -0.00007204    0.00097244
     atom   18 type  1   force =     0.00030544   -0.00001823    0.00089769
     atom   19 type  1   force =     0.00002131    0.00000074   -0.00180368
     atom   20 type  1   force =     0.00013539    0.00032907   -0.00178964
     atom   21 type  1   force =    -0.00008402    0.00011332   -0.00188105
     atom   22 type  1   force =    -0.00004032    0.00003104   -0.00171886
     atom   23 type  1   force =    -0.00021213   -0.00047746   -0.00141828
     atom   24 type  1   force =    -0.00003711    0.00003823   -0.00174317
     atom   25 type  1   force =     0.00008359   -0.00005326   -0.00181188
     atom   26 type  1   force =    -0.00002303    0.00000780   -0.00167702
     atom   27 type  1   force =    -0.00007821    0.00002909   -0.00173195
     atom   28 type  1   force =    -0.00010639    0.00000969   -0.01595372
     atom   29 type  1   force =    -0.00025569   -0.00067152   -0.01598669
     atom   30 type  1   force =     0.00013758   -0.00073864   -0.01526124
     atom   31 type  1   force =    -0.00074004    0.00017569   -0.01623390
     atom   32 type  1   force =     0.00045632   -0.00011887   -0.01105341
     atom   33 type  1   force =     0.00061785    0.00034265   -0.01561314
     atom   34 type  1   force =    -0.00034255    0.00054825   -0.01611877
     atom   35 type  1   force =     0.00024132    0.00030440   -0.01592448
     atom   36 type  1   force =    -0.00013902    0.00006826   -0.01595608
     atom   37 type  2   force =    -0.02115405    0.00639119    0.00023600
     atom   38 type  3   force =     0.00000000    0.00000000    0.00000000
     atom   39 type  3   force =     0.00000000    0.00000000    0.00000000
     The Hubbard contrib.    to forces
     atom    1 type  1   force =     0.00000000    0.00000000    0.00000000
     atom    2 type  1   force =     0.00000000    0.00000000    0.00000000
     atom    3 type  1   force =     0.00000000    0.00000000    0.00000000
     atom    4 type  1   force =     0.00000000    0.00000000    0.00000000
     atom    5 type  1   force =     0.00000000    0.00000000    0.00000000
     atom    6 type  1   force =     0.00000000    0.00000000    0.00000000
     atom    7 type  1   force =     0.00000000    0.00000000    0.00000000
     atom    8 type  1   force =     0.00000000    0.00000000    0.00000000
     atom    9 type  1   force =     0.00000000    0.00000000    0.00000000
     atom   10 type  1   force =     0.00000000    0.00000000    0.00000000
     atom   11 type  1   force =     0.00000000    0.00000000    0.00000000
     atom   12 type  1   force =     0.00000000    0.00000000    0.00000000
     atom   13 type  1   force =     0.00000000    0.00000000    0.00000000
     atom   14 type  1   force =     0.00000000    0.00000000    0.00000000
     atom   15 type  1   force =     0.00000000    0.00000000    0.00000000
     atom   16 type  1   force =     0.00000000    0.00000000    0.00000000
     atom   17 type  1   force =     0.00000000    0.00000000    0.00000000
     atom   18 type  1   force =     0.00000000    0.00000000    0.00000000
     atom   19 type  1   force =     0.00000000    0.00000000    0.00000000
     atom   20 type  1   force =     0.00000000    0.00000000    0.00000000
     atom   21 type  1   force =     0.00000000    0.00000000    0.00000000
     atom   22 type  1   force =     0.00000000    0.00000000    0.00000000
     atom   23 type  1   force =     0.00000000    0.00000000    0.00000000
     atom   24 type  1   force =     0.00000000    0.00000000    0.00000000
     atom   25 type  1   force =     0.00000000    0.00000000    0.00000000
     atom   26 type  1   force =     0.00000000    0.00000000    0.00000000
     atom   27 type  1   force =     0.00000000    0.00000000    0.00000000
     atom   28 type  1   force =     0.00000000    0.00000000    0.00000000
     atom   29 type  1   force =     0.00000000    0.00000000    0.00000000
     atom   30 type  1   force =     0.00000000    0.00000000    0.00000000
     atom   31 type  1   force =     0.00000000    0.00000000    0.00000000
     atom   32 type  1   force =     0.00000000    0.00000000    0.00000000
     atom   33 type  1   force =     0.00000000    0.00000000    0.00000000
     atom   34 type  1   force =     0.00000000    0.00000000    0.00000000
     atom   35 type  1   force =     0.00000000    0.00000000    0.00000000
     atom   36 type  1   force =     0.00000000    0.00000000    0.00000000
     atom   37 type  2   force =     0.00000000    0.00000000    0.00000000
     atom   38 type  3   force =     0.00000000    0.00000000    0.00000000
     atom   39 type  3   force =     0.00000000    0.00000000    0.00000000
     The SCF correction term to forces
     atom    1 type  1   force =     0.00000000   -0.00000000   -0.00000000
     atom    2 type  1   force =    -0.00000000   -0.00000000   -0.00000000
     atom    3 type  1   force =    -0.00000000   -0.00000000   -0.00000000
     atom    4 type  1   force =    -0.00000000   -0.00000000   -0.00000000
     atom    5 type  1   force =     0.00000000   -0.00000000   -0.00000000
     atom    6 type  1   force =     0.00000000   -0.00000000   -0.00000000
     atom    7 type  1   force =    -0.00000000    0.00000000   -0.00000000
     atom    8 type  1   force =     0.00000000    0.00000000   -0.00000000
     atom    9 type  1   force =    -0.00000000    0.00000000   -0.00000000
     atom   10 type  1   force =    -0.00000000   -0.00000000    0.00000000
     atom   11 type  1   force =     0.00000000   -0.00000000    0.00000000
     atom   12 type  1   force =     0.00000000   -0.00000000    0.00000000
     atom   13 type  1   force =    -0.00000000   -0.00000000    0.00000000
     atom   14 type  1   force =     0.00000000   -0.00000000    0.00000000
     atom   15 type  1   force =    -0.00000000   -0.00000000    0.00000000
     atom   16 type  1   force =     0.00000000    0.00000000    0.00000000
     atom   17 type  1   force =     0.00000000    0.00000000    0.00000000
     atom   18 type  1   force =    -0.00000000    0.00000000    0.00000000
     atom   19 type  1   force =    -0.00003610    0.00002412    0.00045189
     atom   20 type  1   force =    -0.00013699   -0.00012301    0.00055245
     atom   21 type  1   force =     0.00017594   -0.00004298    0.00048808
     atom   22 type  1   force =    -0.00019863   -0.00002330    0.00053134
     atom   23 type  1   force =     0.00007538    0.00006214    0.00061033
     atom   24 type  1   force =     0.00012668   -0.00003452    0.00048577
     atom   25 type  1   force =     0.00001039    0.00012912    0.00043718
     atom   26 type  1   force =     0.00003094    0.00007874    0.00045536
     atom   27 type  1   force =    -0.00003891   -0.00007453    0.00041310
     atom   28 type  1   force =     0.00004106    0.00006229    0.00048567
     atom   29 type  1   force =    -0.00006574   -0.00000724    0.00052458
     atom   30 type  1   force =     0.00002311    0.00002144    0.00052369
     atom   31 type  1   force =    -0.00007027   -0.00001579    0.00049279
     atom   32 type  1   force =    -0.00000081    0.00001429    0.00055679
     atom   33 type  1   force =     0.00006732    0.00001519    0.00047573
     atom   34 type  1   force =    -0.00000854   -0.00002506    0.00057190
     atom   35 type  1   force =     0.00004135    0.00000748    0.00054662
     atom   36 type  1   force =    -0.00003073   -0.00007400    0.00047829
     atom   37 type  2   force =     0.00008668   -0.00001539    0.00007852
     atom   38 type  3   force =     0.00000465   -0.00000615    0.00000206
     atom   39 type  3   force =     0.00000667    0.00000489    0.00001699

     Total force =     0.003362     Total SCF correction =     0.002199
     SCF correction compared to forces is large: reduce conv_thr to get better values

     Writing all to output data dir ./pwscf.save/

     init_run     :     11.08s CPU     11.42s WALL (       1 calls)
     electrons    :    518.93s CPU    550.89s WALL (       1 calls)
     forces       :      5.47s CPU      6.14s WALL (       1 calls)

     Called by init_run:
     wfcinit      :      6.05s CPU      6.24s WALL (       1 calls)
     potinit      :      3.23s CPU      3.31s WALL (       1 calls)
     hinit0       :      1.05s CPU      1.06s WALL (       1 calls)

     Called by electrons:
     c_bands      :    425.35s CPU    449.75s WALL (      20 calls)
     sum_band     :     54.41s CPU     55.51s WALL (      20 calls)
     v_of_rho     :     20.26s CPU     22.35s WALL (      20 calls)
     newd         :      6.06s CPU      6.95s WALL (      20 calls)
     PAW_pot      :      8.24s CPU      8.48s WALL (      20 calls)
     mix_rho      :      4.57s CPU      4.67s WALL (      20 calls)
     vdW_kernel   :      1.72s CPU      1.73s WALL (       1 calls)

     Called by c_bands:
     init_us_2    :      2.89s CPU      3.30s WALL (     546 calls)
     init_us_2:cp :      2.88s CPU      3.30s WALL (     546 calls)
     cegterg      :    416.53s CPU    439.14s WALL (     260 calls)

     Called by *egterg:
     cdiaghg      :     85.67s CPU     96.21s WALL (    1430 calls)
     h_psi        :    214.85s CPU    222.75s WALL (    1456 calls)
     s_psi        :     16.08s CPU     16.60s WALL (    1456 calls)
     g_psi        :      0.48s CPU      0.48s WALL (    1183 calls)

     Called by h_psi:
     h_psi:calbec :     27.24s CPU     28.94s WALL (    1456 calls)
     vloc_psi     :    169.96s CPU    174.61s WALL (    1456 calls)
     add_vuspsi   :     16.46s CPU     17.80s WALL (    1456 calls)

     General routines
     calbec       :     40.31s CPU     42.19s WALL (    1768 calls)
     fft          :     16.55s CPU     18.74s WALL (    1320 calls)
     ffts         :      2.91s CPU      2.95s WALL (    5420 calls)
     fftw         :    183.64s CPU    187.39s WALL (  339398 calls)
     interpolate  :      1.07s CPU      1.11s WALL (      20 calls)

     Parallel routines

     PWSCF        :   8m57.30s CPU   9m33.16s WALL


   This run was terminated on:  21:28:30   7Nov2025            

=------------------------------------------------------------------------------=
   JOB DONE.
=------------------------------------------------------------------------------=
