
     Program PWSCF v.7.1 starts on 14Dec2025 at  9:40:20 
        Git branch: heads/qe-7.1
        Last git commit: 48ba0178f8fede6d020eb786884699a9f063f55d-dirty
        Last git commit date: Fri Jan 27 14:22:33 2023 +0000
        Last git commit subject: Merge branch 'fix_hubbard' into 'develop'

     This program is part of the open-source Quantum ESPRESSO suite
     for quantum simulation of materials; please cite
         "P. Giannozzi et al., J. Phys.:Condens. Matter 21 395502 (2009);
         "P. Giannozzi et al., J. Phys.:Condens. Matter 29 465901 (2017);
         "P. Giannozzi et al., J. Chem. Phys. 152 154105 (2020);
          URL http://www.quantum-espresso.org", 
     in publications or presentations arising from this work. More details at
     http://www.quantum-espresso.org/quote

     Parallel version (MPI), running on    96 processors

     MPI processes distributed on     2 nodes
     109135 MiB available memory on the printing compute node when the environment starts

     Reading input from espresso.pwi
Warning: card &CELL ignored
Warning: card / ignored
Warning: card &FCP ignored
Warning: card / ignored
Warning: card &RISM ignored
Warning: card / ignored

     Current dimensions of program PWSCF are:
     Max number of different atomic species (ntypx) = 10
     Max number of k-points (npk) =  40000
     Max angular momentum in pseudopotentials (lmaxx) =  4
     file Co.pbe-n-kjpaw_psl.1.0.0.UPF: wavefunction(s)  4S 3D renormalized
     file C.pbe-n-kjpaw_psl.1.0.0.UPF: wavefunction(s)  2S 2P renormalized
     file O.pbe-nl-kjpaw_psl.1.0.0.UPF: wavefunction(s)  2S 2P renormalized
     file H.pbe-kjpaw_psl.1.0.0.UPF: wavefunction(s)  1S renormalized

     **************************************************************************
     Initializing libbeef V0.1.2 with the BEEF-vdW functional.
     Citation: Wellendorff et al., PRB 85, 235149 (2012).
     **************************************************************************


     IMPORTANT: XC functional enforced from input :
     Exchange-correlation= BEEF-VDW
                           (   1   4  43  14   2   0   0)
     Any further DFT definition will be discarded
     Please, verify this is what you really want


     R & G space division:  proc/nbgrp/npool/nimage =      96
     Subspace diagonalization in iterative solution of the eigenvalue problem:
     one sub-group per band group will be used
     custom distributed-memory algorithm (size of sub-group:  2*  2 procs)


     Parallelization info
     --------------------
     sticks:   dense  smooth     PW     G-vecs:    dense   smooth      PW
     Min          43      28      7                 7829     4248     595
     Max          44      29      8                 7845     4281     630
     Sum        4153    2773    757               752179   409445   59217

     Using Slab Decomposition



     bravais-lattice index     =            0
     lattice parameter (alat)  =      14.1729  a.u.
     unit-cell volume          =    8574.3059 (a.u.)^3
     number of atoms/cell      =           39
     number of atomic types    =            4
     number of electrons       =       335.00
     number of Kohn-Sham states=          202
     kinetic-energy cutoff     =      50.0000  Ry
     charge density cutoff     =     300.0000  Ry
     scf convergence threshold =      1.0E-08
     mixing beta               =       0.7000
     number of iterations used =            8  local-TF  mixing
     Exchange-correlation= BEEF-VDW
                           (   1   4  43  14   2   0   0)

     celldm(1)=  14.172946  celldm(2)=   0.000000  celldm(3)=   0.000000
     celldm(4)=   0.000000  celldm(5)=   0.000000  celldm(6)=   0.000000

     crystal axes: (cart. coord. in units of alat)
               a(1) = (   1.000000   0.000000   0.000000 )  
               a(2) = (   0.500000   0.866025   0.000000 )  
               a(3) = (   0.000000   0.000000   3.477667 )  

     reciprocal axes: (cart. coord. in units 2 pi/alat)
               b(1) = (  1.000000 -0.577350  0.000000 )  
               b(2) = (  0.000000  1.154701  0.000000 )  
               b(3) = (  0.000000  0.000000  0.287549 )  


     PseudoPot. # 1 for Co read from file:
     /users/kbadger1/espresso/pseudo/pslibrary.1.0.0/pbe/PSEUDOPOTENTIALS/Co.pbe-n-kjpaw_psl.1.0.0.UPF
     MD5 check sum: 88af6ec42553d4236c267fdfcb472151
     Pseudo is Projector augmented-wave + core cor, Zval =  9.0
     Generated using 'atomic' code by A. Dal Corso  v.7.0
     Shape of augmentation charge: PSQ
     Using radial grid of 1193 points,  6 beta functions with: 
                l(1) =   0
                l(2) =   0
                l(3) =   1
                l(4) =   1
                l(5) =   2
                l(6) =   2
     Q(r) pseudized with 0 coefficients 


     PseudoPot. # 2 for C  read from file:
     /users/kbadger1/espresso/pseudo/pslibrary.1.0.0/pbe/PSEUDOPOTENTIALS/C.pbe-n-kjpaw_psl.1.0.0.UPF
     MD5 check sum: 6408e75cdba28732cea38a4db8498ce4
     Pseudo is Projector augmented-wave + core cor, Zval =  4.0
     Generated using 'atomic' code by A. Dal Corso  v.7.0
     Shape of augmentation charge: PSQ
     Using radial grid of 1073 points,  4 beta functions with: 
                l(1) =   0
                l(2) =   0
                l(3) =   1
                l(4) =   1
     Q(r) pseudized with 0 coefficients 


     PseudoPot. # 3 for O  read from file:
     /users/kbadger1/espresso/pseudo/pslibrary.1.0.0/pbe/PSEUDOPOTENTIALS/O.pbe-nl-kjpaw_psl.1.0.0.UPF
     MD5 check sum: f0439fab3598ca4e468f064226030408
     Pseudo is Projector augmented-wave + core cor, Zval =  6.0
     Generated using 'atomic' code by A. Dal Corso  v.7.0
     Shape of augmentation charge: PSQ
     Using radial grid of 1095 points,  4 beta functions with: 
                l(1) =   0
                l(2) =   0
                l(3) =   1
                l(4) =   1
     Q(r) pseudized with 0 coefficients 


     PseudoPot. # 4 for H  read from file:
     /users/kbadger1/espresso/pseudo/pslibrary.1.0.0/pbe/PSEUDOPOTENTIALS/H.pbe-kjpaw_psl.1.0.0.UPF
     MD5 check sum: fe4c6fa958fa6d3815bf5d2419cbf1df
     Pseudo is Projector augmented-wave, Zval =  1.0
     Generated using 'atomic' code by A. Dal Corso  v.7.0
     Shape of augmentation charge: PSQ
     Using radial grid of  929 points,  2 beta functions with: 
                l(1) =   0
                l(2) =   0
     Q(r) pseudized with 0 coefficients 


     atomic species   valence    mass     pseudopotential
        Co             9.00    58.93319     Co( 1.00)
        C              4.00    12.01100     C ( 1.00)
        O              6.00    15.99900     O ( 1.00)
        H              1.00     1.00800     H ( 1.00)

     Starting magnetic structure 
     atomic species   magnetization
        Co           1.000
        C            1.000
        O            0.000
        H            0.000

     No symmetry found



   Cartesian axes

     site n.     atom                  positions (alat units)
         1           Co  tau(   1) = (   0.0000000   0.1924501   1.3333333  )
         2           Co  tau(   2) = (   0.3333333   0.1924501   1.3333333  )
         3           Co  tau(   3) = (   0.6666667   0.1924501   1.3333333  )
         4           Co  tau(   4) = (   0.1666667   0.4811252   1.3333333  )
         5           Co  tau(   5) = (   0.5000000   0.4811252   1.3333333  )
         6           Co  tau(   6) = (   0.8333333   0.4811252   1.3333333  )
         7           Co  tau(   7) = (   0.3333333   0.7698004   1.3333333  )
         8           Co  tau(   8) = (   0.6666667   0.7698004   1.3333333  )
         9           Co  tau(   9) = (   1.0000000   0.7698004   1.3333333  )
        10           Co  tau(  10) = (   0.0000000   0.0000000   1.6036667  )
        11           Co  tau(  11) = (   0.3333333   0.0000000   1.6036667  )
        12           Co  tau(  12) = (   0.6666667   0.0000000   1.6036667  )
        13           Co  tau(  13) = (   0.1666667   0.2886751   1.6036667  )
        14           Co  tau(  14) = (   0.5000000   0.2886751   1.6036667  )
        15           Co  tau(  15) = (   0.8333333   0.2886751   1.6036667  )
        16           Co  tau(  16) = (   0.3333333   0.5773503   1.6036667  )
        17           Co  tau(  17) = (   0.6666667   0.5773503   1.6036667  )
        18           Co  tau(  18) = (   1.0000000   0.5773503   1.6036667  )
        19           Co  tau(  19) = (   0.0000000   0.1924501   1.8740000  )
        20           Co  tau(  20) = (   0.3333333   0.1924501   1.8740000  )
        21           Co  tau(  21) = (   0.6666667   0.1924501   1.8740000  )
        22           Co  tau(  22) = (   0.1666667   0.4811252   1.8740000  )
        23           Co  tau(  23) = (   0.5000000   0.4811252   1.8740000  )
        24           Co  tau(  24) = (   0.8333333   0.4811252   1.8740000  )
        25           Co  tau(  25) = (   0.3333333   0.7698004   1.8740000  )
        26           Co  tau(  26) = (   0.6666667   0.7698004   1.8740000  )
        27           Co  tau(  27) = (   1.0000000   0.7698004   1.8740000  )
        28           Co  tau(  28) = (   0.0000000   0.0000000   2.1443333  )
        29           Co  tau(  29) = (   0.3333333   0.0000000   2.1443333  )
        30           Co  tau(  30) = (   0.6666667   0.0000000   2.1443333  )
        31           Co  tau(  31) = (   0.1666667   0.2886751   2.1443333  )
        32           Co  tau(  32) = (   0.5000000   0.2886751   2.1443333  )
        33           Co  tau(  33) = (   0.8333333   0.2886751   2.1443333  )
        34           Co  tau(  34) = (   0.3333333   0.5773503   2.1443333  )
        35           Co  tau(  35) = (   0.6666667   0.5773503   2.1443333  )
        36           Co  tau(  36) = (   1.0000000   0.5773503   2.1443333  )
        37           C   tau(  37) = (   0.2268833  -0.0195465   2.3683990  )
        38           O   tau(  38) = (   0.0662247  -0.0400699   2.4148338  )
        39           H   tau(  39) = (   0.3266809  -0.0066425   2.4755208  )

     number of k points=    13  Marzari-Vanderbilt smearing, width (Ry)=  0.0010
                       cart. coord. in units 2pi/alat
        k(    1) = (   0.0000000   0.0000000   0.0000000), wk =   0.0400000
        k(    2) = (   0.0000000   0.2309401   0.0000000), wk =   0.0800000
        k(    3) = (   0.0000000   0.4618802   0.0000000), wk =   0.0800000
        k(    4) = (   0.2000000  -0.1154701   0.0000000), wk =   0.0800000
        k(    5) = (   0.2000000   0.1154701   0.0000000), wk =   0.0800000
        k(    6) = (   0.2000000   0.3464102   0.0000000), wk =   0.0800000
        k(    7) = (   0.2000000  -0.5773503   0.0000000), wk =   0.0800000
        k(    8) = (   0.2000000  -0.3464102   0.0000000), wk =   0.0800000
        k(    9) = (   0.4000000  -0.2309401   0.0000000), wk =   0.0800000
        k(   10) = (   0.4000000   0.0000000   0.0000000), wk =   0.0800000
        k(   11) = (   0.4000000   0.2309401   0.0000000), wk =   0.0800000
        k(   12) = (   0.4000000  -0.6928203   0.0000000), wk =   0.0800000
        k(   13) = (   0.4000000  -0.4618802   0.0000000), wk =   0.0800000

     Dense  grid:   752179 G-vectors     FFT dimensions: (  80,  80, 288)

     Smooth grid:   409445 G-vectors     FFT dimensions: (  64,  64, 225)

     Estimated max dynamical RAM per process >      99.02 MB

     Estimated total dynamical RAM >       9.28 GB
     Generating pointlists ...
     new r_m :   0.1026 (alat units)  1.4548 (a.u.) for type    1
     new r_m :   0.0606 (alat units)  0.8593 (a.u.) for type    2
     new r_m :   0.0695 (alat units)  0.9850 (a.u.) for type    3
     new r_m :   0.0606 (alat units)  0.8593 (a.u.) for type    4

     Initial potential from superposition of free atoms

     starting charge     334.9897, renormalised to     335.0000

     negative rho (up, down):  2.996E-03 4.703E-04


     %%%%%%%%%%%%%%%%%%%%%%%%%%%%%%%%%%%%%%%%%%%%%%%%%%%%%%%%%%%%%%%%%%%%%%%%
     %                                                                      %
     % You are using vdW-DF, which was implemented by the Thonhauser group. %
     % Please cite the following two papers that made this development      %
     % possible and the two reviews that describe the various versions:     %
     %                                                                      %
     %   T. Thonhauser et al., PRL 115, 136402 (2015).                      %
     %   T. Thonhauser et al., PRB 76, 125112 (2007).                       %
     %   K. Berland et al., Rep. Prog. Phys. 78, 066501 (2015).             %
     %   D.C. Langreth et al., J. Phys.: Condens. Matter 21, 084203 (2009). %
     %                                                                      %
     % If you are calculating stress with vdW-DF, please also cite:         %
     %                                                                      %
     %   R. Sabatini et al., J. Phys.: Condens. Matter 24, 424209 (2012).   %
     %   C.M. Frostenson et al., Electr. Struct. 4, 014001 (2022).          %
     %                                                                      %
     %%%%%%%%%%%%%%%%%%%%%%%%%%%%%%%%%%%%%%%%%%%%%%%%%%%%%%%%%%%%%%%%%%%%%%%%

     %%%%%%%%%%%%%%%%%%%%%%%%%%%%%%%%%%%%%%%%%%%%%%%%%%%%%%%%%%%%%%%%%%%%%%%%
     %                                                                      %
     %  vdW-DF NEWS:                                                        %
     %                                                                      %
     %  * vdW-DF3 is now available. DOI: 10.1021/acs.jctc.0c00471           %
     %    use with input_dft = 'vdW-DF3-opt1' or 'vdW-DF3-opt2'             %
     %                                                                      %
     %  * Unscreened and range-separated hybrid vdW-DF-cx functionals       %
     %    DOI: 10.1063/1.4986522 and 10.1088/1361-648X/ac2ad2               %
     %    use with input_dft = 'vdW-DF-cx0'    and 'vdW-DF-ahcx'            %
     %  * Unscreened and range-separated hybrid vdW-DF2-b86r functionals    %
     %    DOI: 10.1063/1.4986522 and DOI: 10.1103/PhysRevX.12.041003        %
     %    use with input_dft = 'vdW-DF2-br0' and 'vdW-DF2-ahbr'             %
     %                                                                      %
     %%%%%%%%%%%%%%%%%%%%%%%%%%%%%%%%%%%%%%%%%%%%%%%%%%%%%%%%%%%%%%%%%%%%%%%%


     Starting wfcs are  333 randomized atomic wfcs
     Checking if some PAW data can be deallocated... 

     total cpu time spent up to now is       16.5 secs

     per-process dynamical memory:   231.0 Mb

     Self-consistent Calculation

     iteration #  1     ecut=    50.00 Ry     beta= 0.70
     Davidson diagonalization with overlap
     ethr =  1.00E-02,  avg # of iterations =  2.0

     negative rho (up, down):  2.227E-05 6.127E-08

     total cpu time spent up to now is       33.7 secs

     total energy              =   -6053.06627510 Ry
     estimated scf accuracy    <      39.77240680 Ry

     total magnetization       =    69.00 Bohr mag/cell
     absolute magnetization    =    81.17 Bohr mag/cell

     iteration #  2     ecut=    50.00 Ry     beta= 0.70
     Davidson diagonalization with overlap
     ethr =  1.00E-02,  avg # of iterations =  1.0

     negative rho (up, down):  2.433E-06 5.725E-09

     total cpu time spent up to now is       51.6 secs

     total energy              =   -6052.47569665 Ry
     estimated scf accuracy    <      25.29925761 Ry

     total magnetization       =    68.84 Bohr mag/cell
     absolute magnetization    =    76.71 Bohr mag/cell

     iteration #  3     ecut=    50.00 Ry     beta= 0.70
     Davidson diagonalization with overlap
     ethr =  7.55E-03,  avg # of iterations =  1.0

     negative rho (up, down):  1.359E-08 0.000E+00

     total cpu time spent up to now is       65.0 secs

     total energy              =   -6055.14689221 Ry
     estimated scf accuracy    <      85.12514661 Ry

     total magnetization       =    66.10 Bohr mag/cell
     absolute magnetization    =    73.24 Bohr mag/cell

     iteration #  4     ecut=    50.00 Ry     beta= 0.70
     Davidson diagonalization with overlap
     ethr =  7.55E-03,  avg # of iterations =  1.0

     total cpu time spent up to now is       83.0 secs

     total energy              =   -6056.33875193 Ry
     estimated scf accuracy    <       5.69887516 Ry

     total magnetization       =    60.64 Bohr mag/cell
     absolute magnetization    =    70.45 Bohr mag/cell

     iteration #  5     ecut=    50.00 Ry     beta= 0.70
     Davidson diagonalization with overlap
     ethr =  1.70E-03,  avg # of iterations =  1.1

     total cpu time spent up to now is       96.1 secs

     total energy              =   -6056.37998968 Ry
     estimated scf accuracy    <       3.31101560 Ry

     total magnetization       =    60.39 Bohr mag/cell
     absolute magnetization    =    69.80 Bohr mag/cell

     iteration #  6     ecut=    50.00 Ry     beta= 0.70
     Davidson diagonalization with overlap
     ethr =  9.88E-04,  avg # of iterations =  1.5

     total cpu time spent up to now is      114.4 secs

     total energy              =   -6056.48140380 Ry
     estimated scf accuracy    <       0.53635067 Ry

     total magnetization       =    60.44 Bohr mag/cell
     absolute magnetization    =    69.63 Bohr mag/cell

     iteration #  7     ecut=    50.00 Ry     beta= 0.70
     Davidson diagonalization with overlap
     ethr =  1.60E-04,  avg # of iterations =  6.0

     total cpu time spent up to now is      137.9 secs

     total energy              =   -6056.51428428 Ry
     estimated scf accuracy    <       0.69078916 Ry

     total magnetization       =    60.66 Bohr mag/cell
     absolute magnetization    =    69.42 Bohr mag/cell

     iteration #  8     ecut=    50.00 Ry     beta= 0.70
     Davidson diagonalization with overlap
     ethr =  1.60E-04,  avg # of iterations =  2.2

     total cpu time spent up to now is      152.5 secs

     total energy              =   -6056.52893740 Ry
     estimated scf accuracy    <       0.17066916 Ry

     total magnetization       =    60.81 Bohr mag/cell
     absolute magnetization    =    69.36 Bohr mag/cell

     iteration #  9     ecut=    50.00 Ry     beta= 0.70
     Davidson diagonalization with overlap
     c_bands:  3 eigenvalues not converged
     ethr =  5.09E-05,  avg # of iterations =  8.4

     total cpu time spent up to now is      177.4 secs

     total energy              =   -6056.54005727 Ry
     estimated scf accuracy    <       0.18163617 Ry

     total magnetization       =    61.20 Bohr mag/cell
     absolute magnetization    =    69.41 Bohr mag/cell

     iteration # 10     ecut=    50.00 Ry     beta= 0.70
     Davidson diagonalization with overlap
     ethr =  5.09E-05,  avg # of iterations =  2.6

     total cpu time spent up to now is      197.3 secs

     total energy              =   -6056.53912703 Ry
     estimated scf accuracy    <       0.17806673 Ry

     total magnetization       =    61.32 Bohr mag/cell
     absolute magnetization    =    69.32 Bohr mag/cell

     iteration # 11     ecut=    50.00 Ry     beta= 0.70
     Davidson diagonalization with overlap
     ethr =  5.09E-05,  avg # of iterations =  1.5

     total cpu time spent up to now is      211.1 secs

     total energy              =   -6056.53645588 Ry
     estimated scf accuracy    <       0.09792336 Ry

     total magnetization       =    61.34 Bohr mag/cell
     absolute magnetization    =    69.19 Bohr mag/cell

     iteration # 12     ecut=    50.00 Ry     beta= 0.70
     Davidson diagonalization with overlap
     c_bands:  4 eigenvalues not converged
     ethr =  2.92E-05,  avg # of iterations =  3.5

     negative rho (up, down):  1.489E-06 0.000E+00

     total cpu time spent up to now is      231.0 secs

     total energy              =   -6056.53796902 Ry
     estimated scf accuracy    <       0.08004595 Ry

     total magnetization       =    61.32 Bohr mag/cell
     absolute magnetization    =    69.03 Bohr mag/cell

     iteration # 13     ecut=    50.00 Ry     beta= 0.70
     Davidson diagonalization with overlap
     ethr =  2.39E-05,  avg # of iterations =  3.0

     total cpu time spent up to now is      246.6 secs

     total energy              =   -6056.53605128 Ry
     estimated scf accuracy    <       0.08782974 Ry

     total magnetization       =    61.34 Bohr mag/cell
     absolute magnetization    =    68.97 Bohr mag/cell

     iteration # 14     ecut=    50.00 Ry     beta= 0.70
     Davidson diagonalization with overlap
     ethr =  2.39E-05,  avg # of iterations =  1.7

     negative rho (up, down):  6.415E-03 5.151E-03

     total cpu time spent up to now is      265.2 secs

     total energy              =   -6056.52968903 Ry
     estimated scf accuracy    <       0.06139072 Ry

     total magnetization       =    61.33 Bohr mag/cell
     absolute magnetization    =    68.99 Bohr mag/cell

     iteration # 15     ecut=    50.00 Ry     beta= 0.70
     Davidson diagonalization with overlap
     ethr =  1.83E-05,  avg # of iterations =  3.3

     negative rho (up, down):  1.199E-02 1.047E-02

     total cpu time spent up to now is      285.6 secs

     total energy              =   -6056.52808606 Ry
     estimated scf accuracy    <       0.05955000 Ry

     total magnetization       =    61.33 Bohr mag/cell
     absolute magnetization    =    68.94 Bohr mag/cell

     iteration # 16     ecut=    50.00 Ry     beta= 0.70
     Davidson diagonalization with overlap
     ethr =  1.78E-05,  avg # of iterations =  2.0

     negative rho (up, down):  2.589E-02 2.414E-02

     total cpu time spent up to now is      300.7 secs

     total energy              =   -6056.52579209 Ry
     estimated scf accuracy    <       0.02685309 Ry

     total magnetization       =    61.33 Bohr mag/cell
     absolute magnetization    =    68.91 Bohr mag/cell

     iteration # 17     ecut=    50.00 Ry     beta= 0.70
     Davidson diagonalization with overlap
     c_bands:  3 eigenvalues not converged
     c_bands:  2 eigenvalues not converged
     c_bands:  2 eigenvalues not converged
     c_bands:  1 eigenvalues not converged
     c_bands:  3 eigenvalues not converged
     ethr =  8.02E-06,  avg # of iterations =  8.1

     negative rho (up, down):  1.984E-02 1.822E-02

     total cpu time spent up to now is      325.4 secs

     total energy              =   -6056.52638652 Ry
     estimated scf accuracy    <       0.02954624 Ry

     total magnetization       =    61.33 Bohr mag/cell
     absolute magnetization    =    68.89 Bohr mag/cell

     iteration # 18     ecut=    50.00 Ry     beta= 0.70
     Davidson diagonalization with overlap
     ethr =  8.02E-06,  avg # of iterations =  1.4

     negative rho (up, down):  1.501E-02 1.356E-02

     total cpu time spent up to now is      339.0 secs

     total energy              =   -6056.52580148 Ry
     estimated scf accuracy    <       0.01135105 Ry

     total magnetization       =    61.33 Bohr mag/cell
     absolute magnetization    =    68.88 Bohr mag/cell

     iteration # 19     ecut=    50.00 Ry     beta= 0.70
     Davidson diagonalization with overlap
     c_bands:  1 eigenvalues not converged
     c_bands:  1 eigenvalues not converged
     ethr =  3.39E-06,  avg # of iterations =  5.5

     negative rho (up, down):  1.931E-02 1.779E-02

     total cpu time spent up to now is      362.0 secs

     total energy              =   -6056.52453977 Ry
     estimated scf accuracy    <       0.01321495 Ry

     total magnetization       =    61.33 Bohr mag/cell
     absolute magnetization    =    68.88 Bohr mag/cell

     iteration # 20     ecut=    50.00 Ry     beta= 0.70
     Davidson diagonalization with overlap
     ethr =  3.39E-06,  avg # of iterations =  2.1

     negative rho (up, down):  1.295E-02 1.205E-02

     total cpu time spent up to now is      380.5 secs

     total energy              =   -6056.52291168 Ry
     estimated scf accuracy    <       0.01337018 Ry

     total magnetization       =    61.33 Bohr mag/cell
     absolute magnetization    =    68.86 Bohr mag/cell

     iteration # 21     ecut=    50.00 Ry     beta= 0.70
     Davidson diagonalization with overlap
     ethr =  3.39E-06,  avg # of iterations =  1.7

     negative rho (up, down):  1.683E-02 1.581E-02

     total cpu time spent up to now is      394.6 secs

     total energy              =   -6056.52303433 Ry
     estimated scf accuracy    <       0.01612270 Ry

     total magnetization       =    61.33 Bohr mag/cell
     absolute magnetization    =    68.85 Bohr mag/cell

     iteration # 22     ecut=    50.00 Ry     beta= 0.70
     Davidson diagonalization with overlap
     ethr =  3.39E-06,  avg # of iterations =  1.1

     negative rho (up, down):  1.633E-02 1.545E-02

     total cpu time spent up to now is      412.5 secs

     total energy              =   -6056.52333891 Ry
     estimated scf accuracy    <       0.00474144 Ry

     total magnetization       =    61.33 Bohr mag/cell
     absolute magnetization    =    68.85 Bohr mag/cell

     iteration # 23     ecut=    50.00 Ry     beta= 0.70
     Davidson diagonalization with overlap
     ethr =  1.42E-06,  avg # of iterations =  1.8

     negative rho (up, down):  1.197E-02 1.124E-02

     total cpu time spent up to now is      427.5 secs

     total energy              =   -6056.52340143 Ry
     estimated scf accuracy    <       0.00167762 Ry

     total magnetization       =    61.33 Bohr mag/cell
     absolute magnetization    =    68.85 Bohr mag/cell

     iteration # 24     ecut=    50.00 Ry     beta= 0.70
     Davidson diagonalization with overlap
     ethr =  5.01E-07,  avg # of iterations =  4.2

     negative rho (up, down):  7.424E-03 6.662E-03

     total cpu time spent up to now is      448.6 secs

     total energy              =   -6056.52334663 Ry
     estimated scf accuracy    <       0.00239163 Ry

     total magnetization       =    61.33 Bohr mag/cell
     absolute magnetization    =    68.86 Bohr mag/cell

     iteration # 25     ecut=    50.00 Ry     beta= 0.70
     Davidson diagonalization with overlap
     ethr =  5.01E-07,  avg # of iterations =  1.6

     negative rho (up, down):  6.076E-03 5.321E-03

     total cpu time spent up to now is      467.3 secs

     total energy              =   -6056.52351476 Ry
     estimated scf accuracy    <       0.00051397 Ry

     total magnetization       =    61.33 Bohr mag/cell
     absolute magnetization    =    68.86 Bohr mag/cell

     iteration # 26     ecut=    50.00 Ry     beta= 0.70
     Davidson diagonalization with overlap
     ethr =  1.53E-07,  avg # of iterations =  3.8

     negative rho (up, down):  4.930E-03 4.107E-03

     total cpu time spent up to now is      484.4 secs

     total energy              =   -6056.52358748 Ry
     estimated scf accuracy    <       0.00094439 Ry

     total magnetization       =    61.33 Bohr mag/cell
     absolute magnetization    =    68.85 Bohr mag/cell

     iteration # 27     ecut=    50.00 Ry     beta= 0.70
     Davidson diagonalization with overlap
     ethr =  1.53E-07,  avg # of iterations =  1.6

     negative rho (up, down):  4.967E-03 4.158E-03

     total cpu time spent up to now is      502.8 secs

     total energy              =   -6056.52359742 Ry
     estimated scf accuracy    <       0.00083781 Ry

     total magnetization       =    61.33 Bohr mag/cell
     absolute magnetization    =    68.85 Bohr mag/cell

     iteration # 28     ecut=    50.00 Ry     beta= 0.70
     Davidson diagonalization with overlap
     ethr =  1.53E-07,  avg # of iterations =  1.0

     negative rho (up, down):  4.280E-03 3.448E-03

     total cpu time spent up to now is      516.0 secs

     total energy              =   -6056.52359185 Ry
     estimated scf accuracy    <       0.00019625 Ry

     total magnetization       =    61.33 Bohr mag/cell
     absolute magnetization    =    68.85 Bohr mag/cell

     iteration # 29     ecut=    50.00 Ry     beta= 0.70
     Davidson diagonalization with overlap
     ethr =  5.86E-08,  avg # of iterations =  2.0

     negative rho (up, down):  3.413E-03 2.427E-03

     total cpu time spent up to now is      534.7 secs

     total energy              =   -6056.52362218 Ry
     estimated scf accuracy    <       0.00010035 Ry

     total magnetization       =    61.33 Bohr mag/cell
     absolute magnetization    =    68.85 Bohr mag/cell

     iteration # 30     ecut=    50.00 Ry     beta= 0.70
     Davidson diagonalization with overlap
     ethr =  3.00E-08,  avg # of iterations =  2.9

     negative rho (up, down):  3.397E-03 2.347E-03

     total cpu time spent up to now is      555.6 secs

     total energy              =   -6056.52363362 Ry
     estimated scf accuracy    <       0.00017681 Ry

     total magnetization       =    61.33 Bohr mag/cell
     absolute magnetization    =    68.85 Bohr mag/cell

     iteration # 31     ecut=    50.00 Ry     beta= 0.70
     Davidson diagonalization with overlap
     ethr =  3.00E-08,  avg # of iterations =  1.6

     negative rho (up, down):  3.415E-03 2.363E-03

     total cpu time spent up to now is      569.7 secs

     total energy              =   -6056.52363853 Ry
     estimated scf accuracy    <       0.00003463 Ry

     total magnetization       =    61.33 Bohr mag/cell
     absolute magnetization    =    68.85 Bohr mag/cell

     iteration # 32     ecut=    50.00 Ry     beta= 0.70
     Davidson diagonalization with overlap
     ethr =  1.03E-08,  avg # of iterations =  5.0

     negative rho (up, down):  3.273E-03 2.217E-03

     total cpu time spent up to now is      591.1 secs

     total energy              =   -6056.52363585 Ry
     estimated scf accuracy    <       0.00004841 Ry

     total magnetization       =    61.33 Bohr mag/cell
     absolute magnetization    =    68.85 Bohr mag/cell

     iteration # 33     ecut=    50.00 Ry     beta= 0.70
     Davidson diagonalization with overlap
     ethr =  1.03E-08,  avg # of iterations =  1.5

     negative rho (up, down):  2.619E-03 1.495E-03

     total cpu time spent up to now is      606.0 secs

     total energy              =   -6056.52363371 Ry
     estimated scf accuracy    <       0.00002164 Ry

     total magnetization       =    61.33 Bohr mag/cell
     absolute magnetization    =    68.85 Bohr mag/cell

     iteration # 34     ecut=    50.00 Ry     beta= 0.70
     Davidson diagonalization with overlap
     ethr =  6.46E-09,  avg # of iterations =  2.0

     negative rho (up, down):  2.820E-03 1.732E-03

     total cpu time spent up to now is      625.4 secs

     total energy              =   -6056.52363512 Ry
     estimated scf accuracy    <       0.00001424 Ry

     total magnetization       =    61.33 Bohr mag/cell
     absolute magnetization    =    68.85 Bohr mag/cell

     iteration # 35     ecut=    50.00 Ry     beta= 0.70
     Davidson diagonalization with overlap
     ethr =  4.25E-09,  avg # of iterations =  2.0

     negative rho (up, down):  2.582E-03 1.516E-03

     total cpu time spent up to now is      642.6 secs

     total energy              =   -6056.52363517 Ry
     estimated scf accuracy    <       0.00003432 Ry

     total magnetization       =    61.33 Bohr mag/cell
     absolute magnetization    =    68.85 Bohr mag/cell

     iteration # 36     ecut=    50.00 Ry     beta= 0.70
     Davidson diagonalization with overlap
     ethr =  4.25E-09,  avg # of iterations =  2.1

     negative rho (up, down):  2.689E-03 1.646E-03

     total cpu time spent up to now is      658.9 secs

     total energy              =   -6056.52363617 Ry
     estimated scf accuracy    <       0.00001233 Ry

     total magnetization       =    61.33 Bohr mag/cell
     absolute magnetization    =    68.85 Bohr mag/cell

     iteration # 37     ecut=    50.00 Ry     beta= 0.70
     Davidson diagonalization with overlap
     ethr =  3.68E-09,  avg # of iterations =  1.6

     negative rho (up, down):  2.505E-03 1.405E-03

     total cpu time spent up to now is      678.5 secs

     total energy              =   -6056.52363531 Ry
     estimated scf accuracy    <       0.00000864 Ry

     total magnetization       =    61.33 Bohr mag/cell
     absolute magnetization    =    68.85 Bohr mag/cell

     iteration # 38     ecut=    50.00 Ry     beta= 0.70
     Davidson diagonalization with overlap
     ethr =  2.58E-09,  avg # of iterations =  1.7

     negative rho (up, down):  2.419E-03 1.337E-03

     total cpu time spent up to now is      692.8 secs

     total energy              =   -6056.52363509 Ry
     estimated scf accuracy    <       0.00001834 Ry

     total magnetization       =    61.33 Bohr mag/cell
     absolute magnetization    =    68.85 Bohr mag/cell

     iteration # 39     ecut=    50.00 Ry     beta= 0.70
     Davidson diagonalization with overlap
     ethr =  2.58E-09,  avg # of iterations =  1.3

     negative rho (up, down):  2.406E-03 1.321E-03

     total cpu time spent up to now is      710.8 secs

     total energy              =   -6056.52363575 Ry
     estimated scf accuracy    <       0.00000557 Ry

     total magnetization       =    61.33 Bohr mag/cell
     absolute magnetization    =    68.85 Bohr mag/cell

     iteration # 40     ecut=    50.00 Ry     beta= 0.70
     Davidson diagonalization with overlap
     ethr =  1.66E-09,  avg # of iterations =  2.3

     negative rho (up, down):  2.393E-03 1.310E-03

     total cpu time spent up to now is      726.4 secs

     total energy              =   -6056.52363565 Ry
     estimated scf accuracy    <       0.00000622 Ry

     total magnetization       =    61.33 Bohr mag/cell
     absolute magnetization    =    68.85 Bohr mag/cell

     iteration # 41     ecut=    50.00 Ry     beta= 0.70
     Davidson diagonalization with overlap
     ethr =  1.66E-09,  avg # of iterations =  1.2

     negative rho (up, down):  2.401E-03 1.304E-03

     total cpu time spent up to now is      744.5 secs

     total energy              =   -6056.52363615 Ry
     estimated scf accuracy    <       0.00000165 Ry

     total magnetization       =    61.33 Bohr mag/cell
     absolute magnetization    =    68.85 Bohr mag/cell

     iteration # 42     ecut=    50.00 Ry     beta= 0.70
     Davidson diagonalization with overlap
     ethr =  4.92E-10,  avg # of iterations =  4.3

     negative rho (up, down):  2.313E-03 1.214E-03

     total cpu time spent up to now is      765.7 secs

     total energy              =   -6056.52363612 Ry
     estimated scf accuracy    <       0.00000379 Ry

     total magnetization       =    61.33 Bohr mag/cell
     absolute magnetization    =    68.85 Bohr mag/cell

     iteration # 43     ecut=    50.00 Ry     beta= 0.70
     Davidson diagonalization with overlap
     ethr =  4.92E-10,  avg # of iterations =  1.4

     negative rho (up, down):  2.280E-03 1.179E-03

     total cpu time spent up to now is      779.4 secs

     total energy              =   -6056.52363624 Ry
     estimated scf accuracy    <       0.00000112 Ry

     total magnetization       =    61.33 Bohr mag/cell
     absolute magnetization    =    68.85 Bohr mag/cell

     iteration # 44     ecut=    50.00 Ry     beta= 0.70
     Davidson diagonalization with overlap
     ethr =  3.35E-10,  avg # of iterations =  1.4

     negative rho (up, down):  2.275E-03 1.176E-03

     total cpu time spent up to now is      798.6 secs

     total energy              =   -6056.52363622 Ry
     estimated scf accuracy    <       0.00000076 Ry

     total magnetization       =    61.33 Bohr mag/cell
     absolute magnetization    =    68.85 Bohr mag/cell

     iteration # 45     ecut=    50.00 Ry     beta= 0.70
     Davidson diagonalization with overlap
     ethr =  2.26E-10,  avg # of iterations =  2.3

     negative rho (up, down):  2.249E-03 1.149E-03

     total cpu time spent up to now is      813.3 secs

     total energy              =   -6056.52363615 Ry
     estimated scf accuracy    <       0.00000200 Ry

     total magnetization       =    61.33 Bohr mag/cell
     absolute magnetization    =    68.85 Bohr mag/cell

     iteration # 46     ecut=    50.00 Ry     beta= 0.70
     Davidson diagonalization with overlap
     ethr =  2.26E-10,  avg # of iterations =  1.3

     negative rho (up, down):  2.249E-03 1.149E-03

     total cpu time spent up to now is      831.8 secs

     total energy              =   -6056.52363625 Ry
     estimated scf accuracy    <       0.00000034 Ry

     total magnetization       =    61.33 Bohr mag/cell
     absolute magnetization    =    68.85 Bohr mag/cell

     iteration # 47     ecut=    50.00 Ry     beta= 0.70
     Davidson diagonalization with overlap
     ethr =  1.02E-10,  avg # of iterations =  2.7

     negative rho (up, down):  2.220E-03 1.120E-03

     total cpu time spent up to now is      847.7 secs

     total energy              =   -6056.52363621 Ry
     estimated scf accuracy    <       0.00000043 Ry

     total magnetization       =    61.33 Bohr mag/cell
     absolute magnetization    =    68.85 Bohr mag/cell

     iteration # 48     ecut=    50.00 Ry     beta= 0.70
     Davidson diagonalization with overlap
     ethr =  1.02E-10,  avg # of iterations =  1.4

     negative rho (up, down):  2.206E-03 1.107E-03

     total cpu time spent up to now is      866.1 secs

     total energy              =   -6056.52363620 Ry
     estimated scf accuracy    <       0.00000020 Ry

     total magnetization       =    61.33 Bohr mag/cell
     absolute magnetization    =    68.85 Bohr mag/cell

     iteration # 49     ecut=    50.00 Ry     beta= 0.70
     Davidson diagonalization with overlap
     ethr =  5.82E-11,  avg # of iterations =  2.7

     negative rho (up, down):  2.214E-03 1.114E-03

     total cpu time spent up to now is      886.0 secs

     total energy              =   -6056.52363621 Ry
     estimated scf accuracy    <       0.00000016 Ry

     total magnetization       =    61.33 Bohr mag/cell
     absolute magnetization    =    68.85 Bohr mag/cell

     iteration # 50     ecut=    50.00 Ry     beta= 0.70
     Davidson diagonalization with overlap
     ethr =  4.73E-11,  avg # of iterations =  1.4

     negative rho (up, down):  2.195E-03 1.095E-03

     total cpu time spent up to now is      899.6 secs

     total energy              =   -6056.52363618 Ry
     estimated scf accuracy    <       0.00000010 Ry

     total magnetization       =    61.33 Bohr mag/cell
     absolute magnetization    =    68.85 Bohr mag/cell

     iteration # 51     ecut=    50.00 Ry     beta= 0.70
     Davidson diagonalization with overlap
     ethr =  3.00E-11,  avg # of iterations =  3.1

     negative rho (up, down):  2.197E-03 1.098E-03

     total cpu time spent up to now is      920.7 secs

     total energy              =   -6056.52363619 Ry
     estimated scf accuracy    <       0.00000003 Ry

     total magnetization       =    61.33 Bohr mag/cell
     absolute magnetization    =    68.85 Bohr mag/cell

     iteration # 52     ecut=    50.00 Ry     beta= 0.70
     Davidson diagonalization with overlap
     ethr =  9.50E-12,  avg # of iterations =  5.1

     negative rho (up, down):  2.199E-03 1.099E-03

     total cpu time spent up to now is      938.1 secs

     total energy              =   -6056.52363619 Ry
     estimated scf accuracy    <       0.00000002 Ry

     total magnetization       =    61.33 Bohr mag/cell
     absolute magnetization    =    68.85 Bohr mag/cell

     iteration # 53     ecut=    50.00 Ry     beta= 0.70
     Davidson diagonalization with overlap
     ethr =  6.51E-12,  avg # of iterations =  2.0

     negative rho (up, down):  2.201E-03 1.101E-03

     total cpu time spent up to now is      956.7 secs

     total energy              =   -6056.52363620 Ry
     estimated scf accuracy    <       0.00000001 Ry

     total magnetization       =    61.33 Bohr mag/cell
     absolute magnetization    =    68.85 Bohr mag/cell

     iteration # 54     ecut=    50.00 Ry     beta= 0.70
     Davidson diagonalization with overlap
     ethr =  4.34E-12,  avg # of iterations =  2.0

     negative rho (up, down):  2.220E-03 1.119E-03

     Magnetic moment per site  (integrated on atomic sphere of radius R)
     atom   1 (R=0.103)  charge=  6.2293  magn=  1.7653
     atom   2 (R=0.103)  charge=  6.2291  magn=  1.7679
     atom   3 (R=0.103)  charge=  6.2289  magn=  1.7698
     atom   4 (R=0.103)  charge=  6.2294  magn=  1.7720
     atom   5 (R=0.103)  charge=  6.2289  magn=  1.7711
     atom   6 (R=0.103)  charge=  6.2293  magn=  1.7707
     atom   7 (R=0.103)  charge=  6.2290  magn=  1.7712
     atom   8 (R=0.103)  charge=  6.2294  magn=  1.7639
     atom   9 (R=0.103)  charge=  6.2295  magn=  1.7662
     atom  10 (R=0.103)  charge=  6.2351  magn=  1.7071
     atom  11 (R=0.103)  charge=  6.2354  magn=  1.6870
     atom  12 (R=0.103)  charge=  6.2357  magn=  1.7030
     atom  13 (R=0.103)  charge=  6.2349  magn=  1.7019
     atom  14 (R=0.103)  charge=  6.2361  magn=  1.6953
     atom  15 (R=0.103)  charge=  6.2353  magn=  1.6934
     atom  16 (R=0.103)  charge=  6.2350  magn=  1.6923
     atom  17 (R=0.103)  charge=  6.2355  magn=  1.7028
     atom  18 (R=0.103)  charge=  6.2357  magn=  1.6971
     atom  19 (R=0.103)  charge=  6.2345  magn=  1.6854
     atom  20 (R=0.103)  charge=  6.2360  magn=  1.6724
     atom  21 (R=0.103)  charge=  6.2343  magn=  1.7066
     atom  22 (R=0.103)  charge=  6.2355  magn=  1.6951
     atom  23 (R=0.103)  charge=  6.2353  magn=  1.6880
     atom  24 (R=0.103)  charge=  6.2355  magn=  1.7022
     atom  25 (R=0.103)  charge=  6.2340  magn=  1.6865
     atom  26 (R=0.103)  charge=  6.2309  magn=  1.7238
     atom  27 (R=0.103)  charge=  6.2374  magn=  1.6617
     atom  28 (R=0.103)  charge=  6.2365  magn=  1.6674
     atom  29 (R=0.103)  charge=  6.2589  magn=  1.1251
     atom  30 (R=0.103)  charge=  6.2306  magn=  1.7735
     atom  31 (R=0.103)  charge=  6.2329  magn=  1.7658
     atom  32 (R=0.103)  charge=  6.2287  magn=  1.7738
     atom  33 (R=0.103)  charge=  6.2295  magn=  1.7896
     atom  34 (R=0.103)  charge=  6.2320  magn=  1.7904
     atom  35 (R=0.103)  charge=  6.2380  magn=  1.7523
     atom  36 (R=0.103)  charge=  6.2296  magn=  1.7645
     atom  37 (R=0.061)  charge=  0.8395  magn= -0.0197
     atom  38 (R=0.070)  charge=  3.2100  magn= -0.0090
     atom  39 (R=0.061)  charge=  0.5056  magn= -0.0028

     total cpu time spent up to now is      976.5 secs

     End of self-consistent calculation

 ------ SPIN UP ------------


          k = 0.0000 0.0000 0.0000 ( 51087 PWs)   bands (ev):

   -21.3877  -9.9924  -7.4885  -6.6580  -6.1495  -5.5812  -5.0955  -4.6142
    -4.5837  -4.5810  -4.5789  -4.5772  -4.5640  -4.5250  -4.2267  -4.0566
    -4.0505  -4.0490  -4.0440  -4.0237  -3.9861  -3.5413  -3.5367  -3.5326
    -3.5263  -3.5123  -3.4851  -3.4063  -3.4024  -3.3945  -3.3923  -3.3900
    -3.3649  -3.3297  -3.3250  -3.0177  -3.0120  -3.0106  -3.0093  -2.9682
    -2.9515  -2.9460  -2.9452  -2.9390  -2.9374  -2.9355  -2.9275  -2.7840
    -2.7797  -2.7380  -2.7230  -2.7141  -2.7055  -2.6997  -2.6945  -2.6784
    -2.6757  -2.6701  -2.6624  -2.5772  -2.5748  -2.5719  -2.5632  -2.5505
    -2.5078  -2.1181  -2.0519  -2.0338  -2.0333  -2.0304  -2.0248  -1.9268
    -1.9052  -1.9044  -1.8846  -1.8731  -1.8569  -1.8530  -1.8493  -1.8393
    -1.8220  -1.8012  -1.7954  -1.7543  -1.7506  -1.7387  -1.7283  -1.7211
    -1.7194  -1.7090  -1.7059  -1.6933  -1.6807  -1.6778  -1.6733  -1.6693
    -1.6676  -1.6641  -1.6607  -1.6584  -1.6563  -1.6526  -1.6481  -1.6466
    -1.6430  -1.5943  -1.5827  -1.5733  -1.5639  -1.4971  -1.4922  -1.4302
    -1.3021  -1.2168  -1.2123  -1.2068  -1.2053  -1.2018  -1.1824  -1.1650
    -1.1634  -1.1552  -1.1262  -1.1135  -1.1112  -1.0457  -0.9987  -0.9866
    -0.9766  -0.9619  -0.8686  -0.8045  -0.7928  -0.7831  -0.7752  -0.7492
    -0.7403  -0.7212  -0.7162  -0.7141  -0.7115  -0.6916  -0.6294  -0.5956
    -0.5349  -0.4745  -0.4711  -0.4678  -0.4438  -0.4211  -0.4075  -0.4039
    -0.3989  -0.3964  -0.3937  -0.3874  -0.3843  -0.3812  -0.3801  -0.3699
    -0.3619  -0.3606  -0.3364  -0.3292  -0.3249  -0.3222  -0.3196  -0.3138
    -0.2964  -0.2946  -0.2713  -0.2701  -0.2664  -0.2548  -0.2479  -0.2439
    -0.2421  -0.2380  -0.2121  -0.1925  -0.1829  -0.1685  -0.1660  -0.1634
    -0.1591  -0.1534  -0.1458  -0.1339  -0.1254  -0.1145  -0.0748  -0.0744
    -0.0712  -0.0668  -0.0090  -0.0042  -0.0007   0.0030   0.0209   0.0501
     0.4059   0.9545

          k = 0.0000 0.2309 0.0000 ( 51134 PWs)   bands (ev):

   -21.3877  -9.9921  -7.3431  -6.6293  -6.0739  -5.5874  -5.2940  -5.0848
    -4.8332  -4.8228  -4.4647  -4.3128  -4.2442  -4.2396  -4.1719  -4.1234
    -4.0982  -4.0697  -3.9667  -3.9303  -3.9118  -3.6577  -3.5499  -3.5351
    -3.4594  -3.4314  -3.4221  -3.4101  -3.4069  -3.3932  -3.3872  -3.3669
    -3.3331  -3.2886  -3.2851  -3.2619  -3.2562  -3.0625  -3.0317  -3.0270
    -2.9822  -2.9762  -2.9668  -2.9601  -2.8838  -2.8495  -2.8395  -2.8122
    -2.8022  -2.7992  -2.7758  -2.7558  -2.6790  -2.6672  -2.6381  -2.6073
    -2.5900  -2.5751  -2.5632  -2.5520  -2.5305  -2.5174  -2.4928  -2.4891
    -2.4249  -2.1912  -2.1550  -2.1402  -2.1213  -2.0986  -2.0564  -2.0039
    -1.9998  -1.9945  -1.9757  -1.9742  -1.9574  -1.9328  -1.9042  -1.8781
    -1.8604  -1.8499  -1.8384  -1.8025  -1.7908  -1.7872  -1.7837  -1.7696
    -1.7551  -1.7515  -1.7470  -1.7433  -1.7286  -1.6915  -1.6713  -1.6624
    -1.6434  -1.6071  -1.5782  -1.5688  -1.5572  -1.5499  -1.5426  -1.5372
    -1.5184  -1.5119  -1.5077  -1.5014  -1.4932  -1.4717  -1.4627  -1.4536
    -1.4334  -1.4247  -1.3888  -1.3450  -1.3318  -1.3112  -1.2530  -1.2327
    -1.2231  -1.2092  -1.2050  -1.1970  -1.1956  -1.1823  -1.1005  -1.0482
    -1.0373  -1.0164  -0.9640  -0.9440  -0.9273  -0.8741  -0.8609  -0.8431
    -0.8197  -0.7481  -0.7381  -0.7199  -0.6998  -0.6916  -0.6772  -0.6648
    -0.6574  -0.6373  -0.6281  -0.5805  -0.5685  -0.5611  -0.5468  -0.5390
    -0.5085  -0.4935  -0.4717  -0.4647  -0.4411  -0.4247  -0.4063  -0.3982
    -0.3915  -0.3827  -0.3752  -0.3700  -0.3562  -0.3402  -0.3365  -0.3240
    -0.2784  -0.2604  -0.2557  -0.2221  -0.2064  -0.2009  -0.1764  -0.1514
    -0.1461  -0.1334  -0.1267  -0.1163  -0.1030  -0.0939  -0.0865  -0.0539
    -0.0486  -0.0083   0.0012   0.0083   0.0301   0.0343   0.0735   0.0844
     0.0949   0.1391   0.3729   0.3836   0.4895   0.5853   0.6348   0.6573
     0.7450   0.8058

          k = 0.0000 0.4619 0.0000 ( 51204 PWs)   bands (ev):

   -21.3877  -9.9916  -6.9421  -6.5845  -6.1710  -5.8756  -5.4278  -5.0781
    -4.9707  -4.9635  -4.7974  -4.1256  -4.0986  -4.0721  -4.0570  -3.9887
    -3.8872  -3.8826  -3.8422  -3.7573  -3.7491  -3.7395  -3.6471  -3.5711
    -3.5640  -3.5604  -3.5550  -3.5031  -3.4559  -3.4433  -3.4392  -3.2936
    -3.2793  -3.2770  -3.2635  -3.2395  -3.2313  -3.1328  -3.1245  -3.1140
    -3.1072  -3.1010  -2.9843  -2.9097  -2.8925  -2.8124  -2.7962  -2.7760
    -2.7592  -2.7268  -2.7200  -2.7128  -2.7004  -2.6808  -2.6272  -2.6153
    -2.5836  -2.5592  -2.5446  -2.4205  -2.4097  -2.4023  -2.3732  -2.3444
    -2.2942  -2.2826  -2.2648  -2.2530  -2.2107  -2.1704  -2.1387  -2.1199
    -2.1178  -2.1074  -2.1047  -2.0859  -2.0771  -2.0552  -2.0180  -2.0010
    -1.9827  -1.9684  -1.9469  -1.9328  -1.9045  -1.8780  -1.8183  -1.8067
    -1.7980  -1.7713  -1.7585  -1.7444  -1.7081  -1.6906  -1.6855  -1.6769
    -1.6610  -1.6449  -1.6349  -1.6168  -1.5981  -1.5954  -1.5873  -1.5698
    -1.5570  -1.5334  -1.5032  -1.4883  -1.4255  -1.4083  -1.3967  -1.3774
    -1.3621  -1.3405  -1.3207  -1.2890  -1.2690  -1.2542  -1.2491  -1.2467
    -1.2405  -1.2364  -1.2198  -1.2127  -1.2021  -1.1993  -1.1858  -1.1770
    -1.1516  -1.1248  -1.0620  -1.0563  -1.0149  -1.0099  -0.9877  -0.9704
    -0.9373  -0.9303  -0.8888  -0.8813  -0.8652  -0.8249  -0.8056  -0.7636
    -0.7455  -0.7246  -0.6913  -0.6759  -0.6576  -0.6492  -0.6305  -0.5699
    -0.5233  -0.4979  -0.4832  -0.4678  -0.4660  -0.4582  -0.4500  -0.4391
    -0.4237  -0.4175  -0.3469  -0.3275  -0.3068  -0.3027  -0.2915  -0.2897
    -0.2771  -0.2594  -0.2474  -0.2311  -0.2168  -0.1990  -0.1422  -0.1185
    -0.1143  -0.0982  -0.0859  -0.0424  -0.0193   0.0059   0.0167   0.0547
     0.0616   0.1018   0.1070   0.1270   0.1289   0.1348   0.1575   0.1644
     0.2339   0.2648   0.3964   0.8950   1.1654   1.3511   1.3736   1.4022
     1.6534   1.7456

          k = 0.2000-0.1155 0.0000 ( 51134 PWs)   bands (ev):

   -21.3877  -9.9929  -7.3418  -6.6290  -6.0677  -5.5713  -5.3177  -5.0877
    -4.8279  -4.8132  -4.4696  -4.3393  -4.2427  -4.2379  -4.1762  -4.1297
    -4.0899  -4.0486  -3.9792  -3.9262  -3.9054  -3.6593  -3.5486  -3.5363
    -3.4623  -3.4397  -3.4161  -3.4088  -3.4062  -3.3990  -3.3834  -3.3634
    -3.3331  -3.2874  -3.2848  -3.2591  -3.2561  -3.0677  -3.0349  -3.0259
    -2.9803  -2.9750  -2.9679  -2.9577  -2.8943  -2.8524  -2.8393  -2.8123
    -2.8034  -2.7987  -2.7680  -2.7589  -2.6822  -2.6658  -2.6427  -2.6035
    -2.5956  -2.5703  -2.5614  -2.5445  -2.5269  -2.5130  -2.4937  -2.4873
    -2.4333  -2.1919  -2.1557  -2.1390  -2.1230  -2.0997  -2.0571  -2.0050
    -2.0014  -1.9913  -1.9855  -1.9664  -1.9573  -1.9327  -1.9114  -1.8761
    -1.8563  -1.8432  -1.8361  -1.8017  -1.7929  -1.7861  -1.7812  -1.7678
    -1.7571  -1.7506  -1.7467  -1.7435  -1.7395  -1.7048  -1.6725  -1.6503
    -1.6385  -1.6144  -1.5787  -1.5638  -1.5612  -1.5539  -1.5460  -1.5357
    -1.5261  -1.5169  -1.5047  -1.5032  -1.4897  -1.4770  -1.4613  -1.4485
    -1.4306  -1.4208  -1.3996  -1.3665  -1.3229  -1.2912  -1.2434  -1.2301
    -1.2258  -1.2183  -1.2030  -1.1980  -1.1886  -1.1740  -1.0773  -1.0390
    -1.0225  -1.0086  -0.9699  -0.9434  -0.9240  -0.8860  -0.8645  -0.8371
    -0.8089  -0.7738  -0.7474  -0.7333  -0.7097  -0.6961  -0.6689  -0.6588
    -0.6550  -0.6344  -0.6142  -0.5817  -0.5704  -0.5605  -0.5457  -0.5436
    -0.5233  -0.4853  -0.4684  -0.4673  -0.4487  -0.4273  -0.4033  -0.3949
    -0.3907  -0.3806  -0.3785  -0.3753  -0.3558  -0.3425  -0.3396  -0.3114
    -0.2740  -0.2585  -0.2552  -0.2252  -0.2133  -0.1926  -0.1733  -0.1505
    -0.1414  -0.1362  -0.1286  -0.1151  -0.1079  -0.0935  -0.0849  -0.0603
    -0.0455  -0.0091   0.0054   0.0108   0.0298   0.0344   0.0775   0.0860
     0.1036   0.1422   0.3778   0.3834   0.4520   0.5533   0.6367   0.6706
     0.6904   0.8362

          k = 0.2000 0.1155 0.0000 ( 51134 PWs)   bands (ev):

   -21.3877  -9.9931  -7.3415  -6.6291  -6.0656  -5.5694  -5.3128  -5.1037
    -4.8208  -4.8110  -4.4719  -4.3470  -4.2434  -4.2366  -4.1762  -4.1298
    -4.0815  -4.0502  -3.9815  -3.9230  -3.9062  -3.6609  -3.5455  -3.5399
    -3.4615  -3.4426  -3.4136  -3.4113  -3.4047  -3.3978  -3.3815  -3.3627
    -3.3329  -3.2897  -3.2835  -3.2584  -3.2563  -3.0608  -3.0307  -3.0255
    -2.9785  -2.9728  -2.9676  -2.9643  -2.8847  -2.8537  -2.8413  -2.8177
    -2.8036  -2.8000  -2.7747  -2.7634  -2.6798  -2.6667  -2.6468  -2.6032
    -2.5979  -2.5687  -2.5620  -2.5378  -2.5293  -2.5139  -2.4966  -2.4888
    -2.4339  -2.1831  -2.1584  -2.1424  -2.1196  -2.0987  -2.0571  -2.0034
    -1.9969  -1.9921  -1.9812  -1.9697  -1.9623  -1.9387  -1.8946  -1.8757
    -1.8629  -1.8521  -1.8286  -1.8025  -1.7919  -1.7881  -1.7845  -1.7649
    -1.7558  -1.7537  -1.7473  -1.7420  -1.7333  -1.7079  -1.6740  -1.6545
    -1.6356  -1.6065  -1.5855  -1.5691  -1.5560  -1.5542  -1.5417  -1.5363
    -1.5221  -1.5182  -1.5090  -1.5040  -1.4944  -1.4715  -1.4533  -1.4462
    -1.4332  -1.4274  -1.4089  -1.3666  -1.3266  -1.2851  -1.2459  -1.2300
    -1.2193  -1.2149  -1.2082  -1.1977  -1.1952  -1.1832  -1.0866  -1.0523
    -1.0183  -0.9982  -0.9690  -0.9443  -0.9176  -0.8890  -0.8654  -0.8462
    -0.7947  -0.7663  -0.7465  -0.7228  -0.7082  -0.6978  -0.6769  -0.6651
    -0.6524  -0.6361  -0.6143  -0.5695  -0.5624  -0.5576  -0.5462  -0.5405
    -0.5270  -0.4932  -0.4711  -0.4644  -0.4456  -0.4225  -0.4079  -0.3971
    -0.3923  -0.3843  -0.3787  -0.3679  -0.3513  -0.3455  -0.3330  -0.3138
    -0.2784  -0.2608  -0.2526  -0.2315  -0.2060  -0.1999  -0.1703  -0.1503
    -0.1404  -0.1387  -0.1249  -0.1156  -0.1023  -0.0918  -0.0865  -0.0571
    -0.0432  -0.0063   0.0049   0.0086   0.0328   0.0348   0.0736   0.0801
     0.1090   0.1320   0.3674   0.3825   0.4675   0.5463   0.6366   0.6505
     0.7010   0.8486

          k = 0.2000 0.3464 0.0000 ( 51202 PWs)   bands (ev):

   -21.3877  -9.9927  -7.0643  -6.5931  -5.9485  -5.6909  -5.6577  -5.3907
    -5.0817  -4.5668  -4.4707  -4.2479  -4.2449  -4.2033  -4.0301  -4.0251
    -3.9366  -3.9283  -3.9127  -3.7967  -3.7887  -3.6605  -3.6480  -3.5855
    -3.5412  -3.4496  -3.4454  -3.4210  -3.4054  -3.3951  -3.3836  -3.3605
    -3.3482  -3.3222  -3.3152  -3.2723  -3.2360  -3.1919  -3.1845  -3.0643
    -3.0555  -2.9710  -2.9604  -2.9386  -2.9094  -2.9072  -2.8176  -2.7704
    -2.7643  -2.7421  -2.7301  -2.7176  -2.6793  -2.6707  -2.6528  -2.6417
    -2.6217  -2.5197  -2.5061  -2.4516  -2.4484  -2.4286  -2.3926  -2.3869
    -2.3737  -2.2828  -2.1975  -2.1839  -2.1656  -2.1358  -2.1251  -2.0981
    -2.0935  -2.0766  -2.0663  -2.0494  -2.0380  -2.0232  -2.0108  -1.9979
    -1.9843  -1.9549  -1.9093  -1.8706  -1.8288  -1.8199  -1.8014  -1.7825
    -1.7753  -1.7556  -1.7200  -1.7151  -1.6957  -1.6743  -1.6704  -1.6612
    -1.6545  -1.6410  -1.6366  -1.6227  -1.6134  -1.6062  -1.5801  -1.5649
    -1.5577  -1.5436  -1.5114  -1.4900  -1.4755  -1.4504  -1.4389  -1.4234
    -1.4156  -1.4061  -1.3861  -1.3587  -1.3312  -1.3194  -1.2991  -1.2750
    -1.2561  -1.2518  -1.2425  -1.2238  -1.2122  -1.1947  -1.1865  -1.1448
    -1.0994  -1.0884  -1.0672  -1.0559  -0.9864  -0.9474  -0.9344  -0.8848
    -0.8296  -0.8213  -0.8145  -0.7998  -0.7914  -0.7740  -0.7650  -0.7330
    -0.7301  -0.7167  -0.6867  -0.6666  -0.6485  -0.6423  -0.6186  -0.6103
    -0.5897  -0.5719  -0.5508  -0.5361  -0.5261  -0.5106  -0.4582  -0.3865
    -0.3667  -0.3473  -0.3341  -0.3220  -0.3164  -0.2923  -0.2825  -0.2763
    -0.2675  -0.2450  -0.1925  -0.1731  -0.1646  -0.1581  -0.1278  -0.1037
    -0.0965  -0.0892  -0.0830  -0.0630  -0.0583  -0.0477  -0.0416  -0.0339
    -0.0123   0.0495   0.0693   0.0804   0.0959   0.1288   0.1363   0.1499
     0.4467   0.4750   0.4991   0.6604   0.7849   0.8292   1.1272   1.3434
     1.3810   1.5633

          k = 0.2000-0.5774 0.0000 ( 51262 PWs)   bands (ev):

   -21.3877  -9.9923  -6.7426  -6.4415  -6.3479  -5.8553  -5.7180  -5.3223
    -4.9729  -4.9387  -4.5895  -4.2351  -3.9913  -3.9434  -3.8327  -3.8164
    -3.8141  -3.7875  -3.7815  -3.7637  -3.7207  -3.7012  -3.7000  -3.6958
    -3.6124  -3.5953  -3.5509  -3.5495  -3.5215  -3.5143  -3.4194  -3.3795
    -3.3659  -3.3586  -3.3401  -3.2958  -3.2190  -3.1957  -3.0835  -3.0701
    -3.0658  -2.9980  -2.9817  -2.9624  -2.9391  -2.8609  -2.8532  -2.8467
    -2.7829  -2.7727  -2.6979  -2.6653  -2.6354  -2.6286  -2.5775  -2.5700
    -2.4933  -2.4832  -2.4792  -2.4667  -2.4540  -2.4292  -2.4102  -2.3492
    -2.2851  -2.2756  -2.2584  -2.2517  -2.2067  -2.1966  -2.1694  -2.1344
    -2.1243  -2.0882  -2.0816  -2.0733  -2.0503  -2.0235  -2.0099  -2.0018
    -1.9935  -1.9840  -1.9568  -1.9399  -1.9370  -1.9114  -1.8678  -1.8503
    -1.8318  -1.7896  -1.7716  -1.7441  -1.7230  -1.6963  -1.6928  -1.6738
    -1.6606  -1.6540  -1.6432  -1.6368  -1.6215  -1.6175  -1.5911  -1.5830
    -1.5340  -1.5069  -1.4947  -1.4904  -1.4734  -1.4660  -1.4635  -1.4521
    -1.4466  -1.4343  -1.4182  -1.3917  -1.3746  -1.3485  -1.3313  -1.3129
    -1.2527  -1.2475  -1.2305  -1.1943  -1.1795  -1.1706  -1.1586  -1.1102
    -1.0875  -1.0759  -1.0601  -1.0432  -1.0043  -0.9496  -0.9437  -0.9216
    -0.9073  -0.9018  -0.8883  -0.8717  -0.8424  -0.8289  -0.8020  -0.7723
    -0.7626  -0.7359  -0.7149  -0.7083  -0.7001  -0.6650  -0.6326  -0.6272
    -0.6109  -0.5945  -0.5825  -0.5711  -0.5392  -0.5102  -0.4969  -0.4338
    -0.3568  -0.3269  -0.3199  -0.3089  -0.3030  -0.2962  -0.2887  -0.2720
    -0.2459  -0.2307  -0.2211  -0.2139  -0.1623  -0.1581  -0.0973  -0.0926
    -0.0716  -0.0608  -0.0550  -0.0398   0.0040   0.0099   0.0167   0.0251
     0.0355   0.0998   0.1093   0.1183   0.1302   0.1379   0.1621   0.1972
     0.3033   0.5080   0.5814   0.8592   1.3747   1.4134   1.5003   1.7071
     1.8943   1.9634

          k = 0.2000-0.3464 0.0000 ( 51202 PWs)   bands (ev):

   -21.3877  -9.9924  -7.0651  -6.5930  -5.9519  -5.6924  -5.6589  -5.3894
    -5.0736  -4.5719  -4.4657  -4.2496  -4.2449  -4.2005  -4.0296  -4.0258
    -3.9353  -3.9285  -3.9102  -3.8003  -3.7898  -3.6553  -3.6514  -3.5867
    -3.5411  -3.4517  -3.4450  -3.4191  -3.4075  -3.3921  -3.3869  -3.3598
    -3.3502  -3.3258  -3.3081  -3.2755  -3.2383  -3.1976  -3.1808  -3.0687
    -3.0599  -2.9703  -2.9626  -2.9362  -2.9250  -2.8982  -2.8120  -2.7747
    -2.7554  -2.7408  -2.7316  -2.7114  -2.6811  -2.6705  -2.6484  -2.6339
    -2.6256  -2.5145  -2.5008  -2.4538  -2.4456  -2.4217  -2.3997  -2.3840
    -2.3708  -2.2818  -2.2149  -2.1887  -2.1743  -2.1392  -2.1245  -2.1053
    -2.0949  -2.0746  -2.0583  -2.0470  -2.0342  -2.0270  -2.0140  -1.9998
    -1.9877  -1.9660  -1.9009  -1.8537  -1.8259  -1.8168  -1.7952  -1.7825
    -1.7703  -1.7446  -1.7424  -1.7121  -1.6964  -1.6782  -1.6695  -1.6621
    -1.6592  -1.6442  -1.6325  -1.6197  -1.6067  -1.6000  -1.5813  -1.5705
    -1.5488  -1.5441  -1.5252  -1.4941  -1.4769  -1.4602  -1.4304  -1.4238
    -1.4151  -1.4009  -1.3902  -1.3411  -1.3257  -1.3136  -1.2966  -1.2753
    -1.2604  -1.2514  -1.2414  -1.2265  -1.2138  -1.2030  -1.1781  -1.1419
    -1.1151  -1.0824  -1.0736  -1.0355  -0.9891  -0.9552  -0.9360  -0.8813
    -0.8370  -0.8217  -0.8141  -0.8000  -0.7917  -0.7810  -0.7586  -0.7457
    -0.7327  -0.7100  -0.6878  -0.6766  -0.6526  -0.6357  -0.6258  -0.6084
    -0.6028  -0.5822  -0.5435  -0.5325  -0.5246  -0.5041  -0.4420  -0.3813
    -0.3724  -0.3519  -0.3313  -0.3233  -0.3181  -0.2922  -0.2859  -0.2765
    -0.2592  -0.2458  -0.1873  -0.1789  -0.1706  -0.1601  -0.1238  -0.1128
    -0.0965  -0.0886  -0.0846  -0.0704  -0.0578  -0.0487  -0.0421  -0.0301
    -0.0109   0.0508   0.0732   0.0834   0.0902   0.1266   0.1351   0.1657
     0.4569   0.4726   0.4901   0.6715   0.7699   0.8271   1.1360   1.3480
     1.3688   1.5853

          k = 0.4000-0.2309 0.0000 ( 51204 PWs)   bands (ev):

   -21.3877  -9.9937  -6.9360  -6.5832  -6.1622  -5.8662  -5.4129  -5.1160
    -4.9721  -4.9344  -4.8346  -4.1453  -4.0880  -4.0729  -4.0299  -4.0011
    -3.8840  -3.8819  -3.8459  -3.7542  -3.7484  -3.7410  -3.6583  -3.5696
    -3.5638  -3.5575  -3.5546  -3.5050  -3.4584  -3.4501  -3.4400  -3.2842
    -3.2814  -3.2744  -3.2520  -3.2374  -3.2314  -3.1340  -3.1295  -3.1163
    -3.1082  -3.1009  -2.9985  -2.9047  -2.8944  -2.8119  -2.8004  -2.7737
    -2.7593  -2.7271  -2.7210  -2.7147  -2.6936  -2.6836  -2.6254  -2.6159
    -2.5904  -2.5560  -2.5475  -2.4250  -2.4107  -2.3991  -2.3759  -2.3455
    -2.2983  -2.2884  -2.2710  -2.2520  -2.2062  -2.1626  -2.1259  -2.1216
    -2.1187  -2.1057  -2.0903  -2.0821  -2.0756  -2.0563  -2.0248  -2.0060
    -1.9878  -1.9621  -1.9462  -1.9166  -1.9063  -1.8774  -1.8159  -1.7999
    -1.7962  -1.7857  -1.7648  -1.7556  -1.7176  -1.6901  -1.6884  -1.6780
    -1.6660  -1.6438  -1.6407  -1.6137  -1.6092  -1.5979  -1.5878  -1.5643
    -1.5543  -1.5461  -1.4928  -1.4474  -1.4304  -1.4119  -1.3871  -1.3785
    -1.3599  -1.3475  -1.3072  -1.2814  -1.2672  -1.2568  -1.2517  -1.2469
    -1.2373  -1.2324  -1.2241  -1.2139  -1.2068  -1.1969  -1.1805  -1.1673
    -1.1502  -1.1210  -1.0812  -1.0482  -1.0101  -1.0066  -0.9863  -0.9725
    -0.9446  -0.9093  -0.8977  -0.8806  -0.8598  -0.8363  -0.8177  -0.7657
    -0.7393  -0.7112  -0.6913  -0.6760  -0.6608  -0.6420  -0.6298  -0.5841
    -0.5433  -0.4905  -0.4787  -0.4713  -0.4627  -0.4592  -0.4449  -0.4412
    -0.4257  -0.4166  -0.3398  -0.3280  -0.3130  -0.2919  -0.2902  -0.2782
    -0.2725  -0.2585  -0.2498  -0.2416  -0.2193  -0.2037  -0.1365  -0.1182
    -0.1113  -0.0979  -0.0775  -0.0621  -0.0195   0.0008   0.0167   0.0498
     0.0621   0.1046   0.1080   0.1255   0.1299   0.1349   0.1546   0.1710
     0.2339   0.2668   0.3487   0.9624   1.1385   1.3112   1.3733   1.3909
     1.6120   1.7706

          k = 0.4000 0.0000 0.0000 ( 51202 PWs)   bands (ev):

   -21.3877  -9.9941  -7.0604  -6.5935  -5.9363  -5.6736  -5.6661  -5.4001
    -5.0941  -4.5359  -4.5043  -4.2533  -4.2456  -4.2013  -4.0326  -4.0254
    -3.9355  -3.9310  -3.9249  -3.7954  -3.7745  -3.6598  -3.6491  -3.5827
    -3.5395  -3.4482  -3.4406  -3.4249  -3.4072  -3.3967  -3.3835  -3.3611
    -3.3450  -3.3218  -3.3116  -3.2747  -3.2345  -3.1919  -3.1863  -3.0700
    -3.0551  -2.9731  -2.9588  -2.9342  -2.9211  -2.9097  -2.8247  -2.7753
    -2.7688  -2.7346  -2.7304  -2.7164  -2.6755  -2.6617  -2.6539  -2.6412
    -2.6220  -2.5197  -2.5078  -2.4520  -2.4433  -2.4371  -2.3913  -2.3873
    -2.3754  -2.2670  -2.2090  -2.1835  -2.1686  -2.1410  -2.1173  -2.1032
    -2.0838  -2.0778  -2.0697  -2.0540  -2.0381  -2.0216  -2.0185  -1.9983
    -1.9774  -1.9492  -1.9059  -1.8855  -1.8285  -1.8168  -1.8042  -1.7862
    -1.7659  -1.7538  -1.7312  -1.7190  -1.6934  -1.6752  -1.6652  -1.6616
    -1.6520  -1.6471  -1.6342  -1.6165  -1.6107  -1.6053  -1.5858  -1.5669
    -1.5573  -1.5300  -1.5069  -1.4889  -1.4731  -1.4624  -1.4490  -1.4247
    -1.4119  -1.3918  -1.3802  -1.3566  -1.3453  -1.3145  -1.3011  -1.2643
    -1.2574  -1.2470  -1.2427  -1.2234  -1.2097  -1.1947  -1.1808  -1.1465
    -1.0975  -1.0822  -1.0682  -1.0279  -0.9901  -0.9566  -0.9368  -0.8883
    -0.8354  -0.8196  -0.8155  -0.7924  -0.7851  -0.7718  -0.7651  -0.7557
    -0.7276  -0.7179  -0.6846  -0.6665  -0.6587  -0.6389  -0.6203  -0.6140
    -0.5992  -0.5820  -0.5509  -0.5334  -0.5209  -0.5067  -0.4365  -0.4030
    -0.3670  -0.3450  -0.3334  -0.3217  -0.3158  -0.2899  -0.2831  -0.2752
    -0.2582  -0.2485  -0.1932  -0.1748  -0.1631  -0.1608  -0.1214  -0.1160
    -0.0924  -0.0885  -0.0837  -0.0738  -0.0545  -0.0485  -0.0417  -0.0229
    -0.0135   0.0467   0.0686   0.0805   0.0890   0.1281   0.1316   0.1565
     0.4618   0.4738   0.5370   0.5708   0.8094   0.8226   1.1365   1.3432
     1.3679   1.5738

          k = 0.4000 0.2309 0.0000 ( 51204 PWs)   bands (ev):

   -21.3877  -9.9942  -6.9352  -6.5833  -6.1579  -5.8629  -5.4070  -5.1344
    -4.9712  -4.9234  -4.8508  -4.1473  -4.0772  -4.0714  -4.0311  -4.0038
    -3.8852  -3.8804  -3.8447  -3.7533  -3.7472  -3.7419  -3.6646  -3.5684
    -3.5650  -3.5558  -3.5546  -3.5056  -3.4634  -3.4482  -3.4383  -3.2822
    -3.2804  -3.2700  -3.2509  -3.2362  -3.2283  -3.1298  -3.1208  -3.1125
    -3.1073  -3.1030  -2.9877  -2.9054  -2.8993  -2.8209  -2.8029  -2.7802
    -2.7660  -2.7328  -2.7224  -2.7130  -2.6923  -2.6885  -2.6199  -2.6163
    -2.5919  -2.5602  -2.5500  -2.4294  -2.4084  -2.3973  -2.3852  -2.3463
    -2.3010  -2.2835  -2.2746  -2.2547  -2.1988  -2.1573  -2.1363  -2.1223
    -2.1204  -2.1079  -2.0921  -2.0838  -2.0725  -2.0540  -2.0469  -2.0005
    -1.9721  -1.9591  -1.9442  -1.9146  -1.8892  -1.8734  -1.8285  -1.8019
    -1.7931  -1.7846  -1.7617  -1.7520  -1.7093  -1.6889  -1.6805  -1.6730
    -1.6579  -1.6522  -1.6367  -1.6139  -1.6076  -1.5967  -1.5819  -1.5673
    -1.5529  -1.5372  -1.4979  -1.4799  -1.4278  -1.4094  -1.3883  -1.3788
    -1.3559  -1.3394  -1.3218  -1.2917  -1.2668  -1.2584  -1.2521  -1.2477
    -1.2402  -1.2368  -1.2238  -1.2163  -1.2101  -1.1973  -1.1772  -1.1691
    -1.1589  -1.1167  -1.0819  -1.0439  -1.0120  -1.0058  -0.9944  -0.9723
    -0.9524  -0.9088  -0.8897  -0.8826  -0.8627  -0.8212  -0.8061  -0.7706
    -0.7453  -0.7030  -0.6814  -0.6669  -0.6584  -0.6413  -0.6090  -0.6020
    -0.5468  -0.4895  -0.4817  -0.4687  -0.4635  -0.4573  -0.4466  -0.4424
    -0.4303  -0.4149  -0.3447  -0.3202  -0.3081  -0.2998  -0.2933  -0.2878
    -0.2717  -0.2503  -0.2438  -0.2343  -0.2196  -0.2099  -0.1353  -0.1190
    -0.1108  -0.1046  -0.0773  -0.0545  -0.0199   0.0003   0.0186   0.0507
     0.0621   0.1040   0.1064   0.1273   0.1300   0.1331   0.1503   0.1793
     0.2338   0.2588   0.3560   0.9468   1.1444   1.3073   1.3672   1.3870
     1.6763   1.7245

          k = 0.4000-0.6928 0.0000 ( 51262 PWs)   bands (ev):

   -21.3877  -9.9939  -6.7369  -6.4336  -6.3461  -5.8815  -5.6926  -5.2341
    -5.0993  -4.9581  -4.5409  -4.2301  -3.9945  -3.9504  -3.8536  -3.8180
    -3.8094  -3.7939  -3.7826  -3.7666  -3.7082  -3.7025  -3.6991  -3.6922
    -3.6152  -3.5980  -3.5513  -3.5471  -3.5197  -3.5172  -3.4036  -3.3835
    -3.3662  -3.3615  -3.3333  -3.2957  -3.2098  -3.1923  -3.0893  -3.0686
    -3.0667  -2.9923  -2.9848  -2.9625  -2.9339  -2.8713  -2.8574  -2.8403
    -2.7915  -2.7768  -2.6922  -2.6708  -2.6378  -2.6265  -2.5777  -2.5719
    -2.5032  -2.4849  -2.4745  -2.4700  -2.4580  -2.4376  -2.4160  -2.3488
    -2.2909  -2.2695  -2.2650  -2.2544  -2.2111  -2.1923  -2.1463  -2.1379
    -2.1101  -2.0873  -2.0806  -2.0667  -2.0639  -2.0394  -2.0147  -1.9925
    -1.9856  -1.9826  -1.9610  -1.9395  -1.9313  -1.8976  -1.8674  -1.8485
    -1.8321  -1.7991  -1.7659  -1.7545  -1.7307  -1.6971  -1.6863  -1.6774
    -1.6578  -1.6536  -1.6460  -1.6326  -1.6245  -1.5938  -1.5856  -1.5585
    -1.5293  -1.5043  -1.4924  -1.4891  -1.4755  -1.4681  -1.4643  -1.4538
    -1.4420  -1.4318  -1.4171  -1.4030  -1.3806  -1.3655  -1.3324  -1.3232
    -1.2833  -1.2476  -1.2095  -1.1897  -1.1834  -1.1769  -1.1636  -1.1024
    -1.0907  -1.0858  -1.0682  -1.0377  -0.9742  -0.9539  -0.9352  -0.9232
    -0.9130  -0.9022  -0.8813  -0.8733  -0.8414  -0.8202  -0.7926  -0.7818
    -0.7608  -0.7343  -0.7214  -0.7152  -0.6881  -0.6520  -0.6415  -0.6196
    -0.6062  -0.5966  -0.5803  -0.5738  -0.5349  -0.5230  -0.5058  -0.4302
    -0.3601  -0.3252  -0.3158  -0.3117  -0.3041  -0.2947  -0.2855  -0.2653
    -0.2471  -0.2347  -0.2213  -0.2107  -0.1687  -0.1527  -0.0979  -0.0866
    -0.0694  -0.0593  -0.0531  -0.0319  -0.0040   0.0112   0.0185   0.0221
     0.0341   0.0764   0.1097   0.1115   0.1290   0.1411   0.1600   0.1919
     0.2877   0.5109   0.6172   0.8681   1.2955   1.4194   1.4720   1.8047
     1.8944   1.9433

          k = 0.4000-0.4619 0.0000 ( 51262 PWs)   bands (ev):

   -21.3877  -9.9937  -6.7368  -6.4351  -6.3490  -5.8749  -5.6982  -5.2615
    -5.0695  -4.9436  -4.5541  -4.2306  -3.9945  -3.9483  -3.8521  -3.8146
    -3.8117  -3.7945  -3.7848  -3.7643  -3.7096  -3.7007  -3.6980  -3.6937
    -3.6162  -3.5945  -3.5527  -3.5484  -3.5213  -3.5158  -3.4069  -3.3824
    -3.3656  -3.3636  -3.3352  -3.2952  -3.2111  -3.1951  -3.0963  -3.0720
    -3.0669  -2.9901  -2.9824  -2.9698  -2.9377  -2.8575  -2.8522  -2.8465
    -2.7839  -2.7730  -2.6969  -2.6659  -2.6411  -2.6267  -2.5781  -2.5704
    -2.4993  -2.4850  -2.4776  -2.4666  -2.4581  -2.4292  -2.4114  -2.3494
    -2.2918  -2.2694  -2.2626  -2.2526  -2.2173  -2.1963  -2.1560  -2.1325
    -2.1118  -2.0892  -2.0807  -2.0697  -2.0549  -2.0306  -2.0142  -1.9983
    -1.9883  -1.9760  -1.9584  -1.9395  -1.9359  -1.8935  -1.8682  -1.8529
    -1.8396  -1.7974  -1.7729  -1.7557  -1.7174  -1.7018  -1.6864  -1.6800
    -1.6607  -1.6523  -1.6432  -1.6351  -1.6223  -1.6091  -1.5844  -1.5661
    -1.5270  -1.5036  -1.4963  -1.4885  -1.4841  -1.4689  -1.4620  -1.4559
    -1.4457  -1.4370  -1.4187  -1.3943  -1.3828  -1.3463  -1.3340  -1.3140
    -1.2700  -1.2452  -1.2131  -1.1915  -1.1808  -1.1689  -1.1592  -1.1091
    -1.0893  -1.0775  -1.0706  -1.0208  -1.0024  -0.9523  -0.9297  -0.9221
    -0.9084  -0.9006  -0.8901  -0.8664  -0.8503  -0.8295  -0.7981  -0.7690
    -0.7605  -0.7334  -0.7265  -0.7158  -0.6863  -0.6656  -0.6474  -0.6266
    -0.6081  -0.5928  -0.5850  -0.5750  -0.5372  -0.5252  -0.4913  -0.4208
    -0.3612  -0.3251  -0.3164  -0.3062  -0.3044  -0.2934  -0.2830  -0.2741
    -0.2412  -0.2331  -0.2210  -0.2157  -0.1674  -0.1553  -0.0980  -0.0870
    -0.0799  -0.0601  -0.0472  -0.0384   0.0011   0.0105   0.0155   0.0222
     0.0374   0.0783   0.1070   0.1154   0.1285   0.1383   0.1625   0.1980
     0.2805   0.5104   0.6237   0.8572   1.3177   1.4202   1.4667   1.7935
     1.8975   1.9453

 ------ SPIN DOWN ----------


          k = 0.0000 0.0000 0.0000 ( 51087 PWs)   bands (ev):

   -21.4150 -10.0788  -7.6185  -6.6870  -6.2069  -5.5806  -5.1141  -4.4123
    -4.3850  -4.3820  -4.3792  -4.3767  -4.3602  -4.2566  -3.5208  -3.5081
    -3.5069  -3.5050  -3.4801  -3.4679  -3.3561  -2.5721  -2.5627  -2.5577
    -2.5538  -2.5333  -2.4843  -2.1025  -2.0941  -2.0909  -2.0895  -2.0829
    -2.0792  -1.9044  -1.8898  -1.8225  -1.8095  -1.8053  -1.7970  -1.7267
    -1.6995  -1.6783  -1.6513  -1.6343  -1.5788  -1.5512  -1.5451  -1.5410
    -1.5256  -1.4944  -1.3148  -1.2863  -1.2755  -1.2725  -1.2685  -1.2606
    -1.2603  -1.2500  -1.2379  -1.2002  -1.1971  -1.1839  -1.1804  -1.1687
    -1.1334  -0.9834  -0.6440  -0.6132  -0.5971  -0.5941  -0.5785  -0.4509
    -0.4020  -0.3003  -0.2782  -0.2756  -0.2654  -0.2633  -0.2578  -0.2209
    -0.2083  -0.1999  -0.1848  -0.1836  -0.1826  -0.1710  -0.1339  -0.0933
    -0.0873  -0.0747  -0.0726  -0.0620  -0.0438  -0.0217  -0.0188  -0.0141
    -0.0138  -0.0078   0.0104   0.0127   0.0198   0.0234   0.0718   0.1070
     0.1555   0.1741   0.1997   0.2285   0.2313   0.2417   0.2444   0.2469
     0.2478   0.2488   0.2505   0.2696   0.3183   0.3193   0.3671   0.4016
     0.4123   0.4269   0.4401   0.4574   0.5865   0.6304   0.6360   0.6868
     0.7151   0.7186   0.7253   0.7292   0.7444   0.8979   1.0323   1.0530
     1.0743   1.0786   1.2239   1.2541   1.2740   1.2881   1.2893   1.2943
     1.2968   1.4431   1.4525   1.4582   1.4640   1.4707   1.4879   1.4943
     1.4993   1.5232   1.5430   1.5515   1.5690   1.5988   1.6057   1.6114
     1.6180   1.6204   1.6215   1.6418   1.6726   1.6918   1.6994   1.7129
     1.7253   1.7383   1.7403   1.7421   1.7450   1.7510   1.7536   1.7914
     1.7954   1.8192   1.8232   1.8283   1.8379   1.8431   1.8440   1.8748
     1.8796   1.8830   1.8905   1.8924   1.8958   1.9027   1.9056   1.9119
     1.9149   1.9625   1.9695   1.9953   2.1183   2.1210   2.1252   2.1278
     2.1305   2.1321

          k = 0.0000 0.2309 0.0000 ( 51134 PWs)   bands (ev):

   -21.4150 -10.0785  -7.4710  -6.6530  -6.1307  -5.6082  -5.3118  -5.0965
    -4.7712  -4.7588  -4.2422  -4.0975  -3.8380  -3.8313  -3.7552  -3.7173
    -3.5380  -3.2955  -3.1728  -3.1508  -3.0477  -2.7716  -2.5861  -2.5579
    -2.4933  -2.4659  -2.4389  -2.2175  -2.1340  -2.1325  -2.1187  -2.0866
    -2.0803  -2.0478  -2.0340  -1.9999  -1.9956  -1.8800  -1.8470  -1.7724
    -1.7656  -1.7273  -1.6443  -1.6064  -1.5765  -1.5667  -1.5153  -1.4485
    -1.4287  -1.4027  -1.3589  -1.3390  -1.3161  -1.2905  -1.2754  -1.2666
    -1.2537  -1.2211  -1.1748  -1.1562  -1.1280  -1.0949  -1.0821  -1.0580
    -0.9845  -0.9275  -0.7220  -0.6604  -0.6457  -0.6261  -0.5906  -0.5491
    -0.5024  -0.4789  -0.4357  -0.4184  -0.3188  -0.2957  -0.2845  -0.2687
    -0.2574  -0.2433  -0.2336  -0.2128  -0.2061  -0.1842  -0.1552  -0.1042
    -0.0766  -0.0735  -0.0601  -0.0410  -0.0368  -0.0151  -0.0040   0.0115
     0.0205   0.0263   0.0324   0.0354   0.0377   0.0418   0.0795   0.0896
     0.1163   0.1315   0.1403   0.1424   0.1748   0.1883   0.2029   0.2098
     0.2405   0.2583   0.2843   0.3115   0.3458   0.3557   0.3611   0.3856
     0.4597   0.5424   0.5896   0.5985   0.6108   0.6426   0.6575   0.6800
     0.6944   0.7052   0.7061   0.7104   0.7637   0.9167   1.0163   1.0379
     1.0448   1.0537   1.0695   1.0799   1.1034   1.1503   1.2002   1.2310
     1.2518   1.2686   1.3194   1.3281   1.3575   1.3797   1.4058   1.4272
     1.4664   1.4722   1.5097   1.5235   1.5331   1.5471   1.5668   1.5748
     1.6008   1.6193   1.6677   1.6754   1.7000   1.7105   1.7212   1.7288
     1.7760   1.7774   1.7866   1.7890   1.8093   1.8449   1.8651   1.8731
     1.8768   1.8842   1.9136   1.9276   1.9366   1.9493   1.9670   1.9758
     1.9874   2.0236   2.0272   2.0316   2.0522   2.0583   2.0638   2.0887
     2.1053   2.1147   2.1196   2.1422   2.1968   2.2225   2.2297   2.2637
     2.2977   2.3160

          k = 0.0000 0.4619 0.0000 ( 51204 PWs)   bands (ev):

   -21.4150 -10.0780  -7.0518  -6.6214  -6.2631  -5.9160  -5.4699  -5.0961
    -4.9791  -4.9686  -4.7888  -3.8918  -3.8818  -3.7803  -3.2735  -3.2175
    -3.2123  -3.0929  -2.9565  -2.8910  -2.7822  -2.7618  -2.6189  -2.6104
    -2.5686  -2.5468  -2.4930  -2.4616  -2.3850  -2.3665  -2.3122  -2.2987
    -2.2813  -2.0976  -2.0727  -1.9978  -1.9933  -1.8820  -1.8749  -1.8649
    -1.8594  -1.8340  -1.6036  -1.5763  -1.5655  -1.5292  -1.5152  -1.4918
    -1.3492  -1.3433  -1.3215  -1.3141  -1.2990  -1.2822  -1.2768  -1.2546
    -1.2173  -1.1605  -1.1547  -1.1447  -1.1167  -1.0948  -0.9788  -0.9298
    -0.8378  -0.8044  -0.7475  -0.6913  -0.6684  -0.6445  -0.6138  -0.6015
    -0.5841  -0.5709  -0.5352  -0.5064  -0.4699  -0.4430  -0.4198  -0.3948
    -0.3616  -0.3436  -0.3170  -0.3152  -0.2940  -0.2475  -0.1925  -0.1784
    -0.1254  -0.1121  -0.0940  -0.0471  -0.0223  -0.0136   0.0018   0.0365
     0.0560   0.0666   0.0804   0.0891   0.0973   0.1020   0.1162   0.1444
     0.1538   0.1777   0.1915   0.1947   0.2025   0.2066   0.2270   0.2361
     0.2621   0.2757   0.3140   0.3703   0.4054   0.4196   0.4409   0.4600
     0.4618   0.4775   0.4909   0.5264   0.5596   0.5729   0.5803   0.6164
     0.6429   0.6491   0.6734   0.6802   0.7062   0.7169   0.8264   0.8619
     0.9048   0.9388   1.0014   1.0326   1.0986   1.1165   1.1295   1.1493
     1.1587   1.1681   1.2078   1.2436   1.2563   1.3092   1.3912   1.4242
     1.4317   1.4401   1.4971   1.5139   1.5365   1.5445   1.5782   1.5830
     1.6190   1.6363   1.6661   1.7178   1.7447   1.7566   1.7690   1.7887
     1.7988   1.8021   1.8225   1.8565   1.8730   1.8777   1.8950   1.9133
     1.9266   1.9608   2.0167   2.0250   2.0378   2.0548   2.0619   2.0769
     2.0848   2.1156   2.1216   2.1261   2.1374   2.1499   2.1563   2.1606
     2.1848   2.2062   2.3127   2.3445   2.3685   2.4786   2.6379   2.8069
     2.8836   2.9165

          k = 0.2000-0.1155 0.0000 ( 51134 PWs)   bands (ev):

   -21.4150 -10.0793  -7.4699  -6.6526  -6.1244  -5.5876  -5.3370  -5.1084
    -4.7634  -4.7454  -4.2481  -4.1361  -3.8382  -3.8298  -3.7445  -3.6867
    -3.5438  -3.2970  -3.1682  -3.1392  -3.0635  -2.7946  -2.5764  -2.5442
    -2.5062  -2.4607  -2.4326  -2.2196  -2.1362  -2.1255  -2.1221  -2.0910
    -2.0800  -2.0462  -2.0344  -2.0023  -1.9918  -1.8701  -1.8480  -1.7813
    -1.7662  -1.7435  -1.6574  -1.5949  -1.5804  -1.5670  -1.5233  -1.4583
    -1.4214  -1.4022  -1.3511  -1.3237  -1.3175  -1.2928  -1.2725  -1.2659
    -1.2563  -1.2058  -1.1756  -1.1579  -1.1289  -1.0959  -1.0797  -1.0575
    -0.9988  -0.9188  -0.7189  -0.6596  -0.6480  -0.6224  -0.5962  -0.5558
    -0.4946  -0.4818  -0.4286  -0.4123  -0.3144  -0.2946  -0.2857  -0.2657
    -0.2598  -0.2418  -0.2337  -0.2121  -0.2015  -0.1893  -0.1523  -0.1064
    -0.0864  -0.0726  -0.0670  -0.0415  -0.0258  -0.0091  -0.0040   0.0156
     0.0171   0.0240   0.0307   0.0343   0.0374   0.0504   0.0747   0.0910
     0.1140   0.1291   0.1360   0.1442   0.1705   0.1909   0.2004   0.2151
     0.2475   0.2697   0.3112   0.3185   0.3364   0.3585   0.3618   0.3859
     0.4411   0.5261   0.5714   0.5982   0.6021   0.6445   0.6583   0.6812
     0.6835   0.7038   0.7066   0.7098   0.7879   0.9230   1.0117   1.0334
     1.0424   1.0573   1.0650   1.0803   1.0965   1.1418   1.1954   1.2306
     1.2432   1.2782   1.3197   1.3264   1.3517   1.3811   1.4019   1.4099
     1.4675   1.4913   1.5072   1.5241   1.5329   1.5460   1.5651   1.5742
     1.6042   1.6296   1.6551   1.6797   1.7000   1.7134   1.7211   1.7539
     1.7683   1.7799   1.7850   1.7942   1.8083   1.8367   1.8643   1.8729
     1.8790   1.8818   1.9166   1.9284   1.9377   1.9515   1.9626   1.9792
     1.9860   2.0237   2.0258   2.0309   2.0514   2.0559   2.0654   2.0838
     2.0908   2.1166   2.1233   2.1400   2.2090   2.2216   2.2321   2.2483
     2.3062   2.3186

          k = 0.2000 0.1155 0.0000 ( 51134 PWs)   bands (ev):

   -21.4150 -10.0795  -7.4696  -6.6528  -6.1224  -5.5840  -5.3349  -5.1239
    -4.7529  -4.7453  -4.2510  -4.1464  -3.8365  -3.8308  -3.7325  -3.6855
    -3.5463  -3.2966  -3.1644  -3.1417  -3.0662  -2.7984  -2.5696  -2.5448
    -2.5050  -2.4597  -2.4360  -2.2202  -2.1344  -2.1232  -2.1192  -2.0857
    -2.0811  -2.0474  -2.0344  -1.9992  -1.9952  -1.8738  -1.8461  -1.7792
    -1.7655  -1.7332  -1.6830  -1.6094  -1.5866  -1.5673  -1.4868  -1.4503
    -1.4298  -1.4064  -1.3535  -1.3382  -1.3106  -1.2908  -1.2732  -1.2691
    -1.2568  -1.2051  -1.1845  -1.1591  -1.1306  -1.0922  -1.0806  -1.0573
    -0.9755  -0.9202  -0.7308  -0.6602  -0.6472  -0.6229  -0.5921  -0.5577
    -0.5061  -0.4810  -0.4260  -0.4097  -0.3237  -0.2906  -0.2825  -0.2779
    -0.2437  -0.2342  -0.2303  -0.2169  -0.2103  -0.1820  -0.1627  -0.1063
    -0.0859  -0.0732  -0.0626  -0.0494  -0.0412  -0.0047  -0.0016   0.0096
     0.0206   0.0219   0.0307   0.0353   0.0401   0.0530   0.0802   0.0914
     0.1160   0.1295   0.1419   0.1442   0.1568   0.1923   0.2069   0.2159
     0.2467   0.2626   0.3083   0.3164   0.3444   0.3541   0.3601   0.3852
     0.4648   0.5361   0.5707   0.5983   0.6064   0.6525   0.6562   0.6821
     0.6952   0.6989   0.7062   0.7085   0.7582   0.9206   1.0163   1.0253
     1.0431   1.0636   1.0742   1.0804   1.1016   1.1615   1.2039   1.2267
     1.2423   1.2633   1.3217   1.3272   1.3539   1.3773   1.3916   1.4090
     1.4714   1.4864   1.5132   1.5275   1.5340   1.5469   1.5633   1.5761
     1.5985   1.6289   1.6626   1.6720   1.6921   1.7137   1.7236   1.7493
     1.7714   1.7809   1.7846   1.7940   1.8053   1.8413   1.8650   1.8734
     1.8775   1.8834   1.9116   1.9287   1.9389   1.9516   1.9621   1.9789
     1.9845   2.0238   2.0258   2.0341   2.0523   2.0562   2.0636   2.0852
     2.0924   2.1180   2.1209   2.1401   2.2076   2.2213   2.2331   2.2464
     2.3061   2.3208

          k = 0.2000 0.3464 0.0000 ( 51202 PWs)   bands (ev):

   -21.4150 -10.0791  -7.1839  -6.6172  -5.9874  -5.7702  -5.7355  -5.4121
    -5.1004  -4.5156  -4.3911  -4.0283  -4.0207  -3.9195  -3.2055  -3.1890
    -3.1808  -3.1755  -3.0684  -2.9880  -2.9091  -2.8834  -2.8443  -2.5139
    -2.4373  -2.4299  -2.4129  -2.3594  -2.3364  -2.3190  -2.2322  -2.2192
    -2.2101  -2.2055  -2.1916  -2.0722  -2.0069  -1.8526  -1.8382  -1.8328
    -1.7608  -1.7534  -1.7081  -1.6979  -1.5901  -1.5052  -1.4858  -1.4628
    -1.3864  -1.3543  -1.3144  -1.3114  -1.2983  -1.2903  -1.2616  -1.2510
    -1.2344  -1.2217  -1.1529  -1.1318  -1.0779  -1.0102  -0.9641  -0.9236
    -0.8560  -0.8434  -0.7454  -0.7120  -0.6244  -0.6108  -0.5940  -0.5551
    -0.5444  -0.5249  -0.5199  -0.5067  -0.4440  -0.4295  -0.3993  -0.3858
    -0.3819  -0.3526  -0.3391  -0.3238  -0.2726  -0.2256  -0.1752  -0.1606
    -0.1442  -0.1153  -0.0888  -0.0630  -0.0430  -0.0353  -0.0207  -0.0075
     0.0133   0.0182   0.0360   0.0458   0.0606   0.0729   0.1036   0.1216
     0.1348   0.1434   0.1567   0.1741   0.1862   0.1990   0.2074   0.2157
     0.2411   0.3003   0.3156   0.3303   0.3976   0.4420   0.4606   0.4747
     0.5010   0.5042   0.5442   0.5846   0.6116   0.6236   0.6303   0.6424
     0.6528   0.6681   0.7041   0.7599   0.7745   0.8003   0.9120   0.9458
     0.9757   1.0450   1.0611   1.0896   1.1065   1.1174   1.1299   1.1455
     1.1692   1.1743   1.1846   1.2071   1.2425   1.2783   1.3212   1.3555
     1.3809   1.3937   1.4064   1.4456   1.4564   1.4973   1.5151   1.5425
     1.5708   1.6215   1.6992   1.7421   1.7560   1.7692   1.7881   1.8003
     1.8204   1.8301   1.8500   1.8583   1.8795   1.9037   1.9231   1.9319
     1.9489   1.9676   1.9820   1.9880   2.0073   2.0245   2.0350   2.0538
     2.0675   2.0761   2.0774   2.1071   2.1108   2.1195   2.1559   2.1930
     2.2075   2.2353   2.3183   2.3346   2.3940   2.4532   2.4957   2.6241
     2.7815   2.7913

          k = 0.2000-0.5774 0.0000 ( 51262 PWs)   bands (ev):

[...]
     atom    8 type  1   force =     0.00103349   -0.00082121   -0.10135135
     atom    9 type  1   force =     0.00326020   -0.00175281   -0.10554654
     atom   10 type  1   force =     0.00129916    0.00027580   -0.00861452
     atom   11 type  1   force =     0.00098842    0.00004753   -0.01254349
     atom   12 type  1   force =    -0.00256683    0.00090427   -0.00972475
     atom   13 type  1   force =     0.00101714   -0.00072571   -0.01135870
     atom   14 type  1   force =     0.00032395   -0.00100594   -0.01016226
     atom   15 type  1   force =    -0.00077964   -0.00003784   -0.01330357
     atom   16 type  1   force =     0.00108823   -0.00048323   -0.01720962
     atom   17 type  1   force =    -0.00043020   -0.00014362   -0.01040192
     atom   18 type  1   force =    -0.00037440    0.00175555   -0.01163777
     atom   19 type  1   force =     0.00132758    0.01016799    0.00204172
     atom   20 type  1   force =    -0.00344379    0.00779108    0.01131376
     atom   21 type  1   force =     0.00165386   -0.00060448    0.01767814
     atom   22 type  1   force =     0.00028455   -0.00074022    0.01854863
     atom   23 type  1   force =     0.00149632   -0.00109658    0.01342266
     atom   24 type  1   force =    -0.00041284    0.00001759    0.01800980
     atom   25 type  1   force =    -0.00983852   -0.00302896    0.00460912
     atom   26 type  1   force =    -0.00012528   -0.00786290   -0.00081624
     atom   27 type  1   force =     0.00667409   -0.00411366    0.01019972
     atom   28 type  1   force =     0.06013269   -0.01017954    0.11153394
     atom   29 type  1   force =     0.00003153   -0.00075520    0.02594079
     atom   30 type  1   force =     0.00488383   -0.00134401    0.11842213
     atom   31 type  1   force =    -0.00858722   -0.02898491    0.13693147
     atom   32 type  1   force =     0.00079020   -0.00055332    0.10563641
     atom   33 type  1   force =     0.00190009   -0.00620683    0.10836898
     atom   34 type  1   force =     0.01246023    0.01749386    0.12939838
     atom   35 type  1   force =    -0.02146954    0.05981364    0.17199956
     atom   36 type  1   force =    -0.00263505    0.00018866    0.10772801
     atom   37 type  2   force =    -0.39284263   -0.05859641    0.20604408
     atom   38 type  3   force =     2.14192626    0.31376962   -1.18377137
     atom   39 type  4   force =    -0.05369109   -0.00711508   -0.05517477
     The ionic contribution  to forces
     atom    1 type  1   force =    -0.00530479    0.00848460 -111.18697394
     atom    2 type  1   force =     0.00570715    0.00774079 -111.18617048
     atom    3 type  1   force =    -0.00040234    0.00238487 -111.17561514
     atom    4 type  1   force =    -0.00044098    0.00176692 -111.17501239
     atom    5 type  1   force =    -0.00195428   -0.00617924 -111.17975659
     atom    6 type  1   force =     0.00239526   -0.00545521 -111.17887398
     atom    7 type  1   force =    -0.00811291   -0.00225018 -111.18432864
     atom    8 type  1   force =     0.00084954   -0.00421883 -111.19891540
     atom    9 type  1   force =     0.00726335   -0.00227373 -111.18263050
     atom   10 type  1   force =    -0.05409102    0.01251854  -40.23763014
     atom   11 type  1   force =     0.05969661    0.01015876  -40.22636102
     atom   12 type  1   force =    -0.00560062    0.00506704  -40.11903515
     atom   13 type  1   force =     0.00088401    0.06669095  -40.15125132
     atom   14 type  1   force =     0.02181795    0.01269248  -40.10576292
     atom   15 type  1   force =    -0.02270367    0.01853070  -40.10748946
     atom   16 type  1   force =    -0.03472903   -0.02844878  -40.12034338
     atom   17 type  1   force =     0.00473839   -0.07263456  -40.18062577
     atom   18 type  1   force =     0.02998939   -0.02457286  -40.11100999
     atom   19 type  1   force =    -0.26569166    0.43466221   31.14724773
     atom   20 type  1   force =     0.28533254    0.39844578   31.18334724
     atom   21 type  1   force =    -0.01915637    0.10552242   31.66970000
     atom   22 type  1   force =    -0.02021222    0.07538884   31.69690194
     atom   23 type  1   force =    -0.09348759   -0.29689827   31.49739667
     atom   24 type  1   force =     0.11370169   -0.25880023   31.53919114
     atom   25 type  1   force =    -0.40847427   -0.10859510   31.26974014
     atom   26 type  1   force =     0.04477875   -0.24141515   30.47406002
     atom   27 type  1   force =     0.36288839   -0.11002288   31.35829105
     atom   28 type  1   force =    -3.69305508    1.05433573   97.45771173
     atom   29 type  1   force =     4.20419972    0.72568845   98.06951951
     atom   30 type  1   force =    -0.25321702    0.15518426  103.97836534
     atom   31 type  1   force =     0.03417191    2.79910199  103.05028618
     atom   32 type  1   force =     0.69259314    0.49261459  104.26414939
     atom   33 type  1   force =    -0.73645030    0.70930330  104.20804959
     atom   34 type  1   force =    -1.27263894   -1.14443063  103.81069136
     atom   35 type  1   force =     0.26954460   -3.61531697  101.87566401
     atom   36 type  1   force =     1.00791891   -0.88556815  104.13383717
     atom   37 type  2   force =     6.03826626    0.72810502   55.96612423
     atom   38 type  3   force =    -8.22431244   -1.26581482   88.25544319
     atom   39 type  4   force =     1.93329796    0.24850736   15.10206856
     The local contribution  to forces
     atom    1 type  1   force =     0.00227513   -0.00913565  111.29135439
     atom    2 type  1   force =    -0.00479735   -0.01032728  111.29323012
     atom    3 type  1   force =     0.00237591   -0.00134552  111.28165573
     atom    4 type  1   force =     0.00109572   -0.00171243  111.28286765
     atom    5 type  1   force =     0.00025950    0.00862141  111.28683608
     atom    6 type  1   force =    -0.00198361    0.00260886  111.28585066
     atom    7 type  1   force =     0.01219861    0.00125731  111.28641688
     atom    8 type  1   force =    -0.00156515    0.00538941  111.30325014
     atom    9 type  1   force =    -0.01068741    0.00441953  111.29091726
     atom   10 type  1   force =     0.05186172   -0.01296424   40.22530406
     atom   11 type  1   force =    -0.05971588   -0.01038814   40.21690695
     atom   12 type  1   force =     0.00845030   -0.00587763   40.10768590
     atom   13 type  1   force =    -0.00160443   -0.06554966   40.14229812
     atom   14 type  1   force =    -0.02242393   -0.01105695   40.09518422
     atom   15 type  1   force =     0.02397998   -0.01839946   40.09894711
     atom   16 type  1   force =     0.03391082    0.02943494   40.11493609
     atom   17 type  1   force =    -0.00546385    0.07280168   40.17022268
     atom   18 type  1   force =    -0.02925219    0.02301198   40.10117233
     atom   19 type  1   force =     0.26413339   -0.44671549  -31.12865770
     atom   20 type  1   force =    -0.28180934   -0.40602708  -31.17627113
     atom   21 type  1   force =     0.01787126   -0.10543450  -31.66481192
     atom   22 type  1   force =     0.01966579   -0.07504474  -31.68969747
     atom   23 type  1   force =     0.09229135    0.29748445  -31.48803547
     atom   24 type  1   force =    -0.11247441    0.25832400  -31.53336060
     atom   25 type  1   force =     0.42076385    0.11434168  -31.25141764
     atom   26 type  1   force =    -0.04504861    0.25093803  -30.45273972
     atom   27 type  1   force =    -0.36813315    0.11406100  -31.35253708
     atom   28 type  1   force =     3.60850956   -1.04186806  -97.57773664
     atom   29 type  1   force =    -4.20287056   -0.72351809  -98.08298576
     atom   30 type  1   force =     0.24604313   -0.15278995 -104.10821097
     atom   31 type  1   force =    -0.02279887   -2.75993039 -103.19705380
     atom   32 type  1   force =    -0.69026281   -0.48998685 -104.37719881
     atom   33 type  1   force =     0.73105181   -0.70007940 -104.32589266
     atom   34 type  1   force =     1.25426114    1.12151087 -103.95009002
     atom   35 type  1   force =    -0.24447839    3.54233459 -102.05909072
     atom   36 type  1   force =    -1.00090183    0.88098640 -104.24865564
     atom   37 type  2   force =    -5.64349075   -0.66910723  -56.16603426
     atom   38 type  3   force =     6.10297560    0.95649540  -87.08696594
     atom   39 type  4   force =    -1.87873474   -0.24279237  -15.03750744
     The core correction contribution to forces
     atom    1 type  1   force =    -0.00019318   -0.00032583    0.01021167
     atom    2 type  1   force =    -0.00006927   -0.00028360    0.01048413
     atom    3 type  1   force =    -0.00004164    0.00002085    0.01001802
     atom    4 type  1   force =    -0.00012193   -0.00004535    0.01000563
     atom    5 type  1   force =     0.00002516    0.00027592    0.01031807
     atom    6 type  1   force =    -0.00010571   -0.00014284    0.01010718
     atom    7 type  1   force =     0.00046169    0.00004038    0.01052849
     atom    8 type  1   force =    -0.00010464    0.00012141    0.01022187
     atom    9 type  1   force =    -0.00017754    0.00023866    0.01042963
     atom   10 type  1   force =    -0.00001902   -0.00010947   -0.00148216
     atom   11 type  1   force =    -0.00003431    0.00002590   -0.00187879
     atom   12 type  1   force =     0.00011261    0.00016047   -0.00162840
     atom   13 type  1   force =     0.00005716   -0.00000203   -0.00186858
     atom   14 type  1   force =    -0.00005905   -0.00009212   -0.00162660
     atom   15 type  1   force =    -0.00006814   -0.00005545   -0.00191387
     atom   16 type  1   force =     0.00018628    0.00007558   -0.00189174
     atom   17 type  1   force =     0.00000215    0.00013699   -0.00175537
     atom   18 type  1   force =    -0.00012011   -0.00002256   -0.00176000
     atom   19 type  1   force =    -0.00007824    0.00018732    0.00064614
     atom   20 type  1   force =    -0.00048126    0.00096900    0.00042392
     atom   21 type  1   force =     0.00024244   -0.00009453    0.00173639
     atom   22 type  1   force =     0.00021968   -0.00005355    0.00216021
     atom   23 type  1   force =    -0.00027963   -0.00000249    0.00150867
     atom   24 type  1   force =    -0.00016774   -0.00027167    0.00199739
     atom   25 type  1   force =     0.00002795    0.00001574    0.00144178
     atom   26 type  1   force =    -0.00027119    0.00003754    0.00108050
     atom   27 type  1   force =     0.00116572   -0.00081750    0.00020451
     atom   28 type  1   force =     0.01027366   -0.00246886    0.00498851
     atom   29 type  1   force =    -0.00423331   -0.00093110   -0.00473915
     atom   30 type  1   force =    -0.00083383    0.00009995   -0.00958511
     atom   31 type  1   force =     0.00198074   -0.00431169   -0.00761634
     atom   32 type  1   force =    -0.00184424   -0.00195589   -0.00960227
     atom   33 type  1   force =     0.00000082   -0.00012144   -0.01050644
     atom   34 type  1   force =     0.00055436    0.00041256   -0.00917513
     atom   35 type  1   force =     0.00181892    0.00635821   -0.00531518
     atom   36 type  1   force =    -0.00242790    0.00225619   -0.00904519
     atom   37 type  2   force =     0.00477994    0.00112259   -0.00287312
     atom   38 type  3   force =    -0.01736069   -0.00259651    0.01059754
     atom   39 type  4   force =     0.00000000    0.00000000    0.00000000
     The Hubbard contrib.    to forces
     atom    1 type  1   force =     0.00000000    0.00000000    0.00000000
     atom    2 type  1   force =     0.00000000    0.00000000    0.00000000
     atom    3 type  1   force =     0.00000000    0.00000000    0.00000000
     atom    4 type  1   force =     0.00000000    0.00000000    0.00000000
     atom    5 type  1   force =     0.00000000    0.00000000    0.00000000
     atom    6 type  1   force =     0.00000000    0.00000000    0.00000000
     atom    7 type  1   force =     0.00000000    0.00000000    0.00000000
     atom    8 type  1   force =     0.00000000    0.00000000    0.00000000
     atom    9 type  1   force =     0.00000000    0.00000000    0.00000000
     atom   10 type  1   force =     0.00000000    0.00000000    0.00000000
     atom   11 type  1   force =     0.00000000    0.00000000    0.00000000
     atom   12 type  1   force =     0.00000000    0.00000000    0.00000000
     atom   13 type  1   force =     0.00000000    0.00000000    0.00000000
     atom   14 type  1   force =     0.00000000    0.00000000    0.00000000
     atom   15 type  1   force =     0.00000000    0.00000000    0.00000000
     atom   16 type  1   force =     0.00000000    0.00000000    0.00000000
     atom   17 type  1   force =     0.00000000    0.00000000    0.00000000
     atom   18 type  1   force =     0.00000000    0.00000000    0.00000000
     atom   19 type  1   force =     0.00000000    0.00000000    0.00000000
     atom   20 type  1   force =     0.00000000    0.00000000    0.00000000
     atom   21 type  1   force =     0.00000000    0.00000000    0.00000000
     atom   22 type  1   force =     0.00000000    0.00000000    0.00000000
     atom   23 type  1   force =     0.00000000    0.00000000    0.00000000
     atom   24 type  1   force =     0.00000000    0.00000000    0.00000000
     atom   25 type  1   force =     0.00000000    0.00000000    0.00000000
     atom   26 type  1   force =     0.00000000    0.00000000    0.00000000
     atom   27 type  1   force =     0.00000000    0.00000000    0.00000000
     atom   28 type  1   force =     0.00000000    0.00000000    0.00000000
     atom   29 type  1   force =     0.00000000    0.00000000    0.00000000
     atom   30 type  1   force =     0.00000000    0.00000000    0.00000000
     atom   31 type  1   force =     0.00000000    0.00000000    0.00000000
     atom   32 type  1   force =     0.00000000    0.00000000    0.00000000
     atom   33 type  1   force =     0.00000000    0.00000000    0.00000000
     atom   34 type  1   force =     0.00000000    0.00000000    0.00000000
     atom   35 type  1   force =     0.00000000    0.00000000    0.00000000
     atom   36 type  1   force =     0.00000000    0.00000000    0.00000000
     atom   37 type  2   force =     0.00000000    0.00000000    0.00000000
     atom   38 type  3   force =     0.00000000    0.00000000    0.00000000
     atom   39 type  4   force =     0.00000000    0.00000000    0.00000000
     The SCF correction term to forces
     atom    1 type  1   force =     0.00000000    0.00000000   -0.00000000
     atom    2 type  1   force =    -0.00000000    0.00000000   -0.00000000
     atom    3 type  1   force =    -0.00000000   -0.00000000   -0.00000000
     atom    4 type  1   force =     0.00000000    0.00000000   -0.00000000
     atom    5 type  1   force =    -0.00000000    0.00000000   -0.00000000
     atom    6 type  1   force =     0.00000000    0.00000000   -0.00000000
     atom    7 type  1   force =     0.00000000   -0.00000000   -0.00000000
     atom    8 type  1   force =    -0.00000000   -0.00000000   -0.00000000
     atom    9 type  1   force =     0.00000000   -0.00000000   -0.00000000
     atom   10 type  1   force =     0.00000000   -0.00000000    0.00000000
     atom   11 type  1   force =    -0.00000000   -0.00000000    0.00000000
     atom   12 type  1   force =    -0.00000000   -0.00000000    0.00000000
     atom   13 type  1   force =    -0.00000000    0.00000000    0.00000000
     atom   14 type  1   force =    -0.00000000    0.00000000    0.00000000
     atom   15 type  1   force =     0.00000000    0.00000000    0.00000000
     atom   16 type  1   force =    -0.00000000   -0.00000000   -0.00000000
     atom   17 type  1   force =     0.00000000    0.00000000    0.00000000
     atom   18 type  1   force =     0.00000000   -0.00000000    0.00000000
     atom   19 type  1   force =     0.00000000    0.00000000    0.00000000
     atom   20 type  1   force =    -0.00000000   -0.00000000    0.00000000
     atom   21 type  1   force =     0.00000000   -0.00000000    0.00000000
     atom   22 type  1   force =    -0.00000000    0.00000000    0.00000000
     atom   23 type  1   force =    -0.00000000    0.00000000    0.00000000
     atom   24 type  1   force =     0.00000000    0.00000000    0.00000000
     atom   25 type  1   force =     0.00000000   -0.00000000    0.00000000
     atom   26 type  1   force =     0.00000000    0.00000000    0.00000000
     atom   27 type  1   force =    -0.00000000   -0.00000000    0.00000000
     atom   28 type  1   force =    -0.00000000    0.00000000    0.00000000
     atom   29 type  1   force =    -0.00000000    0.00000000    0.00000000
     atom   30 type  1   force =     0.00000000   -0.00000000    0.00000000
     atom   31 type  1   force =    -0.00000000    0.00000000    0.00000000
     atom   32 type  1   force =    -0.00000000   -0.00000000    0.00000000
     atom   33 type  1   force =     0.00000000   -0.00000000    0.00000000
     atom   34 type  1   force =    -0.00000000    0.00000000    0.00000000
     atom   35 type  1   force =     0.00000000    0.00000000    0.00000000
     atom   36 type  1   force =     0.00000000    0.00000000    0.00000000
     atom   37 type  2   force =    -0.00000278    0.00000307    0.00001932
     atom   38 type  3   force =    -0.00000664    0.00000375    0.00002941
     atom   39 type  4   force =    -0.00000011    0.00000027    0.00000508

     Total force =     0.013574     Total SCF correction =     0.000037

     Writing all to output data dir ./pwscf.save/

     init_run     :     15.68s CPU     16.21s WALL (       1 calls)
     electrons    :    944.27s CPU    960.11s WALL (       1 calls)
     forces       :      3.34s CPU      3.45s WALL (       1 calls)

     Called by init_run:
     wfcinit      :     12.65s CPU     13.05s WALL (       1 calls)
     potinit      :      1.95s CPU      2.04s WALL (       1 calls)
     hinit0       :      0.85s CPU      0.86s WALL (       1 calls)

     Called by electrons:
     c_bands      :    793.11s CPU    806.43s WALL (      54 calls)
     sum_band     :    106.40s CPU    107.82s WALL (      54 calls)
     v_of_rho     :      9.19s CPU      9.60s WALL (      55 calls)
     newd         :      3.77s CPU      3.83s WALL (      55 calls)
     PAW_pot      :     15.44s CPU     15.60s WALL (      55 calls)
     mix_rho      :     17.39s CPU     17.70s WALL (      54 calls)
     vdW_kernel   :      1.06s CPU      1.07s WALL (       1 calls)

     Called by c_bands:
     init_us_2    :      9.51s CPU      9.88s WALL (    2860 calls)
     init_us_2:cp :      9.50s CPU      9.87s WALL (    2860 calls)
     cegterg      :    765.45s CPU    777.81s WALL (    1404 calls)

     Called by *egterg:
     cdiaghg      :    209.72s CPU    212.20s WALL (    4894 calls)
     h_psi        :    368.82s CPU    376.14s WALL (    4920 calls)
     s_psi        :     39.17s CPU     39.69s WALL (    4920 calls)
     g_psi        :      0.97s CPU      0.99s WALL (    3490 calls)

     Called by h_psi:
     h_psi:calbec :     57.41s CPU     58.18s WALL (    4920 calls)
     vloc_psi     :    269.38s CPU    275.21s WALL (    4920 calls)
     add_vuspsi   :     39.63s CPU     40.31s WALL (    4920 calls)

     General routines
     calbec       :     86.04s CPU     87.14s WALL (    6428 calls)
     fft          :      6.40s CPU      6.83s WALL (    4972 calls)
     ffts         :     10.16s CPU     10.37s WALL (   24289 calls)
     fftw         :    314.89s CPU    321.19s WALL ( 1452134 calls)
     interpolate  :      0.60s CPU      0.62s WALL (     110 calls)

     Parallel routines

     PWSCF        :  16m 8.72s CPU  16m30.07s WALL


   This run was terminated on:   9:56:50  14Dec2025            

=------------------------------------------------------------------------------=
   JOB DONE.
=------------------------------------------------------------------------------=
