
     Program PWSCF v.7.1 starts on 21Nov2025 at 13:44:35 
        Git branch: heads/qe-7.1
        Last git commit: 48ba0178f8fede6d020eb786884699a9f063f55d-dirty
        Last git commit date: Fri Jan 27 14:22:33 2023 +0000
        Last git commit subject: Merge branch 'fix_hubbard' into 'develop'

     This program is part of the open-source Quantum ESPRESSO suite
     for quantum simulation of materials; please cite
         "P. Giannozzi et al., J. Phys.:Condens. Matter 21 395502 (2009);
         "P. Giannozzi et al., J. Phys.:Condens. Matter 29 465901 (2017);
         "P. Giannozzi et al., J. Chem. Phys. 152 154105 (2020);
          URL http://www.quantum-espresso.org", 
     in publications or presentations arising from this work. More details at
     http://www.quantum-espresso.org/quote

     Parallel version (MPI), running on    96 processors

     MPI processes distributed on     2 nodes
     55696 MiB available memory on the printing compute node when the environment starts

     Reading input from espresso.pwi
Warning: card &CELL ignored
Warning: card / ignored
Warning: card &FCP ignored
Warning: card / ignored
Warning: card &RISM ignored
Warning: card / ignored

     Current dimensions of program PWSCF are:
     Max number of different atomic species (ntypx) = 10
     Max number of k-points (npk) =  40000
     Max angular momentum in pseudopotentials (lmaxx) =  4
     file Co.pbe-n-kjpaw_psl.1.0.0.UPF: wavefunction(s)  4S 3D renormalized
     file C.pbe-n-kjpaw_psl.1.0.0.UPF: wavefunction(s)  2S 2P renormalized
     file O.pbe-nl-kjpaw_psl.1.0.0.UPF: wavefunction(s)  2S 2P renormalized
     file H.pbe-kjpaw_psl.1.0.0.UPF: wavefunction(s)  1S renormalized

     **************************************************************************
     Initializing libbeef V0.1.2 with the BEEF-vdW functional.
     Citation: Wellendorff et al., PRB 85, 235149 (2012).
     **************************************************************************


     IMPORTANT: XC functional enforced from input :
     Exchange-correlation= BEEF-VDW
                           (   1   4  43  14   2   0   0)
     Any further DFT definition will be discarded
     Please, verify this is what you really want


     R & G space division:  proc/nbgrp/npool/nimage =      96
     Subspace diagonalization in iterative solution of the eigenvalue problem:
     one sub-group per band group will be used
     custom distributed-memory algorithm (size of sub-group:  2*  2 procs)


     Parallelization info
     --------------------
     sticks:   dense  smooth     PW     G-vecs:    dense   smooth      PW
     Min          43      23      6                 7829     3049     440
     Max          44      24      7                 7845     3068     465
     Sum        4153    2221    613               752179   293251   42993

     Using Slab Decomposition



     bravais-lattice index     =            0
     lattice parameter (alat)  =      14.1729  a.u.
     unit-cell volume          =    8574.3059 (a.u.)^3
     number of atoms/cell      =           39
     number of atomic types    =            4
     number of electrons       =       335.00
     number of Kohn-Sham states=          202
     kinetic-energy cutoff     =      40.0000  Ry
     charge density cutoff     =     300.0000  Ry
     scf convergence threshold =      1.0E-06
     mixing beta               =       0.7000
     number of iterations used =            8  local-TF  mixing
     Exchange-correlation= BEEF-VDW
                           (   1   4  43  14   2   0   0)

     celldm(1)=  14.172946  celldm(2)=   0.000000  celldm(3)=   0.000000
     celldm(4)=   0.000000  celldm(5)=   0.000000  celldm(6)=   0.000000

     crystal axes: (cart. coord. in units of alat)
               a(1) = (   1.000000   0.000000   0.000000 )  
               a(2) = (   0.500000   0.866025   0.000000 )  
               a(3) = (   0.000000   0.000000   3.477667 )  

     reciprocal axes: (cart. coord. in units 2 pi/alat)
               b(1) = (  1.000000 -0.577350  0.000000 )  
               b(2) = (  0.000000  1.154701  0.000000 )  
               b(3) = (  0.000000  0.000000  0.287549 )  


     PseudoPot. # 1 for Co read from file:
     /users/kbadger1/espresso/pseudo/pslibrary.1.0.0/pbe/PSEUDOPOTENTIALS/Co.pbe-n-kjpaw_psl.1.0.0.UPF
     MD5 check sum: 88af6ec42553d4236c267fdfcb472151
     Pseudo is Projector augmented-wave + core cor, Zval =  9.0
     Generated using 'atomic' code by A. Dal Corso  v.7.0
     Shape of augmentation charge: PSQ
     Using radial grid of 1193 points,  6 beta functions with: 
                l(1) =   0
                l(2) =   0
                l(3) =   1
                l(4) =   1
                l(5) =   2
                l(6) =   2
     Q(r) pseudized with 0 coefficients 


     PseudoPot. # 2 for C  read from file:
     /users/kbadger1/espresso/pseudo/pslibrary.1.0.0/pbe/PSEUDOPOTENTIALS/C.pbe-n-kjpaw_psl.1.0.0.UPF
     MD5 check sum: 6408e75cdba28732cea38a4db8498ce4
     Pseudo is Projector augmented-wave + core cor, Zval =  4.0
     Generated using 'atomic' code by A. Dal Corso  v.7.0
     Shape of augmentation charge: PSQ
     Using radial grid of 1073 points,  4 beta functions with: 
                l(1) =   0
                l(2) =   0
                l(3) =   1
                l(4) =   1
     Q(r) pseudized with 0 coefficients 


     PseudoPot. # 3 for O  read from file:
     /users/kbadger1/espresso/pseudo/pslibrary.1.0.0/pbe/PSEUDOPOTENTIALS/O.pbe-nl-kjpaw_psl.1.0.0.UPF
     MD5 check sum: f0439fab3598ca4e468f064226030408
     Pseudo is Projector augmented-wave + core cor, Zval =  6.0
     Generated using 'atomic' code by A. Dal Corso  v.7.0
     Shape of augmentation charge: PSQ
     Using radial grid of 1095 points,  4 beta functions with: 
                l(1) =   0
                l(2) =   0
                l(3) =   1
                l(4) =   1
     Q(r) pseudized with 0 coefficients 


     PseudoPot. # 4 for H  read from file:
     /users/kbadger1/espresso/pseudo/pslibrary.1.0.0/pbe/PSEUDOPOTENTIALS/H.pbe-kjpaw_psl.1.0.0.UPF
     MD5 check sum: fe4c6fa958fa6d3815bf5d2419cbf1df
     Pseudo is Projector augmented-wave, Zval =  1.0
     Generated using 'atomic' code by A. Dal Corso  v.7.0
     Shape of augmentation charge: PSQ
     Using radial grid of  929 points,  2 beta functions with: 
                l(1) =   0
                l(2) =   0
     Q(r) pseudized with 0 coefficients 


     atomic species   valence    mass     pseudopotential
        Co             9.00    58.93319     Co( 1.00)
        C              4.00    12.00000     C ( 1.00)
        O              6.00    15.99491     O ( 1.00)
        H              1.00     1.00783     H ( 1.00)

     Starting magnetic structure 
     atomic species   magnetization
        Co           1.000
        C            1.000
        O            0.000
        H            0.000

     No symmetry found



   Cartesian axes

     site n.     atom                  positions (alat units)
         1           Co  tau(   1) = (   0.0000000   0.1924501   1.3333333  )
         2           Co  tau(   2) = (   0.3333333   0.1924501   1.3333333  )
         3           Co  tau(   3) = (   0.6666667   0.1924501   1.3333333  )
         4           Co  tau(   4) = (   0.1666667   0.4811252   1.3333333  )
         5           Co  tau(   5) = (   0.5000000   0.4811252   1.3333333  )
         6           Co  tau(   6) = (   0.8333333   0.4811252   1.3333333  )
         7           Co  tau(   7) = (   0.3333333   0.7698004   1.3333333  )
         8           Co  tau(   8) = (   0.6666667   0.7698004   1.3333333  )
         9           Co  tau(   9) = (   1.0000000   0.7698004   1.3333333  )
        10           Co  tau(  10) = (   0.0000000   0.0000000   1.6036667  )
        11           Co  tau(  11) = (   0.3333333   0.0000000   1.6036667  )
        12           Co  tau(  12) = (   0.6666667   0.0000000   1.6036667  )
        13           Co  tau(  13) = (   0.1666667   0.2886751   1.6036667  )
        14           Co  tau(  14) = (   0.5000000   0.2886751   1.6036667  )
        15           Co  tau(  15) = (   0.8333333   0.2886751   1.6036667  )
        16           Co  tau(  16) = (   0.3333333   0.5773503   1.6036667  )
        17           Co  tau(  17) = (   0.6666667   0.5773503   1.6036667  )
        18           Co  tau(  18) = (   1.0000000   0.5773503   1.6036667  )
        19           Co  tau(  19) = (   0.0000000   0.1924501   1.8740000  )
        20           Co  tau(  20) = (   0.3333333   0.1924501   1.8740000  )
        21           Co  tau(  21) = (   0.6666667   0.1924501   1.8740000  )
        22           Co  tau(  22) = (   0.1666667   0.4811252   1.8740000  )
        23           Co  tau(  23) = (   0.5000000   0.4811252   1.8740000  )
        24           Co  tau(  24) = (   0.8333333   0.4811252   1.8740000  )
        25           Co  tau(  25) = (   0.3333333   0.7698004   1.8740000  )
        26           Co  tau(  26) = (   0.6666667   0.7698004   1.8740000  )
        27           Co  tau(  27) = (   1.0000000   0.7698004   1.8740000  )
        28           Co  tau(  28) = (   0.0000000   0.0000000   2.1443333  )
        29           Co  tau(  29) = (   0.3333333   0.0000000   2.1443333  )
        30           Co  tau(  30) = (   0.6666667   0.0000000   2.1443333  )
        31           Co  tau(  31) = (   0.1666667   0.2886751   2.1443333  )
        32           Co  tau(  32) = (   0.5000000   0.2886751   2.1443333  )
        33           Co  tau(  33) = (   0.8333333   0.2886751   2.1443333  )
        34           Co  tau(  34) = (   0.3333333   0.5773503   2.1443333  )
        35           Co  tau(  35) = (   0.6666667   0.5773503   2.1443333  )
        36           Co  tau(  36) = (   1.0000000   0.5773503   2.1443333  )
        37           C   tau(  37) = (   0.3341719   0.1953863   2.3230957  )
        38           O   tau(  38) = (   0.3093780   0.1796512   2.4797816  )
        39           H   tau(  39) = (   0.6037034   0.3460174   2.3121636  )

     number of k points=    13  Marzari-Vanderbilt smearing, width (Ry)=  0.0010
                       cart. coord. in units 2pi/alat
        k(    1) = (   0.0000000   0.0000000   0.0000000), wk =   0.0400000
        k(    2) = (   0.0000000   0.2309401   0.0000000), wk =   0.0800000
        k(    3) = (   0.0000000   0.4618802   0.0000000), wk =   0.0800000
        k(    4) = (   0.2000000  -0.1154701   0.0000000), wk =   0.0800000
        k(    5) = (   0.2000000   0.1154701   0.0000000), wk =   0.0800000
        k(    6) = (   0.2000000   0.3464102   0.0000000), wk =   0.0800000
        k(    7) = (   0.2000000  -0.5773503   0.0000000), wk =   0.0800000
        k(    8) = (   0.2000000  -0.3464102   0.0000000), wk =   0.0800000
        k(    9) = (   0.4000000  -0.2309401   0.0000000), wk =   0.0800000
        k(   10) = (   0.4000000   0.0000000   0.0000000), wk =   0.0800000
        k(   11) = (   0.4000000   0.2309401   0.0000000), wk =   0.0800000
        k(   12) = (   0.4000000  -0.6928203   0.0000000), wk =   0.0800000
        k(   13) = (   0.4000000  -0.4618802   0.0000000), wk =   0.0800000

     Dense  grid:   752179 G-vectors     FFT dimensions: (  80,  80, 288)

     Smooth grid:   293251 G-vectors     FFT dimensions: (  60,  60, 200)

     Estimated max dynamical RAM per process >      84.82 MB

     Estimated total dynamical RAM >       7.95 GB
     Generating pointlists ...
     new r_m :   0.0847 (alat units)  1.2011 (a.u.) for type    1
     new r_m :   0.0658 (alat units)  0.9320 (a.u.) for type    2
     new r_m :   0.0658 (alat units)  0.9320 (a.u.) for type    3
     new r_m :   0.0847 (alat units)  1.2011 (a.u.) for type    4

     Initial potential from superposition of free atoms

     starting charge     334.9897, renormalised to     335.0000

     negative rho (up, down):  3.062E-03 4.571E-04


     %%%%%%%%%%%%%%%%%%%%%%%%%%%%%%%%%%%%%%%%%%%%%%%%%%%%%%%%%%%%%%%%%%%%%%%%
     %                                                                      %
     % You are using vdW-DF, which was implemented by the Thonhauser group. %
     % Please cite the following two papers that made this development      %
     % possible and the two reviews that describe the various versions:     %
     %                                                                      %
     %   T. Thonhauser et al., PRL 115, 136402 (2015).                      %
     %   T. Thonhauser et al., PRB 76, 125112 (2007).                       %
     %   K. Berland et al., Rep. Prog. Phys. 78, 066501 (2015).             %
     %   D.C. Langreth et al., J. Phys.: Condens. Matter 21, 084203 (2009). %
     %                                                                      %
     % If you are calculating stress with vdW-DF, please also cite:         %
     %                                                                      %
     %   R. Sabatini et al., J. Phys.: Condens. Matter 24, 424209 (2012).   %
     %   C.M. Frostenson et al., Electr. Struct. 4, 014001 (2022).          %
     %                                                                      %
     %%%%%%%%%%%%%%%%%%%%%%%%%%%%%%%%%%%%%%%%%%%%%%%%%%%%%%%%%%%%%%%%%%%%%%%%

     %%%%%%%%%%%%%%%%%%%%%%%%%%%%%%%%%%%%%%%%%%%%%%%%%%%%%%%%%%%%%%%%%%%%%%%%
     %                                                                      %
     %  vdW-DF NEWS:                                                        %
     %                                                                      %
     %  * vdW-DF3 is now available. DOI: 10.1021/acs.jctc.0c00471           %
     %    use with input_dft = 'vdW-DF3-opt1' or 'vdW-DF3-opt2'             %
     %                                                                      %
     %  * Unscreened and range-separated hybrid vdW-DF-cx functionals       %
     %    DOI: 10.1063/1.4986522 and 10.1088/1361-648X/ac2ad2               %
     %    use with input_dft = 'vdW-DF-cx0'    and 'vdW-DF-ahcx'            %
     %  * Unscreened and range-separated hybrid vdW-DF2-b86r functionals    %
     %    DOI: 10.1063/1.4986522 and DOI: 10.1103/PhysRevX.12.041003        %
     %    use with input_dft = 'vdW-DF2-br0' and 'vdW-DF2-ahbr'             %
     %                                                                      %
     %%%%%%%%%%%%%%%%%%%%%%%%%%%%%%%%%%%%%%%%%%%%%%%%%%%%%%%%%%%%%%%%%%%%%%%%


     Starting wfcs are  333 randomized atomic wfcs
     Checking if some PAW data can be deallocated... 

     total cpu time spent up to now is       11.3 secs

     per-process dynamical memory:   212.4 Mb

     Self-consistent Calculation

     iteration #  1     ecut=    40.00 Ry     beta= 0.70
     Davidson diagonalization with overlap
     ethr =  1.00E-02,  avg # of iterations =  2.0

     negative rho (up, down):  6.802E-05 1.546E-06

     total cpu time spent up to now is       26.6 secs

     total energy              =   -6052.97568862 Ry
     estimated scf accuracy    <      39.21740330 Ry

     total magnetization       =    69.00 Bohr mag/cell
     absolute magnetization    =    81.32 Bohr mag/cell

     iteration #  2     ecut=    40.00 Ry     beta= 0.70
     Davidson diagonalization with overlap
     ethr =  1.00E-02,  avg # of iterations =  1.0

     negative rho (up, down):  2.799E-05 9.214E-07

     total cpu time spent up to now is       38.3 secs

     total energy              =   -6052.43080865 Ry
     estimated scf accuracy    <      25.32800642 Ry

     total magnetization       =    68.84 Bohr mag/cell
     absolute magnetization    =    76.78 Bohr mag/cell

     iteration #  3     ecut=    40.00 Ry     beta= 0.70
     Davidson diagonalization with overlap
     ethr =  7.56E-03,  avg # of iterations =  1.0

     negative rho (up, down):  1.429E-06 2.814E-06

     total cpu time spent up to now is       50.5 secs

     total energy              =   -6055.04579395 Ry
     estimated scf accuracy    <      82.51976616 Ry

     total magnetization       =    66.12 Bohr mag/cell
     absolute magnetization    =    73.47 Bohr mag/cell

     iteration #  4     ecut=    40.00 Ry     beta= 0.70
     Davidson diagonalization with overlap
     ethr =  7.56E-03,  avg # of iterations =  1.0

     negative rho (up, down):  1.501E-06 7.756E-07

     total cpu time spent up to now is       62.6 secs

     total energy              =   -6056.29261591 Ry
     estimated scf accuracy    <       5.11530699 Ry

     total magnetization       =    60.24 Bohr mag/cell
     absolute magnetization    =    70.07 Bohr mag/cell

     iteration #  5     ecut=    40.00 Ry     beta= 0.70
     Davidson diagonalization with overlap
     ethr =  1.53E-03,  avg # of iterations =  1.2

     negative rho (up, down):  1.372E-06 5.681E-07

     total cpu time spent up to now is       74.4 secs

     total energy              =   -6056.31044053 Ry
     estimated scf accuracy    <       2.41247198 Ry

     total magnetization       =    59.91 Bohr mag/cell
     absolute magnetization    =    69.40 Bohr mag/cell

     iteration #  6     ecut=    40.00 Ry     beta= 0.70
     Davidson diagonalization with overlap
     ethr =  7.20E-04,  avg # of iterations =  1.7

     negative rho (up, down):  1.283E-06 6.045E-07

     total cpu time spent up to now is       87.4 secs

     total energy              =   -6056.42008305 Ry
     estimated scf accuracy    <       0.56519017 Ry

     total magnetization       =    59.56 Bohr mag/cell
     absolute magnetization    =    68.75 Bohr mag/cell

     iteration #  7     ecut=    40.00 Ry     beta= 0.70
     Davidson diagonalization with overlap
     ethr =  1.69E-04,  avg # of iterations =  5.8

     negative rho (up, down):  1.102E-06 5.359E-07

     total cpu time spent up to now is      104.0 secs

     total energy              =   -6056.45996783 Ry
     estimated scf accuracy    <       0.69002957 Ry

     total magnetization       =    59.64 Bohr mag/cell
     absolute magnetization    =    68.50 Bohr mag/cell

     iteration #  8     ecut=    40.00 Ry     beta= 0.70
     Davidson diagonalization with overlap
     ethr =  1.69E-04,  avg # of iterations =  1.5

     negative rho (up, down):  6.919E-07 3.065E-07

     total cpu time spent up to now is      116.4 secs

     total energy              =   -6056.47488549 Ry
     estimated scf accuracy    <       0.13095585 Ry

     total magnetization       =    59.67 Bohr mag/cell
     absolute magnetization    =    68.34 Bohr mag/cell

     iteration #  9     ecut=    40.00 Ry     beta= 0.70
     Davidson diagonalization with overlap
     c_bands:  1 eigenvalues not converged
     c_bands:  2 eigenvalues not converged
     ethr =  3.91E-05,  avg # of iterations = 10.2

     negative rho (up, down):  5.177E-07 2.529E-07

     total cpu time spent up to now is      139.9 secs

     total energy              =   -6056.47570206 Ry
     estimated scf accuracy    <       0.20275491 Ry

     total magnetization       =    60.12 Bohr mag/cell
     absolute magnetization    =    68.29 Bohr mag/cell

     iteration # 10     ecut=    40.00 Ry     beta= 0.70
     Davidson diagonalization with overlap
     ethr =  3.91E-05,  avg # of iterations =  2.0

     negative rho (up, down):  1.156E-07 8.326E-08

     total cpu time spent up to now is      152.5 secs

     total energy              =   -6056.48328916 Ry
     estimated scf accuracy    <       0.15395222 Ry

     total magnetization       =    60.28 Bohr mag/cell
     absolute magnetization    =    68.26 Bohr mag/cell

     iteration # 11     ecut=    40.00 Ry     beta= 0.70
     Davidson diagonalization with overlap
     ethr =  3.91E-05,  avg # of iterations =  1.4

     negative rho (up, down):  5.262E-08 7.489E-09

     total cpu time spent up to now is      164.5 secs

     total energy              =   -6056.48195278 Ry
     estimated scf accuracy    <       0.13577829 Ry

     total magnetization       =    60.14 Bohr mag/cell
     absolute magnetization    =    68.01 Bohr mag/cell

     iteration # 12     ecut=    40.00 Ry     beta= 0.70
     Davidson diagonalization with overlap
     ethr =  3.91E-05,  avg # of iterations =  1.3

     negative rho (up, down):  1.676E-06 3.237E-07

     total cpu time spent up to now is      176.2 secs

     total energy              =   -6056.48485495 Ry
     estimated scf accuracy    <       0.07964846 Ry

     total magnetization       =    60.13 Bohr mag/cell
     absolute magnetization    =    67.89 Bohr mag/cell

     iteration # 13     ecut=    40.00 Ry     beta= 0.70
     Davidson diagonalization with overlap
     ethr =  2.38E-05,  avg # of iterations =  1.2

     negative rho (up, down):  4.359E-08 2.058E-08

     total cpu time spent up to now is      188.2 secs

     total energy              =   -6056.48438589 Ry
     estimated scf accuracy    <       0.08437343 Ry

     total magnetization       =    60.14 Bohr mag/cell
     absolute magnetization    =    67.86 Bohr mag/cell

     iteration # 14     ecut=    40.00 Ry     beta= 0.70
     Davidson diagonalization with overlap
     ethr =  2.38E-05,  avg # of iterations =  1.4

     total cpu time spent up to now is      200.0 secs

     total energy              =   -6056.48065713 Ry
     estimated scf accuracy    <       0.08203414 Ry

     total magnetization       =    60.12 Bohr mag/cell
     absolute magnetization    =    67.90 Bohr mag/cell

     iteration # 15     ecut=    40.00 Ry     beta= 0.70
     Davidson diagonalization with overlap
     ethr =  2.38E-05,  avg # of iterations =  1.7

     negative rho (up, down):  2.770E-03 1.720E-03

     total cpu time spent up to now is      212.3 secs

     total energy              =   -6056.47728314 Ry
     estimated scf accuracy    <       0.11881051 Ry

     total magnetization       =    60.15 Bohr mag/cell
     absolute magnetization    =    67.88 Bohr mag/cell

     iteration # 16     ecut=    40.00 Ry     beta= 0.70
     Davidson diagonalization with overlap
     ethr =  2.38E-05,  avg # of iterations =  1.4

     negative rho (up, down):  1.056E-02 8.886E-03

     total cpu time spent up to now is      224.2 secs

     total energy              =   -6056.47805898 Ry
     estimated scf accuracy    <       0.05493195 Ry

     total magnetization       =    60.12 Bohr mag/cell
     absolute magnetization    =    67.78 Bohr mag/cell

     iteration # 17     ecut=    40.00 Ry     beta= 0.70
     Davidson diagonalization with overlap
     ethr =  1.64E-05,  avg # of iterations =  1.5

     negative rho (up, down):  2.909E-02 2.679E-02

     total cpu time spent up to now is      236.9 secs

     total energy              =   -6056.47517097 Ry
     estimated scf accuracy    <       0.06887678 Ry

     total magnetization       =    60.12 Bohr mag/cell
     absolute magnetization    =    67.75 Bohr mag/cell

     iteration # 18     ecut=    40.00 Ry     beta= 0.70
     Davidson diagonalization with overlap
     c_bands:  2 eigenvalues not converged
     ethr =  1.64E-05,  avg # of iterations =  2.3

     negative rho (up, down):  2.707E-03 1.928E-03

     total cpu time spent up to now is      249.3 secs

     total energy              =   -6056.47745434 Ry
     estimated scf accuracy    <       0.07841104 Ry

     total magnetization       =    60.12 Bohr mag/cell
     absolute magnetization    =    67.67 Bohr mag/cell

     iteration # 19     ecut=    40.00 Ry     beta= 0.70
     Davidson diagonalization with overlap
     ethr =  1.64E-05,  avg # of iterations =  1.2

     negative rho (up, down):  1.682E-02 1.542E-02

     total cpu time spent up to now is      260.9 secs

     total energy              =   -6056.47820663 Ry
     estimated scf accuracy    <       0.02107133 Ry

     total magnetization       =    60.12 Bohr mag/cell
     absolute magnetization    =    67.73 Bohr mag/cell

     iteration # 20     ecut=    40.00 Ry     beta= 0.70
     Davidson diagonalization with overlap
     c_bands:  3 eigenvalues not converged
     c_bands:  3 eigenvalues not converged
     c_bands:  3 eigenvalues not converged
     c_bands:  1 eigenvalues not converged
     c_bands:  3 eigenvalues not converged
     ethr =  6.29E-06,  avg # of iterations =  5.9

     negative rho (up, down):  2.031E-02 1.884E-02

     total cpu time spent up to now is      277.0 secs

     total energy              =   -6056.47794020 Ry
     estimated scf accuracy    <       0.02172826 Ry

     total magnetization       =    60.12 Bohr mag/cell
     absolute magnetization    =    67.71 Bohr mag/cell

     iteration # 21     ecut=    40.00 Ry     beta= 0.70
     Davidson diagonalization with overlap
     ethr =  6.29E-06,  avg # of iterations =  1.4

     negative rho (up, down):  1.752E-02 1.617E-02

     total cpu time spent up to now is      288.9 secs

     total energy              =   -6056.47795303 Ry
     estimated scf accuracy    <       0.01166868 Ry

     total magnetization       =    60.12 Bohr mag/cell
     absolute magnetization    =    67.71 Bohr mag/cell

     iteration # 22     ecut=    40.00 Ry     beta= 0.70
     Davidson diagonalization with overlap
     ethr =  3.48E-06,  avg # of iterations =  2.9

     negative rho (up, down):  2.335E-02 2.209E-02

     total cpu time spent up to now is      302.8 secs

     total energy              =   -6056.47799865 Ry
     estimated scf accuracy    <       0.01041237 Ry

     total magnetization       =    60.12 Bohr mag/cell
     absolute magnetization    =    67.71 Bohr mag/cell

     iteration # 23     ecut=    40.00 Ry     beta= 0.70
     Davidson diagonalization with overlap
     ethr =  3.11E-06,  avg # of iterations =  1.6

     negative rho (up, down):  1.688E-02 1.593E-02

     total cpu time spent up to now is      314.9 secs

     total energy              =   -6056.47802000 Ry
     estimated scf accuracy    <       0.00802522 Ry

     total magnetization       =    60.13 Bohr mag/cell
     absolute magnetization    =    67.72 Bohr mag/cell

     iteration # 24     ecut=    40.00 Ry     beta= 0.70
     Davidson diagonalization with overlap
     c_bands:  1 eigenvalues not converged
     ethr =  2.40E-06,  avg # of iterations =  2.5

     negative rho (up, down):  1.342E-02 1.255E-02

     total cpu time spent up to now is      327.6 secs

     total energy              =   -6056.47811617 Ry
     estimated scf accuracy    <       0.00274937 Ry

     total magnetization       =    60.12 Bohr mag/cell
     absolute magnetization    =    67.73 Bohr mag/cell

     iteration # 25     ecut=    40.00 Ry     beta= 0.70
     Davidson diagonalization with overlap
     ethr =  8.21E-07,  avg # of iterations =  1.8

     negative rho (up, down):  1.022E-02 9.468E-03

     total cpu time spent up to now is      339.6 secs

     total energy              =   -6056.47828527 Ry
     estimated scf accuracy    <       0.00143260 Ry

     total magnetization       =    60.12 Bohr mag/cell
     absolute magnetization    =    67.73 Bohr mag/cell

     iteration # 26     ecut=    40.00 Ry     beta= 0.70
     Davidson diagonalization with overlap
     c_bands:  1 eigenvalues not converged
     ethr =  4.28E-07,  avg # of iterations =  3.0

     negative rho (up, down):  6.527E-03 5.850E-03

     total cpu time spent up to now is      353.6 secs

     total energy              =   -6056.47845686 Ry
     estimated scf accuracy    <       0.00136673 Ry

     total magnetization       =    60.13 Bohr mag/cell
     absolute magnetization    =    67.74 Bohr mag/cell

     iteration # 27     ecut=    40.00 Ry     beta= 0.70
     Davidson diagonalization with overlap
     ethr =  4.08E-07,  avg # of iterations =  2.2

     negative rho (up, down):  5.569E-03 4.838E-03

     total cpu time spent up to now is      366.5 secs

     total energy              =   -6056.47848755 Ry
     estimated scf accuracy    <       0.00029335 Ry

     total magnetization       =    60.13 Bohr mag/cell
     absolute magnetization    =    67.75 Bohr mag/cell

     iteration # 28     ecut=    40.00 Ry     beta= 0.70
     Davidson diagonalization with overlap
     c_bands:  1 eigenvalues not converged
     c_bands:  1 eigenvalues not converged
     c_bands:  3 eigenvalues not converged
     ethr =  8.76E-08,  avg # of iterations =  5.5

     negative rho (up, down):  4.000E-03 3.174E-03

     total cpu time spent up to now is      382.3 secs

     total energy              =   -6056.47854682 Ry
     estimated scf accuracy    <       0.00016084 Ry

     total magnetization       =    60.13 Bohr mag/cell
     absolute magnetization    =    67.74 Bohr mag/cell

     iteration # 29     ecut=    40.00 Ry     beta= 0.70
     Davidson diagonalization with overlap
     ethr =  4.80E-08,  avg # of iterations =  2.8

     negative rho (up, down):  3.502E-03 2.512E-03

     total cpu time spent up to now is      395.5 secs

     total energy              =   -6056.47861943 Ry
     estimated scf accuracy    <       0.00015917 Ry

     total magnetization       =    60.13 Bohr mag/cell
     absolute magnetization    =    67.74 Bohr mag/cell

     iteration # 30     ecut=    40.00 Ry     beta= 0.70
     Davidson diagonalization with overlap
     ethr =  4.75E-08,  avg # of iterations =  1.9

     negative rho (up, down):  3.215E-03 2.131E-03

     total cpu time spent up to now is      408.0 secs

     total energy              =   -6056.47864029 Ry
     estimated scf accuracy    <       0.00009613 Ry

     total magnetization       =    60.13 Bohr mag/cell
     absolute magnetization    =    67.74 Bohr mag/cell

     iteration # 31     ecut=    40.00 Ry     beta= 0.70
     Davidson diagonalization with overlap
     ethr =  2.87E-08,  avg # of iterations =  1.7

     negative rho (up, down):  3.073E-03 1.967E-03

     total cpu time spent up to now is      420.9 secs

     total energy              =   -6056.47864429 Ry
     estimated scf accuracy    <       0.00002811 Ry

     total magnetization       =    60.13 Bohr mag/cell
     absolute magnetization    =    67.74 Bohr mag/cell

     iteration # 32     ecut=    40.00 Ry     beta= 0.70
     Davidson diagonalization with overlap
     c_bands:  1 eigenvalues not converged
     ethr =  8.39E-09,  avg # of iterations =  6.7

     negative rho (up, down):  3.001E-03 1.899E-03

     total cpu time spent up to now is      437.8 secs

     total energy              =   -6056.47864243 Ry
     estimated scf accuracy    <       0.00003429 Ry

     total magnetization       =    60.13 Bohr mag/cell
     absolute magnetization    =    67.74 Bohr mag/cell

     iteration # 33     ecut=    40.00 Ry     beta= 0.70
     Davidson diagonalization with overlap
     ethr =  8.39E-09,  avg # of iterations =  1.3

     negative rho (up, down):  2.958E-03 1.843E-03

     total cpu time spent up to now is      449.6 secs

     total energy              =   -6056.47864990 Ry
     estimated scf accuracy    <       0.00002146 Ry

     total magnetization       =    60.13 Bohr mag/cell
     absolute magnetization    =    67.74 Bohr mag/cell

     iteration # 34     ecut=    40.00 Ry     beta= 0.70
     Davidson diagonalization with overlap
     ethr =  6.41E-09,  avg # of iterations =  1.8

     negative rho (up, down):  2.976E-03 1.857E-03

     total cpu time spent up to now is      461.9 secs

     total energy              =   -6056.47864956 Ry
     estimated scf accuracy    <       0.00002089 Ry

     total magnetization       =    60.13 Bohr mag/cell
     absolute magnetization    =    67.74 Bohr mag/cell

     iteration # 35     ecut=    40.00 Ry     beta= 0.70
     Davidson diagonalization with overlap
     ethr =  6.24E-09,  avg # of iterations =  1.0

     negative rho (up, down):  2.937E-03 1.826E-03

     total cpu time spent up to now is      473.2 secs

     total energy              =   -6056.47865095 Ry
     estimated scf accuracy    <       0.00001664 Ry

     total magnetization       =    60.13 Bohr mag/cell
     absolute magnetization    =    67.74 Bohr mag/cell

     iteration # 36     ecut=    40.00 Ry     beta= 0.70
     Davidson diagonalization with overlap
     ethr =  4.97E-09,  avg # of iterations =  1.3

     negative rho (up, down):  3.018E-03 1.942E-03

     total cpu time spent up to now is      485.9 secs

     total energy              =   -6056.47865236 Ry
     estimated scf accuracy    <       0.00001455 Ry

     total magnetization       =    60.13 Bohr mag/cell
     absolute magnetization    =    67.74 Bohr mag/cell

     iteration # 37     ecut=    40.00 Ry     beta= 0.70
     Davidson diagonalization with overlap
     ethr =  4.34E-09,  avg # of iterations =  1.6

     negative rho (up, down):  2.935E-03 1.847E-03

     total cpu time spent up to now is      498.1 secs

     total energy              =   -6056.47865127 Ry
     estimated scf accuracy    <       0.00002697 Ry

     total magnetization       =    60.13 Bohr mag/cell
     absolute magnetization    =    67.74 Bohr mag/cell

     iteration # 38     ecut=    40.00 Ry     beta= 0.70
     Davidson diagonalization with overlap
     ethr =  4.34E-09,  avg # of iterations =  1.2

     negative rho (up, down):  2.881E-03 1.789E-03

     total cpu time spent up to now is      509.8 secs

     total energy              =   -6056.47865175 Ry
     estimated scf accuracy    <       0.00001898 Ry

     total magnetization       =    60.13 Bohr mag/cell
     absolute magnetization    =    67.74 Bohr mag/cell

     iteration # 39     ecut=    40.00 Ry     beta= 0.70
     Davidson diagonalization with overlap
     ethr =  4.34E-09,  avg # of iterations =  1.0

     negative rho (up, down):  2.852E-03 1.781E-03

     total cpu time spent up to now is      521.1 secs

     total energy              =   -6056.47865229 Ry
     estimated scf accuracy    <       0.00001207 Ry

     total magnetization       =    60.13 Bohr mag/cell
     absolute magnetization    =    67.74 Bohr mag/cell

     iteration # 40     ecut=    40.00 Ry     beta= 0.70
     Davidson diagonalization with overlap
     ethr =  3.60E-09,  avg # of iterations =  1.4

     negative rho (up, down):  2.820E-03 1.769E-03

     total cpu time spent up to now is      532.9 secs

     total energy              =   -6056.47865245 Ry
     estimated scf accuracy    <       0.00000888 Ry

     total magnetization       =    60.13 Bohr mag/cell
     absolute magnetization    =    67.74 Bohr mag/cell

     iteration # 41     ecut=    40.00 Ry     beta= 0.70
     Davidson diagonalization with overlap
     ethr =  2.65E-09,  avg # of iterations =  1.7

     negative rho (up, down):  2.753E-03 1.707E-03

     total cpu time spent up to now is      545.9 secs

     total energy              =   -6056.47865231 Ry
     estimated scf accuracy    <       0.00000361 Ry

     total magnetization       =    60.13 Bohr mag/cell
     absolute magnetization    =    67.73 Bohr mag/cell

     iteration # 42     ecut=    40.00 Ry     beta= 0.70
     Davidson diagonalization with overlap
     ethr =  1.08E-09,  avg # of iterations =  2.3

     negative rho (up, down):  2.596E-03 1.546E-03

     total cpu time spent up to now is      558.6 secs

     total energy              =   -6056.47865155 Ry
     estimated scf accuracy    <       0.00000401 Ry

     total magnetization       =    60.13 Bohr mag/cell
     absolute magnetization    =    67.73 Bohr mag/cell

     iteration # 43     ecut=    40.00 Ry     beta= 0.70
     Davidson diagonalization with overlap
     ethr =  1.08E-09,  avg # of iterations =  1.8

     negative rho (up, down):  2.570E-03 1.506E-03

     total cpu time spent up to now is      571.1 secs

     total energy              =   -6056.47865181 Ry
     estimated scf accuracy    <       0.00000164 Ry

     total magnetization       =    60.13 Bohr mag/cell
     absolute magnetization    =    67.73 Bohr mag/cell

     iteration # 44     ecut=    40.00 Ry     beta= 0.70
     Davidson diagonalization with overlap
     ethr =  4.90E-10,  avg # of iterations =  3.7

     negative rho (up, down):  2.404E-03 1.319E-03

     total cpu time spent up to now is      585.2 secs

     total energy              =   -6056.47865190 Ry
     estimated scf accuracy    <       0.00000255 Ry

     total magnetization       =    60.13 Bohr mag/cell
     absolute magnetization    =    67.73 Bohr mag/cell

     iteration # 45     ecut=    40.00 Ry     beta= 0.70
     Davidson diagonalization with overlap
     ethr =  4.90E-10,  avg # of iterations =  2.0

     negative rho (up, down):  2.445E-03 1.370E-03

     total cpu time spent up to now is      598.3 secs

     total energy              =   -6056.47865183 Ry
     estimated scf accuracy    <       0.00000177 Ry

     total magnetization       =    60.13 Bohr mag/cell
     absolute magnetization    =    67.73 Bohr mag/cell

     iteration # 46     ecut=    40.00 Ry     beta= 0.70
     Davidson diagonalization with overlap
     ethr =  4.90E-10,  avg # of iterations =  1.4

     negative rho (up, down):  2.300E-03 1.214E-03

     total cpu time spent up to now is      610.3 secs

     total energy              =   -6056.47865197 Ry
     estimated scf accuracy    <       0.00000128 Ry

     total magnetization       =    60.13 Bohr mag/cell
     absolute magnetization    =    67.73 Bohr mag/cell

     iteration # 47     ecut=    40.00 Ry     beta= 0.70
     Davidson diagonalization with overlap
     ethr =  3.83E-10,  avg # of iterations =  1.8

     negative rho (up, down):  2.299E-03 1.212E-03

     total cpu time spent up to now is      622.7 secs

     total energy              =   -6056.47865200 Ry
     estimated scf accuracy    <       0.00000105 Ry

     total magnetization       =    60.13 Bohr mag/cell
     absolute magnetization    =    67.73 Bohr mag/cell

     iteration # 48     ecut=    40.00 Ry     beta= 0.70
     Davidson diagonalization with overlap
     ethr =  3.14E-10,  avg # of iterations =  1.4

     negative rho (up, down):  2.252E-03 1.163E-03

     Magnetic moment per site  (integrated on atomic sphere of radius R)
     atom   1 (R=0.085)  charge=  5.3760  magn=  1.5882
     atom   2 (R=0.085)  charge=  5.3801  magn=  1.5647
     atom   3 (R=0.085)  charge=  5.3781  magn=  1.5835
     atom   4 (R=0.085)  charge=  5.3777  magn=  1.5854
     atom   5 (R=0.085)  charge=  5.3781  magn=  1.5830
     atom   6 (R=0.085)  charge=  5.3778  magn=  1.5869
     atom   7 (R=0.085)  charge=  5.3760  magn=  1.5919
     atom   8 (R=0.085)  charge=  5.3760  magn=  1.5880
     atom   9 (R=0.085)  charge=  5.3778  magn=  1.5853
     atom  10 (R=0.085)  charge=  5.3693  magn=  1.5235
     atom  11 (R=0.085)  charge=  5.3715  magn=  1.5234
     atom  12 (R=0.085)  charge=  5.3710  magn=  1.5299
     atom  13 (R=0.085)  charge=  5.3715  magn=  1.5233
     atom  14 (R=0.085)  charge=  5.3720  magn=  1.5185
     atom  15 (R=0.085)  charge=  5.3713  magn=  1.5332
     atom  16 (R=0.085)  charge=  5.3710  magn=  1.5303
     atom  17 (R=0.085)  charge=  5.3713  magn=  1.5331
     atom  18 (R=0.085)  charge=  5.3719  magn=  1.5286
     atom  19 (R=0.085)  charge=  5.3705  magn=  1.4993
     atom  20 (R=0.085)  charge=  5.3699  magn=  1.5149
     atom  21 (R=0.085)  charge=  5.3712  magn=  1.5157
     atom  22 (R=0.085)  charge=  5.3716  magn=  1.5166
     atom  23 (R=0.085)  charge=  5.3712  magn=  1.5159
     atom  24 (R=0.085)  charge=  5.3706  magn=  1.5470
     atom  25 (R=0.085)  charge=  5.3701  magn=  1.5241
     atom  26 (R=0.085)  charge=  5.3705  magn=  1.5006
     atom  27 (R=0.085)  charge=  5.3715  magn=  1.5176
     atom  28 (R=0.085)  charge=  5.3744  magn=  1.6163
     atom  29 (R=0.085)  charge=  5.3853  magn=  1.3126
     atom  30 (R=0.085)  charge=  5.3779  magn=  1.6209
     atom  31 (R=0.085)  charge=  5.3852  magn=  1.2936
     atom  32 (R=0.085)  charge=  5.3795  magn=  0.8411
     atom  33 (R=0.085)  charge=  5.3767  magn=  1.5701
     atom  34 (R=0.085)  charge=  5.3779  magn=  1.6203
     atom  35 (R=0.085)  charge=  5.3769  magn=  1.5726
     atom  36 (R=0.085)  charge=  5.3764  magn=  1.5936
     atom  37 (R=0.066)  charge=  1.0583  magn= -0.0231
     atom  38 (R=0.066)  charge=  2.9409  magn= -0.0397
     atom  39 (R=0.085)  charge=  0.7216  magn= -0.0171

     total cpu time spent up to now is      634.4 secs

     End of self-consistent calculation

 ------ SPIN UP ------------


          k = 0.0000 0.0000 0.0000 ( 36693 PWs)   bands (ev):

   -21.7974  -9.2954  -7.6602  -6.4257  -5.7832  -5.6008  -5.4128  -4.8821
    -4.8354  -4.8302  -4.8252  -4.7967  -4.7817  -4.7754  -4.4986  -4.3138
    -4.2923  -4.2897  -4.2729  -4.2379  -4.2322  -3.9597  -3.7706  -3.7676
    -3.7627  -3.7413  -3.7139  -3.6846  -3.6364  -3.6354  -3.6300  -3.6211
    -3.5935  -3.5544  -3.5493  -3.4310  -3.2528  -3.2476  -3.2443  -3.2382
    -3.1836  -3.1818  -3.1722  -3.1692  -3.1635  -3.1549  -3.1516  -3.1047
    -3.0189  -3.0165  -2.9470  -2.9399  -2.9353  -2.9264  -2.9254  -2.9192
    -2.9099  -2.8992  -2.8861  -2.8741  -2.8105  -2.7967  -2.7951  -2.7912
    -2.7170  -2.6103  -2.3048  -2.2657  -2.2634  -2.2608  -2.2569  -2.1628
    -2.1347  -2.1282  -2.1128  -2.1007  -2.0920  -2.0879  -2.0813  -2.0754
    -2.0342  -2.0333  -1.9839  -1.9812  -1.9797  -1.9777  -1.9593  -1.9571
    -1.9483  -1.9420  -1.9399  -1.9370  -1.9266  -1.9114  -1.9057  -1.8957
    -1.8932  -1.8930  -1.8883  -1.8868  -1.8836  -1.8832  -1.8813  -1.8656
    -1.8517  -1.8317  -1.8257  -1.8077  -1.8021  -1.7331  -1.7297  -1.6271
    -1.5442  -1.4483  -1.4391  -1.4379  -1.4355  -1.4142  -1.4013  -1.3951
    -1.3932  -1.3842  -1.3794  -1.3475  -1.3406  -1.2135  -1.2080  -1.1990
    -1.1806  -1.1659  -1.0928  -1.0489  -1.0306  -1.0077  -0.9620  -0.9589
    -0.9580  -0.9421  -0.9365  -0.9344  -0.9232  -0.8819  -0.8148  -0.8002
    -0.7082  -0.7027  -0.6958  -0.6898  -0.6708  -0.6553  -0.6473  -0.6347
    -0.6336  -0.6299  -0.6268  -0.6239  -0.6198  -0.6069  -0.6055  -0.5965
    -0.5940  -0.5875  -0.5750  -0.5606  -0.5587  -0.5446  -0.5431  -0.5383
    -0.5264  -0.5191  -0.5137  -0.4995  -0.4954  -0.4942  -0.4874  -0.4804
    -0.4713  -0.4658  -0.4479  -0.4274  -0.4111  -0.3976  -0.3932  -0.3866
    -0.3769  -0.3713  -0.3599  -0.3578  -0.3444  -0.3130  -0.3088  -0.3066
    -0.2942  -0.2865  -0.2313  -0.2282  -0.2270  -0.2092  -0.1811  -0.1543
     0.4827   0.7974

          k = 0.0000 0.2309 0.0000 ( 36641 PWs)   bands (ev):

   -21.7974  -9.2853  -7.5182  -6.3217  -5.8136  -5.6419  -5.5343  -5.3580
    -5.0650  -5.0381  -4.7562  -4.5936  -4.4860  -4.4771  -4.4184  -4.4003
    -4.3205  -4.2875  -4.2138  -4.1609  -4.1459  -3.9587  -3.8721  -3.7687
    -3.7593  -3.6936  -3.6532  -3.6407  -3.6349  -3.6299  -3.6200  -3.5964
    -3.5795  -3.5301  -3.5094  -3.4875  -3.4811  -3.3994  -3.2742  -3.2603
    -3.2532  -3.2074  -3.2034  -3.1885  -3.1666  -3.1038  -3.0700  -3.0584
    -3.0354  -3.0304  -3.0202  -2.9927  -2.9616  -2.8992  -2.8917  -2.8628
    -2.8230  -2.8205  -2.7961  -2.7918  -2.7611  -2.7291  -2.7275  -2.7052
    -2.6847  -2.5944  -2.3827  -2.3772  -2.3516  -2.3427  -2.3204  -2.2387
    -2.2289  -2.2121  -2.2071  -2.1968  -2.1905  -2.1777  -2.1556  -2.1031
    -2.0972  -2.0783  -2.0602  -2.0244  -2.0235  -2.0132  -2.0040  -1.9943
    -1.9880  -1.9849  -1.9735  -1.9645  -1.9541  -1.9388  -1.9118  -1.8806
    -1.8690  -1.8552  -1.8018  -1.7934  -1.7860  -1.7788  -1.7719  -1.7625
    -1.7578  -1.7511  -1.7429  -1.7387  -1.7232  -1.7049  -1.6935  -1.6842
    -1.6683  -1.6532  -1.6263  -1.5743  -1.5597  -1.4864  -1.4647  -1.4603
    -1.4479  -1.4367  -1.4267  -1.4248  -1.3958  -1.3779  -1.3364  -1.2644
    -1.2362  -1.2067  -1.1713  -1.1630  -1.1431  -1.1008  -1.0804  -1.0627
    -1.0354  -0.9797  -0.9691  -0.9596  -0.9312  -0.9246  -0.8896  -0.8793
    -0.8523  -0.8454  -0.8296  -0.8077  -0.7978  -0.7850  -0.7763  -0.7647
    -0.7120  -0.7036  -0.6969  -0.6908  -0.6691  -0.6575  -0.6329  -0.6225
    -0.6187  -0.6133  -0.6064  -0.5957  -0.5719  -0.5658  -0.5507  -0.5423
    -0.5073  -0.4842  -0.4746  -0.4433  -0.4335  -0.4144  -0.3976  -0.3780
    -0.3662  -0.3549  -0.3527  -0.3419  -0.3280  -0.3176  -0.3096  -0.2691
    -0.2398  -0.2317  -0.2263  -0.2050  -0.1947  -0.1727  -0.1619  -0.1421
    -0.0791  -0.0024   0.1291   0.1486   0.2153   0.2898   0.4078   0.4281
     0.4589   0.7991

          k = 0.0000 0.4619 0.0000 ( 36606 PWs)   bands (ev):

   -21.7974  -9.2693  -7.0996  -6.4441  -6.0667  -5.7599  -5.5703  -5.3738
    -5.2007  -5.1473  -5.0463  -4.5142  -4.3280  -4.3084  -4.2769  -4.2368
    -4.1619  -4.1188  -4.1087  -4.0143  -3.9823  -3.9782  -3.9553  -3.8122
    -3.8013  -3.7933  -3.7848  -3.7724  -3.7116  -3.6790  -3.6665  -3.5642
    -3.5153  -3.5027  -3.4872  -3.4681  -3.4531  -3.4155  -3.3579  -3.3498
    -3.3373  -3.3262  -3.2753  -3.2152  -3.1243  -3.1014  -3.0320  -3.0227
    -2.9978  -2.9747  -2.9549  -2.9409  -2.9275  -2.9148  -2.8998  -2.8459
    -2.8404  -2.8135  -2.7765  -2.7608  -2.6463  -2.6323  -2.6077  -2.5823
    -2.5438  -2.5235  -2.4953  -2.4867  -2.4632  -2.4098  -2.3566  -2.3533
    -2.3477  -2.3366  -2.3277  -2.3091  -2.2916  -2.2848  -2.2666  -2.2408
    -2.2214  -2.1863  -2.1685  -2.1539  -2.1204  -2.1085  -2.0646  -2.0303
    -2.0174  -2.0051  -1.9858  -1.9722  -1.9599  -1.9209  -1.9044  -1.9019
    -1.8917  -1.8759  -1.8690  -1.8471  -1.8322  -1.8257  -1.8200  -1.7932
    -1.7811  -1.7537  -1.7186  -1.7092  -1.6460  -1.6301  -1.6152  -1.5940
    -1.5902  -1.5682  -1.5455  -1.5181  -1.5044  -1.4837  -1.4793  -1.4703
    -1.4672  -1.4596  -1.4473  -1.4407  -1.4344  -1.4235  -1.4067  -1.4003
    -1.3895  -1.3545  -1.2894  -1.2674  -1.2571  -1.2394  -1.2154  -1.2032
    -1.1751  -1.1171  -1.0984  -1.0901  -1.0556  -1.0389  -1.0140  -0.9635
    -0.9609  -0.9342  -0.9240  -0.9030  -0.8855  -0.8532  -0.8324  -0.7722
    -0.7493  -0.7228  -0.7132  -0.6991  -0.6956  -0.6874  -0.6753  -0.6719
    -0.6500  -0.6314  -0.5491  -0.5397  -0.5339  -0.5272  -0.5183  -0.4947
    -0.4835  -0.4761  -0.4596  -0.4551  -0.4300  -0.4121  -0.3637  -0.3491
    -0.3354  -0.3191  -0.2943  -0.2500  -0.2442  -0.2176  -0.2081  -0.1723
    -0.1327  -0.1279  -0.1240  -0.1078  -0.1008  -0.0968  -0.0862  -0.0267
     0.0042   0.0540   0.4805   0.6102   0.9301   1.0980   1.1306   1.3062
     1.4726   1.5222

          k = 0.2000-0.1155 0.0000 ( 36641 PWs)   bands (ev):

   -21.7974  -9.2853  -7.5182  -6.3219  -5.8144  -5.6424  -5.5332  -5.3577
    -5.0648  -5.0386  -4.7566  -4.5920  -4.4863  -4.4770  -4.4188  -4.4002
    -4.3216  -4.2874  -4.2131  -4.1620  -4.1460  -3.9558  -3.8740  -3.7679
    -3.7587  -3.6938  -3.6535  -3.6408  -3.6348  -3.6301  -3.6205  -3.5966
    -3.5785  -3.5308  -3.5095  -3.4876  -3.4810  -3.4000  -3.2747  -3.2605
    -3.2538  -3.2074  -3.2035  -3.1879  -3.1666  -3.1047  -3.0703  -3.0580
    -3.0351  -3.0301  -3.0205  -2.9921  -2.9612  -2.8996  -2.8916  -2.8634
    -2.8222  -2.8203  -2.7958  -2.7919  -2.7611  -2.7292  -2.7272  -2.7054
    -2.6839  -2.5948  -2.3830  -2.3773  -2.3509  -2.3425  -2.3202  -2.2387
    -2.2288  -2.2123  -2.2075  -2.1969  -2.1905  -2.1776  -2.1550  -2.1027
    -2.0973  -2.0783  -2.0603  -2.0245  -2.0235  -2.0136  -2.0037  -1.9944
    -1.9880  -1.9850  -1.9737  -1.9644  -1.9535  -1.9391  -1.9107  -1.8806
    -1.8694  -1.8541  -1.8023  -1.7936  -1.7864  -1.7785  -1.7718  -1.7627
    -1.7578  -1.7511  -1.7429  -1.7387  -1.7236  -1.7051  -1.6934  -1.6842
    -1.6686  -1.6531  -1.6266  -1.5749  -1.5603  -1.4880  -1.4646  -1.4599
    -1.4474  -1.4374  -1.4267  -1.4245  -1.3964  -1.3773  -1.3328  -1.2654
    -1.2352  -1.2069  -1.1716  -1.1630  -1.1425  -1.1018  -1.0812  -1.0631
    -1.0334  -0.9805  -0.9697  -0.9602  -0.9314  -0.9247  -0.8902  -0.8796
    -0.8530  -0.8455  -0.8287  -0.8068  -0.7977  -0.7854  -0.7766  -0.7636
    -0.7121  -0.7038  -0.6967  -0.6908  -0.6685  -0.6570  -0.6327  -0.6227
    -0.6189  -0.6133  -0.6057  -0.5957  -0.5726  -0.5661  -0.5513  -0.5419
    -0.5067  -0.4834  -0.4740  -0.4436  -0.4341  -0.4151  -0.3967  -0.3782
    -0.3656  -0.3548  -0.3519  -0.3421  -0.3281  -0.3177  -0.3097  -0.2680
    -0.2398  -0.2313  -0.2265  -0.2051  -0.1947  -0.1733  -0.1622  -0.1417
    -0.0794  -0.0028   0.1286   0.1487   0.2131   0.2889   0.4068   0.4278
     0.4587   0.8015

          k = 0.2000 0.1155 0.0000 ( 36641 PWs)   bands (ev):

   -21.7974  -9.2846  -7.5189  -6.3252  -5.8398  -5.6356  -5.4498  -5.4273
    -5.0621  -5.0357  -4.7653  -4.5594  -4.4889  -4.4753  -4.4322  -4.3851
    -4.3287  -4.3067  -4.2094  -4.1705  -4.1469  -3.9337  -3.8786  -3.7724
    -3.7517  -3.6876  -3.6471  -3.6435  -3.6368  -3.6339  -3.6172  -3.6114
    -3.5492  -3.5389  -3.5246  -3.4869  -3.4842  -3.4079  -3.2801  -3.2617
    -3.2530  -3.2079  -3.2063  -3.1890  -3.1653  -3.0983  -3.0726  -3.0523
    -3.0327  -3.0289  -3.0206  -3.0009  -2.9599  -2.9020  -2.8917  -2.8623
    -2.8309  -2.8049  -2.7948  -2.7887  -2.7694  -2.7279  -2.7256  -2.7174
    -2.6545  -2.6017  -2.3846  -2.3750  -2.3484  -2.3406  -2.3231  -2.2380
    -2.2306  -2.2232  -2.2023  -2.1971  -2.1942  -2.1792  -2.1341  -2.1039
    -2.0982  -2.0819  -2.0451  -2.0233  -2.0211  -2.0197  -2.0072  -1.9942
    -1.9864  -1.9844  -1.9767  -1.9640  -1.9470  -1.9357  -1.9230  -1.8772
    -1.8750  -1.8440  -1.8044  -1.7958  -1.7896  -1.7799  -1.7727  -1.7717
    -1.7538  -1.7499  -1.7445  -1.7391  -1.7299  -1.7151  -1.6881  -1.6855
    -1.6682  -1.6639  -1.6185  -1.5774  -1.5665  -1.5022  -1.4672  -1.4538
    -1.4471  -1.4388  -1.4254  -1.4238  -1.3997  -1.3536  -1.2860  -1.2817
    -1.2304  -1.2288  -1.1698  -1.1673  -1.1372  -1.1205  -1.0835  -1.0800
    -1.0125  -0.9839  -0.9763  -0.9493  -0.9357  -0.9309  -0.8918  -0.8836
    -0.8668  -0.8441  -0.8235  -0.8043  -0.8037  -0.7888  -0.7834  -0.7610
    -0.7063  -0.6978  -0.6939  -0.6842  -0.6739  -0.6493  -0.6331  -0.6231
    -0.6208  -0.6073  -0.6067  -0.5910  -0.5784  -0.5649  -0.5626  -0.5455
    -0.4984  -0.4756  -0.4589  -0.4548  -0.4341  -0.4272  -0.3935  -0.3796
    -0.3717  -0.3565  -0.3490  -0.3317  -0.3270  -0.3165  -0.3102  -0.2624
    -0.2289  -0.2272  -0.2242  -0.2031  -0.1957  -0.1490  -0.1465  -0.1400
    -0.0780  -0.0310   0.1203   0.1493   0.1898   0.2824   0.4104   0.4224
     0.4467   0.7553

          k = 0.2000 0.3464 0.0000 ( 36608 PWs)   bands (ev):

   -21.7974  -9.2714  -7.2387  -6.1569  -6.0206  -5.9347  -5.6560  -5.4734
    -5.3704  -4.8034  -4.7222  -4.5158  -4.4913  -4.4759  -4.2862  -4.2627
    -4.2127  -4.1626  -4.1570  -4.0522  -4.0308  -3.9243  -3.8845  -3.8524
    -3.8140  -3.7661  -3.6786  -3.6678  -3.6354  -3.6282  -3.6119  -3.6011
    -3.5769  -3.5712  -3.5296  -3.5072  -3.4656  -3.4348  -3.4272  -3.3659
    -3.2854  -3.2383  -3.2058  -3.1744  -3.1572  -3.1441  -3.0813  -3.0433
    -3.0084  -2.9767  -2.9674  -2.9569  -2.9303  -2.9067  -2.8921  -2.8751
    -2.8541  -2.8259  -2.7513  -2.6938  -2.6755  -2.6587  -2.6460  -2.6180
    -2.5946  -2.5439  -2.4929  -2.4253  -2.4014  -2.3795  -2.3603  -2.3331
    -2.3163  -2.3083  -2.3046  -2.2833  -2.2580  -2.2499  -2.2410  -2.2333
    -2.2179  -2.1757  -2.1546  -2.1013  -2.0578  -2.0476  -2.0307  -2.0111
    -1.9937  -1.9806  -1.9511  -1.9447  -1.9352  -1.9058  -1.8977  -1.8884
    -1.8803  -1.8759  -1.8666  -1.8451  -1.8404  -1.8305  -1.8122  -1.8086
    -1.7833  -1.7595  -1.7361  -1.7112  -1.7054  -1.6702  -1.6603  -1.6567
    -1.6432  -1.6254  -1.6005  -1.5701  -1.5544  -1.5471  -1.5218  -1.4976
    -1.4908  -1.4768  -1.4631  -1.4423  -1.4307  -1.4237  -1.4095  -1.3638
    -1.3395  -1.3245  -1.3036  -1.2297  -1.1968  -1.1733  -1.1588  -1.0882
    -1.0573  -1.0436  -1.0319  -1.0252  -1.0184  -1.0089  -0.9853  -0.9826
    -0.9586  -0.9410  -0.9239  -0.8817  -0.8670  -0.8517  -0.8421  -0.8321
    -0.8073  -0.7847  -0.7674  -0.7629  -0.7473  -0.7390  -0.6195  -0.5995
    -0.5790  -0.5640  -0.5538  -0.5482  -0.5285  -0.5164  -0.5083  -0.4990
    -0.4731  -0.4450  -0.4243  -0.4127  -0.3934  -0.3818  -0.3393  -0.3310
    -0.3224  -0.3193  -0.3118  -0.2903  -0.2771  -0.2703  -0.2603  -0.2431
    -0.2323  -0.1639  -0.1501  -0.1468  -0.1016  -0.0952  -0.0589   0.0546
     0.2113   0.2408   0.2838   0.4238   0.5478   0.6475   0.9814   1.1288
     1.2421   1.4302

          k = 0.2000-0.5774 0.0000 ( 36660 PWs)   bands (ev):

   -21.7974  -9.2642  -6.7174  -6.6743  -6.1004  -5.9390  -5.7046  -5.5029
    -5.2290  -5.1609  -4.7907  -4.4747  -4.3668  -4.2211  -4.1805  -4.0661
    -4.0452  -4.0340  -4.0178  -4.0066  -3.9517  -3.9421  -3.9348  -3.9308
    -3.9009  -3.8454  -3.7869  -3.7753  -3.7564  -3.7477  -3.6861  -3.6094
    -3.5998  -3.5857  -3.5671  -3.5176  -3.4657  -3.4252  -3.3463  -3.3055
    -3.3004  -3.2658  -3.2146  -3.2003  -3.1742  -3.1305  -3.0886  -3.0837
    -3.0442  -3.0197  -2.9754  -2.9224  -2.8904  -2.8619  -2.8509  -2.8043
    -2.7886  -2.7244  -2.7171  -2.7052  -2.6941  -2.6761  -2.6587  -2.6151
    -2.5451  -2.5050  -2.4946  -2.4817  -2.4539  -2.4209  -2.4042  -2.3578
    -2.3535  -2.3138  -2.3003  -2.2969  -2.2856  -2.2651  -2.2466  -2.2370
    -2.2200  -2.2084  -2.1966  -2.1714  -2.1649  -2.1294  -2.0924  -2.0806
    -2.0669  -2.0396  -1.9924  -1.9706  -1.9528  -1.9326  -1.9173  -1.9109
    -1.8896  -1.8784  -1.8675  -1.8623  -1.8448  -1.8232  -1.8182  -1.7840
    -1.7612  -1.7366  -1.7276  -1.7176  -1.7043  -1.6968  -1.6864  -1.6749
    -1.6695  -1.6631  -1.6386  -1.6122  -1.5785  -1.5673  -1.5562  -1.5217
    -1.4770  -1.4722  -1.4458  -1.4221  -1.4086  -1.3989  -1.3916  -1.3576
    -1.3276  -1.3177  -1.2874  -1.2416  -1.1945  -1.1787  -1.1674  -1.1472
    -1.1247  -1.1230  -1.1114  -1.0837  -1.0610  -1.0481  -1.0329  -1.0134
    -0.9700  -0.9579  -0.9448  -0.9280  -0.9127  -0.8731  -0.8582  -0.8468
    -0.8392  -0.8119  -0.8061  -0.7887  -0.7698  -0.7574  -0.7191  -0.5788
    -0.5602  -0.5493  -0.5387  -0.5314  -0.5215  -0.5163  -0.4968  -0.4803
    -0.4634  -0.4530  -0.4413  -0.4323  -0.3869  -0.3417  -0.3199  -0.3099
    -0.2919  -0.2892  -0.2656  -0.2570  -0.2295  -0.2163  -0.2104  -0.1956
    -0.1857  -0.1296  -0.1227  -0.1129  -0.1015  -0.0839  -0.0684  -0.0204
     0.1585   0.2694   0.5192   0.9024   1.0527   1.1765   1.2736   1.5353
     1.6774   1.7280

          k = 0.2000-0.3464 0.0000 ( 36608 PWs)   bands (ev):

   -21.7974  -9.2726  -7.2366  -6.1588  -5.9800  -5.9485  -5.6548  -5.5297
    -5.3422  -4.7986  -4.7017  -4.5559  -4.4895  -4.4725  -4.2721  -4.2637
    -4.2237  -4.1618  -4.1579  -4.0343  -4.0079  -3.9685  -3.8878  -3.8642
    -3.8163  -3.7628  -3.6779  -3.6587  -3.6479  -3.6281  -3.6149  -3.5930
    -3.5778  -3.5714  -3.5202  -3.5028  -3.4694  -3.4320  -3.4140  -3.3665
    -3.2864  -3.2318  -3.2044  -3.1809  -3.1560  -3.1369  -3.0819  -3.0458
    -3.0009  -2.9871  -2.9659  -2.9475  -2.9375  -2.9102  -2.8813  -2.8669
    -2.8641  -2.8255  -2.7402  -2.7223  -2.6785  -2.6662  -2.6350  -2.6241
    -2.5981  -2.5446  -2.4900  -2.4247  -2.3992  -2.3792  -2.3600  -2.3303
    -2.3161  -2.3082  -2.3037  -2.2818  -2.2550  -2.2534  -2.2401  -2.2253
    -2.2207  -2.1790  -2.1554  -2.1353  -2.0600  -2.0454  -2.0276  -2.0068
    -1.9984  -1.9777  -1.9700  -1.9447  -1.9215  -1.9099  -1.8978  -1.8923
    -1.8805  -1.8765  -1.8676  -1.8483  -1.8351  -1.8320  -1.8140  -1.7968
    -1.7823  -1.7726  -1.7500  -1.7082  -1.7075  -1.6769  -1.6625  -1.6512
    -1.6411  -1.6201  -1.5863  -1.5709  -1.5557  -1.5313  -1.5100  -1.5022
    -1.4782  -1.4754  -1.4696  -1.4479  -1.4336  -1.4174  -1.4088  -1.3588
    -1.3424  -1.3058  -1.2882  -1.2324  -1.1875  -1.1708  -1.1592  -1.0746
    -1.0639  -1.0496  -1.0320  -1.0271  -1.0182  -1.0102  -0.9914  -0.9669
    -0.9631  -0.9499  -0.9272  -0.8809  -0.8716  -0.8544  -0.8356  -0.8305
    -0.8061  -0.7813  -0.7741  -0.7617  -0.7499  -0.7404  -0.6156  -0.6092
    -0.5916  -0.5632  -0.5580  -0.5404  -0.5261  -0.5145  -0.5133  -0.4928
    -0.4742  -0.4485  -0.4219  -0.4046  -0.3939  -0.3851  -0.3457  -0.3278
    -0.3239  -0.3190  -0.3136  -0.2882  -0.2764  -0.2686  -0.2602  -0.2472
    -0.2414  -0.1671  -0.1505  -0.1459  -0.1041  -0.0988  -0.0768   0.0710
     0.1818   0.2378   0.2642   0.4844   0.5152   0.6534   1.0237   1.1362
     1.2429   1.4071

          k = 0.4000-0.2309 0.0000 ( 36606 PWs)   bands (ev):

   -21.7974  -9.2691  -7.0999  -6.4445  -6.0668  -5.7628  -5.5671  -5.3743
    -5.2001  -5.1478  -5.0455  -4.5145  -4.3295  -4.3086  -4.2763  -4.2365
    -4.1619  -4.1189  -4.1092  -4.0128  -3.9823  -3.9779  -3.9530  -3.8125
    -3.8014  -3.7927  -3.7847  -3.7722  -3.7108  -3.6790  -3.6664  -3.5682
    -3.5153  -3.5031  -3.4873  -3.4682  -3.4530  -3.4159  -3.3582  -3.3496
    -3.3376  -3.3258  -3.2780  -3.2154  -3.1237  -3.1016  -3.0313  -3.0221
    -2.9975  -2.9741  -2.9550  -2.9406  -2.9275  -2.9155  -2.9001  -2.8463
    -2.8406  -2.8139  -2.7756  -2.7594  -2.6464  -2.6317  -2.6076  -2.5815
    -2.5439  -2.5234  -2.4954  -2.4867  -2.4635  -2.4100  -2.3569  -2.3534
    -2.3482  -2.3368  -2.3273  -2.3089  -2.2916  -2.2849  -2.2668  -2.2398
    -2.2210  -2.1865  -2.1687  -2.1538  -2.1199  -2.1091  -2.0650  -2.0307
    -2.0172  -2.0051  -1.9863  -1.9715  -1.9595  -1.9207  -1.9044  -1.9018
    -1.8914  -1.8753  -1.8688  -1.8471  -1.8326  -1.8258  -1.8204  -1.7929
    -1.7805  -1.7532  -1.7183  -1.7094  -1.6466  -1.6304  -1.6150  -1.5931
    -1.5887  -1.5679  -1.5466  -1.5176  -1.5044  -1.4844  -1.4796  -1.4706
    -1.4666  -1.4594  -1.4477  -1.4408  -1.4345  -1.4244  -1.4060  -1.3994
    -1.3883  -1.3556  -1.2907  -1.2665  -1.2570  -1.2395  -1.2158  -1.2028
    -1.1751  -1.1179  -1.0983  -1.0902  -1.0559  -1.0395  -1.0141  -0.9664
    -0.9626  -0.9338  -0.9243  -0.9034  -0.8854  -0.8517  -0.8311  -0.7738
    -0.7499  -0.7223  -0.7128  -0.6988  -0.6956  -0.6876  -0.6752  -0.6716
    -0.6483  -0.6314  -0.5489  -0.5395  -0.5335  -0.5275  -0.5176  -0.4946
    -0.4821  -0.4757  -0.4600  -0.4556  -0.4301  -0.4122  -0.3630  -0.3491
    -0.3345  -0.3190  -0.2930  -0.2499  -0.2444  -0.2173  -0.2079  -0.1724
    -0.1327  -0.1282  -0.1238  -0.1075  -0.1010  -0.0968  -0.0863  -0.0268
     0.0044   0.0538   0.4761   0.6110   0.9313   1.0970   1.1301   1.3025
     1.4717   1.5220

          k = 0.4000 0.0000 0.0000 ( 36608 PWs)   bands (ev):

   -21.7974  -9.2713  -7.2388  -6.1568  -6.0220  -5.9344  -5.6562  -5.4719
    -5.3711  -4.8017  -4.7237  -4.5151  -4.4913  -4.4765  -4.2864  -4.2628
    -4.2125  -4.1627  -4.1570  -4.0538  -4.0310  -3.9205  -3.8849  -3.8516
    -3.8135  -3.7663  -3.6789  -3.6688  -3.6351  -3.6283  -3.6120  -3.6008
    -3.5771  -3.5709  -3.5304  -3.5079  -3.4653  -3.4354  -3.4279  -3.3665
    -3.2858  -3.2397  -3.2056  -3.1738  -3.1571  -3.1440  -3.0813  -3.0434
    -3.0086  -2.9763  -2.9666  -2.9581  -2.9297  -2.9068  -2.8911  -2.8756
    -2.8546  -2.8254  -2.7516  -2.6926  -2.6756  -2.6584  -2.6454  -2.6174
    -2.5952  -2.5431  -2.4932  -2.4253  -2.4011  -2.3793  -2.3603  -2.3336
    -2.3162  -2.3082  -2.3048  -2.2836  -2.2580  -2.2498  -2.2416  -2.2336
    -2.2168  -2.1760  -2.1550  -2.1009  -2.0577  -2.0471  -2.0314  -2.0111
    -1.9937  -1.9807  -1.9508  -1.9445  -1.9353  -1.9053  -1.8976  -1.8882
    -1.8796  -1.8759  -1.8666  -1.8447  -1.8413  -1.8303  -1.8121  -1.8087
    -1.7831  -1.7587  -1.7352  -1.7110  -1.7051  -1.6704  -1.6602  -1.6565
    -1.6432  -1.6252  -1.6009  -1.5710  -1.5543  -1.5474  -1.5212  -1.4977
    -1.4912  -1.4769  -1.4630  -1.4430  -1.4316  -1.4238  -1.4099  -1.3641
    -1.3392  -1.3252  -1.3048  -1.2285  -1.1964  -1.1729  -1.1589  -1.0888
    -1.0566  -1.0436  -1.0324  -1.0263  -1.0184  -1.0084  -0.9852  -0.9837
    -0.9589  -0.9407  -0.9238  -0.8819  -0.8661  -0.8517  -0.8420  -0.8318
    -0.8066  -0.7846  -0.7675  -0.7634  -0.7481  -0.7388  -0.6193  -0.5998
    -0.5784  -0.5634  -0.5537  -0.5487  -0.5283  -0.5161  -0.5087  -0.4994
    -0.4741  -0.4447  -0.4243  -0.4123  -0.3933  -0.3814  -0.3385  -0.3304
    -0.3225  -0.3193  -0.3113  -0.2902  -0.2773  -0.2700  -0.2603  -0.2430
    -0.2324  -0.1636  -0.1501  -0.1469  -0.1019  -0.0956  -0.0586   0.0544
     0.2135   0.2409   0.2854   0.4202   0.5485   0.6460   0.9767   1.1290
     1.2409   1.4302

          k = 0.4000 0.2309 0.0000 ( 36606 PWs)   bands (ev):

   -21.7974  -9.2673  -7.1031  -6.4500  -6.0756  -5.8088  -5.4559  -5.4299
    -5.2001  -5.1405  -5.0361  -4.5303  -4.3447  -4.3014  -4.2890  -4.2344
    -4.1524  -4.1180  -4.1158  -3.9992  -3.9808  -3.9798  -3.8873  -3.8205
    -3.8002  -3.7865  -3.7849  -3.7712  -3.6824  -3.6765  -3.6701  -3.6298
    -3.5195  -3.5127  -3.4980  -3.4661  -3.4651  -3.4181  -3.3602  -3.3518
    -3.3396  -3.3263  -3.2839  -3.2019  -3.1252  -3.0868  -3.0321  -3.0065
    -3.0028  -2.9692  -2.9582  -2.9539  -2.9406  -2.9135  -2.8806  -2.8501
    -2.8421  -2.8180  -2.7829  -2.7352  -2.6371  -2.6204  -2.6198  -2.5798
    -2.5475  -2.5152  -2.4979  -2.4922  -2.4801  -2.4094  -2.3630  -2.3531
    -2.3484  -2.3373  -2.3242  -2.3079  -2.2908  -2.2862  -2.2661  -2.2246
    -2.2084  -2.1887  -2.1785  -2.1622  -2.1144  -2.1025  -2.0466  -2.0437
    -2.0172  -2.0125  -1.9900  -1.9786  -1.9505  -1.9163  -1.9063  -1.9044
    -1.8846  -1.8735  -1.8612  -1.8433  -1.8414  -1.8282  -1.8255  -1.7954
    -1.7780  -1.7503  -1.7183  -1.7171  -1.6544  -1.6353  -1.6149  -1.5931
    -1.5705  -1.5655  -1.5377  -1.5083  -1.5046  -1.4905  -1.4770  -1.4726
    -1.4666  -1.4639  -1.4447  -1.4429  -1.4276  -1.4269  -1.4180  -1.3920
    -1.3722  -1.3592  -1.3243  -1.2656  -1.2505  -1.2411  -1.2169  -1.2014
    -1.1755  -1.1185  -1.1126  -1.0961  -1.0868  -1.0336  -1.0290  -0.9925
    -0.9655  -0.9315  -0.9172  -0.9132  -0.8813  -0.8471  -0.8147  -0.7881
    -0.7210  -0.7186  -0.7148  -0.7022  -0.6928  -0.6827  -0.6772  -0.6587
    -0.6492  -0.6428  -0.5464  -0.5423  -0.5253  -0.5219  -0.5131  -0.4979
    -0.4824  -0.4715  -0.4638  -0.4472  -0.4375  -0.4077  -0.3598  -0.3407
    -0.3402  -0.3201  -0.2776  -0.2467  -0.2425  -0.2096  -0.2062  -0.1715
    -0.1344  -0.1237  -0.1213  -0.1032  -0.0955  -0.0948  -0.0702  -0.0462
     0.0043   0.0543   0.4254   0.7526   0.8566   1.0340   1.1343   1.2000
     1.4826   1.5454

          k = 0.4000-0.6928 0.0000 ( 36660 PWs)   bands (ev):

   -21.7974  -9.2629  -6.7307  -6.6682  -6.0989  -5.9071  -5.8016  -5.4185
    -5.2028  -5.1832  -4.8162  -4.4781  -4.3856  -4.2104  -4.1791  -4.0504
    -4.0454  -4.0229  -4.0137  -3.9902  -3.9630  -3.9422  -3.9343  -3.9223
    -3.9014  -3.7986  -3.7869  -3.7795  -3.7597  -3.7497  -3.7082  -3.6081
    -3.5978  -3.5888  -3.5750  -3.5542  -3.4870  -3.4234  -3.3386  -3.3065
    -3.3001  -3.2613  -3.2094  -3.1978  -3.1732  -3.1139  -3.0881  -3.0833
    -3.0730  -3.0105  -2.9892  -2.9209  -2.8847  -2.8541  -2.8514  -2.7965
    -2.7842  -2.7243  -2.7172  -2.7083  -2.6939  -2.6852  -2.6373  -2.6256
    -2.5397  -2.5045  -2.4951  -2.4777  -2.4654  -2.4289  -2.4133  -2.3577
    -2.3494  -2.3170  -2.3077  -2.2886  -2.2822  -2.2612  -2.2452  -2.2239
    -2.2165  -2.2049  -2.1784  -2.1739  -2.1590  -2.1536  -2.0947  -2.0825
    -2.0685  -2.0428  -1.9994  -1.9665  -1.9481  -1.9320  -1.9176  -1.9130
    -1.8879  -1.8789  -1.8754  -1.8521  -1.8373  -1.8337  -1.8114  -1.7604
    -1.7432  -1.7388  -1.7236  -1.7125  -1.7005  -1.6989  -1.6912  -1.6796
    -1.6735  -1.6707  -1.6463  -1.6249  -1.5720  -1.5679  -1.5553  -1.5253
    -1.4859  -1.4746  -1.4499  -1.4188  -1.4093  -1.3981  -1.3881  -1.3774
    -1.3249  -1.3200  -1.2857  -1.2493  -1.1872  -1.1863  -1.1723  -1.1456
    -1.1268  -1.1158  -1.1040  -1.0991  -1.0762  -1.0536  -1.0226  -0.9970
    -0.9707  -0.9636  -0.9428  -0.9255  -0.9145  -0.8848  -0.8655  -0.8572
    -0.8299  -0.8159  -0.8037  -0.7780  -0.7626  -0.7556  -0.7234  -0.5803
    -0.5581  -0.5515  -0.5410  -0.5271  -0.5248  -0.5106  -0.4949  -0.4670
    -0.4666  -0.4528  -0.4423  -0.4400  -0.3788  -0.3248  -0.3212  -0.3061
    -0.2943  -0.2853  -0.2717  -0.2393  -0.2284  -0.2173  -0.2080  -0.1951
    -0.1921  -0.1568  -0.1216  -0.1118  -0.1003  -0.0866  -0.0691  -0.0170
     0.1736   0.2773   0.5806   0.8823   0.9639   1.1754   1.2423   1.5822
     1.6834   1.7219

          k = 0.4000-0.4619 0.0000 ( 36660 PWs)   bands (ev):

   -21.7974  -9.2640  -6.7185  -6.6736  -6.1006  -5.9378  -5.7087  -5.4995
    -5.2288  -5.1610  -4.7908  -4.4749  -4.3680  -4.2205  -4.1809  -4.0648
    -4.0452  -4.0337  -4.0179  -4.0060  -3.9517  -3.9419  -3.9346  -3.9304
    -3.9011  -3.8441  -3.7870  -3.7753  -3.7565  -3.7476  -3.6864  -3.6096
    -3.5998  -3.5856  -3.5670  -3.5191  -3.4679  -3.4259  -3.3452  -3.3055
    -3.3002  -3.2675  -3.2146  -3.2001  -3.1741  -3.1302  -3.0888  -3.0834
    -3.0446  -3.0195  -2.9748  -2.9223  -2.8905  -2.8623  -2.8508  -2.8039
    -2.7877  -2.7245  -2.7174  -2.7055  -2.6944  -2.6762  -2.6586  -2.6133
    -2.5451  -2.5047  -2.4943  -2.4822  -2.4538  -2.4210  -2.4050  -2.3577
    -2.3536  -2.3139  -2.3002  -2.2966  -2.2855  -2.2650  -2.2470  -2.2364
    -2.2197  -2.2082  -2.1965  -2.1715  -2.1648  -2.1285  -2.0924  -2.0810
    -2.0676  -2.0414  -1.9923  -1.9706  -1.9522  -1.9322  -1.9173  -1.9107
    -1.8895  -1.8785  -1.8674  -1.8620  -1.8442  -1.8232  -1.8182  -1.7821
    -1.7609  -1.7366  -1.7274  -1.7177  -1.7043  -1.6970  -1.6863  -1.6745
    -1.6698  -1.6634  -1.6386  -1.6131  -1.5786  -1.5667  -1.5565  -1.5216
    -1.4775  -1.4729  -1.4473  -1.4213  -1.4086  -1.3983  -1.3920  -1.3579
    -1.3272  -1.3174  -1.2883  -1.2394  -1.1943  -1.1790  -1.1674  -1.1475
    -1.1251  -1.1222  -1.1115  -1.0834  -1.0611  -1.0494  -1.0333  -1.0131
    -0.9705  -0.9590  -0.9450  -0.9278  -0.9122  -0.8732  -0.8579  -0.8466
    -0.8401  -0.8120  -0.8056  -0.7884  -0.7701  -0.7570  -0.7200  -0.5783
    -0.5602  -0.5496  -0.5377  -0.5318  -0.5212  -0.5160  -0.4968  -0.4797
    -0.4637  -0.4536  -0.4420  -0.4319  -0.3859  -0.3409  -0.3198  -0.3092
    -0.2920  -0.2890  -0.2654  -0.2570  -0.2298  -0.2162  -0.2107  -0.1955
    -0.1851  -0.1315  -0.1226  -0.1130  -0.1016  -0.0839  -0.0683  -0.0204
     0.1588   0.2701   0.5213   0.9044   1.0437   1.1769   1.2709   1.5376
     1.6776   1.7281

 ------ SPIN DOWN ----------


          k = 0.0000 0.0000 0.0000 ( 36693 PWs)   bands (ev):

   -21.8848  -9.3855  -7.7895  -6.5074  -5.7739  -5.6338  -5.4472  -4.7178
    -4.6390  -4.6335  -4.6305  -4.5876  -4.5852  -4.5556  -3.9979  -3.7630
    -3.7564  -3.7455  -3.7179  -3.7100  -3.6507  -3.2638  -2.8162  -2.8151
    -2.8038  -2.7924  -2.7216  -2.5878  -2.3459  -2.3424  -2.3324  -2.3319
    -2.3091  -2.2382  -2.1435  -2.1424  -2.0738  -2.0458  -2.0457  -2.0438
    -1.9591  -1.9587  -1.9099  -1.9080  -1.8290  -1.8145  -1.8089  -1.7947
    -1.7592  -1.7458  -1.5564  -1.5410  -1.5379  -1.5342  -1.5175  -1.5146
    -1.5044  -1.5033  -1.4741  -1.4695  -1.4354  -1.4268  -1.4243  -1.4201
    -1.3475  -1.2716  -0.8922  -0.8673  -0.8552  -0.8521  -0.8230  -0.7734
    -0.6578  -0.6322  -0.5485  -0.5401  -0.5287  -0.5219  -0.5111  -0.4966
    -0.4672  -0.4631  -0.4430  -0.4420  -0.4287  -0.4285  -0.3741  -0.3644
    -0.3433  -0.3273  -0.3203  -0.3035  -0.2932  -0.2839  -0.2812  -0.2658
    -0.2652  -0.2586  -0.2495  -0.2436  -0.2404  -0.2398  -0.1906  -0.1653
    -0.1553  -0.1151  -0.0918  -0.0501  -0.0316  -0.0256  -0.0162  -0.0115
    -0.0085  -0.0039  -0.0033   0.0442   0.0721   0.0724   0.1199   0.1472
     0.1558   0.1580   0.1734   0.2027   0.3067   0.3505   0.3973   0.4012
     0.4524   0.4690   0.4769   0.4777   0.5948   0.6974   0.7047   0.7959
     0.8087   0.8875   0.9232   0.9794   1.0200   1.0373   1.0430   1.0447
     1.1299   1.1372   1.1944   1.2087   1.2163   1.2202   1.2234   1.2498
     1.2667   1.2690   1.2882   1.3016   1.3141   1.3256   1.3354   1.3522
     1.3646   1.3687   1.3738   1.3754   1.3924   1.4303   1.4363   1.4448
     1.4490   1.4670   1.4718   1.4871   1.4965   1.5042   1.5072   1.5402
     1.5448   1.5627   1.5669   1.5676   1.5811   1.5866   1.5916   1.6267
     1.6334   1.6346   1.6389   1.6426   1.6506   1.6559   1.6663   1.6707
     1.6772   1.7167   1.7176   1.8636   1.8640   1.8682   1.8727   1.8732
     1.8791   2.0210

          k = 0.0000 0.2309 0.0000 ( 36641 PWs)   bands (ev):

   -21.8848  -9.3756  -7.6469  -6.3990  -5.8373  -5.6610  -5.5580  -5.3888
    -4.9999  -4.9765  -4.5802  -4.4210  -4.0931  -4.0781  -4.0240  -3.9338
    -3.8043  -3.7253  -3.4539  -3.3956  -3.3458  -3.2413  -2.9478  -2.7964
    -2.7740  -2.7356  -2.6784  -2.5996  -2.4416  -2.3761  -2.3689  -2.3550
    -2.3263  -2.2953  -2.2861  -2.2796  -2.2306  -2.2034  -2.1060  -2.1021
    -2.0156  -2.0123  -1.9647  -1.8550  -1.8403  -1.8210  -1.8059  -1.7087
    -1.6752  -1.6598  -1.6056  -1.5760  -1.5575  -1.5425  -1.5232  -1.5187
    -1.5045  -1.4918  -1.4155  -1.3959  -1.3853  -1.3662  -1.3333  -1.2839
    -1.2510  -1.1556  -0.9714  -0.9369  -0.9042  -0.9019  -0.8389  -0.7935
    -0.7526  -0.7212  -0.6855  -0.6561  -0.6363  -0.5800  -0.5540  -0.5470
    -0.5061  -0.4994  -0.4836  -0.4795  -0.4679  -0.4445  -0.4293  -0.3861
    -0.3441  -0.3234  -0.3164  -0.3125  -0.3024  -0.2791  -0.2602  -0.2471
    -0.2371  -0.2288  -0.2234  -0.2173  -0.2152  -0.2144  -0.1928  -0.1654
    -0.1418  -0.1309  -0.1173  -0.1075  -0.0966  -0.0808  -0.0552  -0.0354
    -0.0229  -0.0008   0.0281   0.0607   0.0902   0.1050   0.1105   0.1393
     0.2497   0.2749   0.2800   0.3281   0.3647   0.3681   0.4003   0.4225
     0.4260   0.4389   0.4530   0.4576   0.6083   0.6732   0.7259   0.7771
     0.7864   0.8017   0.8128   0.8233   0.8733   0.8904   0.9269   0.9623
     1.0133   1.0241   1.0362   1.0835   1.0972   1.1178   1.1430   1.1792
     1.2041   1.2225   1.2519   1.2611   1.2735   1.2883   1.3241   1.3324
     1.3475   1.3746   1.4056   1.4197   1.4399   1.4491   1.4724   1.4828
     1.5154   1.5289   1.5324   1.5349   1.5588   1.6083   1.6147   1.6202
     1.6313   1.6533   1.6558   1.6880   1.6923   1.7070   1.7108   1.7159
     1.7324   1.7782   1.7847   1.7976   1.8012   1.8106   1.8217   1.8353
     1.8558   1.8602   1.8684   1.8978   1.9532   1.9709   1.9747   2.0297
     2.0536   2.1051

          k = 0.0000 0.4619 0.0000 ( 36606 PWs)   bands (ev):

   -21.8848  -9.3598  -7.2235  -6.5459  -6.1229  -5.7924  -5.6177  -5.4024
    -5.2089  -5.1502  -5.0380  -4.3419  -4.1104  -4.0247  -3.7484  -3.4660
    -3.4569  -3.3748  -3.3266  -3.1588  -3.0690  -3.0140  -2.9809  -2.8628
    -2.8557  -2.7900  -2.7474  -2.7107  -2.6443  -2.6184  -2.6001  -2.5569
    -2.5350  -2.4177  -2.3330  -2.3160  -2.2418  -2.2208  -2.1238  -2.1194
    -2.1062  -2.0867  -2.0621  -1.8361  -1.8110  -1.8006  -1.7690  -1.7398
    -1.6051  -1.5939  -1.5819  -1.5644  -1.5569  -1.5295  -1.5277  -1.5037
    -1.4925  -1.4202  -1.4123  -1.3915  -1.3698  -1.3566  -1.2063  -1.1812
    -1.0783  -1.0396  -0.9586  -0.9365  -0.9296  -0.8912  -0.8699  -0.8585
    -0.8450  -0.8184  -0.8021  -0.7709  -0.7247  -0.6951  -0.6765  -0.6465
    -0.6194  -0.6119  -0.5801  -0.5690  -0.5332  -0.5101  -0.4699  -0.4025
    -0.3948  -0.3783  -0.3549  -0.3297  -0.3014  -0.2867  -0.2616  -0.2447
    -0.2100  -0.2073  -0.1921  -0.1724  -0.1618  -0.1582  -0.1373  -0.1195
    -0.1013  -0.0847  -0.0754  -0.0606  -0.0521  -0.0461  -0.0340  -0.0127
     0.0018   0.0277   0.0720   0.1162   0.1406   0.1496   0.1632   0.2056
     0.2133   0.2230   0.2397   0.2832   0.2990   0.3178   0.3366   0.3426
     0.3948   0.4004   0.4077   0.4280   0.4643   0.5396   0.5953   0.6002
     0.6618   0.6823   0.7024   0.7656   0.8095   0.8526   0.8740   0.8891
     0.9123   0.9295   0.9493   0.9716   0.9908   1.0759   1.1475   1.1737
     1.1846   1.1947   1.2409   1.2549   1.2885   1.3077   1.3252   1.3461
     1.3733   1.3908   1.3948   1.4579   1.4785   1.4880   1.5303   1.5391
     1.5503   1.5554   1.5800   1.5880   1.6115   1.6263   1.6353   1.6634
     1.6713   1.7166   1.7577   1.7688   1.7834   1.7989   1.8073   1.8323
     1.8363   1.8598   1.8654   1.8773   1.8975   1.9016   1.9098   1.9157
     1.9574   2.0159   2.0369   2.1240   2.1347   2.2132   2.5505   2.6099
     2.6534   2.6916

          k = 0.2000-0.1155 0.0000 ( 36641 PWs)   bands (ev):

   -21.8848  -9.3755  -7.6470  -6.3992  -5.8386  -5.6607  -5.5562  -5.3897
    -4.9995  -4.9769  -4.5814  -4.4181  -4.0943  -4.0781  -4.0262  -3.9331
    -3.8034  -3.7254  -3.4550  -3.3958  -3.3421  -3.2412  -2.9509  -2.7955
    -2.7734  -2.7371  -2.6787  -2.5977  -2.4426  -2.3759  -2.3687  -2.3555
    -2.3262  -2.2955  -2.2863  -2.2800  -2.2308  -2.2027  -2.1057  -2.1024
    -2.0159  -2.0126  -1.9653  -1.8533  -1.8406  -1.8208  -1.8051  -1.7087
    -1.6753  -1.6597  -1.6056  -1.5757  -1.5581  -1.5423  -1.5233  -1.5190
    -1.5040  -1.4915  -1.4161  -1.3960  -1.3847  -1.3657  -1.3336  -1.2848
    -1.2505  -1.1559  -0.9711  -0.9369  -0.9042  -0.9021  -0.8389  -0.7926
    -0.7549  -0.7214  -0.6857  -0.6559  -0.6360  -0.5809  -0.5533  -0.5469
    -0.5059  -0.4998  -0.4832  -0.4790  -0.4677  -0.4451  -0.4304  -0.3859
    -0.3429  -0.3243  -0.3164  -0.3132  -0.3030  -0.2784  -0.2602  -0.2474
    -0.2373  -0.2283  -0.2234  -0.2170  -0.2152  -0.2141  -0.1930  -0.1655
    -0.1412  -0.1309  -0.1170  -0.1073  -0.0980  -0.0813  -0.0553  -0.0356
    -0.0223  -0.0008   0.0290   0.0616   0.0898   0.1050   0.1101   0.1392
     0.2491   0.2741   0.2814   0.3289   0.3653   0.3693   0.3987   0.4224
     0.4258   0.4387   0.4533   0.4578   0.6058   0.6781   0.7229   0.7774
     0.7864   0.8020   0.8128   0.8245   0.8731   0.8916   0.9266   0.9625
     1.0128   1.0260   1.0347   1.0848   1.0968   1.1186   1.1431   1.1744
     1.2045   1.2230   1.2523   1.2613   1.2731   1.2886   1.3241   1.3324
     1.3479   1.3746   1.4050   1.4202   1.4402   1.4495   1.4732   1.4839
     1.5153   1.5290   1.5325   1.5349   1.5582   1.6076   1.6146   1.6201
     1.6310   1.6532   1.6556   1.6882   1.6925   1.7067   1.7109   1.7161
     1.7321   1.7782   1.7845   1.7979   1.8013   1.8106   1.8214   1.8350
     1.8554   1.8602   1.8683   1.8965   1.9531   1.9705   1.9749   2.0305
     2.0534   2.1045

          k = 0.2000 0.1155 0.0000 ( 36641 PWs)   bands (ev):

   -21.8848  -9.3748  -7.6477  -6.4029  -5.8682  -5.6426  -5.4720  -5.4629
    -4.9955  -4.9791  -4.6054  -4.3529  -4.1063  -4.0787  -4.0409  -3.9662
    -3.7907  -3.7223  -3.4641  -3.4020  -3.3077  -3.2175  -2.9796  -2.8219
    -2.7642  -2.7131  -2.7116  -2.5648  -2.4568  -2.3769  -2.3689  -2.3499
    -2.3341  -2.3023  -2.2857  -2.2821  -2.2434  -2.1840  -2.1061  -2.1004
    -2.0171  -2.0135  -1.9555  -1.8580  -1.8326  -1.8159  -1.8133  -1.6962
    -1.6770  -1.6657  -1.5977  -1.5862  -1.5675  -1.5377  -1.5188  -1.5165
    -1.5156  -1.4512  -1.4370  -1.4006  -1.3791  -1.3686  -1.3300  -1.2973
    -1.2388  -1.1614  -0.9735  -0.9409  -0.9054  -0.8942  -0.8265  -0.8057
    -0.7831  -0.6887  -0.6777  -0.6735  -0.6478  -0.5814  -0.5620  -0.5364
    -0.5112  -0.4961  -0.4887  -0.4712  -0.4706  -0.4429  -0.4410  -0.3807
    -0.3328  -0.3283  -0.3182  -0.3107  -0.3032  -0.2708  -0.2610  -0.2423
    -0.2409  -0.2273  -0.2260  -0.2214  -0.2171  -0.2143  -0.1792  -0.1684
    -0.1457  -0.1329  -0.1138  -0.1132  -0.0976  -0.0743  -0.0535  -0.0457
    -0.0190  -0.0046   0.0480   0.0706   0.0808   0.0885   0.1075   0.1394
     0.2213   0.2878   0.3045   0.3232   0.3585   0.3763   0.3847   0.4170
     0.4256   0.4430   0.4556   0.4567   0.6473   0.6712   0.7002   0.7732
     0.7904   0.7942   0.8213   0.8311   0.8641   0.8977   0.9092   0.9575
     0.9727   1.0367   1.0575   1.0853   1.0920   1.1312   1.1465   1.1553
     1.1966   1.2428   1.2558   1.2687   1.2776   1.2893   1.3249   1.3303
     1.3462   1.3804   1.4071   1.4328   1.4376   1.4515   1.4719   1.4837
     1.5016   1.5283   1.5333   1.5450   1.5511   1.6028   1.6062   1.6187
     1.6340   1.6511   1.6614   1.6909   1.6989   1.7033   1.7119   1.7151
     1.7338   1.7779   1.7861   1.7982   1.7990   1.8118   1.8186   1.8342
     1.8581   1.8643   1.8665   1.8749   1.9519   1.9688   1.9763   2.0217
     2.0590   2.1010

          k = 0.2000 0.3464 0.0000 ( 36608 PWs)   bands (ev):

   -21.8848  -9.3618  -7.3649  -6.2216  -6.0902  -6.0104  -5.6699  -5.5094
    -5.4093  -4.7625  -4.6398  -4.3114  -4.2613  -4.2535  -3.7629  -3.4429
    -3.4273  -3.4254  -3.4032  -3.2687  -3.1631  -3.1307  -3.1043  -2.8925
    -2.7599  -2.6813  -2.6761  -2.6606  -2.5899  -2.5631  -2.5446  -2.4756
    -2.4660  -2.4548  -2.4244  -2.3306  -2.3113  -2.2475  -2.0872  -2.0749
    -2.0466  -1.9939  -1.9716  -1.9473  -1.9337  -1.7950  -1.7414  -1.7260
    -1.6306  -1.6099  -1.5639  -1.5603  -1.5488  -1.5367  -1.5206  -1.5028
    -1.4806  -1.4751  -1.4188  -1.3814  -1.3399  -1.2989  -1.2029  -1.1648
    -1.1048  -1.0689  -0.9885  -0.9567  -0.8968  -0.8715  -0.8568  -0.8333
    -0.8072  -0.7761  -0.7635  -0.7290  -0.7013  -0.6864  -0.6743  -0.6469
    -0.6306  -0.6099  -0.5958  -0.5653  -0.5573  -0.4745  -0.4309  -0.4159
    -0.4049  -0.3825  -0.3567  -0.3451  -0.3214  -0.2973  -0.2847  -0.2720
    -0.2568  -0.2382  -0.2303  -0.2093  -0.1987  -0.1799  -0.1612  -0.1325
    -0.1234  -0.1096  -0.0989  -0.0867  -0.0766  -0.0697  -0.0539  -0.0402
     0.0157   0.0436   0.0494   0.0659   0.1591   0.1774   0.2000   0.2288
     0.2484   0.2776   0.2955   0.3040   0.3345   0.3688   0.3789   0.3869
     0.3950   0.4241   0.4581   0.4738   0.5323   0.6004   0.6373   0.6815
     0.7354   0.7660   0.8036   0.8302   0.8380   0.8509   0.8622   0.8830
     0.8973   0.9117   0.9232   0.9428   0.9810   1.0368   1.0685   1.1023
     1.1212   1.1435   1.1649   1.1843   1.1946   1.2496   1.2569   1.3022
     1.3428   1.4075   1.4394   1.4884   1.5073   1.5203   1.5371   1.5502
     1.5628   1.5699   1.5943   1.6020   1.6554   1.6715   1.6760   1.6820
     1.6979   1.7275   1.7366   1.7485   1.7544   1.7763   1.7850   1.8096
     1.8138   1.8220   1.8308   1.8439   1.8575   1.8726   1.9097   1.9406
     1.9539   1.9756   2.0456   2.0798   2.1835   2.2216   2.3178   2.4947
     2.5337   2.5456

          k = 0.2000-0.5774 0.0000 ( 36660 PWs)   bands (ev):

   -21.8848  -9.3547  -6.8313  -6.7887  -6.1816  -5.9792  -5.7511  -5.5504
    -5.2521  -5.1881  -4.7510  -4.3293  -4.1361  -3.7576  -3.4909  -3.4633
    -3.4540  -3.3470  -3.2134  -3.1242  -3.0485  -3.0395  -3.0249  -2.9082
    -2.9024  -2.8849  -2.8662  -2.8545  -2.7315  -2.6300  -2.5257  -2.5071
    -2.4915  -2.4548  -2.4402  -2.4212  -2.3749  -2.3094  -2.2193  -2.0710
    -1.9754  -1.9632  -1.9509  -1.9325  -1.8770  -1.7991  -1.7291  -1.7177
    -1.6807  -1.6652  -1.6606  -1.5627  -1.5143  -1.4977  -1.4917  -1.4735
    -1.4395  -1.3766  -1.3445  -1.3294  -1.2789  -1.2610  -1.2430  -1.1407
    -1.0964  -1.0153  -0.9648  -0.9481  -0.9399  -0.8812  -0.8681  -0.8278
    -0.8138  -0.8062  -0.7790  -0.7511  -0.7396  -0.6902  -0.6732  -0.6556
    -0.6423  -0.6209  -0.6067  -0.5955  -0.5804  -0.5782  -0.5400  -0.5129
    -0.5082  -0.4709  -0.4452  -0.4275  -0.3945  -0.3707  -0.3395  -0.2922
    -0.2663  -0.2310  -0.2227  -0.2057  -0.1744  -0.1657  -0.1547  -0.1330
    -0.0957  -0.0721  -0.0611  -0.0447  -0.0241  -0.0147   0.0328   0.0752
     0.1025   0.1214   0.1302   0.1368   0.1588   0.1737   0.2056   0.2244
     0.2436   0.2494   0.3044   0.3182   0.3431   0.3571   0.3816   0.4063
     0.4158   0.4330   0.4516   0.4733   0.4851   0.5027   0.5183   0.5675
     0.6046   0.6535   0.7126   0.7386   0.7753   0.7998   0.8304   0.8397
     0.8599   0.8757   0.8893   0.9499   0.9855   1.0335   1.0479   1.0682
     1.0958   1.1027   1.1523   1.1775   1.1976   1.2166   1.2422   1.2901
     1.3688   1.4141   1.4559   1.4594   1.5107   1.5460   1.5768   1.5865
     1.6005   1.6095   1.6209   1.6316   1.6586   1.6792   1.6878   1.6993
     1.7407   1.7611   1.7686   1.7812   1.7864   1.7888   1.7996   1.8031
     1.8196   1.8563   1.8652   1.8899   1.8976   1.9154   1.9216   1.9437
     2.0032   2.0757   2.2081   2.3241   2.4363   2.6441   2.7280   2.7998
     2.8367   2.9153

          k = 0.2000-0.3464 0.0000 ( 36608 PWs)   bands (ev):

   -21.8848  -9.3630  -7.3627  -6.2211  -6.0523  -6.0272  -5.6617  -5.5709
    -5.3813  -4.7594  -4.6158  -4.3717  -4.2630  -4.2309  -3.7433  -3.4440
    -3.4323  -3.4245  -3.4057  -3.2973  -3.1493  -3.1375  -3.1030  -2.8791
    -2.7579  -2.6921  -2.6771  -2.6263  -2.5899  -2.5701  -2.5595  -2.4780
[...]
     atom    8 type  1   force =    -0.00015125   -0.00134208   -0.10412371
     atom    9 type  1   force =    -0.00099988    0.00055222   -0.10482638
     atom   10 type  1   force =    -0.00036289   -0.00010307   -0.01546931
     atom   11 type  1   force =     0.00123138   -0.00193134   -0.00865628
     atom   12 type  1   force =    -0.00107255    0.00052354   -0.01045087
     atom   13 type  1   force =    -0.00109281    0.00201589   -0.00863220
     atom   14 type  1   force =     0.00097935    0.00057600   -0.00560733
     atom   15 type  1   force =    -0.00018337    0.00091115   -0.00998641
     atom   16 type  1   force =    -0.00012456   -0.00114810   -0.01046360
     atom   17 type  1   force =     0.00060670   -0.00067299   -0.00999657
     atom   18 type  1   force =    -0.00084543   -0.00050496   -0.01194054
     atom   19 type  1   force =    -0.00364785   -0.00410098    0.00453260
     atom   20 type  1   force =    -0.00631760   -0.00390612   -0.00174335
     atom   21 type  1   force =     0.01205562   -0.00793759   -0.00294997
     atom   22 type  1   force =     0.00073383    0.00441309    0.00763273
     atom   23 type  1   force =    -0.00077845    0.01452358   -0.00301899
     atom   24 type  1   force =    -0.00015050   -0.00002432    0.01327315
     atom   25 type  1   force =    -0.00025055   -0.00012328    0.01749675
     atom   26 type  1   force =    -0.00525300   -0.00121704    0.00499804
     atom   27 type  1   force =     0.00400482   -0.00160025    0.00772739
     atom   28 type  1   force =     0.00514827    0.00276714    0.12369948
     atom   29 type  1   force =    -0.00253420    0.04610024    0.11633307
     atom   30 type  1   force =    -0.00171564    0.00878994    0.13195785
     atom   31 type  1   force =     0.03949494   -0.02516104    0.11287440
     atom   32 type  1   force =    -0.06665640   -0.03735989    0.03412409
     atom   33 type  1   force =    -0.01326018    0.00717949    0.12088539
     atom   34 type  1   force =     0.00628756   -0.00647387    0.13211955
     atom   35 type  1   force =    -0.00032599   -0.01578890    0.12201645
     atom   36 type  1   force =    -0.00074016   -0.00041121    0.10709439
     atom   37 type  2   force =    -0.05994151   -0.04515839    0.38558492
     atom   38 type  3   force =     0.42178654    0.26606180   -2.63930328
     atom   39 type  4   force =    -0.00797856   -0.00445289   -0.02491247
     The ionic contribution  to forces
     atom    1 type  1   force =    -0.00803532   -0.00042236 -111.16573707
     atom    2 type  1   force =    -0.00109968   -0.00075031 -111.18412122
     atom    3 type  1   force =     0.00913505   -0.00143673 -111.16794603
     atom    4 type  1   force =    -0.00484050    0.00817934 -111.16517377
     atom    5 type  1   force =     0.00342205    0.00865443 -111.16800231
     atom    6 type  1   force =     0.00141840    0.00089935 -111.15840658
     atom    7 type  1   force =    -0.00030767   -0.00014549 -111.15649802
     atom    8 type  1   force =    -0.00428477   -0.00677109 -111.16559692
     atom    9 type  1   force =     0.00459244   -0.00820716 -111.16497568
     atom   10 type  1   force =    -0.04602886   -0.02691183  -40.10280637
     atom   11 type  1   force =    -0.00125876   -0.07216661  -40.19913403
     atom   12 type  1   force =     0.04728980   -0.03704717  -40.10536268
     atom   13 type  1   force =    -0.06287481    0.03432706  -40.20062935
     atom   14 type  1   force =     0.05283418    0.03000023  -40.22051508
     atom   15 type  1   force =     0.01003050    0.00860527  -40.09682312
     atom   16 type  1   force =    -0.00813300    0.06015736  -40.10617936
     atom   17 type  1   force =     0.01286616    0.00495068  -40.09626562
     atom   18 type  1   force =    -0.00472828   -0.00191641  -40.07995946
     atom   19 type  1   force =    -0.39973302   -0.01668160   31.38837857
     atom   20 type  1   force =    -0.05102557   -0.03675831   30.34127088
     atom   21 type  1   force =     0.45209910   -0.08418354   31.27561936
     atom   22 type  1   force =    -0.23400374    0.39706938   31.41508644
     atom   23 type  1   force =     0.15822816    0.43532791   31.27387173
     atom   24 type  1   force =     0.07435370    0.04641622   31.68983059
     atom   25 type  1   force =    -0.01355028   -0.00663682   31.77717339
     atom   26 type  1   force =    -0.20937673   -0.33838925   31.39470487
     atom   27 type  1   force =     0.22289888   -0.39651240   31.42463838
     atom   28 type  1   force =    -1.61940688   -0.94615477  103.92757581
     atom   29 type  1   force =     0.06517742   -4.85618444   99.85958930
     atom   30 type  1   force =     1.57401454   -1.21311540  103.99831637
     atom   31 type  1   force =    -4.23421622    2.47373764   99.73548139
     atom   32 type  1   force =     3.17895528    1.80930444   98.59835607
     atom   33 type  1   force =     0.61611852    0.11044681  104.06492056
     atom   34 type  1   force =    -0.24817451    2.00192115  103.98201720
     atom   35 type  1   force =     0.40572074    0.48422926  104.08368192
     atom   36 type  1   force =    -0.11130670   -0.04034925  104.49832792
     atom   37 type  2   force =     1.11813610    0.70229412   51.39854812
     atom   38 type  3   force =    -1.65338801   -1.03514674   90.28468507
     atom   39 type  4   force =     0.90848225    0.50936700   15.29205873
     The local contribution  to forces
     atom    1 type  1   force =     0.00886325    0.00132484  111.27286236
     atom    2 type  1   force =     0.00369831    0.00223691  111.29660340
     atom    3 type  1   force =    -0.01222120    0.00231084  111.27673535
     atom    4 type  1   force =     0.00421379   -0.00757936  111.27177240
     atom    5 type  1   force =    -0.00412668   -0.01170401  111.27676251
     atom    6 type  1   force =     0.00049998    0.00022558  111.26291856
     atom    7 type  1   force =    -0.00063065   -0.00043384  111.26105302
     atom    8 type  1   force =     0.00548623    0.00694581  111.27267596
     atom    9 type  1   force =    -0.00444357    0.00741720  111.27166615
     atom   10 type  1   force =     0.04636001    0.02713792   40.10076444
     atom   11 type  1   force =    -0.00058413    0.07196611   40.18929744
     atom   12 type  1   force =    -0.04554518    0.03628731   40.09936865
     atom   13 type  1   force =     0.06179734   -0.03585888   40.19083185
     atom   14 type  1   force =    -0.05276874   -0.03000817   40.20670733
     atom   15 type  1   force =    -0.00915972   -0.00986590   40.08621059
     atom   16 type  1   force =     0.00828835   -0.05822704   40.10014744
     atom   17 type  1   force =    -0.01348740   -0.00347545   40.08571378
     atom   18 type  1   force =     0.00582503    0.00262909   40.07045131
     atom   19 type  1   force =     0.40023756    0.01844857  -31.37625145
     atom   20 type  1   force =     0.05777394    0.04093599  -30.32878742
     atom   21 type  1   force =    -0.46291110    0.08918417  -31.25925659
     atom   22 type  1   force =     0.23476417   -0.39850790  -31.40654672
     atom   23 type  1   force =    -0.15936314   -0.44717312  -31.25732772
     atom   24 type  1   force =    -0.07324137   -0.04589978  -31.67964410
     atom   25 type  1   force =     0.01313144    0.00640203  -31.76898731
     atom   26 type  1   force =     0.21109835    0.33794623  -31.38240304
     atom   27 type  1   force =    -0.22372836    0.39784901  -31.41581127
     atom   28 type  1   force =     1.60958660    0.94057199 -104.06024855
     atom   29 type  1   force =    -0.06317076    4.78815267  -99.98048048
     atom   30 type  1   force =    -1.56609220    1.19480033 -104.13923085
     atom   31 type  1   force =     4.17399025   -2.43746964  -99.85344218
     atom   32 type  1   force =    -3.11563311   -1.77395657  -98.61007921
     atom   33 type  1   force =    -0.60271584   -0.11845673 -104.18818951
     atom   34 type  1   force =     0.23684167   -1.98503675 -104.12308350
     atom   35 type  1   force =    -0.40605194   -0.46768081 -104.20849570
     atom   36 type  1   force =     0.11382471    0.04169413 -104.61566381
     atom   37 type  2   force =    -1.05562984   -0.65702478  -51.78405410
     atom   38 type  3   force =     1.24043891    0.77417255  -87.66020415
     atom   39 type  4   force =    -0.87707804   -0.49184711  -15.27765291
     The core correction contribution to forces
     atom    1 type  1   force =    -0.00014567   -0.00001314    0.01024516
     atom    2 type  1   force =     0.00037495    0.00022670    0.00917130
     atom    3 type  1   force =    -0.00020952    0.00000019    0.01048993
     atom    4 type  1   force =     0.00001839    0.00007314    0.01017196
     atom    5 type  1   force =    -0.00008910   -0.00018854    0.01050263
     atom    6 type  1   force =     0.00023223    0.00011656    0.01006428
     atom    7 type  1   force =     0.00013436    0.00006474    0.01061577
     atom    8 type  1   force =    -0.00005331   -0.00010854    0.01024600
     atom    9 type  1   force =     0.00005856   -0.00002238    0.01016881
     atom   10 type  1   force =    -0.00021586   -0.00012008   -0.00186433
     atom   11 type  1   force =    -0.00004384   -0.00031039   -0.00194187
     atom   12 type  1   force =     0.00018263   -0.00023535   -0.00179624
     atom   13 type  1   force =    -0.00029137    0.00012392   -0.00195407
     atom   14 type  1   force =     0.00033944    0.00020324   -0.00168256
     atom   15 type  1   force =     0.00005675    0.00011145   -0.00189230
     atom   16 type  1   force =    -0.00012353    0.00029033   -0.00179564
     atom   17 type  1   force =     0.00012317    0.00000057   -0.00188865
     atom   18 type  1   force =     0.00012096    0.00006290   -0.00169711
     atom   19 type  1   force =     0.00011832   -0.00053983    0.00155349
     atom   20 type  1   force =    -0.00116154   -0.00068667    0.00055820
     atom   21 type  1   force =     0.00102995   -0.00070395    0.00065647
     atom   22 type  1   force =     0.00007501    0.00074932    0.00133287
     atom   23 type  1   force =    -0.00010575    0.00127593    0.00063034
     atom   24 type  1   force =     0.00035584    0.00019118    0.00213751
     atom   25 type  1   force =     0.00013935    0.00008622    0.00195125
     atom   26 type  1   force =    -0.00039748    0.00035392    0.00158814
     atom   27 type  1   force =     0.00065117   -0.00031444    0.00137008
     atom   28 type  1   force =     0.00196199    0.00118105   -0.00941469
     atom   29 type  1   force =     0.00057002    0.00944909   -0.00480716
     atom   30 type  1   force =    -0.00285121    0.00392903   -0.00795378
     atom   31 type  1   force =     0.00870468   -0.00421349   -0.00488080
     atom   32 type  1   force =    -0.00540783   -0.00302485   -0.00095786
     atom   33 type  1   force =    -0.00664953    0.00165773   -0.00664342
     atom   34 type  1   force =     0.00182471   -0.00451635   -0.00798482
     atom   35 type  1   force =    -0.00177878   -0.00650918   -0.00669731
     atom   36 type  1   force =    -0.00054427   -0.00038788   -0.01089322
     atom   37 type  2   force =    -0.00007374    0.00049124   -0.00266666
     atom   38 type  3   force =    -0.00317323   -0.00199604    0.01945728
     atom   39 type  4   force =     0.00000000    0.00000000    0.00000000
     The Hubbard contrib.    to forces
     atom    1 type  1   force =     0.00000000    0.00000000    0.00000000
     atom    2 type  1   force =     0.00000000    0.00000000    0.00000000
     atom    3 type  1   force =     0.00000000    0.00000000    0.00000000
     atom    4 type  1   force =     0.00000000    0.00000000    0.00000000
     atom    5 type  1   force =     0.00000000    0.00000000    0.00000000
     atom    6 type  1   force =     0.00000000    0.00000000    0.00000000
     atom    7 type  1   force =     0.00000000    0.00000000    0.00000000
     atom    8 type  1   force =     0.00000000    0.00000000    0.00000000
     atom    9 type  1   force =     0.00000000    0.00000000    0.00000000
     atom   10 type  1   force =     0.00000000    0.00000000    0.00000000
     atom   11 type  1   force =     0.00000000    0.00000000    0.00000000
     atom   12 type  1   force =     0.00000000    0.00000000    0.00000000
     atom   13 type  1   force =     0.00000000    0.00000000    0.00000000
     atom   14 type  1   force =     0.00000000    0.00000000    0.00000000
     atom   15 type  1   force =     0.00000000    0.00000000    0.00000000
     atom   16 type  1   force =     0.00000000    0.00000000    0.00000000
     atom   17 type  1   force =     0.00000000    0.00000000    0.00000000
     atom   18 type  1   force =     0.00000000    0.00000000    0.00000000
     atom   19 type  1   force =     0.00000000    0.00000000    0.00000000
     atom   20 type  1   force =     0.00000000    0.00000000    0.00000000
     atom   21 type  1   force =     0.00000000    0.00000000    0.00000000
     atom   22 type  1   force =     0.00000000    0.00000000    0.00000000
     atom   23 type  1   force =     0.00000000    0.00000000    0.00000000
     atom   24 type  1   force =     0.00000000    0.00000000    0.00000000
     atom   25 type  1   force =     0.00000000    0.00000000    0.00000000
     atom   26 type  1   force =     0.00000000    0.00000000    0.00000000
     atom   27 type  1   force =     0.00000000    0.00000000    0.00000000
     atom   28 type  1   force =     0.00000000    0.00000000    0.00000000
     atom   29 type  1   force =     0.00000000    0.00000000    0.00000000
     atom   30 type  1   force =     0.00000000    0.00000000    0.00000000
     atom   31 type  1   force =     0.00000000    0.00000000    0.00000000
     atom   32 type  1   force =     0.00000000    0.00000000    0.00000000
     atom   33 type  1   force =     0.00000000    0.00000000    0.00000000
     atom   34 type  1   force =     0.00000000    0.00000000    0.00000000
     atom   35 type  1   force =     0.00000000    0.00000000    0.00000000
     atom   36 type  1   force =     0.00000000    0.00000000    0.00000000
     atom   37 type  2   force =     0.00000000    0.00000000    0.00000000
     atom   38 type  3   force =     0.00000000    0.00000000    0.00000000
     atom   39 type  4   force =     0.00000000    0.00000000    0.00000000
     The SCF correction term to forces
     atom    1 type  1   force =     0.00000000   -0.00000000   -0.00000000
     atom    2 type  1   force =    -0.00000000   -0.00000000   -0.00000000
     atom    3 type  1   force =     0.00000000   -0.00000000   -0.00000000
     atom    4 type  1   force =     0.00000000   -0.00000000   -0.00000000
     atom    5 type  1   force =    -0.00000000    0.00000000   -0.00000000
     atom    6 type  1   force =     0.00000000   -0.00000000   -0.00000000
     atom    7 type  1   force =     0.00000000    0.00000000   -0.00000000
     atom    8 type  1   force =    -0.00000000    0.00000000   -0.00000000
     atom    9 type  1   force =    -0.00000000    0.00000000   -0.00000000
     atom   10 type  1   force =     0.00000000    0.00000000   -0.00000000
     atom   11 type  1   force =    -0.00000000    0.00000000    0.00000000
     atom   12 type  1   force =    -0.00000000    0.00000000    0.00000000
     atom   13 type  1   force =     0.00000000   -0.00000000    0.00000000
     atom   14 type  1   force =    -0.00000000   -0.00000000    0.00000000
     atom   15 type  1   force =     0.00000000   -0.00000000    0.00000000
     atom   16 type  1   force =     0.00000000   -0.00000000    0.00000000
     atom   17 type  1   force =    -0.00000000    0.00000000    0.00000000
     atom   18 type  1   force =     0.00000000    0.00000000    0.00000000
     atom   19 type  1   force =     0.00000000   -0.00000000    0.00000000
     atom   20 type  1   force =     0.00000000    0.00000000    0.00000000
     atom   21 type  1   force =    -0.00000000    0.00000000    0.00000000
     atom   22 type  1   force =     0.00000000   -0.00000000    0.00000000
     atom   23 type  1   force =    -0.00000000   -0.00000000    0.00000000
     atom   24 type  1   force =    -0.00000000   -0.00000000    0.00000000
     atom   25 type  1   force =     0.00000000   -0.00000000    0.00000000
     atom   26 type  1   force =     0.00000000    0.00000000    0.00000000
     atom   27 type  1   force =    -0.00000000    0.00000000    0.00000000
     atom   28 type  1   force =    -0.00000000   -0.00000000    0.00000000
     atom   29 type  1   force =    -0.00000000    0.00000000    0.00000000
     atom   30 type  1   force =     0.00000000    0.00000000    0.00000000
     atom   31 type  1   force =    -0.00000000   -0.00000000    0.00000000
     atom   32 type  1   force =     0.00000000    0.00000000    0.00000000
     atom   33 type  1   force =    -0.00000000    0.00000000    0.00000000
     atom   34 type  1   force =     0.00000000    0.00000000    0.00000000
     atom   35 type  1   force =    -0.00000000   -0.00000000    0.00000000
     atom   36 type  1   force =    -0.00000000   -0.00000000    0.00000000
     atom   37 type  2   force =     0.00005156    0.00005933    0.00011735
     atom   38 type  3   force =     0.00000714    0.00001982    0.00005961
     atom   39 type  4   force =     0.00001089    0.00000772   -0.00001369

     Total force =     0.030148     Total SCF correction =     0.000156

     Writing all to output data dir ./pwscf.save/

     init_run     :     10.63s CPU     11.02s WALL (       1 calls)
     electrons    :    615.62s CPU    623.29s WALL (       1 calls)
     forces       :      2.92s CPU      2.98s WALL (       1 calls)

     Called by init_run:
     wfcinit      :      7.42s CPU      7.69s WALL (       1 calls)
     potinit      :      2.13s CPU      2.21s WALL (       1 calls)
     hinit0       :      0.83s CPU      0.84s WALL (       1 calls)

     Called by electrons:
     c_bands      :    519.19s CPU    525.17s WALL (      48 calls)
     sum_band     :     65.28s CPU     66.20s WALL (      48 calls)
     v_of_rho     :      8.15s CPU      8.48s WALL (      49 calls)
     newd         :      2.61s CPU      2.65s WALL (      49 calls)
     PAW_pot      :     12.24s CPU     12.37s WALL (      49 calls)
     mix_rho      :      9.48s CPU      9.64s WALL (      48 calls)
     vdW_kernel   :      1.07s CPU      1.07s WALL (       1 calls)

     Called by c_bands:
     init_us_2    :      5.97s CPU      6.07s WALL (    2548 calls)
     init_us_2:cp :      5.96s CPU      6.07s WALL (    2548 calls)
     cegterg      :    503.09s CPU    508.58s WALL (    1248 calls)

     Called by *egterg:
     cdiaghg      :    183.05s CPU    184.15s WALL (    4037 calls)
     h_psi        :    223.67s CPU    227.18s WALL (    4063 calls)
     s_psi        :     26.35s CPU     26.59s WALL (    4063 calls)
     g_psi        :      0.53s CPU      0.53s WALL (    2789 calls)

     Called by h_psi:
     h_psi:calbec :     34.96s CPU     35.53s WALL (    4063 calls)
     vloc_psi     :    159.93s CPU    162.58s WALL (    4063 calls)
     add_vuspsi   :     27.47s CPU     27.74s WALL (    4063 calls)

     General routines
     calbec       :     51.74s CPU     52.47s WALL (    5415 calls)
     fft          :      5.36s CPU      5.68s WALL (    4438 calls)
     ffts         :      6.07s CPU      6.17s WALL (   17115 calls)
     fftw         :    182.44s CPU    185.42s WALL ( 1292850 calls)
     interpolate  :      0.52s CPU      0.53s WALL (      98 calls)

     Parallel routines

     PWSCF        :  10m33.55s CPU  10m46.16s WALL


   This run was terminated on:  13:55:21  21Nov2025            

=------------------------------------------------------------------------------=
   JOB DONE.
=------------------------------------------------------------------------------=
