  37  37   0   0
  0.4190497E+02  0.8468310E-09  0.8468310E-09  0.2496566E-08  0.5000000E-15
  1.000000000000000E-004
  CAR 
 unknown system                          
      8.69173149     -9.89385302  301     -0.07116972      1.00000000
     -9.894  0.0000E+00  0.0000E+00
     -9.832  0.0000E+00  0.0000E+00
     -9.770  0.0000E+00  0.0000E+00
     -9.708 -0.4850E-28 -0.3005E-29
     -9.646 -0.7339E-24 -0.4547E-25
     -9.584 -0.5119E-20 -0.3172E-21
     -9.522 -0.1644E-16 -0.1019E-17
     -9.460 -0.2354E-13 -0.1459E-14
     -9.398 -0.1577E-10 -0.9785E-12
     -9.336 -0.4814E-08 -0.2992E-09
     -9.274 -0.6629E-06 -0.4137E-07
     -9.212 -0.4056E-04 -0.2554E-05
     -9.150 -0.1068E-02 -0.6875E-04
     -9.088 -0.1118E-01 -0.7613E-03
     -9.027 -0.3373E-01 -0.2851E-02
     -8.965  0.6260E-01  0.1028E-02
     -8.903  0.3442E+00  0.2235E-01
     -8.841  0.6357E+00  0.6174E-01
     -8.779  0.2168E+01  0.1961E+00
     -8.717  0.3821E+01  0.4328E+00
     -8.655  0.2087E+01  0.5621E+00
     -8.593 -0.8986E-01  0.5565E+00
     -8.531  0.2779E+00  0.5737E+00
     -8.469  0.2701E+01  0.7410E+00
     -8.407  0.3789E+01  0.9758E+00
     -8.345  0.3545E+01  0.1195E+01
     -8.283  0.3705E+01  0.1425E+01
     -8.221  0.1728E+01  0.1532E+01
     -8.159 -0.4395E-01  0.1529E+01
     -8.097 -0.3586E+00  0.1507E+01
     -8.035 -0.2978E+00  0.1489E+01
     -7.973  0.2231E+01  0.1627E+01
     -7.911  0.6957E+01  0.2058E+01
     -7.849  0.5913E+01  0.2424E+01
     -7.787  0.1132E+01  0.2494E+01
     -7.726  0.1256E+01  0.2572E+01
     -7.664  0.4005E+01  0.2820E+01
     -7.602  0.3714E+01  0.3050E+01
     -7.540  0.3426E+01  0.3263E+01
     -7.478  0.3112E+01  0.3455E+01
     -7.416  0.7126E+00  0.3500E+01
     -7.354  0.1848E+01  0.3614E+01
     -7.292  0.7335E+01  0.4068E+01
     -7.230  0.1099E+02  0.4749E+01
     -7.168  0.1088E+02  0.5423E+01
     -7.106  0.6610E+01  0.5833E+01
     -7.044  0.2256E+01  0.5972E+01
     -6.982  0.2897E+01  0.6152E+01
     -6.920  0.4775E+01  0.6448E+01
     -6.858  0.4332E+01  0.6716E+01
     -6.796  0.2205E+01  0.6853E+01
     -6.734  0.3338E+01  0.7059E+01
     -6.672  0.9973E+01  0.7677E+01
     -6.610  0.1506E+02  0.8610E+01
     -6.548  0.1821E+02  0.9738E+01
     -6.486  0.1618E+02  0.1074E+02
     -6.425  0.8372E+01  0.1126E+02
     -6.363  0.6838E+01  0.1168E+02
     -6.301  0.1264E+02  0.1247E+02
     -6.239  0.1689E+02  0.1351E+02
     -6.177  0.2214E+02  0.1488E+02
     -6.115  0.3206E+02  0.1687E+02
     -6.053  0.3549E+02  0.1907E+02
     -5.991  0.3219E+02  0.2106E+02
     -5.929  0.3168E+02  0.2302E+02
     -5.867  0.3362E+02  0.2511E+02
     -5.805  0.3165E+02  0.2707E+02
     -5.743  0.2645E+02  0.2871E+02
     -5.681  0.3044E+02  0.3059E+02
     -5.619  0.3891E+02  0.3300E+02
     -5.557  0.4241E+02  0.3563E+02
     -5.495  0.4507E+02  0.3842E+02
     -5.433  0.5537E+02  0.4185E+02
     -5.371  0.6371E+02  0.4580E+02
     -5.309  0.6105E+02  0.4958E+02
     -5.247  0.5077E+02  0.5273E+02
     -5.186  0.4436E+02  0.5548E+02
     -5.124  0.4409E+02  0.5821E+02
     -5.062  0.5799E+02  0.6180E+02
     -5.000  0.7307E+02  0.6633E+02
     -4.938  0.5173E+02  0.6953E+02
     -4.876  0.2437E+02  0.7104E+02
     -4.814  0.3041E+02  0.7293E+02
     -4.752  0.4537E+02  0.7574E+02
     -4.690  0.3452E+02  0.7788E+02
     -4.628  0.2070E+02  0.7916E+02
     -4.566  0.2736E+02  0.8085E+02
     -4.504  0.4676E+02  0.8375E+02
     -4.442  0.6135E+02  0.8755E+02
     -4.380  0.5917E+02  0.9122E+02
     -4.318  0.4834E+02  0.9421E+02
     -4.256  0.4188E+02  0.9680E+02
     -4.194  0.4219E+02  0.9942E+02
     -4.132  0.5436E+02  0.1028E+03
     -4.070  0.6275E+02  0.1067E+03
     -4.008  0.5380E+02  0.1100E+03
     -3.946  0.4515E+02  0.1128E+03
     -3.885  0.4287E+02  0.1155E+03
     -3.823  0.3902E+02  0.1179E+03
     -3.761  0.3562E+02  0.1201E+03
     -3.699  0.4915E+02  0.1231E+03
     -3.637  0.6311E+02  0.1270E+03
     -3.575  0.5894E+02  0.1307E+03
     -3.513  0.5452E+02  0.1341E+03
     -3.451  0.6081E+02  0.1378E+03
     -3.389  0.7298E+02  0.1424E+03
     -3.327  0.7579E+02  0.1471E+03
     -3.265  0.6960E+02  0.1514E+03
     -3.203  0.6762E+02  0.1556E+03
     -3.141  0.8114E+02  0.1606E+03
     -3.079  0.8973E+02  0.1661E+03
     -3.017  0.8005E+02  0.1711E+03
     -2.955  0.7755E+02  0.1759E+03
     -2.893  0.7621E+02  0.1806E+03
     -2.831  0.7607E+02  0.1853E+03
     -2.769  0.9382E+02  0.1911E+03
     -2.707  0.1065E+03  0.1977E+03
     -2.645  0.9569E+02  0.2037E+03
     -2.584  0.6926E+02  0.2080E+03
     -2.522  0.6056E+02  0.2117E+03
     -2.460  0.6603E+02  0.2158E+03
     -2.398  0.5604E+02  0.2193E+03
     -2.336  0.3561E+02  0.2215E+03
     -2.274  0.2497E+02  0.2230E+03
     -2.212  0.2821E+02  0.2248E+03
     -2.150  0.3676E+02  0.2271E+03
     -2.088  0.5171E+02  0.2303E+03
     -2.026  0.7525E+02  0.2349E+03
     -1.964  0.9196E+02  0.2406E+03
     -1.902  0.8810E+02  0.2461E+03
     -1.840  0.6987E+02  0.2504E+03
     -1.778  0.5028E+02  0.2535E+03
     -1.716  0.4378E+02  0.2562E+03
     -1.654  0.4538E+02  0.2590E+03
     -1.592  0.5084E+02  0.2622E+03
     -1.530  0.5752E+02  0.2658E+03
     -1.468  0.5640E+02  0.2693E+03
     -1.406  0.5678E+02  0.2728E+03
     -1.344  0.6110E+02  0.2766E+03
     -1.283  0.5574E+02  0.2800E+03
     -1.221  0.4984E+02  0.2831E+03
     -1.159  0.6374E+02  0.2870E+03
     -1.097  0.8167E+02  0.2921E+03
     -1.035  0.8665E+02  0.2975E+03
     -0.973  0.7878E+02  0.3024E+03
     -0.911  0.6130E+02  0.3062E+03
     -0.849  0.5594E+02  0.3096E+03
     -0.787  0.5510E+02  0.3130E+03
     -0.725  0.4500E+02  0.3158E+03
     -0.663  0.4415E+02  0.3186E+03
     -0.601  0.5962E+02  0.3222E+03
     -0.539  0.6444E+02  0.3262E+03
     -0.477  0.5918E+02  0.3299E+03
     -0.415  0.6284E+02  0.3338E+03
     -0.353  0.7821E+02  0.3386E+03
     -0.291  0.9420E+02  0.3445E+03
     -0.229  0.8408E+02  0.3497E+03
     -0.167  0.5850E+02  0.3533E+03
     -0.105  0.7053E+02  0.3577E+03
     -0.043  0.9817E+02  0.3638E+03
      0.018  0.7418E+02  0.3684E+03
      0.080  0.3583E+02  0.3706E+03
      0.142  0.4347E+02  0.3733E+03
      0.204  0.5862E+02  0.3769E+03
      0.266  0.4685E+02  0.3798E+03
      0.328  0.3928E+02  0.3822E+03
      0.390  0.3216E+02  0.3842E+03
      0.452  0.1853E+02  0.3854E+03
      0.514  0.7250E+01  0.3858E+03
      0.576  0.2268E+01  0.3860E+03
      0.638  0.4125E+01  0.3862E+03
      0.700  0.8989E+01  0.3868E+03
      0.762  0.1440E+02  0.3877E+03
      0.824  0.1340E+02  0.3885E+03
      0.886  0.8304E+01  0.3890E+03
      0.948  0.9992E+01  0.3896E+03
      1.010  0.1145E+02  0.3903E+03
      1.072  0.5207E+01  0.3907E+03
      1.134  0.3313E+01  0.3909E+03
      1.196  0.9125E+01  0.3914E+03
      1.257  0.1296E+02  0.3922E+03
      1.319  0.1210E+02  0.3930E+03
      1.381  0.1042E+02  0.3936E+03
      1.443  0.1060E+02  0.3943E+03
      1.505  0.2187E+02  0.3956E+03
      1.567  0.2799E+02  0.3974E+03
      1.629  0.2072E+02  0.3987E+03
      1.691  0.1668E+02  0.3997E+03
      1.753  0.1298E+02  0.4005E+03
      1.815  0.3925E+01  0.4007E+03
      1.877  0.1574E+01  0.4008E+03
      1.939  0.6527E+01  0.4012E+03
      2.001  0.7589E+01  0.4017E+03
      2.063  0.4698E+01  0.4020E+03
      2.125  0.3388E+01  0.4022E+03
      2.187  0.6608E+01  0.4026E+03
      2.249  0.1029E+02  0.4033E+03
      2.311  0.1113E+02  0.4040E+03
      2.373  0.1403E+02  0.4048E+03
      2.435  0.1962E+02  0.4060E+03
      2.497  0.2200E+02  0.4074E+03
      2.558  0.1368E+02  0.4083E+03
      2.620  0.6562E+01  0.4087E+03
      2.682  0.7001E+01  0.4091E+03
      2.744  0.1109E+02  0.4098E+03
      2.806  0.1764E+02  0.4109E+03
      2.868  0.1751E+02  0.4120E+03
      2.930  0.1259E+02  0.4127E+03
      2.992  0.8614E+01  0.4133E+03
      3.054  0.1064E+02  0.4139E+03
      3.116  0.1511E+02  0.4149E+03
      3.178  0.1242E+02  0.4156E+03
      3.240  0.9592E+01  0.4162E+03
      3.302  0.8211E+01  0.4167E+03
      3.364  0.4839E+01  0.4170E+03
      3.426  0.4176E+01  0.4173E+03
      3.488  0.7022E+01  0.4177E+03
      3.550  0.9201E+01  0.4183E+03
      3.612  0.1320E+02  0.4191E+03
      3.674  0.2055E+02  0.4204E+03
      3.736  0.2237E+02  0.4218E+03
      3.798  0.1497E+02  0.4227E+03
      3.859  0.6583E+01  0.4231E+03
      3.921  0.3612E+01  0.4233E+03
      3.983  0.4654E+01  0.4236E+03
      4.045  0.7068E+01  0.4241E+03
      4.107  0.8806E+01  0.4246E+03
      4.169  0.7212E+01  0.4251E+03
      4.231  0.4066E+01  0.4253E+03
      4.293  0.4017E+01  0.4256E+03
      4.355  0.1137E+02  0.4263E+03
      4.417  0.2369E+02  0.4277E+03
      4.479  0.2360E+02  0.4292E+03
      4.541  0.1252E+02  0.4300E+03
      4.603  0.7984E+01  0.4305E+03
      4.665  0.9686E+01  0.4311E+03
      4.727  0.1234E+02  0.4318E+03
      4.789  0.1207E+02  0.4326E+03
      4.851  0.8000E+01  0.4331E+03
      4.913  0.5961E+01  0.4334E+03
      4.975  0.1004E+02  0.4341E+03
      5.037  0.1369E+02  0.4349E+03
      5.099  0.8916E+01  0.4355E+03
      5.160  0.7091E+01  0.4359E+03
      5.222  0.1298E+02  0.4367E+03
      5.284  0.1627E+02  0.4377E+03
      5.346  0.1189E+02  0.4384E+03
      5.408  0.6546E+01  0.4389E+03
      5.470  0.1104E+02  0.4395E+03
      5.532  0.2015E+02  0.4408E+03
      5.594  0.2257E+02  0.4422E+03
      5.656  0.2190E+02  0.4435E+03
      5.718  0.2426E+02  0.4450E+03
      5.780  0.2345E+02  0.4465E+03
      5.842  0.1664E+02  0.4475E+03
      5.904  0.1403E+02  0.4484E+03
      5.966  0.2319E+02  0.4498E+03
      6.028  0.3390E+02  0.4519E+03
      6.090  0.2856E+02  0.4537E+03
      6.152  0.1350E+02  0.4545E+03
      6.214  0.1156E+02  0.4553E+03
      6.276  0.2168E+02  0.4566E+03
      6.338  0.3058E+02  0.4585E+03
      6.400  0.2657E+02  0.4601E+03
      6.461  0.1533E+02  0.4611E+03
      6.523  0.1400E+02  0.4620E+03
      6.585  0.2287E+02  0.4634E+03
      6.647  0.2892E+02  0.4652E+03
      6.709  0.2920E+02  0.4670E+03
      6.771  0.2615E+02  0.4686E+03
      6.833  0.1737E+02  0.4697E+03
      6.895  0.1318E+02  0.4705E+03
      6.957  0.1729E+02  0.4716E+03
      7.019  0.1702E+02  0.4726E+03
      7.081  0.1523E+02  0.4736E+03
      7.143  0.1955E+02  0.4748E+03
      7.205  0.2422E+02  0.4763E+03
      7.267  0.2099E+02  0.4776E+03
      7.329  0.1146E+02  0.4783E+03
      7.391  0.3545E+01  0.4785E+03
      7.453  0.1843E+01  0.4786E+03
      7.515  0.4711E+01  0.4789E+03
      7.577  0.6928E+01  0.4793E+03
      7.639  0.6808E+01  0.4798E+03
      7.701  0.3618E+01  0.4800E+03
      7.762  0.6247E+00  0.4800E+03
      7.824 -0.1588E+00  0.4800E+03
      7.886 -0.8927E-01  0.4800E+03
      7.948 -0.1572E-01  0.4800E+03
      8.010 -0.1223E-02  0.4800E+03
      8.072 -0.4289E-04  0.4800E+03
      8.134 -0.6788E-06  0.4800E+03
      8.196 -0.4863E-08  0.4800E+03
      8.258 -0.1584E-10  0.4800E+03
      8.320 -0.2351E-13  0.4800E+03
      8.382  0.0000E+00  0.4800E+03
      8.444  0.0000E+00  0.4800E+03
      8.506  0.0000E+00  0.4800E+03
      8.568  0.0000E+00  0.4800E+03
      8.630  0.0000E+00  0.4800E+03
      8.692  0.0000E+00  0.4800E+03
