   37   37    1    1
  0.4190497E+02  0.8468310E-09  0.8468310E-09  0.2496566E-08  0.5000000E-15
  1.000000000000000E-004
  CAR 
 unknown system                          
    361     13    240
 
  0.1276756E-14  0.1276756E-14  0.1276756E-14  0.4000000E-01
      1         -8.893853   1.000000
      2         -7.672496   1.000000
      3         -6.774353   1.000000
      4         -6.498146   1.000000
      5         -6.468829   1.000000
      6         -6.464348   1.000000
      7         -6.456255   1.000000
      8         -6.449044   1.000000
      9         -6.443047   1.000000
     10         -6.437172   1.000000
     11         -6.048615   1.000000
     12         -5.919271   1.000000
     13         -5.915183   1.000000
     14         -5.909861   1.000000
     15         -5.904789   1.000000
     16         -5.902910   1.000000
     17         -5.770540   1.000000
     18         -5.471077   1.000000
     19         -5.456709   1.000000
     20         -5.453313   1.000000
     21         -5.449567   1.000000
     22         -5.444013   1.000000
     23         -5.357547   1.000000
     24         -5.234134   1.000000
     25         -5.228744   1.000000
     26         -5.225824   1.000000
     27         -5.221522   1.000000
     28         -5.218495   1.000000
     29         -5.120242   1.000000
     30         -5.028928   1.000000
     31         -5.023307   1.000000
     32         -5.019968   1.000000
     33         -5.017844   1.000000
     34         -5.007865   1.000000
     35         -4.976624   1.000000
     36         -4.968833   1.000000
     37         -4.960742   1.000000
     38         -4.957925   1.000000
     39         -4.928467   1.000000
     40         -4.918387   1.000000
     41         -4.698329   1.000000
     42         -4.378267   1.000000
     43         -4.375729   1.000000
     44         -4.363459   1.000000
     45         -4.344951   1.000000
     46         -4.320440   1.000000
     47         -4.314265   1.000000
     48         -4.302890   1.000000
     49         -4.296719   1.000000
     50         -4.293103   1.000000
     51         -4.152706   1.000000
     52         -4.136766   1.000000
     53         -4.107678   1.000000
     54         -4.044526   1.000000
     55         -4.003945   1.000000
     56         -3.582708   1.000000
     57         -3.577406   1.000000
     58         -3.564956   1.000000
     59         -3.560843   1.000000
     60         -3.559482   1.000000
     61         -3.499363   1.000000
     62         -3.491065   1.000000
     63         -3.379804   1.000000
     64         -3.374416   1.000000
     65         -3.373688   1.000000
     66         -3.366925   1.000000
     67         -3.363401   1.000000
     68         -3.359747   1.000000
     69         -3.346964   1.000000
     70         -3.323520   1.000000
     71         -3.310503   1.000000
     72         -3.307987   1.000000
     73         -3.301779   1.000000
     74         -3.296929   1.000000
     75         -3.265088   1.000000
     76         -3.264623   1.000000
     77         -3.241991   1.000000
     78         -3.152518   1.000000
     79         -3.150187   1.000000
     80         -3.145873   1.000000
     81         -3.135229   1.000000
     82         -3.130414   1.000000
     83         -3.119234   1.000000
     84         -2.939637   1.000000
     85         -2.933119   1.000000
     86         -2.928515   1.000000
     87         -2.923217   1.000000
     88         -2.911119   1.000000
     89         -2.906853   1.000000
     90         -2.903807   1.000000
     91         -2.900930   1.000000
     92         -2.832685   1.000000
     93         -2.816335   1.000000
     94         -2.766545   1.000000
     95         -2.754524   1.000000
     96         -2.742641   1.000000
     97         -2.728914   1.000000
     98         -2.718551   1.000000
     99         -2.688758   1.000000
    100         -2.684059   1.000000
    101         -2.634198   1.000000
    102         -2.526561   1.000000
    103         -2.522336   1.000000
    104         -2.517697   1.000000
    105         -2.502257   1.000000
    106         -2.500129   1.000000
    107         -2.496437   1.000000
    108         -2.229678   1.000000
    109         -2.025384   1.000000
    110         -2.002684   1.000000
    111         -1.996833   1.000000
    112         -1.992495   1.000000
    113         -1.987379   1.000000
    114         -1.983362   1.000000
    115         -1.981341   1.000000
    116         -1.967803   1.000000
    117         -1.952892   1.000000
    118         -1.949650   1.000000
    119         -1.945371   1.000000
    120         -1.870001   1.000000
    121         -1.858848   1.000000
    122         -1.811640   1.000000
    123         -1.732936   1.000000
    124         -1.728608   1.000000
    125         -1.716422   1.000000
    126         -1.709181   1.000000
    127         -1.705930   1.000000
    128         -1.594662   1.000000
    129         -1.587996   1.000000
    130         -1.534230   1.000000
    131         -1.532838   1.000000
    132         -1.512485   1.000000
    133         -1.499991   1.000000
    134         -1.329063   1.000000
    135         -1.281767   1.000000
    136         -1.264653   1.000000
    137         -1.263180   1.000000
    138         -1.248640   1.000000
    139         -1.247220   1.000000
    140         -1.194075   1.000000
    141         -1.174780   1.000000
    142         -1.152276   1.000000
    143         -1.032162   1.000000
    144         -1.027790   1.000000
    145         -1.019394   1.000000
    146         -1.016339   1.000000
    147         -1.014907   1.000000
    148         -0.950962   1.000000
    149         -0.872982   1.000000
    150         -0.861348   1.000000
    151         -0.838442   1.000000
    152         -0.828888   1.000000
    153         -0.825537   1.000000
    154         -0.817869   1.000000
    155         -0.810542   1.000000
    156         -0.801380   1.000000
    157         -0.800221   1.000000
    158         -0.796107   1.000000
    159         -0.791801   1.000000
    160         -0.724396   1.000000
    161         -0.705540   1.000000
    162         -0.679760   1.000000
    163         -0.673531   1.000000
    164         -0.661482   1.000000
    165         -0.655301   1.000000
    166         -0.643007   1.000000
    167         -0.638596   1.000000
    168         -0.599241   1.000000
    169         -0.591223   1.000000
    170         -0.563427   1.000000
    171         -0.556314   1.000000
    172         -0.552056   1.000000
    173         -0.537714   1.000000
    174         -0.536460   1.000000
    175         -0.533823   1.000000
    176         -0.453419   1.000000
    177         -0.443164   1.000001
    178         -0.437597   1.000001
    179         -0.432895   1.000002
    180         -0.430285   1.000002
    181         -0.422824   1.000004
    182         -0.418105   1.000005
    183         -0.346199   1.000352
    184         -0.327891   1.000853
    185         -0.317356   1.001371
    186         -0.316903   1.001398
    187         -0.308902   1.001968
    188         -0.302318   1.002578
    189         -0.110034   0.802973
    190         -0.102518   0.751395
    191         -0.018923   0.117813
    192         -0.007660   0.064859
    193          0.003673   0.024348
    194          0.011666   0.003048
    195          0.012107   0.002037
    196          0.015458  -0.005115
    197          0.451960  -0.000000
    198          0.821202  -0.000000
    199          0.864282  -0.000000
    200          0.878612  -0.000000
    201          0.902453  -0.000000
    202          0.905319  -0.000000
    203          0.906858  -0.000000
    204          2.667033   0.000000
    205          3.159159   0.000000
    206          3.171514   0.000000
    207          3.210868   0.000000
    208          3.216666   0.000000
    209          3.230251   0.000000
    210          4.465541   0.000000
    211          4.746875   0.000000
    212          4.781907   0.000000
    213          4.820589   0.000000
    214          4.821763   0.000000
    215          4.825077   0.000000
    216          4.897629   0.000000
    217          5.003925   0.000000
    218          5.116243   0.000000
    219          5.481063   0.000000
    220          5.509586   0.000000
    221          5.801030   0.000000
    222          5.811105   0.000000
    223          5.849271   0.000000
    224          5.858687   0.000000
    225          5.866796   0.000000
    226          6.150626   0.000000
    227          6.428403   0.000000
    228          6.616897   0.000000
    229          6.622527   0.000000
    230          6.627323   0.000000
    231          6.803622   0.000000
    232          6.932851   0.000000
    233          7.132536   0.000000
    234          7.142685   0.000000
    235          7.162137   0.000000
    236          7.166019   0.000000
    237          7.167057   0.000000
    238          7.184597   0.000000
    239          7.294880   0.000000
    240          7.691731   0.000000
 
  0.2000000E+00  0.1278043E-14  0.1276756E-14  0.8000000E-01
      1         -8.745735   1.000000
      2         -7.532302   1.000000
      3         -6.985318   1.000000
      4         -6.668275   1.000000
      5         -6.562932   1.000000
      6         -6.539229   1.000000
      7         -6.354881   1.000000
      8         -6.277190   1.000000
      9         -6.229444   1.000000
     10         -6.217091   1.000000
     11         -6.097110   1.000000
     12         -6.004825   1.000000
     13         -5.909783   1.000000
     14         -5.843928   1.000000
     15         -5.839842   1.000000
     16         -5.830438   1.000000
     17         -5.712978   1.000000
     18         -5.540286   1.000000
     19         -5.421051   1.000000
     20         -5.414630   1.000000
     21         -5.409933   1.000000
     22         -5.369870   1.000000
     23         -5.332463   1.000000
     24         -5.308021   1.000000
     25         -5.275223   1.000000
     26         -5.247777   1.000000
     27         -5.226173   1.000000
     28         -5.215067   1.000000
     29         -5.148105   1.000000
     30         -5.116988   1.000000
     31         -5.110360   1.000000
     32         -5.034245   1.000000
     33         -5.018630   1.000000
     34         -5.009883   1.000000
     35         -5.003584   1.000000
     36         -4.862705   1.000000
     37         -4.807468   1.000000
     38         -4.790865   1.000000
     39         -4.777469   1.000000
     40         -4.755605   1.000000
     41         -4.662751   1.000000
     42         -4.501118   1.000000
     43         -4.495823   1.000000
     44         -4.465522   1.000000
     45         -4.423416   1.000000
     46         -4.411034   1.000000
     47         -4.390429   1.000000
     48         -4.303459   1.000000
     49         -4.216249   1.000000
     50         -4.152138   1.000000
     51         -4.124413   1.000000
     52         -4.118222   1.000000
     53         -4.080858   1.000000
     54         -4.055296   1.000000
     55         -3.993302   1.000000
     56         -3.834979   1.000000
     57         -3.740511   1.000000
     58         -3.729274   1.000000
     59         -3.680081   1.000000
     60         -3.660346   1.000000
     61         -3.635770   1.000000
     62         -3.585724   1.000000
     63         -3.565249   1.000000
     64         -3.551398   1.000000
     65         -3.528313   1.000000
     66         -3.522740   1.000000
     67         -3.464604   1.000000
     68         -3.450893   1.000000
     69         -3.405836   1.000000
     70         -3.374768   1.000000
     71         -3.363456   1.000000
     72         -3.328940   1.000000
     73         -3.269332   1.000000
     74         -3.262853   1.000000
     75         -3.251425   1.000000
     76         -3.183810   1.000000
     77         -3.181022   1.000000
     78         -3.145329   1.000000
     79         -3.132055   1.000000
     80         -3.092962   1.000000
     81         -3.077447   1.000000
     82         -3.068407   1.000000
     83         -3.035336   1.000000
     84         -2.998852   1.000000
     85         -2.967741   1.000000
     86         -2.951056   1.000000
     87         -2.942835   1.000000
     88         -2.935518   1.000000
     89         -2.915096   1.000000
     90         -2.902966   1.000000
     91         -2.860365   1.000000
     92         -2.816327   1.000000
     93         -2.804079   1.000000
     94         -2.792505   1.000000
     95         -2.779829   1.000000
     96         -2.762464   1.000000
     97         -2.752588   1.000000
     98         -2.717533   1.000000
     99         -2.702227   1.000000
    100         -2.682769   1.000000
    101         -2.608645   1.000000
    102         -2.553805   1.000000
    103         -2.538772   1.000000
    104         -2.524166   1.000000
    105         -2.512044   1.000000
    106         -2.500862   1.000000
    107         -2.497175   1.000000
    108         -2.486058   1.000000
    109         -2.446549   1.000000
    110         -2.429903   1.000000
    111         -2.421273   1.000000
    112         -2.413879   1.000000
    113         -2.206659   1.000000
    114         -2.089300   1.000000
    115         -2.050005   1.000000
    116         -2.004887   1.000000
    117         -1.999599   1.000000
    118         -1.984884   1.000000
    119         -1.979306   1.000000
    120         -1.955653   1.000000
    121         -1.938698   1.000000
    122         -1.893613   1.000000
    123         -1.808550   1.000000
    124         -1.783486   1.000000
    125         -1.722417   1.000000
    126         -1.664032   1.000000
    127         -1.647330   1.000000
    128         -1.601047   1.000000
    129         -1.592765   1.000000
    130         -1.576687   1.000000
    131         -1.538886   1.000000
    132         -1.525372   1.000000
    133         -1.519621   1.000000
    134         -1.438386   1.000000
    135         -1.407220   1.000000
    136         -1.396398   1.000000
    137         -1.381947   1.000000
    138         -1.374402   1.000000
    139         -1.284045   1.000000
    140         -1.188727   1.000000
    141         -1.175511   1.000000
    142         -1.164525   1.000000
    143         -1.147042   1.000000
    144         -1.137055   1.000000
    145         -1.122043   1.000000
    146         -1.074298   1.000000
    147         -1.034415   1.000000
    148         -1.008154   1.000000
    149         -0.988308   1.000000
    150         -0.977779   1.000000
    151         -0.942245   1.000000
    152         -0.911765   1.000000
    153         -0.905713   1.000000
    154         -0.897218   1.000000
    155         -0.843420   1.000000
    156         -0.790687   1.000000
    157         -0.766906   1.000000
    158         -0.753560   1.000000
    159         -0.716597   1.000000
    160         -0.662232   1.000000
    161         -0.640036   1.000000
    162         -0.618520   1.000000
    163         -0.602676   1.000000
    164         -0.588329   1.000000
    165         -0.561729   1.000000
    166         -0.539034   1.000000
    167         -0.481814   1.000000
    168         -0.464874   1.000000
    169         -0.412647   1.000008
    170         -0.399579   1.000017
    171         -0.389243   1.000033
    172         -0.376625   1.000069
    173         -0.351597   1.000267
    174         -0.346964   1.000339
    175         -0.341426   1.000447
    176         -0.333695   1.000650
    177         -0.327264   1.000878
    178         -0.270655   1.008128
    179         -0.263014   1.010312
    180         -0.126517   0.898044
    181         -0.116701   0.844578
    182         -0.101426   0.743522
    183         -0.081688   0.588467
    184         -0.069323   0.484372
    185         -0.063539   0.435635
    186         -0.034693   0.212897
    187         -0.012563   0.086335
    188         -0.003325   0.047876
    189          0.008892   0.009794
    190          0.086305  -0.024235
    191          0.113440  -0.012723
    192          0.133296  -0.006902
    193          0.178576  -0.001171
    194          0.296306  -0.000001
    195          0.306649  -0.000001
    196          0.313182  -0.000000
    197          0.360507  -0.000000
    198          0.678519  -0.000000
    199          0.753556  -0.000000
    200          1.229282  -0.000000
    201          1.467004  -0.000000
    202          1.487012  -0.000000
    203          1.609371  -0.000000
    204          2.343519  -0.000000
    205          2.792620   0.000000
    206          2.917181   0.000000
    207          3.483037   0.000000
    208          3.653652   0.000000
    209          3.672144   0.000000
    210          3.750457   0.000000
    211          3.953584   0.000000
    212          4.382550   0.000000
    213          4.612216   0.000000
    214          4.704094   0.000000
    215          4.955944   0.000000
    216          5.000937   0.000000
    217          5.007680   0.000000
    218          5.192836   0.000000
    219          5.240855   0.000000
    220          5.465019   0.000000
    221          5.615053   0.000000
    222          5.718419   0.000000
    223          5.825184   0.000000
    224          5.921024   0.000000
    225          6.060695   0.000000
    226          6.219946   0.000000
    227          6.265356   0.000000
    228          6.334496   0.000000
    229          6.350736   0.000000
    230          6.610031   0.000000
    231          6.696637   0.000000
    232          6.730606   0.000000
    233          6.791787   0.000000
    234          6.827920   0.000000
    235          6.928877   0.000000
    236          7.064563   0.000000
    237          7.229046   0.000000
    238          7.478737   0.000000
    239          7.581335   0.000000
    240          7.613415   0.000000
 
  0.2000000E+00  0.2000000E+00  0.1276756E-14  0.8000000E-01
      1         -8.745769   1.000000
      2         -7.532427   1.000000
      3         -6.985809   1.000000
      4         -6.669762   1.000000
      5         -6.563060   1.000000
      6         -6.536537   1.000000
      7         -6.355190   1.000000
      8         -6.279493   1.000000
      9         -6.227077   1.000000
     10         -6.216878   1.000000
     11         -6.097487   1.000000
     12         -6.003986   1.000000
     13         -5.907989   1.000000
     14         -5.846028   1.000000
     15         -5.842444   1.000000
     16         -5.829742   1.000000
     17         -5.712952   1.000000
     18         -5.539122   1.000000
     19         -5.421268   1.000000
     20         -5.413793   1.000000
     21         -5.409282   1.000000
     22         -5.370516   1.000000
     23         -5.332383   1.000000
     24         -5.310189   1.000000
     25         -5.275031   1.000000
     26         -5.246400   1.000000
     27         -5.226878   1.000000
     28         -5.216667   1.000000
     29         -5.149217   1.000000
     30         -5.115343   1.000000
     31         -5.109257   1.000000
     32         -5.036629   1.000000
     33         -5.019112   1.000000
     34         -5.009298   1.000000
     35         -5.003336   1.000000
     36         -4.862774   1.000000
     37         -4.807305   1.000000
     38         -4.789505   1.000000
     39         -4.778901   1.000000
     40         -4.752878   1.000000
     41         -4.662735   1.000000
     42         -4.500664   1.000000
     43         -4.494442   1.000000
     44         -4.465010   1.000000
     45         -4.423839   1.000000
     46         -4.410531   1.000000
     47         -4.389864   1.000000
     48         -4.305725   1.000000
     49         -4.214820   1.000000
     50         -4.152449   1.000000
     51         -4.124197   1.000000
     52         -4.119032   1.000000
     53         -4.081649   1.000000
     54         -4.055255   1.000000
     55         -3.992013   1.000000
     56         -3.832610   1.000000
     57         -3.740315   1.000000
     58         -3.730081   1.000000
     59         -3.678124   1.000000
     60         -3.657918   1.000000
     61         -3.634797   1.000000
     62         -3.581945   1.000000
     63         -3.568772   1.000000
     64         -3.552987   1.000000
     65         -3.529414   1.000000
     66         -3.523301   1.000000
     67         -3.464911   1.000000
     68         -3.450324   1.000000
     69         -3.402990   1.000000
     70         -3.373533   1.000000
     71         -3.360845   1.000000
     72         -3.329906   1.000000
     73         -3.273504   1.000000
     74         -3.266771   1.000000
     75         -3.258411   1.000000
     76         -3.184142   1.000000
     77         -3.178199   1.000000
     78         -3.145178   1.000000
     79         -3.132851   1.000000
     80         -3.090396   1.000000
     81         -3.071656   1.000000
     82         -3.066301   1.000000
     83         -3.040123   1.000000
     84         -2.998329   1.000000
     85         -2.968332   1.000000
     86         -2.950353   1.000000
     87         -2.942932   1.000000
     88         -2.935940   1.000000
     89         -2.913994   1.000000
     90         -2.903221   1.000000
     91         -2.860512   1.000000
     92         -2.817381   1.000000
     93         -2.804641   1.000000
     94         -2.791665   1.000000
     95         -2.778498   1.000000
     96         -2.762233   1.000000
     97         -2.753596   1.000000
     98         -2.717630   1.000000
     99         -2.703925   1.000000
    100         -2.684822   1.000000
    101         -2.609039   1.000000
    102         -2.553684   1.000000
    103         -2.539262   1.000000
    104         -2.524160   1.000000
    105         -2.514966   1.000000
    106         -2.499234   1.000000
    107         -2.498307   1.000000
    108         -2.485273   1.000000
    109         -2.442307   1.000000
    110         -2.429624   1.000000
    111         -2.422692   1.000000
    112         -2.415758   1.000000
    113         -2.203303   1.000000
    114         -2.087496   1.000000
    115         -2.052147   1.000000
    116         -2.005980   1.000000
    117         -1.998444   1.000000
    118         -1.985173   1.000000
    119         -1.981596   1.000000
    120         -1.955072   1.000000
    121         -1.939136   1.000000
    122         -1.893687   1.000000
    123         -1.808737   1.000000
    124         -1.785083   1.000000
    125         -1.723278   1.000000
    126         -1.667350   1.000000
    127         -1.648497   1.000000
    128         -1.599209   1.000000
    129         -1.587805   1.000000
    130         -1.581853   1.000000
    131         -1.541015   1.000000
    132         -1.525698   1.000000
    133         -1.520554   1.000000
    134         -1.440218   1.000000
    135         -1.405127   1.000000
    136         -1.394141   1.000000
    137         -1.380541   1.000000
    138         -1.376255   1.000000
    139         -1.284250   1.000000
    140         -1.188317   1.000000
    141         -1.176574   1.000000
    142         -1.163764   1.000000
    143         -1.148421   1.000000
    144         -1.135980   1.000000
    145         -1.123458   1.000000
    146         -1.071714   1.000000
    147         -1.033694   1.000000
    148         -1.006701   1.000000
    149         -0.987844   1.000000
    150         -0.978077   1.000000
    151         -0.943002   1.000000
    152         -0.910984   1.000000
    153         -0.903052   1.000000
    154         -0.899900   1.000000
    155         -0.841453   1.000000
    156         -0.791360   1.000000
    157         -0.767250   1.000000
    158         -0.752837   1.000000
    159         -0.715184   1.000000
    160         -0.663252   1.000000
    161         -0.640865   1.000000
    162         -0.619268   1.000000
    163         -0.603668   1.000000
    164         -0.590112   1.000000
    165         -0.564932   1.000000
    166         -0.540120   1.000000
    167         -0.481438   1.000000
    168         -0.464387   1.000000
    169         -0.411545   1.000008
    170         -0.399540   1.000018
    171         -0.390946   1.000030
    172         -0.375766   1.000072
    173         -0.349935   1.000291
    174         -0.347227   1.000334
    175         -0.340308   1.000472
    176         -0.336039   1.000581
    177         -0.326126   1.000925
    178         -0.272745   1.007595
    179         -0.265497   1.009561
    180         -0.127289   0.901837
    181         -0.119335   0.859854
    182         -0.099827   0.731832
    183         -0.080322   0.577095
    184         -0.068476   0.477216
    185         -0.060976   0.414226
    186         -0.033680   0.206100
    187         -0.010408   0.076595
    188         -0.001106   0.039903
    189          0.011879   0.002559
    190          0.085681  -0.024524
    191          0.114036  -0.012512
    192          0.132537  -0.007079
    193          0.178325  -0.001184
    194          0.296950  -0.000001
    195          0.307993  -0.000001
    196          0.313429  -0.000000
    197          0.357456  -0.000000
    198          0.682168  -0.000000
    199          0.757105  -0.000000
    200          1.227874  -0.000000
    201          1.466595  -0.000000
    202          1.486083  -0.000000
    203          1.607824  -0.000000
    204          2.340587  -0.000000
    205          2.795829   0.000000
    206          2.919571   0.000000
    207          3.482956   0.000000
    208          3.653803   0.000000
    209          3.670148   0.000000
    210          3.750330   0.000000
    211          3.954839   0.000000
    212          4.380604   0.000000
    213          4.611739   0.000000
    214          4.701077   0.000000
    215          4.957005   0.000000
    216          5.000339   0.000000
    217          5.008243   0.000000
    218          5.193072   0.000000
    219          5.241249   0.000000
    220          5.467602   0.000000
    221          5.614481   0.000000
    222          5.717107   0.000000
    223          5.826197   0.000000
    224          5.923443   0.000000
    225          6.061686   0.000000
    226          6.219265   0.000000
    227          6.265288   0.000000
    228          6.336303   0.000000
    229          6.352739   0.000000
    230          6.610677   0.000000
    231          6.697116   0.000000
    232          6.729521   0.000000
    233          6.790927   0.000000
    234          6.828222   0.000000
    235          6.928962   0.000000
    236          7.063896   0.000000
    237          7.224033   0.000000
    238          7.477546   0.000000
    239          7.580270   0.000000
    240          7.612478   0.000000
 
  0.1276756E-14  0.2000000E+00  0.1276756E-14  0.8000000E-01
      1         -8.745304   1.000000
      2         -7.529724   1.000000
      3         -6.966851   1.000000
      4         -6.702372   1.000000
      5         -6.566842   1.000000
      6         -6.518457   1.000000
      7         -6.354543   1.000000
      8         -6.268114   1.000000
      9         -6.239061   1.000000
     10         -6.219816   1.000000
     11         -6.071077   1.000000
     12         -6.004848   1.000000
     13         -5.949383   1.000000
     14         -5.848489   1.000000
     15         -5.843068   1.000000
     16         -5.828475   1.000000
     17         -5.687816   1.000000
     18         -5.529950   1.000000
     19         -5.421873   1.000000
     20         -5.418591   1.000000
     21         -5.407511   1.000000
     22         -5.393246   1.000000
     23         -5.338160   1.000000
     24         -5.303694   1.000000
     25         -5.278871   1.000000
     26         -5.226816   1.000000
     27         -5.222378   1.000000
     28         -5.219513   1.000000
     29         -5.171608   1.000000
     30         -5.124176   1.000000
     31         -5.099835   1.000000
     32         -5.033441   1.000000
     33         -5.023845   1.000000
     34         -5.008781   1.000000
     35         -5.007628   1.000000
     36         -4.873266   1.000000
     37         -4.809910   1.000000
     38         -4.786963   1.000000
     39         -4.774951   1.000000
     40         -4.765198   1.000000
     41         -4.656527   1.000000
     42         -4.502003   1.000000
     43         -4.496745   1.000000
     44         -4.429014   1.000000
     45         -4.425645   1.000000
     46         -4.404554   1.000000
     47         -4.388556   1.000000
     48         -4.300360   1.000000
     49         -4.211319   1.000000
     50         -4.182834   1.000000
     51         -4.126355   1.000000
     52         -4.122166   1.000000
     53         -4.066901   1.000000
     54         -4.050674   1.000000
     55         -4.015490   1.000000
     56         -3.834465   1.000000
     57         -3.739379   1.000000
     58         -3.735406   1.000000
     59         -3.685580   1.000000
     60         -3.663452   1.000000
     61         -3.627986   1.000000
     62         -3.585614   1.000000
     63         -3.565383   1.000000
     64         -3.554830   1.000000
     65         -3.525204   1.000000
     66         -3.524640   1.000000
     67         -3.453991   1.000000
     68         -3.448279   1.000000
     69         -3.400838   1.000000
     70         -3.364492   1.000000
     71         -3.361776   1.000000
     72         -3.330967   1.000000
     73         -3.273061   1.000000
     74         -3.259848   1.000000
     75         -3.255784   1.000000
     76         -3.185660   1.000000
     77         -3.180196   1.000000
     78         -3.165888   1.000000