<?xml version="1.0" encoding="ISO-8859-1"?>
<modeling>
 <generator>
  <i name="program" type="string">vasp </i>
  <i name="version" type="string">6.4.2  </i>
  <i name="subversion" type="string">20Jul23 (build Mar 01 2024 16:46:03) complex                          parallel </i>
  <i name="platform" type="string">LinuxIFC </i>
  <i name="date" type="string">2025 01 14 </i>
  <i name="time" type="string">21:06:21 </i>
 </generator>
 <incar>
  <i type="string" name="ALGO">Fast</i>
  <i type="int" name="ISPIN">     1</i>
  <i type="int" name="IBRION">    -1</i>
  <i name="EDIFF">      0.00001000</i>
  <i type="int" name="ISYM">     0</i>
  <i name="ENCUT">    680.29000000</i>
  <i type="string" name="LREAL">Auto</i>
  <i type="int" name="ISMEAR">     1</i>
  <i name="SIGMA">      0.10000000</i>
  <i type="string" name="GGA">BF</i>
  <i type="logical" name="LUSE_VDW"> T  </i>
  <i name="Zab_VDW">     -1.88670000</i>
 </incar>
 <primitive_cell>
  <structure name="primitive_cell" >
   <crystal>
    <varray name="basis" >
     <v>       8.46831000       0.00000000       0.00000000 </v>
     <v>       4.23415500       7.33377159       0.00000000 </v>
     <v>       0.00000000       0.00000000      24.96566199 </v>
    </varray>
    <i name="volume">   1550.48373159 </i>
    <varray name="rec_basis" >
     <v>       0.11808732      -0.06817774       0.00000000 </v>
     <v>       0.00000000       0.13635549       0.00000000 </v>
     <v>       0.00000000       0.00000000       0.04005502 </v>
    </varray>
   </crystal>
   <varray name="positions" >
    <v>       0.00000000       0.00000000       0.34046764 </v>
    <v>       0.33400137       0.00000000       0.34046764 </v>
    <v>       0.66800274       0.00000000       0.34046764 </v>
    <v>       1.00000000       0.33400137       0.34046764 </v>
    <v>       0.33400137       0.33400137       0.34046764 </v>
    <v>       0.66800274       0.33400137       0.34046764 </v>
    <v>       1.00000000       0.66800274       0.34046764 </v>
    <v>       0.33400137       0.66800274       0.34046764 </v>
    <v>       0.66800274       0.66800274       0.34046764 </v>
    <v>       0.11133379       0.11133379       0.43297074 </v>
    <v>       0.44533516       0.11133379       0.43297074 </v>
    <v>       0.77933653       0.11133379       0.43297074 </v>
    <v>       0.11133379       0.44533516       0.43297074 </v>
    <v>       0.44533516       0.44533516       0.43297074 </v>
    <v>       0.77933653       0.44533516       0.43297074 </v>
    <v>       0.11133379       0.77933653       0.43297074 </v>
    <v>       0.44533516       0.77933653       0.43297074 </v>
    <v>       0.77933653       0.77933653       0.43297074 </v>
    <v>       0.89013560       0.22336783       0.52494912 </v>
    <v>       0.22336753       0.22329066       0.52487154 </v>
    <v>       0.55680483       0.22314097       0.52416389 </v>
    <v>       0.89115865       0.55476139       0.52548005 </v>
    <v>       0.22336986       0.55685977       0.52426655 </v>
    <v>       0.55649978       0.55690013       0.52422415 </v>
    <v>       0.89046271       0.89030312       0.52470726 </v>
    <v>       0.22306347       0.89074684       0.52492472 </v>
    <v>       0.55646550       0.89010281       0.52454727 </v>
    <v>       0.99982247       0.99967298       0.61860933 </v>
    <v>       0.33754704       0.99978180       0.61849421 </v>
    <v>       0.66748353       0.00212974       0.61786513 </v>
    <v>       0.99894373       0.33921547       0.61985675 </v>
    <v>       0.33600616       0.33547381       0.61748034 </v>
    <v>       0.66568880       0.33543049       0.61741244 </v>
    <v>       0.00121844       0.66987866       0.61773026 </v>
    <v>       0.33468353       0.66774325       0.61755063 </v>
    <v>       0.66611475       0.66995618       0.61765252 </v>
    <v>       0.07306714       0.19083576       0.66827797 </v>
   </varray>
  </structure>
  <varray name="primitive_index" >
   <v type="int" >        1 </v>
   <v type="int" >        2 </v>
   <v type="int" >        3 </v>
   <v type="int" >        4 </v>
   <v type="int" >        5 </v>
   <v type="int" >        6 </v>
   <v type="int" >        7 </v>
   <v type="int" >        8 </v>
   <v type="int" >        9 </v>
   <v type="int" >       10 </v>
   <v type="int" >       11 </v>
   <v type="int" >       12 </v>
   <v type="int" >       13 </v>
   <v type="int" >       14 </v>
   <v type="int" >       15 </v>
   <v type="int" >       16 </v>
   <v type="int" >       17 </v>
   <v type="int" >       18 </v>
   <v type="int" >       19 </v>
   <v type="int" >       20 </v>
   <v type="int" >       21 </v>
   <v type="int" >       22 </v>
   <v type="int" >       23 </v>
   <v type="int" >       24 </v>
   <v type="int" >       25 </v>
   <v type="int" >       26 </v>
   <v type="int" >       27 </v>
   <v type="int" >       28 </v>
   <v type="int" >       29 </v>
   <v type="int" >       30 </v>
   <v type="int" >       31 </v>
   <v type="int" >       32 </v>
   <v type="int" >       33 </v>
   <v type="int" >       34 </v>
   <v type="int" >       35 </v>
   <v type="int" >       36 </v>
   <v type="int" >       37 </v>
  </varray>
 </primitive_cell>
 <kpoints>
  <generation param="Monkhorst-Pack">
   <v type="int" name="divisions">       5        5        1 </v>
   <v name="usershift">      0.00000000       0.00000000       0.00000000 </v>
   <v name="genvec1">      0.20000000      -0.00000000       0.00000000 </v>
   <v name="genvec2">      0.00000000       0.20000000       0.00000000 </v>
   <v name="genvec3">      0.00000000       0.00000000       1.00000000 </v>
   <v name="shift">      0.00000000       0.00000000       0.00000000 </v>
  </generation>
  <varray name="kpointlist" >
   <v>       0.00000000       0.00000000       0.00000000 </v>
   <v>       0.20000000       0.00000000       0.00000000 </v>
   <v>       0.20000000       0.20000000       0.00000000 </v>
   <v>       0.00000000       0.20000000       0.00000000 </v>
   <v>       0.40000000       0.00000000       0.00000000 </v>
   <v>       0.40000000       0.40000000       0.00000000 </v>
   <v>       0.00000000       0.40000000       0.00000000 </v>
   <v>       0.40000000       0.20000000       0.00000000 </v>
   <v>       0.20000000       0.40000000       0.00000000 </v>
   <v>      -0.20000000       0.20000000       0.00000000 </v>
   <v>      -0.40000000       0.20000000       0.00000000 </v>
   <v>       0.40000000      -0.40000000       0.00000000 </v>
   <v>      -0.20000000       0.40000000       0.00000000 </v>
  </varray>
  <varray name="weights" >
   <v>       0.04000000 </v>
   <v>       0.08000000 </v>
   <v>       0.08000000 </v>
   <v>       0.08000000 </v>
   <v>       0.08000000 </v>
   <v>       0.08000000 </v>
   <v>       0.08000000 </v>
   <v>       0.08000000 </v>
   <v>       0.08000000 </v>
   <v>       0.08000000 </v>
   <v>       0.08000000 </v>
   <v>       0.08000000 </v>
   <v>       0.08000000 </v>
  </varray>
 </kpoints>
 <parameters>
  <separator name="general" >
   <i type="string" name="SYSTEM">unknown system</i>
   <i type="logical" name="LCOMPAT"> F  </i>
  </separator>
  <separator name="electronic" >
   <i type="string" name="PREC">normal</i>
   <i name="ENMAX">    680.29000000</i>
   <i name="ENAUG">    400.00000000</i>
   <i name="EDIFF">      0.00001000</i>
   <i type="int" name="IALGO">    68</i>
   <i type="int" name="IWAVPR">    10</i>
   <i type="int" name="NBANDS">   240</i>
   <i type="int" name="NBANDSLOW">    -1</i>
   <i type="int" name="NBANDSHIGH">    -1</i>
   <i name="NELECT">    361.00000000</i>
   <i type="int" name="TURBO">     0</i>
   <i type="int" name="IRESTART">     0</i>
   <i type="int" name="NREBOOT">     0</i>
   <i type="int" name="NMIN">     0</i>
   <i name="EREF">      0.00000000</i>
   <separator name="electronic smearing" >
    <i type="int" name="ISMEAR">     1</i>
    <i name="SIGMA">      0.10000000</i>
    <i name="KSPACING">      0.50000000</i>
    <i type="logical" name="KGAMMA"> T  </i>
    <i type="logical" name="KBLOWUP"> T  </i>
   </separator>
   <separator name="electronic projectors" >
    <i type="logical" name="LREAL"> T  </i>
    <v name="ROPT">     -0.00050000     -0.00050000</v>
    <i type="int" name="LMAXPAW">  -100</i>
    <i type="int" name="LMAXMIX">     2</i>
    <i type="logical" name="NLSPLINE"> F  </i>
   </separator>
   <separator name="electronic startup" >
    <i type="int" name="ISTART">     1</i>
    <i type="int" name="ICHARG">     0</i>
    <i type="int" name="INIWAV">     1</i>
   </separator>
   <separator name="electronic spin" >
    <i type="int" name="ISPIN">     1</i>
    <i type="logical" name="LNONCOLLINEAR"> F  </i>
    <v name="MAGMOM">      1.00000000      1.00000000      1.00000000      1.00000000      1.00000000      1.00000000      1.00000000      1.00000000      1.00000000      1.00000000      1.00000000      1.00000000      1.00000000      1.00000000      1.00000000      1.00000000      1.00000000      1.00000000      1.00000000      1.00000000
      1.00000000      1.00000000      1.00000000      1.00000000      1.00000000      1.00000000      1.00000000      1.00000000      1.00000000      1.00000000      1.00000000      1.00000000      1.00000000      1.00000000      1.00000000      1.00000000      1.00000000</v>
    <i name="NUPDOWN">     -1.00000000</i>
    <i type="logical" name="LSORBIT"> F  </i>
    <v name="SAXIS">      0.00000000      0.00000000      1.00000000</v>
    <i type="logical" name="LSPIRAL"> F  </i>
    <v name="QSPIRAL">      0.00000000      0.00000000      0.00000000</v>
    <i type="logical" name="LZEROZ"> F  </i>
   </separator>
   <separator name="electronic exchange-correlation" >
    <i type="logical" name="LASPH"> F  </i>
    <i type="logical" name="LMETAGGA"> F  </i>
   </separator>
   <separator name="electronic convergence" >
    <i type="int" name="NELM">    60</i>
    <i type="int" name="NELMDL">     0</i>
    <i type="int" name="NELMIN">     2</i>
    <i name="ENINI">    680.29000000</i>
    <separator name="electronic convergence detail" >
     <i type="logical" name="LDIAG"> T  </i>
     <i type="logical" name="LSUBROT"> F  </i>
     <i name="WEIMIN">      0.00000000</i>
     <i name="EBREAK">      0.00000001</i>
     <i name="DEPER">      0.30000000</i>
     <i type="int" name="NRMM">     4</i>
     <i name="TIME">      0.40000000</i>
    </separator>
   </separator>
   <separator name="electronic mixer" >
    <i name="AMIX">      0.40000000</i>
    <i name="BMIX">      1.00000000</i>
    <i name="AMIN">      0.10000000</i>
    <i name="AMIX_MAG">      1.60000000</i>
    <i name="BMIX_MAG">      1.00000000</i>
    <separator name="electronic mixer details" >
     <i type="int" name="IMIX">     4</i>
     <i type="logical" name="MIXFIRST"> F  </i>
     <i type="int" name="MAXMIX">   -45</i>
     <i name="WC">    100.00000000</i>
     <i type="int" name="INIMIX">     1</i>
     <i type="int" name="MIXPRE">     1</i>
     <i type="int" name="MREMOVE">     5</i>
    </separator>
   </separator>
   <separator name="electronic dipolcorrection" >
    <i type="logical" name="LDIPOL"> F  </i>
    <i type="logical" name="LMONO"> F  </i>
    <i type="int" name="IDIPOL">     0</i>
    <i name="EPSILON">      1.00000000</i>
    <v name="DIPOL">   -100.00000000   -100.00000000   -100.00000000</v>
    <i name="EFIELD">      0.00000000</i>
   </separator>
  </separator>
  <separator name="grids" >
   <i type="int" name="NGX">    54</i>
   <i type="int" name="NGY">    54</i>
   <i type="int" name="NGZ">   160</i>
   <i type="int" name="NGXF">   108</i>
   <i type="int" name="NGYF">   108</i>
   <i type="int" name="NGZF">   320</i>
   <i type="logical" name="ADDGRID"> F  </i>
  </separator>
  <separator name="ionic" >
   <i type="int" name="NSW">     0</i>
   <i type="int" name="IBRION">    -1</i>
   <i type="int" name="MDALGO">     0</i>
   <i type="int" name="ISIF">     2</i>
   <i name="PSTRESS">      0.00000000</i>
   <i name="EDIFFG">      0.00010000</i>
   <i type="int" name="NFREE">     0</i>
   <i name="POTIM">      0.50000000</i>
   <i name="SMASS">     -3.00000000</i>
   <i name="SCALEE">      1.00000000</i>
  </separator>
  <separator name="ionic md" >
   <i name="TEBEG">      0.00010000</i>
   <i name="TEEND">      0.00010000</i>
   <i type="int" name="NBLOCK">     1</i>
   <i type="int" name="KBLOCK">     1</i>
   <i type="int" name="NPACO">   256</i>
   <i name="APACO">     10.00000000</i>
  </separator>
  <separator name="symmetry" >
   <i type="int" name="ISYM">     0</i>
   <i name="SYMPREC">      0.00001000</i>
  </separator>
  <separator name="dos" >
   <i type="int" name="LORBIT">     0</i>
   <v name="RWIGS">     -1.00000000     -1.00000000</v>
   <i type="int" name="NEDOS">   301</i>
   <i name="EMIN">     10.00000000</i>
   <i name="EMAX">    -10.00000000</i>
   <i name="EFERMI">      0.00000000</i>
  </separator>
  <separator name="writing" >
   <i type="int" name="NWRITE">     2</i>
   <i type="logical" name="LWAVE"> T  </i>
   <i type="logical" name="LDOWNSAMPLE"> F  </i>
   <i type="logical" name="LCHARG"> T  </i>
   <i type="logical" name="LPARD"> F  </i>
   <i type="logical" name="LVTOT"> F  </i>
   <i type="logical" name="LVHAR"> F  </i>
   <i type="logical" name="LELF"> F  </i>
   <i type="logical" name="LOPTICS"> F  </i>
   <v name="STM">      0.00000000      0.00000000      0.00000000      0.00000000      0.00000000      0.00000000      0.00000000</v>
  </separator>
  <separator name="performance" >
   <i type="int" name="NPAR">    48</i>
   <i type="int" name="NSIM">     4</i>
   <i type="int" name="NBLK">    -1</i>
   <i type="logical" name="LPLANE"> T  </i>
   <i type="logical" name="LSCALAPACK"> T  </i>
   <i type="logical" name="LSCAAWARE"> F  </i>
   <i type="logical" name="LSCALU"> F  </i>
   <i type="logical" name="LASYNC"> F  </i>
   <i type="logical" name="LORBITALREAL"> F  </i>
  </separator>
  <separator name="miscellaneous" >
   <i type="int" name="IDIOT">     3</i>
   <i type="int" name="PHON_NSTRUCT">    -1</i>
   <i type="logical" name="LMUSIC"> F  </i>
   <v name="POMASS">    195.08000000      1.00000000</v>
   <v name="DARWINR">      0.00000000      0.00000000</v>
   <v name="DARWINV">      1.00000000      1.00000000</v>
   <i type="logical" name="LCORR"> T  </i>
  </separator>
  <i type="logical" name="GGA_COMPAT"> T  </i>
  <i type="logical" name="LBERRY"> F  </i>
  <i type="int" name="ICORELEVEL">     0</i>
  <i type="logical" name="LDAU"> F  </i>
  <i type="int" name="I_CONSTRAINED_M">     0</i>
  <separator name="electronic exchange-correlation" >
   <i type="string" name="GGA">BF</i>
   <i type="int" name="VOSKOWN">     0</i>
   <i type="logical" name="LHFCALC"> F  </i>
   <i type="string" name="PRECFOCK"></i>
   <i type="logical" name="LSYMGRAD"> F  </i>
   <i type="logical" name="LHFONE"> F  </i>
   <i type="logical" name="LRHFCALC"> F  </i>
   <i type="logical" name="LTHOMAS"> F  </i>
   <i type="logical" name="LMODELHF"> F  </i>
   <i type="logical" name="LFOCKACE"> F  </i>
   <i name="ENCUT4O">     -1.00000000</i>
   <i type="int" name="EXXOEP">     0</i>
   <i type="int" name="FOURORBIT">     0</i>
   <i name="AEXX">      0.00000000</i>
   <i name="HFALPHA">      0.00000000</i>
   <i name="MCALPHA">      0.00000000</i>
   <i name="ALDAX">      1.00000000</i>
   <i name="AGGAX">      1.00000000</i>
   <i name="ALDAC">      1.00000000</i>
   <i name="AGGAC">      1.00000000</i>
   <i type="int" name="NKREDX">     1</i>
   <i type="int" name="NKREDY">     1</i>
   <i type="int" name="NKREDZ">     1</i>
   <i type="logical" name="SHIFTRED"> F  </i>
   <i type="logical" name="ODDONLY"> F  </i>
   <i type="logical" name="EVENONLY"> F  </i>
   <i type="int" name="LMAXFOCK">     0</i>
   <i type="int" name="NMAXFOCKAE">     0</i>
   <i type="logical" name="LFOCKAEDFT"> F  </i>
   <i name="HFSCREEN">      0.00000000</i>
   <i name="HFSCREENC">      0.00000000</i>
   <i type="int" name="NBANDSGWLOW">     0</i>
  </separator>
  <separator name="vdW DFT" >
   <i type="logical" name="LUSE_VDW"> T  </i>
   <i type="int" name="IVDW_NL">     1</i>
   <i type="logical" name="LSPIN_VDW"> F  </i>
   <i name="Zab_VDW">     -1.88670000</i>
   <i name="PARAM1">      0.12340000</i>
   <i name="PARAM2">      1.00000000</i>
   <i name="PARAM3">      0.00000000</i>
  </separator>
  <separator name="model GW" >
   <i type="int" name="MODEL_GW">     0</i>
   <i name="MODEL_EPS0">     25.14297943</i>
   <i name="MODEL_ALPHA">      1.00000000</i>
  </separator>
  <separator name="linear response parameters" >
   <i type="logical" name="LEPSILON"> F  </i>
   <i type="logical" name="LRPA"> F  </i>
   <i type="logical" name="LNABLA"> F  </i>
   <i type="logical" name="LVEL"> F  </i>
   <i name="CSHIFT">      0.10000000</i>
   <i name="OMEGAMAX">     -1.00000000</i>
   <i name="DEG_THRESHOLD">      0.00200000</i>
   <i name="RTIME">     -0.10000000</i>
   <i name="WPLASMAI">      0.00000000</i>
   <v name="DFIELD">      0.00000000      0.00000000      0.00000000</v>
   <v name="WPLASMA">      0.00000000      0.00000000      0.00000000      0.00000000      0.00000000      0.00000000      0.00000000      0.00000000      0.00000000</v>
  </separator>
  <separator name="orbital magnetization" >
   <i type="logical" name="NUCIND"> F  </i>
   <v name="MAGPOS">      0.00000000      0.00000000      0.00000000</v>
   <i type="logical" name="LNICSALL"> T  </i>
   <i type="logical" name="ORBITALMAG"> F  </i>
   <i type="logical" name="LMAGBLOCH"> F  </i>
   <i type="logical" name="LCHIMAG"> F  </i>
   <i type="logical" name="LGAUGE"> T  </i>
   <i type="int" name="MAGATOM">     0</i>
   <v name="MAGDIPOL">      0.00000000      0.00000000      0.00000000</v>
   <v name="AVECCONST">      0.00000000      0.00000000      0.00000000</v>
  </separator>
  <separator name="response functions" >
   <i type="logical" name="LALL_IN_ONE"> F  </i>
   <i type="int" name="IALL_IN_ONE">    -1</i>
   <i type="int" name="NBANDS_WAVE">    -1</i>
   <i type="logical" name="LFINITE_TEMPERATURE"> F  </i>
   <i type="logical" name="LADDER"> F  </i>
   <i type="logical" name="LRPAFORCE"> F  </i>
   <i type="logical" name="LFXC"> F  </i>
   <i type="logical" name="LHARTREE"> T  </i>
   <i type="int" name="IBSE">     0</i>
   <v type="int" name="KPOINT">    -1     0     0     0</v>
   <i type="logical" name="LTCTC"> F  </i>
   <i type="logical" name="LTCTE"> F  </i>
   <i type="logical" name="LTETE"> F  </i>
   <i type="logical" name="LTRIPLET"> F  </i>
   <i type="logical" name="LFXCEPS"> F  </i>
   <i type="logical" name="LFXHEG"> F  </i>
   <i type="int" name="NATURALO">     2</i>
   <i type="logical" name="LHOLEGF"> F  </i>
   <i type="logical" name="L2ORDER"> F  </i>
   <i type="logical" name="LDMP1"> F  </i>
   <i type="logical" name="LMP2LT"> F  </i>
   <i type="logical" name="LSMP2LT"> F  </i>
   <i type="logical" name="LGWLF"> F  </i>
   <i name="ENCUTGW">     -1.60000002</i>
   <i name="ENCUTGWSOFT">     -1.60000002</i>
   <i name="ENCUTLF">     -1.00000000</i>
   <i type="logical" name="LESF_SPLINES"> F  </i>
   <i type="int" name="LMAXMP2">    -1</i>
   <i name="SCISSOR">      0.00000000</i>
   <i type="int" name="NOMEGA">     0</i>
   <i type="int" name="NOMEGAR">     0</i>
   <i type="int" name="NBANDSGW">    -1</i>
   <i type="int" name="NBANDSO">    -1</i>
   <i type="int" name="NBANDSV">    -1</i>
   <i type="int" name="NELMGW">     1</i>
   <i type="int" name="NELMHF">     1</i>
   <i type="int" name="DIM">     3</i>
   <i type="int" name="IESPILON">     4</i>
   <i type="int" name="ANTIRES">     0</i>
   <i name="OMEGAMAX">    -30.00000000</i>
   <i name="OMEGAMIN">    -30.00000000</i>
   <i name="OMEGATL">   -200.00000000</i>
   <i type="int" name="OMEGAGRID">     0</i>
   <i name="CSHIFT">     -0.10000000</i>
   <i type="logical" name="LSELFENERGY"> F  </i>
   <i type="logical" name="LSPECTRAL"> F  </i>
   <i type="logical" name="LSPECTRALGW"> F  </i>
   <i type="logical" name="LSINGLES"> F  </i>
   <i type="logical" name="LFERMIGW"> F  </i>
   <i type="logical" name="ODDONLYGW"> F  </i>
   <i type="logical" name="EVENONLYGW"> F  </i>
   <i type="int" name="NKREDLFX">     1</i>
   <i type="int" name="NKREDLFY">     1</i>
   <i type="int" name="NKREDLFZ">     1</i>
   <i type="int" name="MAXMEM">  2800</i>
   <i type="int" name="TELESCOPE">     0</i>
   <i type="int" name="NTAUPAR">    -1</i>
   <i type="int" name="NOMEGAPAR">    -1</i>
   <i name="DAMP_NEWTON">      0.80000001</i>
   <i name="LAMBDA">      1.00000000</i>
  </separator>
  <separator name="External order field" >
   <i name="OFIELD_KAPPA">      0.00000000</i>
   <v name="OFIELD_K">      0.00000000      0.00000000      0.00000000</v>
   <i name="OFIELD_Q6_NEAR">      0.00000000</i>
   <i name="OFIELD_Q6_FAR">      0.00000000</i>
   <i name="OFIELD_A">      0.00000000</i>
  </separator>
  <separator name="optional k-points parameters" >
   <i type="int" name="KPOINTS_OPT_MODE">     1</i>
   <i type="logical" name="LKPOINTS_OPT"> F  </i>
  </separator>
 </parameters>
 <atominfo>
  <atoms>      37 </atoms>
  <types>       2 </types>
  <array name="atoms" >
   <dimension dim="1">ion</dimension>
   <field type="string">element</field>
   <field type="int">atomtype</field>
   <set>
    <rc><c>Pt</c><c>   1</c></rc>
    <rc><c>Pt</c><c>   1</c></rc>
    <rc><c>Pt</c><c>   1</c></rc>
    <rc><c>Pt</c><c>   1</c></rc>
    <rc><c>Pt</c><c>   1</c></rc>
    <rc><c>Pt</c><c>   1</c></rc>
    <rc><c>Pt</c><c>   1</c></rc>
    <rc><c>Pt</c><c>   1</c></rc>
    <rc><c>Pt</c><c>   1</c></rc>
    <rc><c>Pt</c><c>   1</c></rc>
    <rc><c>Pt</c><c>   1</c></rc>
    <rc><c>Pt</c><c>   1</c></rc>
    <rc><c>Pt</c><c>   1</c></rc>
    <rc><c>Pt</c><c>   1</c></rc>
    <rc><c>Pt</c><c>   1</c></rc>
    <rc><c>Pt</c><c>   1</c></rc>
    <rc><c>Pt</c><c>   1</c></rc>
    <rc><c>Pt</c><c>   1</c></rc>
    <rc><c>Pt</c><c>   1</c></rc>
    <rc><c>Pt</c><c>   1</c></rc>
    <rc><c>Pt</c><c>   1</c></rc>
    <rc><c>Pt</c><c>   1</c></rc>
    <rc><c>Pt</c><c>   1</c></rc>
    <rc><c>Pt</c><c>   1</c></rc>
    <rc><c>Pt</c><c>   1</c></rc>
    <rc><c>Pt</c><c>   1</c></rc>
    <rc><c>Pt</c><c>   1</c></rc>
    <rc><c>Pt</c><c>   1</c></rc>
    <rc><c>Pt</c><c>   1</c></rc>
    <rc><c>Pt</c><c>   1</c></rc>
    <rc><c>Pt</c><c>   1</c></rc>
    <rc><c>Pt</c><c>   1</c></rc>
    <rc><c>Pt</c><c>   1</c></rc>
    <rc><c>Pt</c><c>   1</c></rc>
    <rc><c>Pt</c><c>   1</c></rc>
    <rc><c>Pt</c><c>   1</c></rc>
    <rc><c>H </c><c>   2</c></rc>
   </set>
  </array>
  <array name="atomtypes" >
   <dimension dim="1">type</dimension>
   <field type="int">atomspertype</field>
   <field type="string">element</field>
   <field>mass</field>
   <field>valence</field>
   <field type="string">pseudopotential</field>
   <set>
    <rc><c>  36</c><c>Pt</c><c>    195.08000000</c><c>     10.00000000</c><c>  PAW_PBE Pt 04Feb2005                  </c></rc>
    <rc><c>   1</c><c>H </c><c>      1.00000000</c><c>      1.00000000</c><c>  PAW_PBE H 15Jun2001                   </c></rc>
   </set>
  </array>
 </atominfo>
 <structure name="initialpos" >
  <crystal>
   <varray name="basis" >
    <v>       8.46831000       0.00000000       0.00000000 </v>
    <v>       4.23415500       7.33377159       0.00000000 </v>
    <v>       0.00000000       0.00000000      24.96566199 </v>
   </varray>
   <i name="volume">   1550.48373159 </i>
   <varray name="rec_basis" >
    <v>       0.11808732      -0.06817774       0.00000000 </v>
    <v>       0.00000000       0.13635549       0.00000000 </v>
    <v>       0.00000000       0.00000000       0.04005502 </v>
   </varray>
  </crystal>
  <varray name="positions" >
   <v>       0.00000000       0.00000000       0.34046764 </v>
   <v>       0.33400137       0.00000000       0.34046764 </v>
   <v>       0.66800274       0.00000000       0.34046764 </v>
   <v>       0.00000000       0.33400137       0.34046764 </v>
   <v>       0.33400137       0.33400137       0.34046764 </v>
   <v>       0.66800274       0.33400137       0.34046764 </v>
   <v>       0.00000000       0.66800274       0.34046764 </v>
   <v>       0.33400137       0.66800274       0.34046764 </v>
   <v>       0.66800274       0.66800274       0.34046764 </v>
   <v>       0.11133379       0.11133379       0.43297074 </v>
   <v>       0.44533516       0.11133379       0.43297074 </v>
   <v>       0.77933653       0.11133379       0.43297074 </v>
   <v>       0.11133379       0.44533516       0.43297074 </v>
   <v>       0.44533516       0.44533516       0.43297074 </v>
   <v>       0.77933653       0.44533516       0.43297074 </v>
   <v>       0.11133379       0.77933653       0.43297074 </v>
   <v>       0.44533516       0.77933653       0.43297074 </v>
   <v>       0.77933653       0.77933653       0.43297074 </v>
   <v>       0.89013560       0.22336783       0.52494912 </v>
   <v>       0.22336753       0.22329066       0.52487154 </v>
   <v>       0.55680483       0.22314097       0.52416389 </v>
   <v>       0.89115865       0.55476139       0.52548005 </v>
   <v>       0.22336986       0.55685977       0.52426655 </v>
   <v>       0.55649978       0.55690013       0.52422415 </v>
   <v>       0.89046271       0.89030312       0.52470726 </v>
   <v>       0.22306347       0.89074684       0.52492472 </v>
   <v>       0.55646550       0.89010281       0.52454727 </v>
   <v>       0.99982247       0.99967298       0.61860933 </v>
   <v>       0.33754704       0.99978180       0.61849421 </v>
   <v>       0.66748353       0.00212974       0.61786513 </v>
   <v>       0.99894373       0.33921547       0.61985675 </v>
   <v>       0.33600616       0.33547381       0.61748034 </v>
   <v>       0.66568880       0.33543049       0.61741244 </v>
   <v>       0.00121844       0.66987866       0.61773026 </v>
   <v>       0.33468353       0.66774325       0.61755063 </v>
   <v>       0.66611475       0.66995618       0.61765252 </v>
   <v>       0.07306714       0.19083576       0.66827797 </v>
  </varray>
  <varray name="selective"  type="logical" >
   <v type="logical" >  F  F  F </v>
   <v type="logical" >  F  F  F </v>
   <v type="logical" >  F  F  F </v>
   <v type="logical" >  F  F  F </v>
   <v type="logical" >  F  F  F </v>
   <v type="logical" >  F  F  F </v>
   <v type="logical" >  F  F  F </v>
   <v type="logical" >  F  F  F </v>
   <v type="logical" >  F  F  F </v>
   <v type="logical" >  F  F  F </v>
   <v type="logical" >  F  F  F </v>
   <v type="logical" >  F  F  F </v>
   <v type="logical" >  F  F  F </v>
   <v type="logical" >  F  F  F </v>
   <v type="logical" >  F  F  F </v>
   <v type="logical" >  F  F  F </v>
   <v type="logical" >  F  F  F </v>
   <v type="logical" >  F  F  F </v>
   <v type="logical" >  T  T  T </v>
   <v type="logical" >  T  T  T </v>
   <v type="logical" >  T  T  T </v>
   <v type="logical" >  T  T  T </v>
   <v type="logical" >  T  T  T </v>
   <v type="logical" >  T  T  T </v>
   <v type="logical" >  T  T  T </v>
   <v type="logical" >  T  T  T </v>
   <v type="logical" >  T  T  T </v>
   <v type="logical" >  T  T  T </v>
   <v type="logical" >  T  T  T </v>
   <v type="logical" >  T  T  T </v>
   <v type="logical" >  T  T  T </v>
   <v type="logical" >  T  T  T </v>
   <v type="logical" >  T  T  T </v>
   <v type="logical" >  T  T  T </v>
   <v type="logical" >  T  T  T </v>
   <v type="logical" >  T  T  T </v>
   <v type="logical" >  T  T  T </v>
  </varray>
  <nose>
   <v>      -3.00000000       0.00000000       0.00010000       0.00010000 </v>
  </nose>
 </structure>
 <calculation>
  <scstep>
   <time name="dav">   15.96   16.09</time>
   <time name="total">   19.42   19.58</time>
   <energy>
    <i name="alphaZ">    797.33612757 </i>
    <i name="ewald"> 132313.37666925 </i>
    <i name="hartreedc">-159711.37936545 </i>
    <i name="XCdc">     89.59056719 </i>
    <i name="pawpsdc">  32174.31587839 </i>
    <i name="pawaedc"> -31176.74264731 </i>
    <i name="eentropy">     -0.09054805 </i>
    <i name="bandstr">  -1087.78034483 </i>
    <i name="atom">  26496.80315902 </i>
    <i name="e_fr_energy">   -104.57050422 </i>
    <i name="e_wo_entrp">   -104.47995617 </i>
    <i name="e_0_energy">   -104.54032154 </i>
   </energy>
  </scstep>
  <scstep>
   <time name="diag">    2.75    2.76</time>
   <time name="diis">    8.49    8.56</time>
   <time name="orth">    0.47    0.47</time>
   <time name="total">   14.82   14.95</time>
   <energy>
    <i name="e_fr_energy">   -107.46683750 </i>
    <i name="e_wo_entrp">   -107.46312501 </i>
    <i name="e_0_energy">   -107.46560000 </i>
   </energy>
  </scstep>
  <scstep>
   <time name="diag">    2.86    2.88</time>
   <time name="diis">    8.76    8.82</time>
   <time name="orth">    0.63    0.64</time>
   <time name="total">   15.44   15.55</time>
   <energy>
    <i name="e_fr_energy">   -104.76941256 </i>
    <i name="e_wo_entrp">   -104.68986746 </i>
    <i name="e_0_energy">   -104.74289753 </i>
   </energy>
  </scstep>
  <scstep>
   <time name="diag">    2.90    2.92</time>
   <time name="diis">    7.81    7.87</time>
   <time name="orth">    0.75    0.76</time>
   <time name="total">   14.63   14.79</time>
   <energy>
    <i name="e_fr_energy">   -104.50116255 </i>
    <i name="e_wo_entrp">   -104.40976977 </i>
    <i name="e_0_energy">   -104.47069829 </i>
   </energy>
  </scstep>
  <scstep>
   <time name="diag">    2.86    2.88</time>
   <time name="diis">    8.51    8.57</time>
   <time name="orth">    0.68    0.68</time>
   <time name="total">   15.23   15.34</time>
   <energy>
    <i name="e_fr_energy">   -104.48826169 </i>
    <i name="e_wo_entrp">   -104.39623466 </i>
    <i name="e_0_energy">   -104.45758601 </i>
   </energy>
  </scstep>
  <scstep>
   <time name="diag">    2.87    2.90</time>
   <time name="diis">    8.86    8.92</time>
   <time name="orth">    0.69    0.70</time>
   <time name="total">   15.58   15.74</time>
   <energy>
    <i name="e_fr_energy">   -104.48284915 </i>
    <i name="e_wo_entrp">   -104.39048694 </i>
    <i name="e_0_energy">   -104.45206175 </i>
   </energy>
  </scstep>
  <scstep>
   <time name="diag">    2.72    2.74</time>
   <time name="diis">    8.86    8.92</time>
   <time name="orth">    0.67    0.68</time>
   <time name="total">   15.39   15.50</time>
   <energy>
    <i name="e_fr_energy">   -104.48340004 </i>
    <i name="e_wo_entrp">   -104.39067011 </i>
    <i name="e_0_energy">   -104.45249006 </i>
   </energy>
  </scstep>
  <scstep>
   <time name="diag">    2.78    2.80</time>
   <time name="diis">    8.88    8.94</time>
   <time name="orth">    0.71    0.71</time>
   <time name="total">   15.47   15.63</time>
   <energy>
    <i name="e_fr_energy">   -104.48272590 </i>
    <i name="e_wo_entrp">   -104.39029903 </i>
    <i name="e_0_energy">   -104.45191694 </i>
   </energy>
  </scstep>
  <scstep>
   <time name="diag">    2.81    2.83</time>
   <time name="diis">    8.85    8.90</time>
   <time name="orth">    0.64    0.65</time>
   <time name="total">   15.40   15.51</time>
   <energy>
    <i name="e_fr_energy">   -104.48245374 </i>
    <i name="e_wo_entrp">   -104.38976989 </i>
    <i name="e_0_energy">   -104.45155912 </i>
   </energy>
  </scstep>
  <scstep>
   <time name="diag">    2.86    2.88</time>
   <time name="diis">    8.78    8.99</time>
   <time name="orth">    0.85    0.86</time>
   <time name="total">   15.74   16.04</time>
   <energy>
    <i name="e_fr_energy">   -104.48245932 </i>
    <i name="e_wo_entrp">   -104.38975264 </i>
    <i name="e_0_energy">   -104.45155710 </i>
   </energy>
  </scstep>
  <scstep>
   <time name="diag">    2.84    2.87</time>
   <time name="diis">    8.11    8.16</time>
   <time name="orth">    0.59    0.59</time>
   <time name="total">   14.69   14.79</time>
   <energy>
    <i name="e_fr_energy">   -104.48242092 </i>
    <i name="e_wo_entrp">   -104.38975930 </i>
    <i name="e_0_energy">   -104.45153371 </i>
   </energy>
  </scstep>
  <scstep>
   <time name="diag">    2.78    2.80</time>
   <time name="diis">    7.09    7.13</time>
   <time name="orth">    0.82    0.83</time>
   <time name="total">   13.11   13.24</time>
   <energy>
    <i name="alphaZ">    797.33612757 </i>
    <i name="ewald"> 132313.37666925 </i>
    <i name="hartreedc">-159712.23533109 </i>
    <i name="XCdc">     89.59258166 </i>
    <i name="pawpsdc">  32171.82920033 </i>
    <i name="pawaedc"> -31174.22892151 </i>
    <i name="eentropy">     -0.09267878 </i>
    <i name="bandstr">  -1086.86322743 </i>
    <i name="atom">  26496.80315902 </i>
    <i name="e_fr_energy">   -104.48242098 </i>
    <i name="e_wo_entrp">   -104.38974220 </i>
    <i name="e_0_energy">   -104.45152805 </i>
   </energy>
  </scstep>
  <structure>
   <crystal>
    <varray name="basis" >
     <v>       8.46831000       0.00000000       0.00000000 </v>
     <v>       4.23415500       7.33377159       0.00000000 </v>
     <v>       0.00000000       0.00000000      24.96566199 </v>
    </varray>
    <i name="volume">   1550.48373159 </i>
    <varray name="rec_basis" >
     <v>       0.11808732      -0.06817774       0.00000000 </v>
     <v>       0.00000000       0.13635549       0.00000000 </v>
     <v>       0.00000000       0.00000000       0.04005502 </v>
    </varray>
   </crystal>
   <varray name="positions" >
    <v>       0.00000000       0.00000000       0.34046764 </v>
    <v>       0.33400137       0.00000000       0.34046764 </v>
    <v>       0.66800274       0.00000000       0.34046764 </v>
    <v>       0.00000000       0.33400137       0.34046764 </v>
    <v>       0.33400137       0.33400137       0.34046764 </v>
    <v>       0.66800274       0.33400137       0.34046764 </v>
    <v>       0.00000000       0.66800274       0.34046764 </v>
    <v>       0.33400137       0.66800274       0.34046764 </v>
    <v>       0.66800274       0.66800274       0.34046764 </v>
    <v>       0.11133379       0.11133379       0.43297074 </v>
    <v>       0.44533516       0.11133379       0.43297074 </v>
    <v>       0.77933653       0.11133379       0.43297074 </v>
    <v>       0.11133379       0.44533516       0.43297074 </v>
    <v>       0.44533516       0.44533516       0.43297074 </v>
    <v>       0.77933653       0.44533516       0.43297074 </v>
    <v>       0.11133379       0.77933653       0.43297074 </v>
    <v>       0.44533516       0.77933653       0.43297074 </v>
    <v>       0.77933653       0.77933653       0.43297074 </v>
    <v>       0.89013560       0.22336783       0.52494912 </v>
    <v>       0.22336753       0.22329066       0.52487154 </v>
    <v>       0.55680483       0.22314097       0.52416389 </v>
    <v>       0.89115865       0.55476139       0.52548005 </v>
    <v>       0.22336986       0.55685977       0.52426655 </v>
    <v>       0.55649978       0.55690013       0.52422415 </v>
    <v>       0.89046271       0.89030312       0.52470726 </v>
    <v>       0.22306347       0.89074684       0.52492472 </v>
    <v>       0.55646550       0.89010281       0.52454727 </v>
    <v>       0.99982247       0.99967298       0.61860933 </v>
    <v>       0.33754704       0.99978180       0.61849421 </v>
    <v>       0.66748353       0.00212974       0.61786513 </v>
    <v>       0.99894373       0.33921547       0.61985675 </v>
    <v>       0.33600616       0.33547381       0.61748034 </v>
    <v>       0.66568880       0.33543049       0.61741244 </v>
    <v>       0.00121844       0.66987866       0.61773026 </v>
    <v>       0.33468353       0.66774325       0.61755063 </v>
    <v>       0.66611475       0.66995618       0.61765252 </v>
    <v>       0.07306714       0.19083576       0.66827797 </v>
   </varray>
  </structure>
  <varray name="forces" >
   <v>       0.04808460       0.03663635      -0.12240814 </v>
   <v>       0.02376461       0.05526975      -0.08595617 </v>
   <v>      -0.03371860       0.12126017      -0.17799033 </v>
   <v>       0.05274482      -0.01327129      -0.08277828 </v>
   <v>       0.00780935      -0.00589380      -0.07630420 </v>
   <v>      -0.05364755       0.00746647      -0.08959894 </v>
   <v>       0.03602954      -0.06646478      -0.10915172 </v>
   <v>      -0.01075086      -0.04848944      -0.08346508 </v>
   <v>      -0.05918672      -0.04146169      -0.08690690 </v>
   <v>       0.07462130       0.04684469       0.16417786 </v>
   <v>       0.01749471       0.04281630       0.02430766 </v>
   <v>      -0.06850758       0.06706061       0.05734410 </v>
   <v>       0.01685324      -0.01051390       0.14285411 </v>
   <v>      -0.00382768      -0.00194581       0.02831328 </v>
   <v>      -0.02656265       0.03896332       0.16287478 </v>
   <v>       0.05368631      -0.08661743       0.10936814 </v>
   <v>      -0.02112086      -0.06311388       0.09606403 </v>
   <v>      -0.07605026       0.01263021       0.06583625 </v>
   <v>       0.01368421       0.01446962       0.00616072 </v>
   <v>      -0.01314893       0.00856363       0.00409141 </v>
   <v>      -0.00044493      -0.00296930      -0.00508813 </v>
   <v>      -0.00720490      -0.02323611       0.03686886 </v>
   <v>      -0.00297501       0.00261801       0.00368421 </v>
   <v>       0.00683795       0.00193071       0.00174633 </v>
   <v>      -0.01032731      -0.00665088      -0.00504852 </v>
   <v>       0.00186194      -0.00327778      -0.02414251 </v>
   <v>       0.01205833      -0.00550088      -0.00562240 </v>
   <v>      -0.00688679       0.02705058       0.00028710 </v>
   <v>       0.01734776       0.02588197       0.00878955 </v>
   <v>       0.00131623       0.00817343       0.00059473 </v>
   <v>       0.00335830      -0.17050909       0.22183091 </v>
   <v>      -0.01904556       0.01713976      -0.00971286 </v>
   <v>       0.02231885       0.01482464      -0.00961755 </v>
   <v>      -0.02196264      -0.02417126      -0.00089107 </v>
   <v>       0.00609167       0.00368876       0.00353945 </v>
   <v>       0.01979244      -0.02202787      -0.00346285 </v>
   <v>      -0.00038733       0.04282622      -0.16058781 </v>
  </varray>
  <varray name="stress" >
   <v>     -33.99057919       0.01534392       0.01871652 </v>
   <v>       0.01534387     -34.27573918      -0.46583626 </v>
   <v>       0.01871650      -0.46583642       2.53061945 </v>
  </varray>
  <energy>
   <i name="e_fr_energy">   -104.48242098 </i>
   <i name="e_wo_entrp">   -104.38974220 </i>
   <i name="e_0_energy">   -104.45152805 </i>
  </energy>
  <time name="totalsc">  212.00  214.58</time>
  <eigenvalues>
   <array>
    <dimension dim="1">band</dimension>
    <dimension dim="2">kpoint</dimension>
    <dimension dim="3">spin</dimension>
    <field>eigene</field>
    <field>occ</field>
    <set>
     <set comment="spin 1">
      <set comment="kpoint 1">
       <r>   -8.8939    1.0000 </r>
       <r>   -7.6725    1.0000 </r>
       <r>   -6.7744    1.0000 </r>
       <r>   -6.4981    1.0000 </r>
       <r>   -6.4688    1.0000 </r>
       <r>   -6.4643    1.0000 </r>
       <r>   -6.4563    1.0000 </r>
       <r>   -6.4490    1.0000 </r>
       <r>   -6.4430    1.0000 </r>
       <r>   -6.4372    1.0000 </r>
       <r>   -6.0486    1.0000 </r>
       <r>   -5.9193    1.0000 </r>
       <r>   -5.9152    1.0000 </r>
       <r>   -5.9099    1.0000 </r>
       <r>   -5.9048    1.0000 </r>
       <r>   -5.9029    1.0000 </r>
       <r>   -5.7705    1.0000 </r>
       <r>   -5.4711    1.0000 </r>
       <r>   -5.4567    1.0000 </r>
       <r>   -5.4533    1.0000 </r>
       <r>   -5.4496    1.0000 </r>
       <r>   -5.4440    1.0000 </r>
       <r>   -5.3575    1.0000 </r>
       <r>   -5.2341    1.0000 </r>
       <r>   -5.2287    1.0000 </r>
       <r>   -5.2258    1.0000 </r>
       <r>   -5.2215    1.0000 </r>
       <r>   -5.2185    1.0000 </r>
       <r>   -5.1202    1.0000 </r>
       <r>   -5.0289    1.0000 </r>
       <r>   -5.0233    1.0000 </r>
       <r>   -5.0200    1.0000 </r>
       <r>   -5.0178    1.0000 </r>
       <r>   -5.0079    1.0000 </r>
       <r>   -4.9766    1.0000 </r>
       <r>   -4.9688    1.0000 </r>
       <r>   -4.9607    1.0000 </r>
       <r>   -4.9579    1.0000 </r>
       <r>   -4.9285    1.0000 </r>
       <r>   -4.9184    1.0000 </r>
       <r>   -4.6983    1.0000 </r>
       <r>   -4.3783    1.0000 </r>
       <r>   -4.3757    1.0000 </r>
       <r>   -4.3635    1.0000 </r>
       <r>   -4.3450    1.0000 </r>
       <r>   -4.3204    1.0000 </r>
       <r>   -4.3143    1.0000 </r>
       <r>   -4.3029    1.0000 </r>
       <r>   -4.2967    1.0000 </r>
       <r>   -4.2931    1.0000 </r>
       <r>   -4.1527    1.0000 </r>
       <r>   -4.1368    1.0000 </r>
       <r>   -4.1077    1.0000 </r>
       <r>   -4.0445    1.0000 </r>
       <r>   -4.0039    1.0000 </r>
       <r>   -3.5827    1.0000 </r>
       <r>   -3.5774    1.0000 </r>
       <r>   -3.5650    1.0000 </r>
       <r>   -3.5608    1.0000 </r>
       <r>   -3.5595    1.0000 </r>
       <r>   -3.4994    1.0000 </r>
       <r>   -3.4911    1.0000 </r>
       <r>   -3.3798    1.0000 </r>
       <r>   -3.3744    1.0000 </r>
       <r>   -3.3737    1.0000 </r>
       <r>   -3.3669    1.0000 </r>
       <r>   -3.3634    1.0000 </r>
       <r>   -3.3597    1.0000 </r>
       <r>   -3.3470    1.0000 </r>
       <r>   -3.3235    1.0000 </r>
       <r>   -3.3105    1.0000 </r>
       <r>   -3.3080    1.0000 </r>
       <r>   -3.3018    1.0000 </r>
       <r>   -3.2969    1.0000 </r>
       <r>   -3.2651    1.0000 </r>
       <r>   -3.2646    1.0000 </r>
       <r>   -3.2420    1.0000 </r>
       <r>   -3.1525    1.0000 </r>
       <r>   -3.1502    1.0000 </r>
       <r>   -3.1459    1.0000 </r>
       <r>   -3.1352    1.0000 </r>
       <r>   -3.1304    1.0000 </r>
       <r>   -3.1192    1.0000 </r>
       <r>   -2.9396    1.0000 </r>
       <r>   -2.9331    1.0000 </r>
       <r>   -2.9285    1.0000 </r>
       <r>   -2.9232    1.0000 </r>
       <r>   -2.9111    1.0000 </r>
       <r>   -2.9069    1.0000 </r>
       <r>   -2.9038    1.0000 </r>
       <r>   -2.9009    1.0000 </r>
       <r>   -2.8327    1.0000 </r>
       <r>   -2.8163    1.0000 </r>
       <r>   -2.7665    1.0000 </r>
       <r>   -2.7545    1.0000 </r>
       <r>   -2.7426    1.0000 </r>
       <r>   -2.7289    1.0000 </r>
       <r>   -2.7186    1.0000 </r>
       <r>   -2.6888    1.0000 </r>
       <r>   -2.6841    1.0000 </r>
       <r>   -2.6342    1.0000 </r>
       <r>   -2.5266    1.0000 </r>
       <r>   -2.5223    1.0000 </r>
       <r>   -2.5177    1.0000 </r>
       <r>   -2.5023    1.0000 </r>
       <r>   -2.5001    1.0000 </r>
       <r>   -2.4964    1.0000 </r>
       <r>   -2.2297    1.0000 </r>
       <r>   -2.0254    1.0000 </r>
       <r>   -2.0027    1.0000 </r>
       <r>   -1.9968    1.0000 </r>
       <r>   -1.9925    1.0000 </r>
       <r>   -1.9874    1.0000 </r>
       <r>   -1.9834    1.0000 </r>
       <r>   -1.9813    1.0000 </r>
       <r>   -1.9678    1.0000 </r>
       <r>   -1.9529    1.0000 </r>
       <r>   -1.9497    1.0000 </r>
       <r>   -1.9454    1.0000 </r>
       <r>   -1.8700    1.0000 </r>
       <r>   -1.8588    1.0000 </r>
       <r>   -1.8116    1.0000 </r>
       <r>   -1.7329    1.0000 </r>
       <r>   -1.7286    1.0000 </r>
       <r>   -1.7164    1.0000 </r>
       <r>   -1.7092    1.0000 </r>
       <r>   -1.7059    1.0000 </r>
       <r>   -1.5947    1.0000 </r>
       <r>   -1.5880    1.0000 </r>
       <r>   -1.5342    1.0000 </r>
       <r>   -1.5328    1.0000 </r>
       <r>   -1.5125    1.0000 </r>
       <r>   -1.5000    1.0000 </r>
       <r>   -1.3291    1.0000 </r>
       <r>   -1.2818    1.0000 </r>
       <r>   -1.2647    1.0000 </r>
       <r>   -1.2632    1.0000 </r>
       <r>   -1.2486    1.0000 </r>
       <r>   -1.2472    1.0000 </r>
       <r>   -1.1941    1.0000 </r>
       <r>   -1.1748    1.0000 </r>
       <r>   -1.1523    1.0000 </r>
       <r>   -1.0322    1.0000 </r>
       <r>   -1.0278    1.0000 </r>
       <r>   -1.0194    1.0000 </r>
       <r>   -1.0163    1.0000 </r>
       <r>   -1.0149    1.0000 </r>
       <r>   -0.9510    1.0000 </r>
       <r>   -0.8730    1.0000 </r>
       <r>   -0.8613    1.0000 </r>
       <r>   -0.8384    1.0000 </r>
       <r>   -0.8289    1.0000 </r>
       <r>   -0.8255    1.0000 </r>
       <r>   -0.8179    1.0000 </r>
       <r>   -0.8105    1.0000 </r>
       <r>   -0.8014    1.0000 </r>
       <r>   -0.8002    1.0000 </r>
       <r>   -0.7961    1.0000 </r>
       <r>   -0.7918    1.0000 </r>
       <r>   -0.7244    1.0000 </r>
       <r>   -0.7055    1.0000 </r>
       <r>   -0.6798    1.0000 </r>
       <r>   -0.6735    1.0000 </r>
       <r>   -0.6615    1.0000 </r>
       <r>   -0.6553    1.0000 </r>
       <r>   -0.6430    1.0000 </r>
       <r>   -0.6386    1.0000 </r>
       <r>   -0.5992    1.0000 </r>
       <r>   -0.5912    1.0000 </r>
       <r>   -0.5634    1.0000 </r>
       <r>   -0.5563    1.0000 </r>
       <r>   -0.5521    1.0000 </r>
       <r>   -0.5377    1.0000 </r>
       <r>   -0.5365    1.0000 </r>
       <r>   -0.5338    1.0000 </r>
       <r>   -0.4534    1.0000 </r>
       <r>   -0.4432    1.0000 </r>
       <r>   -0.4376    1.0000 </r>
       <r>   -0.4329    1.0000 </r>
       <r>   -0.4303    1.0000 </r>
       <r>   -0.4228    1.0000 </r>
       <r>   -0.4181    1.0000 </r>
       <r>   -0.3462    1.0004 </r>
       <r>   -0.3279    1.0009 </r>
       <r>   -0.3174    1.0014 </r>
       <r>   -0.3169    1.0014 </r>
       <r>   -0.3089    1.0020 </r>
       <r>   -0.3023    1.0026 </r>
       <r>   -0.1100    0.8030 </r>
       <r>   -0.1025    0.7514 </r>
       <r>   -0.0189    0.1178 </r>
       <r>   -0.0077    0.0649 </r>
       <r>    0.0037    0.0243 </r>
       <r>    0.0117    0.0030 </r>
       <r>    0.0121    0.0020 </r>
       <r>    0.0155   -0.0051 </r>
       <r>    0.4520   -0.0000 </r>
       <r>    0.8212   -0.0000 </r>
       <r>    0.8643   -0.0000 </r>
       <r>    0.8786   -0.0000 </r>
       <r>    0.9025   -0.0000 </r>
       <r>    0.9053   -0.0000 </r>
       <r>    0.9069   -0.0000 </r>
       <r>    2.6670    0.0000 </r>
       <r>    3.1592    0.0000 </r>
       <r>    3.1715    0.0000 </r>
       <r>    3.2109    0.0000 </r>
       <r>    3.2167    0.0000 </r>
       <r>    3.2303    0.0000 </r>
       <r>    4.4655    0.0000 </r>
       <r>    4.7469    0.0000 </r>
       <r>    4.7819    0.0000 </r>
       <r>    4.8206    0.0000 </r>
       <r>    4.8218    0.0000 </r>
       <r>    4.8251    0.0000 </r>
       <r>    4.8976    0.0000 </r>
       <r>    5.0039    0.0000 </r>
       <r>    5.1162    0.0000 </r>
       <r>    5.4811    0.0000 </r>
       <r>    5.5096    0.0000 </r>
       <r>    5.8010    0.0000 </r>
       <r>    5.8111    0.0000 </r>
       <r>    5.8493    0.0000 </r>
       <r>    5.8587    0.0000 </r>
       <r>    5.8668    0.0000 </r>
       <r>    6.1506    0.0000 </r>
       <r>    6.4284    0.0000 </r>
       <r>    6.6169    0.0000 </r>
       <r>    6.6225    0.0000 </r>
       <r>    6.6273    0.0000 </r>
       <r>    6.8036    0.0000 </r>
       <r>    6.9329    0.0000 </r>
       <r>    7.1325    0.0000 </r>
       <r>    7.1427    0.0000 </r>
       <r>    7.1621    0.0000 </r>
       <r>    7.1660    0.0000 </r>
       <r>    7.1671    0.0000 </r>
       <r>    7.1846    0.0000 </r>
       <r>    7.2949    0.0000 </r>
       <r>    7.6917    0.0000 </r>
      </set>
      <set comment="kpoint 2">
       <r>   -8.7457    1.0000 </r>
       <r>   -7.5323    1.0000 </r>
       <r>   -6.9853    1.0000 </r>
       <r>   -6.6683    1.0000 </r>
       <r>   -6.5629    1.0000 </r>
       <r>   -6.5392    1.0000 </r>
       <r>   -6.3549    1.0000 </r>
       <r>   -6.2772    1.0000 </r>
       <r>   -6.2294    1.0000 </r>
       <r>   -6.2171    1.0000 </r>
       <r>   -6.0971    1.0000 </r>
       <r>   -6.0048    1.0000 </r>
       <r>   -5.9098    1.0000 </r>
       <r>   -5.8439    1.0000 </r>
       <r>   -5.8398    1.0000 </r>
       <r>   -5.8304    1.0000 </r>
       <r>   -5.7130    1.0000 </r>
       <r>   -5.5403    1.0000 </r>
       <r>   -5.4211    1.0000 </r>
       <r>   -5.4146    1.0000 </r>
       <r>   -5.4099    1.0000 </r>
       <r>   -5.3699    1.0000 </r>
       <r>   -5.3325    1.0000 </r>
       <r>   -5.3080    1.0000 </r>
       <r>   -5.2752    1.0000 </r>
       <r>   -5.2478    1.0000 </r>
       <r>   -5.2262    1.0000 </r>
       <r>   -5.2151    1.0000 </r>
       <r>   -5.1481    1.0000 </r>
       <r>   -5.1170    1.0000 </r>
       <r>   -5.1104    1.0000 </r>
       <r>   -5.0342    1.0000 </r>
       <r>   -5.0186    1.0000 </r>
       <r>   -5.0099    1.0000 </r>
       <r>   -5.0036    1.0000 </r>
       <r>   -4.8627    1.0000 </r>
       <r>   -4.8075    1.0000 </r>
       <r>   -4.7909    1.0000 </r>
       <r>   -4.7775    1.0000 </r>
       <r>   -4.7556    1.0000 </r>
       <r>   -4.6628    1.0000 </r>
       <r>   -4.5011    1.0000 </r>
       <r>   -4.4958    1.0000 </r>
       <r>   -4.4655    1.0000 </r>
       <r>   -4.4234    1.0000 </r>
       <r>   -4.4110    1.0000 </r>
       <r>   -4.3904    1.0000 </r>
       <r>   -4.3035    1.0000 </r>
       <r>   -4.2162    1.0000 </r>
       <r>   -4.1521    1.0000 </r>
       <r>   -4.1244    1.0000 </r>
       <r>   -4.1182    1.0000 </r>
       <r>   -4.0809    1.0000 </r>
       <r>   -4.0553    1.0000 </r>
       <r>   -3.9933    1.0000 </r>
       <r>   -3.8350    1.0000 </r>
       <r>   -3.7405    1.0000 </r>
       <r>   -3.7293    1.0000 </r>
       <r>   -3.6801    1.0000 </r>
       <r>   -3.6603    1.0000 </r>
       <r>   -3.6358    1.0000 </r>
       <r>   -3.5857    1.0000 </r>
       <r>   -3.5652    1.0000 </r>
       <r>   -3.5514    1.0000 </r>
       <r>   -3.5283    1.0000 </r>
       <r>   -3.5227    1.0000 </r>
       <r>   -3.4646    1.0000 </r>
       <r>   -3.4509    1.0000 </r>
       <r>   -3.4058    1.0000 </r>
       <r>   -3.3748    1.0000 </r>
       <r>   -3.3635    1.0000 </r>
       <r>   -3.3289    1.0000 </r>
       <r>   -3.2693    1.0000 </r>
       <r>   -3.2629    1.0000 </r>
       <r>   -3.2514    1.0000 </r>
       <r>   -3.1838    1.0000 </r>
       <r>   -3.1810    1.0000 </r>
       <r>   -3.1453    1.0000 </r>
       <r>   -3.1321    1.0000 </r>
       <r>   -3.0930    1.0000 </r>
       <r>   -3.0774    1.0000 </r>
       <r>   -3.0684    1.0000 </r>
       <r>   -3.0353    1.0000 </r>
       <r>   -2.9989    1.0000 </r>
       <r>   -2.9677    1.0000 </r>
       <r>   -2.9511    1.0000 </r>
       <r>   -2.9428    1.0000 </r>
       <r>   -2.9355    1.0000 </r>
       <r>   -2.9151    1.0000 </r>
       <r>   -2.9030    1.0000 </r>
       <r>   -2.8604    1.0000 </r>
       <r>   -2.8163    1.0000 </r>
       <r>   -2.8041    1.0000 </r>
       <r>   -2.7925    1.0000 </r>
       <r>   -2.7798    1.0000 </r>
       <r>   -2.7625    1.0000 </r>
       <r>   -2.7526    1.0000 </r>
       <r>   -2.7175    1.0000 </r>
       <r>   -2.7022    1.0000 </r>
       <r>   -2.6828    1.0000 </r>
       <r>   -2.6086    1.0000 </r>
       <r>   -2.5538    1.0000 </r>
       <r>   -2.5388    1.0000 </r>
       <r>   -2.5242    1.0000 </r>
       <r>   -2.5120    1.0000 </r>
       <r>   -2.5009    1.0000 </r>
       <r>   -2.4972    1.0000 </r>
       <r>   -2.4861    1.0000 </r>
       <r>   -2.4465    1.0000 </r>
       <r>   -2.4299    1.0000 </r>
       <r>   -2.4213    1.0000 </r>
       <r>   -2.4139    1.0000 </r>
       <r>   -2.2067    1.0000 </r>
       <r>   -2.0893    1.0000 </r>
       <r>   -2.0500    1.0000 </r>
       <r>   -2.0049    1.0000 </r>
       <r>   -1.9996    1.0000 </r>
       <r>   -1.9849    1.0000 </r>
       <r>   -1.9793    1.0000 </r>
       <r>   -1.9557    1.0000 </r>
       <r>   -1.9387    1.0000 </r>
       <r>   -1.8936    1.0000 </r>
       <r>   -1.8086    1.0000 </r>
       <r>   -1.7835    1.0000 </r>
       <r>   -1.7224    1.0000 </r>
       <r>   -1.6640    1.0000 </r>
       <r>   -1.6473    1.0000 </r>
       <r>   -1.6010    1.0000 </r>
       <r>   -1.5928    1.0000 </r>
       <r>   -1.5767    1.0000 </r>
       <r>   -1.5389    1.0000 </r>
       <r>   -1.5254    1.0000 </r>
       <r>   -1.5196    1.0000 </r>
       <r>   -1.4384    1.0000 </r>
       <r>   -1.4072    1.0000 </r>
       <r>   -1.3964    1.0000 </r>
       <r>   -1.3819    1.0000 </r>
       <r>   -1.3744    1.0000 </r>
       <r>   -1.2840    1.0000 </r>
       <r>   -1.1887    1.0000 </r>
       <r>   -1.1755    1.0000 </r>
       <r>   -1.1645    1.0000 </r>
       <r>   -1.1470    1.0000 </r>
       <r>   -1.1371    1.0000 </r>
       <r>   -1.1220    1.0000 </r>
       <r>   -1.0743    1.0000 </r>
       <r>   -1.0344    1.0000 </r>
       <r>   -1.0082    1.0000 </r>
       <r>   -0.9883    1.0000 </r>
       <r>   -0.9778    1.0000 </r>
       <r>   -0.9422    1.0000 </r>
       <r>   -0.9118    1.0000 </r>
       <r>   -0.9057    1.0000 </r>
       <r>   -0.8972    1.0000 </r>
       <r>   -0.8434    1.0000 </r>
       <r>   -0.7907    1.0000 </r>
       <r>   -0.7669    1.0000 </r>
       <r>   -0.7536    1.0000 </r>
       <r>   -0.7166    1.0000 </r>
       <r>   -0.6622    1.0000 </r>
       <r>   -0.6400    1.0000 </r>
       <r>   -0.6185    1.0000 </r>
       <r>   -0.6027    1.0000 </r>
       <r>   -0.5883    1.0000 </r>
       <r>   -0.5617    1.0000 </r>
       <r>   -0.5390    1.0000 </r>
       <r>   -0.4818    1.0000 </r>
       <r>   -0.4649    1.0000 </r>
       <r>   -0.4126    1.0000 </r>
       <r>   -0.3996    1.0000 </r>
       <r>   -0.3892    1.0000 </r>
       <r>   -0.3766    1.0001 </r>
       <r>   -0.3516    1.0003 </r>
       <r>   -0.3470    1.0003 </r>
       <r>   -0.3414    1.0004 </r>
       <r>   -0.3337    1.0006 </r>
       <r>   -0.3273    1.0009 </r>
       <r>   -0.2707    1.0081 </r>
       <r>   -0.2630    1.0103 </r>
       <r>   -0.1265    0.8980 </r>
       <r>   -0.1167    0.8446 </r>
       <r>   -0.1014    0.7435 </r>
       <r>   -0.0817    0.5885 </r>
       <r>   -0.0693    0.4844 </r>
       <r>   -0.0635    0.4356 </r>
       <r>   -0.0347    0.2129 </r>
       <r>   -0.0126    0.0863 </r>
       <r>   -0.0033    0.0479 </r>
       <r>    0.0089    0.0098 </r>
       <r>    0.0863   -0.0242 </r>
       <r>    0.1134   -0.0127 </r>
       <r>    0.1333   -0.0069 </r>
       <r>    0.1786   -0.0012 </r>
       <r>    0.2963   -0.0000 </r>
       <r>    0.3066   -0.0000 </r>
       <r>    0.3132   -0.0000 </r>
       <r>    0.3605   -0.0000 </r>
       <r>    0.6785   -0.0000 </r>
       <r>    0.7536   -0.0000 </r>
       <r>    1.2293   -0.0000 </r>
       <r>    1.4670   -0.0000 </r>
       <r>    1.4870   -0.0000 </r>
       <r>    1.6094   -0.0000 </r>
       <r>    2.3435   -0.0000 </r>
       <r>    2.7926    0.0000 </r>
       <r>    2.9172    0.0000 </r>
       <r>    3.4830    0.0000 </r>
       <r>    3.6537    0.0000 </r>
       <r>    3.6721    0.0000 </r>
       <r>    3.7505    0.0000 </r>
       <r>    3.9536    0.0000 </r>
       <r>    4.3825    0.0000 </r>
       <r>    4.6122    0.0000 </r>
       <r>    4.7041    0.0000 </r>
       <r>    4.9559    0.0000 </r>
       <r>    5.0009    0.0000 </r>
       <r>    5.0077    0.0000 </r>
       <r>    5.1928    0.0000 </r>
       <r>    5.2409    0.0000 </r>
       <r>    5.4650    0.0000 </r>
       <r>    5.6151    0.0000 </r>
       <r>    5.7184    0.0000 </r>
       <r>    5.8252    0.0000 </r>
       <r>    5.9210    0.0000 </r>
       <r>    6.0607    0.0000 </r>
       <r>    6.2199    0.0000 </r>
       <r>    6.2654    0.0000 </r>
       <r>    6.3345    0.0000 </r>
       <r>    6.3507    0.0000 </r>
       <r>    6.6100    0.0000 </r>
       <r>    6.6966    0.0000 </r>
       <r>    6.7306    0.0000 </r>
       <r>    6.7918    0.0000 </r>
       <r>    6.8279    0.0000 </r>
       <r>    6.9289    0.0000 </r>
       <r>    7.0646    0.0000 </r>
       <r>    7.2290    0.0000 </r>
       <r>    7.4787    0.0000 </r>
       <r>    7.5813    0.0000 </r>
       <r>    7.6134    0.0000 </r>
      </set>
      <set comment="kpoint 3">
       <r>   -8.7458    1.0000 </r>
       <r>   -7.5324    1.0000 </r>
       <r>   -6.9858    1.0000 </r>
       <r>   -6.6698    1.0000 </r>
       <r>   -6.5631    1.0000 </r>
       <r>   -6.5365    1.0000 </r>
       <r>   -6.3552    1.0000 </r>
       <r>   -6.2795    1.0000 </r>
       <r>   -6.2271    1.0000 </r>
       <r>   -6.2169    1.0000 </r>
       <r>   -6.0975    1.0000 </r>
       <r>   -6.0040    1.0000 </r>
       <r>   -5.9080    1.0000 </r>
       <r>   -5.8460    1.0000 </r>
       <r>   -5.8424    1.0000 </r>
       <r>   -5.8297    1.0000 </r>
       <r>   -5.7130    1.0000 </r>
       <r>   -5.5391    1.0000 </r>
       <r>   -5.4213    1.0000 </r>
       <r>   -5.4138    1.0000 </r>
       <r>   -5.4093    1.0000 </r>
       <r>   -5.3705    1.0000 </r>
       <r>   -5.3324    1.0000 </r>
       <r>   -5.3102    1.0000 </r>
       <r>   -5.2750    1.0000 </r>
       <r>   -5.2464    1.0000 </r>
       <r>   -5.2269    1.0000 </r>
       <r>   -5.2167    1.0000 </r>
       <r>   -5.1492    1.0000 </r>
       <r>   -5.1153    1.0000 </r>
       <r>   -5.1093    1.0000 </r>
       <r>   -5.0366    1.0000 </r>
       <r>   -5.0191    1.0000 </r>
       <r>   -5.0093    1.0000 </r>
       <r>   -5.0033    1.0000 </r>
       <r>   -4.8628    1.0000 </r>
       <r>   -4.8073    1.0000 </r>
       <r>   -4.7895    1.0000 </r>
       <r>   -4.7789    1.0000 </r>
       <r>   -4.7529    1.0000 </r>
       <r>   -4.6627    1.0000 </r>
       <r>   -4.5007    1.0000 </r>
       <r>   -4.4944    1.0000 </r>
       <r>   -4.4650    1.0000 </r>
       <r>   -4.4238    1.0000 </r>
       <r>   -4.4105    1.0000 </r>
       <r>   -4.3899    1.0000 </r>
       <r>   -4.3057    1.0000 </r>
       <r>   -4.2148    1.0000 </r>
       <r>   -4.1524    1.0000 </r>
       <r>   -4.1242    1.0000 </r>
       <r>   -4.1190    1.0000 </r>
       <r>   -4.0816    1.0000 </r>
       <r>   -4.0553    1.0000 </r>
       <r>   -3.9920    1.0000 </r>
       <r>   -3.8326    1.0000 </r>
       <r>   -3.7403    1.0000 </r>
       <r>   -3.7301    1.0000 </r>
       <r>   -3.6781    1.0000 </r>
       <r>   -3.6579    1.0000 </r>
       <r>   -3.6348    1.0000 </r>
       <r>   -3.5819    1.0000 </r>
       <r>   -3.5688    1.0000 </r>
       <r>   -3.5530    1.0000 </r>
       <r>   -3.5294    1.0000 </r>
       <r>   -3.5233    1.0000 </r>
       <r>   -3.4649    1.0000 </r>
       <r>   -3.4503    1.0000 </r>
       <r>   -3.4030    1.0000 </r>
       <r>   -3.3735    1.0000 </r>
       <r>   -3.3608    1.0000 </r>
       <r>   -3.3299    1.0000 </r>
       <r>   -3.2735    1.0000 </r>
       <r>   -3.2668    1.0000 </r>
       <r>   -3.2584    1.0000 </r>
       <r>   -3.1841    1.0000 </r>
       <r>   -3.1782    1.0000 </r>
       <r>   -3.1452    1.0000 </r>
       <r>   -3.1329    1.0000 </r>
       <r>   -3.0904    1.0000 </r>
       <r>   -3.0717    1.0000 </r>
       <r>   -3.0663    1.0000 </r>
       <r>   -3.0401    1.0000 </r>
       <r>   -2.9983    1.0000 </r>
       <r>   -2.9683    1.0000 </r>
       <r>   -2.9504    1.0000 </r>
       <r>   -2.9429    1.0000 </r>
       <r>   -2.9359    1.0000 </r>
       <r>   -2.9140    1.0000 </r>
       <r>   -2.9032    1.0000 </r>
       <r>   -2.8605    1.0000 </r>
       <r>   -2.8174    1.0000 </r>
       <r>   -2.8046    1.0000 </r>
       <r>   -2.7917    1.0000 </r>
       <r>   -2.7785    1.0000 </r>
       <r>   -2.7622    1.0000 </r>
       <r>   -2.7536    1.0000 </r>
       <r>   -2.7176    1.0000 </r>
       <r>   -2.7039    1.0000 </r>
       <r>   -2.6848    1.0000 </r>
       <r>   -2.6090    1.0000 </r>
       <r>   -2.5537    1.0000 </r>
       <r>   -2.5393    1.0000 </r>
       <r>   -2.5242    1.0000 </r>
       <r>   -2.5150    1.0000 </r>
       <r>   -2.4992    1.0000 </r>
       <r>   -2.4983    1.0000 </r>
       <r>   -2.4853    1.0000 </r>
       <r>   -2.4423    1.0000 </r>
       <r>   -2.4296    1.0000 </r>
       <r>   -2.4227    1.0000 </r>
       <r>   -2.4158    1.0000 </r>
       <r>   -2.2033    1.0000 </r>
       <r>   -2.0875    1.0000 </r>
       <r>   -2.0521    1.0000 </r>
       <r>   -2.0060    1.0000 </r>
       <r>   -1.9984    1.0000 </r>
       <r>   -1.9852    1.0000 </r>
       <r>   -1.9816    1.0000 </r>
       <r>   -1.9551    1.0000 </r>
       <r>   -1.9391    1.0000 </r>
       <r>   -1.8937    1.0000 </r>
       <r>   -1.8087    1.0000 </r>
       <r>   -1.7851    1.0000 </r>
       <r>   -1.7233    1.0000 </r>
       <r>   -1.6673    1.0000 </r>
       <r>   -1.6485    1.0000 </r>
       <r>   -1.5992    1.0000 </r>
       <r>   -1.5878    1.0000 </r>
       <r>   -1.5819    1.0000 </r>
       <r>   -1.5410    1.0000 </r>
       <r>   -1.5257    1.0000 </r>
       <r>   -1.5206    1.0000 </r>
       <r>   -1.4402    1.0000 </r>
       <r>   -1.4051    1.0000 </r>
       <r>   -1.3941    1.0000 </r>
       <r>   -1.3805    1.0000 </r>
       <r>   -1.3763    1.0000 </r>
       <r>   -1.2843    1.0000 </r>
       <r>   -1.1883    1.0000 </r>
       <r>   -1.1766    1.0000 </r>
       <r>   -1.1638    1.0000 </r>
       <r>   -1.1484    1.0000 </r>
       <r>   -1.1360    1.0000 </r>
       <r>   -1.1235    1.0000 </r>
       <r>   -1.0717    1.0000 </r>
       <r>   -1.0337    1.0000 </r>
       <r>   -1.0067    1.0000 </r>
       <r>   -0.9878    1.0000 </r>
       <r>   -0.9781    1.0000 </r>
       <r>   -0.9430    1.0000 </r>
       <r>   -0.9110    1.0000 </r>
       <r>   -0.9031    1.0000 </r>
       <r>   -0.8999    1.0000 </r>
       <r>   -0.8415    1.0000 </r>
       <r>   -0.7914    1.0000 </r>
       <r>   -0.7673    1.0000 </r>
       <r>   -0.7528    1.0000 </r>
       <r>   -0.7152    1.0000 </r>
       <r>   -0.6633    1.0000 </r>
       <r>   -0.6409    1.0000 </r>
       <r>   -0.6193    1.0000 </r>
       <r>   -0.6037    1.0000 </r>
       <r>   -0.5901    1.0000 </r>
       <r>   -0.5649    1.0000 </r>
       <r>   -0.5401    1.0000 </r>
       <r>   -0.4814    1.0000 </r>
       <r>   -0.4644    1.0000 </r>
       <r>   -0.4115    1.0000 </r>
       <r>   -0.3995    1.0000 </r>
       <r>   -0.3909    1.0000 </r>
       <r>   -0.3758    1.0001 </r>
       <r>   -0.3499    1.0003 </r>
       <r>   -0.3472    1.0003 </r>
       <r>   -0.3403    1.0005 </r>
       <r>   -0.3360    1.0006 </r>
       <r>   -0.3261    1.0009 </r>
       <r>   -0.2727    1.0076 </r>
       <r>   -0.2655    1.0096 </r>
       <r>   -0.1273    0.9018 </r>
       <r>   -0.1193    0.8599 </r>
       <r>   -0.0998    0.7318 </r>
       <r>   -0.0803    0.5771 </r>
       <r>   -0.0685    0.4772 </r>
       <r>   -0.0610    0.4142 </r>
       <r>   -0.0337    0.2061 </r>
       <r>   -0.0104    0.0766 </r>
       <r>   -0.0011    0.0399 </r>
       <r>    0.0119    0.0026 </r>
       <r>    0.0857   -0.0245 </r>
       <r>    0.1140   -0.0125 </r>
       <r>    0.1325   -0.0071 </r>
       <r>    0.1783   -0.0012 </r>
       <r>    0.2969   -0.0000 </r>
       <r>    0.3080   -0.0000 </r>
       <r>    0.3134   -0.0000 </r>
       <r>    0.3575   -0.0000 </r>
       <r>    0.6822   -0.0000 </r>
       <r>    0.7571   -0.0000 </r>
       <r>    1.2279   -0.0000 </r>
       <r>    1.4666   -0.0000 </r>
       <r>    1.4861   -0.0000 </r>
       <r>    1.6078   -0.0000 </r>
       <r>    2.3406   -0.0000 </r>
       <r>    2.7958    0.0000 </r>
       <r>    2.9196    0.0000 </r>
       <r>    3.4830    0.0000 </r>
       <r>    3.6538    0.0000 </r>
       <r>    3.6701    0.0000 </r>
       <r>    3.7503    0.0000 </r>
       <r>    3.9548    0.0000 </r>
       <r>    4.3806    0.0000 </r>
       <r>    4.6117    0.0000 </r>
       <r>    4.7011    0.0000 </r>
       <r>    4.9570    0.0000 </r>
       <r>    5.0003    0.0000 </r>
       <r>    5.0082    0.0000 </r>
       <r>    5.1931    0.0000 </r>
       <r>    5.2412    0.0000 </r>
       <r>    5.4676    0.0000 </r>
       <r>    5.6145    0.0000 </r>
       <r>    5.7171    0.0000 </r>
       <r>    5.8262    0.0000 </r>
       <r>    5.9234    0.0000 </r>
       <r>    6.0617    0.0000 </r>
       <r>    6.2193    0.0000 </r>
       <r>    6.2653    0.0000 </r>
       <r>    6.3363    0.0000 </r>
       <r>    6.3527    0.0000 </r>
       <r>    6.6107    0.0000 </r>
       <r>    6.6971    0.0000 </r>
       <r>    6.7295    0.0000 </r>
       <r>    6.7909    0.0000 </r>
       <r>    6.8282    0.0000 </r>
       <r>    6.9290    0.0000 </r>
       <r>    7.0639    0.0000 </r>
       <r>    7.2240    0.0000 </r>
       <r>    7.4775    0.0000 </r>
       <r>    7.5803    0.0000 </r>
       <r>    7.6125    0.0000 </r>
      </set>
      <set comment="kpoint 4">
       <r>   -8.7453    1.0000 </r>
       <r>   -7.5297    1.0000 </r>
       <r>   -6.9669    1.0000 </r>
       <r>   -6.7024    1.0000 </r>
       <r>   -6.5668    1.0000 </r>
       <r>   -6.5185    1.0000 </r>
       <r>   -6.3545    1.0000 </r>
       <r>   -6.2681    1.0000 </r>
       <r>   -6.2391    1.0000 </r>
       <r>   -6.2198    1.0000 </r>
       <r>   -6.0711    1.0000 </r>
       <r>   -6.0048    1.0000 </r>
       <r>   -5.9494    1.0000 </r>
       <r>   -5.8485    1.0000 </r>
       <r>   -5.8431    1.0000 </r>
       <r>   -5.8285    1.0000 </r>
       <r>   -5.6878    1.0000 </r>
       <r>   -5.5300    1.0000 </r>
       <r>   -5.4219    1.0000 </r>
       <r>   -5.4186    1.0000 </r>
       <r>   -5.4075    1.0000 </r>
       <r>   -5.3932    1.0000 </r>
       <r>   -5.3382    1.0000 </r>
       <r>   -5.3037    1.0000 </r>
       <r>   -5.2789    1.0000 </r>
       <r>   -5.2268    1.0000 </r>
       <r>   -5.2224    1.0000 </r>
       <r>   -5.2195    1.0000 </r>
       <r>   -5.1716    1.0000 </r>
       <r>   -5.1242    1.0000 </r>
       <r>   -5.0998    1.0000 </r>
       <r>   -5.0334    1.0000 </r>
       <r>   -5.0238    1.0000 </r>
       <r>   -5.0088    1.0000 </r>
       <r>   -5.0076    1.0000 </r>
       <r>   -4.8733    1.0000 </r>
       <r>   -4.8099    1.0000 </r>
       <r>   -4.7870    1.0000 </r>
       <r>   -4.7750    1.0000 </r>
       <r>   -4.7652    1.0000 </r>
       <r>   -4.6565    1.0000 </r>
       <r>   -4.5020    1.0000 </r>
       <r>   -4.4967    1.0000 </r>
       <r>   -4.4290    1.0000 </r>
       <r>   -4.4256    1.0000 </r>
       <r>   -4.4046    1.0000 </r>
       <r>   -4.3886    1.0000 </r>
       <r>   -4.3004    1.0000 </r>
       <r>   -4.2113    1.0000 </r>
       <r>   -4.1828    1.0000 </r>
       <r>   -4.1264    1.0000 </r>
       <r>   -4.1222    1.0000 </r>
       <r>   -4.0669    1.0000 </r>
       <r>   -4.0507    1.0000 </r>
       <r>   -4.0155    1.0000 </r>
       <r>   -3.8345    1.0000 </r>
       <r>   -3.7394    1.0000 </r>
       <r>   -3.7354    1.0000 </r>
       <r>   -3.6856    1.0000 </r>
       <r>   -3.6635    1.0000 </r>
       <r>   -3.6280    1.0000 </r>
       <r>   -3.5856    1.0000 </r>
       <r>   -3.5654    1.0000 </r>
       <r>   -3.5548    1.0000 </r>
       <r>   -3.5252    1.0000 </r>
       <r>   -3.5246    1.0000 </r>
       <r>   -3.4540    1.0000 </r>
       <r>   -3.4483    1.0000 </r>
       <r>   -3.4008    1.0000 </r>
       <r>   -3.3645    1.0000 </r>
       <r>   -3.3618    1.0000 </r>
       <r>   -3.3310    1.0000 </r>
       <r>   -3.2731    1.0000 </r>
       <r>   -3.2598    1.0000 </r>
       <r>   -3.2558    1.0000 </r>
       <r>   -3.1857    1.0000 </r>
       <r>   -3.1802    1.0000 </r>
       <r>   -3.1659    1.0000 </r>
       <r>   -3.1255    1.0000 </r>
       <r>   -3.0927    1.0000 </r>
       <r>   -3.0796    1.0000 </r>
       <r>   -3.0721    1.0000 </r>
       <r>   -3.0356    1.0000 </r>
       <r>   -2.9909    1.0000 </r>
       <r>   -2.9661    1.0000 </r>
       <r>   -2.9514    1.0000 </r>
       <r>   -2.9420    1.0000 </r>
       <r>   -2.9410    1.0000 </r>
       <r>   -2.9261    1.0000 </r>
       <r>   -2.8931    1.0000 </r>
       <r>   -2.8555    1.0000 </r>
       <r>   -2.8247    1.0000 </r>
       <r>   -2.8047    1.0000 </r>
       <r>   -2.7928    1.0000 </r>
       <r>   -2.7668    1.0000 </r>
       <r>   -2.7647    1.0000 </r>
       <r>   -2.7357    1.0000 </r>
       <r>   -2.7188    1.0000 </r>
       <r>   -2.7097    1.0000 </r>
       <r>   -2.6938    1.0000 </r>
       <r>   -2.6044    1.0000 </r>
       <r>   -2.5556    1.0000 </r>
       <r>   -2.5360    1.0000 </r>
       <r>   -2.5158    1.0000 </r>
       <r>   -2.5018    1.0000 </r>
       <r>   -2.4984    1.0000 </r>
       <r>   -2.4944    1.0000 </r>
       <r>   -2.4897    1.0000 </r>
       <r>   -2.4387    1.0000 </r>
       <r>   -2.4347    1.0000 </r>
       <r>   -2.4197    1.0000 </r>
       <r>   -2.4082    1.0000 </r>
       <r>   -2.1936    1.0000 </r>
       <r>   -2.0765    1.0000 </r>
       <r>   -2.0706    1.0000 </r>
       <r>   -2.0268    1.0000 </r>
       <r>   -1.9880    1.0000 </r>
       <r>   -1.9860    1.0000 </r>
       <r>   -1.9802    1.0000 </r>
       <r>   -1.9433    1.0000 </r>
       <r>   -1.9385    1.0000 </r>
       <r>   -1.8522    1.0000 </r>
       <r>   -1.7947    1.0000 </r>
       <r>   -1.7821    1.0000 </r>
       <r>   -1.7385    1.0000 </r>
       <r>   -1.6603    1.0000 </r>
       <r>   -1.6463    1.0000 </r>
       <r>   -1.6043    1.0000 </r>
       <r>   -1.5877    1.0000 </r>
       <r>   -1.5765    1.0000 </r>
       <r>   -1.5406    1.0000 </r>
       <r>   -1.5282    1.0000 </r>
       <r>   -1.5161    1.0000 </r>
       <r>   -1.4670    1.0000 </r>
       <r>   -1.4357    1.0000 </r>
       <r>   -1.3948    1.0000 </r>
       <r>   -1.3831    1.0000 </r>
       <r>   -1.3779    1.0000 </r>
       <r>   -1.3366    1.0000 </r>
       <r>   -1.1890    1.0000 </r>
       <r>   -1.1792    1.0000 </r>
       <r>   -1.1631    1.0000 </r>
       <r>   -1.1413    1.0000 </r>
       <r>   -1.1385    1.0000 </r>
       <r>   -1.1148    1.0000 </r>
       <r>   -1.0763    1.0000 </r>
       <r>   -1.0277    1.0000 </r>
       <r>   -0.9988    1.0000 </r>
       <r>   -0.9842    1.0000 </r>
       <r>   -0.9804    1.0000 </r>
       <r>   -0.9239    1.0000 </r>
       <r>   -0.9138    1.0000 </r>
       <r>   -0.9004    1.0000 </r>
       <r>   -0.8936    1.0000 </r>
       <r>   -0.8195    1.0000 </r>
       <r>   -0.7855    1.0000 </r>
       <r>   -0.7777    1.0000 </r>
       <r>   -0.7544    1.0000 </r>
       <r>   -0.7238    1.0000 </r>
       <r>   -0.6596    1.0000 </r>
       <r>   -0.6293    1.0000 </r>
       <r>   -0.6099    1.0000 </r>
       <r>   -0.6002    1.0000 </r>
       <r>   -0.5813    1.0000 </r>
       <r>   -0.5750    1.0000 </r>
       <r>   -0.5405    1.0000 </r>
       <r>   -0.4794    1.0000 </r>
       <r>   -0.4701    1.0000 </r>
       <r>   -0.4329    1.0000 </r>
       <r>   -0.3995    1.0000 </r>
       <r>   -0.3889    1.0000 </r>
       <r>   -0.3802    1.0001 </r>
       <r>   -0.3496    1.0003 </r>
       <r>   -0.3456    1.0004 </r>
       <r>   -0.3440    1.0004 </r>
       <r>   -0.3348    1.0006 </r>
       <r>   -0.3276    1.0009 </r>
       <r>   -0.2703    1.0082 </r>
       <r>   -0.2642    1.0100 </r>
       <r>   -0.1425    0.9643 </r>
       <r>   -0.1098    0.8015 </r>
       <r>   -0.0967    0.7084 </r>
       <r>   -0.0810    0.5828 </r>
       <r>   -0.0658    0.4550 </r>
       <r>   -0.0630    0.4313 </r>
       <r>   -0.0292    0.1772 </r>
       <r>   -0.0113    0.0804 </r>
       <r>    0.0012    0.0322 </r>
       <r>    0.0081    0.0119 </r>
       <r>    0.0956   -0.0200 </r>
       <r>    0.1101   -0.0139 </r>
       <r>    0.1369   -0.0061 </r>
       <r>    0.1586   -0.0027 </r>
       <r>    0.2994   -0.0000 </r>
       <r>    0.3026   -0.0000 </r>
       <r>    0.3137   -0.0000 </r>
       <r>    0.3569   -0.0000 </r>
       <r>    0.6890   -0.0000 </r>
       <r>    0.7591   -0.0000 </r>
       <r>    1.2097   -0.0000 </r>
       <r>    1.4759   -0.0000 </r>
       <r>    1.4864   -0.0000 </r>
       <r>    1.6063   -0.0000 </r>
       <r>    2.3674   -0.0000 </r>
       <r>    2.7351    0.0000 </r>
       <r>    2.9199    0.0000 </r>
       <r>    3.4949    0.0000 </r>
       <r>    3.6561    0.0000 </r>
       <r>    3.6642    0.0000 </r>
       <r>    3.7545    0.0000 </r>
       <r>    3.9968    0.0000 </r>
       <r>    4.3668    0.0000 </r>
       <r>    4.6207    0.0000 </r>
       <r>    4.7273    0.0000 </r>
       <r>    4.9691    0.0000 </r>
       <r>    4.9914    0.0000 </r>
       <r>    5.0037    0.0000 </r>
       <r>    5.1282    0.0000 </r>
       <r>    5.2399    0.0000 </r>
       <r>    5.4731    0.0000 </r>
       <r>    5.6534    0.0000 </r>
       <r>    5.7277    0.0000 </r>
       <r>    5.8914    0.0000 </r>
       <r>    5.9149    0.0000 </r>
       <r>    5.9782    0.0000 </r>
       <r>    6.1716    0.0000 </r>
       <r>    6.2627    0.0000 </r>
       <r>    6.3301    0.0000 </r>
       <r>    6.3550    0.0000 </r>
       <r>    6.5282    0.0000 </r>
       <r>    6.7146    0.0000 </r>
       <r>    6.7461    0.0000 </r>
       <r>    6.7934    0.0000 </r>
       <r>    6.8932    0.0000 </r>
       <r>    6.9246    0.0000 </r>
       <r>    7.0778    0.0000 </r>
       <r>    7.2891    0.0000 </r>
       <r>    7.4961    0.0000 </r>
       <r>    7.5319    0.0000 </r>
       <r>    7.6316    0.0000 </r>
      </set>
      <set comment="kpoint 5">
       <r>   -8.3200    1.0000 </r>
       <r>   -7.6828    1.0000 </r>
       <r>   -7.1471    1.0000 </r>
       <r>   -6.6618    1.0000 </r>
       <r>   -6.5922    1.0000 </r>
       <r>   -6.5677    1.0000 </r>
       <r>   -6.3085    1.0000 </r>
       <r>   -6.1897    1.0000 </r>
       <r>   -6.0948    1.0000 </r>
       <r>   -5.9695    1.0000 </r>
       <r>   -5.8891    1.0000 </r>
       <r>   -5.8759    1.0000 </r>
       <r>   -5.8084    1.0000 </r>
       <r>   -5.7149    1.0000 </r>
       <r>   -5.6706    1.0000 </r>
       <r>   -5.6641    1.0000 </r>
       <r>   -5.6528    1.0000 </r>
       <r>   -5.6446    1.0000 </r>
       <r>   -5.5192    1.0000 </r>
       <r>   -5.4896    1.0000 </r>
       <r>   -5.4785    1.0000 </r>
       <r>   -5.4488    1.0000 </r>
       <r>   -5.4344    1.0000 </r>
       <r>   -5.4169    1.0000 </r>
       <r>   -5.3559    1.0000 </r>
       <r>   -5.3175    1.0000 </r>
       <r>   -5.3124    1.0000 </r>
       <r>   -5.1691    1.0000 </r>
       <r>   -5.0587    1.0000 </r>
       <r>   -5.0524    1.0000 </r>
       <r>   -5.0442    1.0000 </r>
       <r>   -5.0321    1.0000 </r>
       <r>   -5.0263    1.0000 </r>
       <r>   -4.9464    1.0000 </r>
       <r>   -4.7985    1.0000 </r>
       <r>   -4.7920    1.0000 </r>
       <r>   -4.7858    1.0000 </r>
       <r>   -4.7553    1.0000 </r>
       <r>   -4.7387    1.0000 </r>
       <r>   -4.6720    1.0000 </r>
       <r>   -4.5510    1.0000 </r>
       <r>   -4.4775    1.0000 </r>
       <r>   -4.4676    1.0000 </r>
       <r>   -4.4562    1.0000 </r>
       <r>   -4.4416    1.0000 </r>
       <r>   -4.3965    1.0000 </r>
       <r>   -4.3473    1.0000 </r>
       <r>   -4.3229    1.0000 </r>
       <r>   -4.3133    1.0000 </r>
       <r>   -4.2938    1.0000 </r>
       <r>   -4.2547    1.0000 </r>
       <r>   -4.1620    1.0000 </r>
       <r>   -4.0991    1.0000 </r>
       <r>   -4.0874    1.0000 </r>
       <r>   -4.0752    1.0000 </r>
       <r>   -4.0213    1.0000 </r>
       <r>   -3.9416    1.0000 </r>
       <r>   -3.9135    1.0000 </r>
       <r>   -3.8783    1.0000 </r>
       <r>   -3.8666    1.0000 </r>
       <r>   -3.8358    1.0000 </r>
       <r>   -3.7181    1.0000 </r>
       <r>   -3.6704    1.0000 </r>
       <r>   -3.6530    1.0000 </r>
       <r>   -3.6490    1.0000 </r>
       <r>   -3.6324    1.0000 </r>
       <r>   -3.5467    1.0000 </r>
       <r>   -3.5365    1.0000 </r>
       <r>   -3.5152    1.0000 </r>
       <r>   -3.4333    1.0000 </r>
       <r>   -3.4040    1.0000 </r>
       <r>   -3.3958    1.0000 </r>
       <r>   -3.3515    1.0000 </r>
       <r>   -3.2977    1.0000 </r>
       <r>   -3.2961    1.0000 </r>
       <r>   -3.2610    1.0000 </r>
       <r>   -3.2527    1.0000 </r>
       <r>   -3.2172    1.0000 </r>
       <r>   -3.2068    1.0000 </r>
       <r>   -3.1686    1.0000 </r>
       <r>   -3.1573    1.0000 </r>
       <r>   -3.1470    1.0000 </r>
       <r>   -3.1348    1.0000 </r>
       <r>   -3.1244    1.0000 </r>
       <r>   -3.1060    1.0000 </r>
       <r>   -3.0991    1.0000 </r>
       <r>   -3.0092    1.0000 </r>
       <r>   -2.9901    1.0000 </r>
       <r>   -2.9835    1.0000 </r>
       <r>   -2.9723    1.0000 </r>
       <r>   -2.9595    1.0000 </r>
       <r>   -2.9571    1.0000 </r>
       <r>   -2.9375    1.0000 </r>
       <r>   -2.8751    1.0000 </r>
       <r>   -2.8087    1.0000 </r>
       <r>   -2.7856    1.0000 </r>
       <r>   -2.7470    1.0000 </r>
       <r>   -2.7356    1.0000 </r>
       <r>   -2.7109    1.0000 </r>
       <r>   -2.6890    1.0000 </r>
       <r>   -2.6722    1.0000 </r>
       <r>   -2.6513    1.0000 </r>
       <r>   -2.5799    1.0000 </r>
       <r>   -2.5334    1.0000 </r>
       <r>   -2.4997    1.0000 </r>
       <r>   -2.4922    1.0000 </r>
       <r>   -2.4499    1.0000 </r>
       <r>   -2.4282    1.0000 </r>
       <r>   -2.4110    1.0000 </r>
       <r>   -2.2817    1.0000 </r>
       <r>   -2.2538    1.0000 </r>
       <r>   -2.2126    1.0000 </r>
       <r>   -2.1704    1.0000 </r>
       <r>   -2.1298    1.0000 </r>
       <r>   -2.0976    1.0000 </r>
       <r>   -2.0669    1.0000 </r>
       <r>   -2.0582    1.0000 </r>
       <r>   -2.0521    1.0000 </r>
       <r>   -2.0417    1.0000 </r>
       <r>   -2.0244    1.0000 </r>
       <r>   -1.9840    1.0000 </r>
       <r>   -1.9488    1.0000 </r>
       <r>   -1.9368    1.0000 </r>
       <r>   -1.9213    1.0000 </r>
       <r>   -1.9153    1.0000 </r>
       <r>   -1.8907    1.0000 </r>
       <r>   -1.8750    1.0000 </r>
       <r>   -1.8492    1.0000 </r>
       <r>   -1.8199    1.0000 </r>
       <r>   -1.7355    1.0000 </r>
       <r>   -1.7018    1.0000 </r>
       <r>   -1.6963    1.0000 </r>
       <r>   -1.6323    1.0000 </r>
       <r>   -1.6100    1.0000 </r>
       <r>   -1.5058    1.0000 </r>
       <r>   -1.4982    1.0000 </r>
       <r>   -1.4157    1.0000 </r>
       <r>   -1.3912    1.0000 </r>
       <r>   -1.3595    1.0000 </r>
       <r>   -1.3004    1.0000 </r>
       <r>   -1.2386    1.0000 </r>
       <r>   -1.2187    1.0000 </r>
       <r>   -1.1810    1.0000 </r>
       <r>   -1.1521    1.0000 </r>
       <r>   -1.1318    1.0000 </r>
       <r>   -1.1194    1.0000 </r>
       <r>   -1.0960    1.0000 </r>
       <r>   -1.0655    1.0000 </r>
       <r>   -1.0320    1.0000 </r>
       <r>   -1.0185    1.0000 </r>
       <r>   -0.9847    1.0000 </r>
       <r>   -0.9381    1.0000 </r>
       <r>   -0.9044    1.0000 </r>
       <r>   -0.8725    1.0000 </r>
       <r>   -0.8532    1.0000 </r>
       <r>   -0.8463    1.0000 </r>
       <r>   -0.8320    1.0000 </r>
       <r>   -0.7646    1.0000 </r>
       <r>   -0.7307    1.0000 </r>
       <r>   -0.6557    1.0000 </r>
       <r>   -0.6015    1.0000 </r>
       <r>   -0.5843    1.0000 </r>
       <r>   -0.5641    1.0000 </r>
       <r>   -0.5406    1.0000 </r>
       <r>   -0.5029    1.0000 </r>
       <r>   -0.4577    1.0000 </r>
       <r>   -0.4412    1.0000 </r>
       <r>   -0.3855    1.0000 </r>
       <r>   -0.3461    1.0004 </r>
       <r>   -0.3407    1.0005 </r>
       <r>   -0.3328    1.0007 </r>
       <r>   -0.2827    1.0054 </r>
       <r>   -0.2565    1.0125 </r>
       <r>   -0.2464    1.0163 </r>
       <r>   -0.2228    1.0269 </r>
       <r>   -0.1300    0.9147 </r>
       <r>   -0.1080    0.7895 </r>
[...]
       <r>    6.9460    0.0000 </r>
       <r>    6.9579    0.0000 </r>
       <r>    7.0554    0.0000 </r>
       <r>    7.2213    0.0000 </r>
       <r>    7.3207    0.0000 </r>
      </set>
     </set>
    </set>
   </array>
  </eigenvalues>
  <separator name="orbital magnetization" >
   <v name="MAGDIPOLOUT">      0.00000000      0.00000000      0.00000000</v>
  </separator>
  <dos>
   <i name="efermi">     -0.07116972 </i>
   <total>
    <array>
     <dimension dim="1">gridpoints</dimension>
     <dimension dim="2">spin</dimension>
     <field>energy</field>
     <field>total</field>
     <field>integrated</field>
     <set>
      <set comment="spin 1">
       <r>    -9.8939     0.0000     0.0000 </r>
       <r>    -9.8319     0.0000     0.0000 </r>
       <r>    -9.7699     0.0000     0.0000 </r>
       <r>    -9.7080    -0.0000    -0.0000 </r>
       <r>    -9.6460    -0.0000    -0.0000 </r>
       <r>    -9.5841    -0.0000    -0.0000 </r>
       <r>    -9.5221    -0.0000    -0.0000 </r>
       <r>    -9.4602    -0.0000    -0.0000 </r>
       <r>    -9.3982    -0.0000    -0.0000 </r>
       <r>    -9.3363    -0.0000    -0.0000 </r>
       <r>    -9.2743    -0.0000    -0.0000 </r>
       <r>    -9.2124    -0.0000    -0.0000 </r>
       <r>    -9.1504    -0.0011    -0.0001 </r>
       <r>    -9.0885    -0.0112    -0.0008 </r>
       <r>    -9.0265    -0.0337    -0.0029 </r>
       <r>    -8.9646     0.0626     0.0010 </r>
       <r>    -8.9026     0.3442     0.0224 </r>
       <r>    -8.8407     0.6357     0.0617 </r>
       <r>    -8.7787     2.1682     0.1961 </r>
       <r>    -8.7168     3.8212     0.4328 </r>
       <r>    -8.6548     2.0866     0.5621 </r>
       <r>    -8.5929    -0.0899     0.5565 </r>
       <r>    -8.5309     0.2779     0.5737 </r>
       <r>    -8.4690     2.7006     0.7410 </r>
       <r>    -8.4070     3.7894     0.9758 </r>
       <r>    -8.3451     3.5450     1.1954 </r>
       <r>    -8.2831     3.7049     1.4249 </r>
       <r>    -8.2212     1.7281     1.5320 </r>
       <r>    -8.1592    -0.0439     1.5293 </r>
       <r>    -8.0972    -0.3586     1.5070 </r>
       <r>    -8.0353    -0.2978     1.4886 </r>
       <r>    -7.9733     2.2306     1.6268 </r>
       <r>    -7.9114     6.9572     2.0578 </r>
       <r>    -7.8494     5.9131     2.4241 </r>
       <r>    -7.7875     1.1322     2.4943 </r>
       <r>    -7.7255     1.2563     2.5721 </r>
       <r>    -7.6636     4.0051     2.8202 </r>
       <r>    -7.6016     3.7139     3.0503 </r>
       <r>    -7.5397     3.4259     3.2625 </r>
       <r>    -7.4777     3.1124     3.4554 </r>
       <r>    -7.4158     0.7126     3.4995 </r>
       <r>    -7.3538     1.8481     3.6140 </r>
       <r>    -7.2919     7.3348     4.0684 </r>
       <r>    -7.2299    10.9857     4.7490 </r>
       <r>    -7.1680    10.8813     5.4231 </r>
       <r>    -7.1060     6.6097     5.8326 </r>
       <r>    -7.0441     2.2565     5.9724 </r>
       <r>    -6.9821     2.8968     6.1519 </r>
       <r>    -6.9202     4.7745     6.4476 </r>
       <r>    -6.8582     4.3324     6.7160 </r>
       <r>    -6.7963     2.2053     6.8527 </r>
       <r>    -6.7343     3.3380     7.0595 </r>
       <r>    -6.6724     9.9728     7.6773 </r>
       <r>    -6.6104    15.0556     8.6100 </r>
       <r>    -6.5484    18.2078     9.7380 </r>
       <r>    -6.4865    16.1822    10.7406 </r>
       <r>    -6.4245     8.3720    11.2592 </r>
       <r>    -6.3626     6.8380    11.6828 </r>
       <r>    -6.3006    12.6372    12.4657 </r>
       <r>    -6.2387    16.8889    13.5120 </r>
       <r>    -6.1767    22.1356    14.8834 </r>
       <r>    -6.1148    32.0551    16.8693 </r>
       <r>    -6.0528    35.4854    19.0677 </r>
       <r>    -5.9909    32.1891    21.0618 </r>
       <r>    -5.9289    31.6819    23.0246 </r>
       <r>    -5.8670    33.6185    25.1073 </r>
       <r>    -5.8050    31.6493    27.0681 </r>
       <r>    -5.7431    26.4497    28.7067 </r>
       <r>    -5.6811    30.4352    30.5922 </r>
       <r>    -5.6192    38.9099    33.0027 </r>
       <r>    -5.5572    42.4114    35.6302 </r>
       <r>    -5.4953    45.0711    38.4224 </r>
       <r>    -5.4333    55.3712    41.8528 </r>
       <r>    -5.3714    63.7136    45.8000 </r>
       <r>    -5.3094    61.0538    49.5824 </r>
       <r>    -5.2475    50.7730    52.7279 </r>
       <r>    -5.1855    44.3639    55.4763 </r>
       <r>    -5.1236    44.0860    58.2075 </r>
       <r>    -5.0616    57.9928    61.8003 </r>
       <r>    -4.9996    73.0736    66.3273 </r>
       <r>    -4.9377    51.7314    69.5322 </r>
       <r>    -4.8757    24.3746    71.0422 </r>
       <r>    -4.8138    30.4060    72.9260 </r>
       <r>    -4.7518    45.3702    75.7367 </r>
       <r>    -4.6899    34.5198    77.8753 </r>
       <r>    -4.6279    20.6975    79.1575 </r>
       <r>    -4.5660    27.3572    80.8524 </r>
       <r>    -4.5040    46.7643    83.7495 </r>
       <r>    -4.4421    61.3474    87.5501 </r>
       <r>    -4.3801    59.1697    91.2158 </r>
       <r>    -4.3182    48.3416    94.2106 </r>
       <r>    -4.2562    41.8759    96.8049 </r>
       <r>    -4.1943    42.1909    99.4187 </r>
       <r>    -4.1323    54.3650   102.7868 </r>
       <r>    -4.0704    62.7521   106.6744 </r>
       <r>    -4.0084    53.8028   110.0076 </r>
       <r>    -3.9465    45.1503   112.8047 </r>
       <r>    -3.8845    42.8741   115.4608 </r>
       <r>    -3.8226    39.0225   117.8784 </r>
       <r>    -3.7606    35.6203   120.0851 </r>
       <r>    -3.6987    49.1506   123.1301 </r>
       <r>    -3.6367    63.1145   127.0402 </r>
       <r>    -3.5748    58.9395   130.6916 </r>
       <r>    -3.5128    54.5205   134.0692 </r>
       <r>    -3.4509    60.8142   137.8368 </r>
       <r>    -3.3889    72.9771   142.3579 </r>
       <r>    -3.3269    75.7940   147.0534 </r>
       <r>    -3.2650    69.5953   151.3650 </r>
       <r>    -3.2030    67.6207   155.5542 </r>
       <r>    -3.1411    81.1422   160.5812 </r>
       <r>    -3.0791    89.7281   166.1400 </r>
       <r>    -3.0172    80.0458   171.0990 </r>
       <r>    -2.9552    77.5526   175.9035 </r>
       <r>    -2.8933    76.2096   180.6248 </r>
       <r>    -2.8313    76.0735   185.3377 </r>
       <r>    -2.7694    93.8152   191.1498 </r>
       <r>    -2.7074   106.4693   197.7458 </r>
       <r>    -2.6455    95.6879   203.6738 </r>
       <r>    -2.5835    69.2605   207.9646 </r>
       <r>    -2.5216    60.5622   211.7166 </r>
       <r>    -2.4596    66.0343   215.8075 </r>
       <r>    -2.3977    56.0433   219.2795 </r>
       <r>    -2.3357    35.6094   221.4856 </r>
       <r>    -2.2738    24.9748   223.0328 </r>
       <r>    -2.2118    28.2137   224.7807 </r>
       <r>    -2.1499    36.7551   227.0578 </r>
       <r>    -2.0879    51.7082   230.2612 </r>
       <r>    -2.0260    75.2480   234.9230 </r>
       <r>    -1.9640    91.9600   240.6201 </r>
       <r>    -1.9021    88.1006   246.0781 </r>
       <r>    -1.8401    69.8711   250.4067 </r>
       <r>    -1.7781    50.2784   253.5216 </r>
       <r>    -1.7162    43.7838   256.2341 </r>
       <r>    -1.6542    45.3769   259.0452 </r>
       <r>    -1.5923    50.8396   262.1949 </r>
       <r>    -1.5303    57.5238   265.7586 </r>
       <r>    -1.4684    56.3972   269.2525 </r>
       <r>    -1.4064    56.7753   272.7698 </r>
       <r>    -1.3445    61.1038   276.5553 </r>
       <r>    -1.2825    55.7354   280.0082 </r>
       <r>    -1.2206    49.8375   283.0958 </r>
       <r>    -1.1586    63.7449   287.0449 </r>
       <r>    -1.0967    81.6691   292.1045 </r>
       <r>    -1.0347    86.6540   297.4728 </r>
       <r>    -0.9728    78.7766   302.3532 </r>
       <r>    -0.9108    61.3005   306.1509 </r>
       <r>    -0.8489    55.9402   309.6165 </r>
       <r>    -0.7869    55.0965   313.0298 </r>
       <r>    -0.7250    45.0002   315.8177 </r>
       <r>    -0.6630    44.1470   318.5527 </r>
       <r>    -0.6011    59.6207   322.2463 </r>
       <r>    -0.5391    64.4376   326.2383 </r>
       <r>    -0.4772    59.1766   329.9044 </r>
       <r>    -0.4152    62.8374   333.7973 </r>
       <r>    -0.3533    78.2084   338.6425 </r>
       <r>    -0.2913    94.2018   344.4785 </r>
       <r>    -0.2293    84.0797   349.6874 </r>
       <r>    -0.1674    58.4972   353.3114 </r>
       <r>    -0.1054    70.5326   357.6810 </r>
       <r>    -0.0435    98.1707   363.7629 </r>
       <r>     0.0185    74.1752   368.3582 </r>
       <r>     0.0804    35.8319   370.5781 </r>
       <r>     0.1424    43.4742   373.2714 </r>
       <r>     0.2043    58.6180   376.9029 </r>
       <r>     0.2663    46.8477   379.8052 </r>
       <r>     0.3282    39.2787   382.2386 </r>
       <r>     0.3902    32.1608   384.2310 </r>
       <r>     0.4521    18.5315   385.3790 </r>
       <r>     0.5141     7.2504   385.8282 </r>
       <r>     0.5760     2.2679   385.9687 </r>
       <r>     0.6380     4.1246   386.2242 </r>
       <r>     0.6999     8.9894   386.7812 </r>
       <r>     0.7619    14.3980   387.6731 </r>
       <r>     0.8238    13.4032   388.5035 </r>
       <r>     0.8858     8.3039   389.0179 </r>
       <r>     0.9477     9.9925   389.6370 </r>
       <r>     1.0097    11.4466   390.3461 </r>
       <r>     1.0716     5.2073   390.6687 </r>
       <r>     1.1336     3.3129   390.8740 </r>
       <r>     1.1955     9.1254   391.4393 </r>
       <r>     1.2575    12.9552   392.2419 </r>
       <r>     1.3194    12.1001   392.9915 </r>
       <r>     1.3814    10.4226   393.6372 </r>
       <r>     1.4434    10.6022   394.2941 </r>
       <r>     1.5053    21.8658   395.6487 </r>
       <r>     1.5673    27.9943   397.3830 </r>
       <r>     1.6292    20.7206   398.6667 </r>
       <r>     1.6912    16.6789   399.7000 </r>
       <r>     1.7531    12.9770   400.5039 </r>
       <r>     1.8151     3.9246   400.7471 </r>
       <r>     1.8770     1.5738   400.8446 </r>
       <r>     1.9390     6.5266   401.2489 </r>
       <r>     2.0009     7.5895   401.7191 </r>
       <r>     2.0629     4.6979   402.0101 </r>
       <r>     2.1248     3.3880   402.2200 </r>
       <r>     2.1868     6.6085   402.6294 </r>
       <r>     2.2487    10.2861   403.2667 </r>
       <r>     2.3107    11.1349   403.9565 </r>
       <r>     2.3726    14.0328   404.8258 </r>
       <r>     2.4346    19.6220   406.0415 </r>
       <r>     2.4965    21.9989   407.4043 </r>
       <r>     2.5585    13.6772   408.2517 </r>
       <r>     2.6204     6.5625   408.6582 </r>
       <r>     2.6824     7.0014   409.0920 </r>
       <r>     2.7443    11.0859   409.7788 </r>
       <r>     2.8063    17.6371   410.8714 </r>
       <r>     2.8682    17.5083   411.9561 </r>
       <r>     2.9302    12.5877   412.7359 </r>
       <r>     2.9922     8.6141   413.2696 </r>
       <r>     3.0541    10.6353   413.9285 </r>
       <r>     3.1161    15.1147   414.8649 </r>
       <r>     3.1780    12.4228   415.6345 </r>
       <r>     3.2400     9.5920   416.2287 </r>
       <r>     3.3019     8.2108   416.7374 </r>
       <r>     3.3639     4.8394   417.0372 </r>
       <r>     3.4258     4.1761   417.2959 </r>
       <r>     3.4878     7.0222   417.7310 </r>
       <r>     3.5497     9.2005   418.3010 </r>
       <r>     3.6117    13.1993   419.1187 </r>
       <r>     3.6736    20.5483   420.3917 </r>
       <r>     3.7356    22.3706   421.7776 </r>
       <r>     3.7975    14.9659   422.7047 </r>
       <r>     3.8595     6.5833   423.1126 </r>
       <r>     3.9214     3.6122   423.3364 </r>
       <r>     3.9834     4.6542   423.6247 </r>
       <r>     4.0453     7.0684   424.0626 </r>
       <r>     4.1073     8.8056   424.6081 </r>
       <r>     4.1692     7.2124   425.0550 </r>
       <r>     4.2312     4.0662   425.3069 </r>
       <r>     4.2931     4.0171   425.5557 </r>
       <r>     4.3551    11.3724   426.2603 </r>
       <r>     4.4170    23.6895   427.7279 </r>
       <r>     4.4790    23.6020   429.1901 </r>
       <r>     4.5410    12.5211   429.9658 </r>
       <r>     4.6029     7.9840   430.4604 </r>
       <r>     4.6649     9.6865   431.0605 </r>
       <r>     4.7268    12.3434   431.8252 </r>
       <r>     4.7888    12.0738   432.5732 </r>
       <r>     4.8507     7.9998   433.0688 </r>
       <r>     4.9127     5.9610   433.4381 </r>
       <r>     4.9746    10.0414   434.0602 </r>
       <r>     5.0366    13.6905   434.9084 </r>
       <r>     5.0985     8.9162   435.4607 </r>
       <r>     5.1605     7.0914   435.9001 </r>
       <r>     5.2224    12.9824   436.7043 </r>
       <r>     5.2844    16.2704   437.7123 </r>
       <r>     5.3463    11.8918   438.4490 </r>
       <r>     5.4083     6.5463   438.8546 </r>
       <r>     5.4702    11.0379   439.5384 </r>
       <r>     5.5322    20.1492   440.7867 </r>
       <r>     5.5941    22.5690   442.1849 </r>
       <r>     5.6561    21.8987   443.5416 </r>
       <r>     5.7180    24.2577   445.0444 </r>
       <r>     5.7800    23.4477   446.4970 </r>
       <r>     5.8419    16.6392   447.5278 </r>
       <r>     5.9039    14.0260   448.3968 </r>
       <r>     5.9658    23.1862   449.8332 </r>
       <r>     6.0278    33.8960   451.9331 </r>
       <r>     6.0897    28.5576   453.7023 </r>
       <r>     6.1517    13.5007   454.5387 </r>
       <r>     6.2137    11.5627   455.2551 </r>
       <r>     6.2756    21.6801   456.5982 </r>
       <r>     6.3376    30.5802   458.4927 </r>
       <r>     6.3995    26.5700   460.1387 </r>
       <r>     6.4615    15.3334   461.0887 </r>
       <r>     6.5234    13.9958   461.9557 </r>
       <r>     6.5854    22.8699   463.3726 </r>
       <r>     6.6473    28.9223   465.1644 </r>
       <r>     6.7093    29.2038   466.9736 </r>
       <r>     6.7712    26.1482   468.5935 </r>
       <r>     6.8332    17.3712   469.6697 </r>
       <r>     6.8951    13.1795   470.4862 </r>
       <r>     6.9571    17.2892   471.5573 </r>
       <r>     7.0190    17.0182   472.6116 </r>
       <r>     7.0810    15.2289   473.5551 </r>
       <r>     7.1429    19.5538   474.7665 </r>
       <r>     7.2049    24.2175   476.2668 </r>
       <r>     7.2668    20.9878   477.5670 </r>
       <r>     7.3288    11.4592   478.2770 </r>
       <r>     7.3907     3.5449   478.4966 </r>
       <r>     7.4527     1.8431   478.6108 </r>
       <r>     7.5146     4.7108   478.9026 </r>
       <r>     7.5766     6.9281   479.3318 </r>
       <r>     7.6385     6.8078   479.7536 </r>
       <r>     7.7005     3.6183   479.9777 </r>
       <r>     7.7625     0.6247   480.0164 </r>
       <r>     7.8244    -0.1588   480.0066 </r>
       <r>     7.8864    -0.0893   480.0011 </r>
       <r>     7.9483    -0.0157   480.0001 </r>
       <r>     8.0103    -0.0012   480.0000 </r>
       <r>     8.0722    -0.0000   480.0000 </r>
       <r>     8.1342    -0.0000   480.0000 </r>
       <r>     8.1961    -0.0000   480.0000 </r>
       <r>     8.2581    -0.0000   480.0000 </r>
       <r>     8.3200    -0.0000   480.0000 </r>
       <r>     8.3820     0.0000   480.0000 </r>
       <r>     8.4439     0.0000   480.0000 </r>
       <r>     8.5059     0.0000   480.0000 </r>
       <r>     8.5678     0.0000   480.0000 </r>
       <r>     8.6298     0.0000   480.0000 </r>
       <r>     8.6917     0.0000   480.0000 </r>
      </set>
     </set>
    </array>
   </total>
  </dos>
 </calculation>
 <structure name="finalpos" >
  <crystal>
   <varray name="basis" >
    <v>       8.46831000       0.00000000       0.00000000 </v>
    <v>       4.23415500       7.33377159       0.00000000 </v>
    <v>       0.00000000       0.00000000      24.96566199 </v>
   </varray>
   <i name="volume">   1550.48373159 </i>
   <varray name="rec_basis" >
    <v>       0.11808732      -0.06817774       0.00000000 </v>
    <v>       0.00000000       0.13635549       0.00000000 </v>
    <v>       0.00000000       0.00000000       0.04005502 </v>
   </varray>
  </crystal>
  <varray name="positions" >
   <v>       0.00000000       0.00000000       0.34046764 </v>
   <v>       0.33400137       0.00000000       0.34046764 </v>
   <v>       0.66800274       0.00000000       0.34046764 </v>
   <v>       0.00000000       0.33400137       0.34046764 </v>
   <v>       0.33400137       0.33400137       0.34046764 </v>
   <v>       0.66800274       0.33400137       0.34046764 </v>
   <v>       0.00000000       0.66800274       0.34046764 </v>
   <v>       0.33400137       0.66800274       0.34046764 </v>
   <v>       0.66800274       0.66800274       0.34046764 </v>
   <v>       0.11133379       0.11133379       0.43297074 </v>
   <v>       0.44533516       0.11133379       0.43297074 </v>
   <v>       0.77933653       0.11133379       0.43297074 </v>
   <v>       0.11133379       0.44533516       0.43297074 </v>
   <v>       0.44533516       0.44533516       0.43297074 </v>
   <v>       0.77933653       0.44533516       0.43297074 </v>
   <v>       0.11133379       0.77933653       0.43297074 </v>
   <v>       0.44533516       0.77933653       0.43297074 </v>
   <v>       0.77933653       0.77933653       0.43297074 </v>
   <v>       0.89013560       0.22336783       0.52494912 </v>
   <v>       0.22336753       0.22329066       0.52487154 </v>
   <v>       0.55680483       0.22314097       0.52416389 </v>
   <v>       0.89115865       0.55476139       0.52548005 </v>
   <v>       0.22336986       0.55685977       0.52426655 </v>
   <v>       0.55649978       0.55690013       0.52422415 </v>
   <v>       0.89046271       0.89030312       0.52470726 </v>
   <v>       0.22306347       0.89074684       0.52492472 </v>
   <v>       0.55646550       0.89010281       0.52454727 </v>
   <v>       0.99982247       0.99967298       0.61860933 </v>
   <v>       0.33754704       0.99978180       0.61849421 </v>
   <v>       0.66748353       0.00212974       0.61786513 </v>
   <v>       0.99894373       0.33921547       0.61985675 </v>
   <v>       0.33600616       0.33547381       0.61748034 </v>
   <v>       0.66568880       0.33543049       0.61741244 </v>
   <v>       0.00121844       0.66987866       0.61773026 </v>
   <v>       0.33468353       0.66774325       0.61755063 </v>
   <v>       0.66611475       0.66995618       0.61765252 </v>
   <v>       0.07306714       0.19083576       0.66827797 </v>
  </varray>
  <varray name="selective"  type="logical" >
   <v type="logical" >  F  F  F </v>
   <v type="logical" >  F  F  F </v>
   <v type="logical" >  F  F  F </v>
   <v type="logical" >  F  F  F </v>
   <v type="logical" >  F  F  F </v>
   <v type="logical" >  F  F  F </v>
   <v type="logical" >  F  F  F </v>
   <v type="logical" >  F  F  F </v>
   <v type="logical" >  F  F  F </v>
   <v type="logical" >  F  F  F </v>
   <v type="logical" >  F  F  F </v>
   <v type="logical" >  F  F  F </v>
   <v type="logical" >  F  F  F </v>
   <v type="logical" >  F  F  F </v>
   <v type="logical" >  F  F  F </v>
   <v type="logical" >  F  F  F </v>
   <v type="logical" >  F  F  F </v>
   <v type="logical" >  F  F  F </v>
   <v type="logical" >  T  T  T </v>
   <v type="logical" >  T  T  T </v>
   <v type="logical" >  T  T  T </v>
   <v type="logical" >  T  T  T </v>
   <v type="logical" >  T  T  T </v>
   <v type="logical" >  T  T  T </v>
   <v type="logical" >  T  T  T </v>
   <v type="logical" >  T  T  T </v>
   <v type="logical" >  T  T  T </v>
   <v type="logical" >  T  T  T </v>
   <v type="logical" >  T  T  T </v>
   <v type="logical" >  T  T  T </v>
   <v type="logical" >  T  T  T </v>
   <v type="logical" >  T  T  T </v>
   <v type="logical" >  T  T  T </v>
   <v type="logical" >  T  T  T </v>
   <v type="logical" >  T  T  T </v>
   <v type="logical" >  T  T  T </v>
   <v type="logical" >  T  T  T </v>
  </varray>
  <nose>
   <v>      -3.00000000       0.00000000       0.00010000       0.00010000 </v>
  </nose>
 </structure>
</modeling>
