unknown system                          
           1
     8.468310    0.000000    0.000000
     4.234155    7.333772    0.000000
     0.000000    0.000000   24.965662
   Pt   H 
    36     1
Direct configuration=     1
   0.00000000  0.00000000  0.34046764
   0.33400137  0.00000000  0.34046764
   0.66800274  0.00000000  0.34046764
   0.00000000  0.33400137  0.34046764
   0.33400137  0.33400137  0.34046764
   0.66800274  0.33400137  0.34046764
   0.00000000  0.66800274  0.34046764
   0.33400137  0.66800274  0.34046764
   0.66800274  0.66800274  0.34046764
   0.11133379  0.11133379  0.43297074
   0.44533516  0.11133379  0.43297074
   0.77933653  0.11133379  0.43297074
   0.11133379  0.44533516  0.43297074
   0.44533516  0.44533516  0.43297074
   0.77933653  0.44533516  0.43297074
   0.11133379  0.77933653  0.43297074
   0.44533516  0.77933653  0.43297074
   0.77933653  0.77933653  0.43297074
   0.89013560  0.22336783  0.52494912
   0.22336753  0.22329066  0.52487154
   0.55680483  0.22314097  0.52416389
   0.89115865  0.55476139  0.52548005
   0.22336986  0.55685977  0.52426655
   0.55649978  0.55690013  0.52422415
   0.89046271  0.89030312  0.52470726
   0.22306347  0.89074684  0.52492472
   0.55646550  0.89010281  0.52454727
   0.99982247  0.99967298  0.61860933
   0.33754704  0.99978180  0.61849421
   0.66748353  0.00212974  0.61786513
   0.99894373  0.33921547  0.61985675
   0.33600616  0.33547381  0.61748034
   0.66568880  0.33543049  0.61741244
   0.00121844  0.66987866  0.61773026
   0.33468353  0.66774325  0.61755063
   0.66611475  0.66995618  0.61765252
   0.07306714  0.19083576  0.66827797
