  37  37   0   0
  0.4190497E+02  0.8468310E-09  0.8468310E-09  0.2496566E-08  0.5000000E-15
  1.000000000000000E-004
  CAR 
 unknown system                          
      8.61310640     -9.90638478  301     -0.07596648      1.00000000
     -9.906  0.0000E+00  0.0000E+00
     -9.845  0.0000E+00  0.0000E+00
     -9.783  0.0000E+00  0.0000E+00
     -9.721 -0.4374E-28 -0.2700E-29
     -9.659 -0.6458E-24 -0.3987E-25
     -9.598 -0.4419E-20 -0.2728E-21
     -9.536 -0.1400E-16 -0.8644E-18
     -9.474 -0.1984E-13 -0.1226E-14
     -9.413 -0.1329E-10 -0.8219E-12
     -9.351 -0.4072E-08 -0.2522E-09
     -9.289 -0.5661E-06 -0.3520E-07
     -9.227 -0.3519E-04 -0.2208E-05
     -9.166 -0.9490E-03 -0.6079E-04
     -9.104 -0.1029E-01 -0.6960E-03
     -9.042 -0.3355E-01 -0.2767E-02
     -8.980  0.5041E-01  0.3444E-03
     -8.919  0.3285E+00  0.2062E-01
     -8.857  0.6110E+00  0.5834E-01
     -8.795  0.2058E+01  0.1854E+00
     -8.733  0.3812E+01  0.4207E+00
     -8.672  0.2242E+01  0.5591E+00
     -8.610 -0.2514E-01  0.5576E+00
     -8.548  0.2242E+00  0.5714E+00
     -8.487  0.2619E+01  0.7331E+00
     -8.425  0.3829E+01  0.9694E+00
     -8.363  0.3615E+01  0.1193E+01
     -8.301  0.3726E+01  0.1423E+01
     -8.240  0.1760E+01  0.1531E+01
     -8.178 -0.5944E-01  0.1528E+01
     -8.116 -0.3901E+00  0.1503E+01
     -8.054  0.1220E+00  0.1511E+01
     -7.993  0.2919E+01  0.1691E+01
     -7.931  0.6267E+01  0.2078E+01
     -7.869  0.5308E+01  0.2406E+01
     -7.808  0.2827E+01  0.2580E+01
     -7.746  0.5321E+01  0.2909E+01
     -7.684  0.7164E+01  0.3351E+01
     -7.622  0.4176E+01  0.3609E+01
     -7.561  0.3119E+01  0.3801E+01
     -7.499  0.3464E+01  0.4015E+01
     -7.437  0.6049E+01  0.4389E+01
     -7.375  0.6745E+01  0.4805E+01
     -7.314  0.2312E+01  0.4948E+01
     -7.252  0.3977E+01  0.5193E+01
     -7.190  0.1090E+02  0.5866E+01
     -7.128  0.1024E+02  0.6498E+01
     -7.067  0.5219E+01  0.6821E+01
     -7.005  0.2028E+01  0.6946E+01
     -6.943  0.3033E+01  0.7133E+01
     -6.882  0.8329E+01  0.7647E+01
     -6.820  0.9004E+01  0.8203E+01
     -6.758  0.3667E+01  0.8429E+01
     -6.696  0.2164E+01  0.8563E+01
     -6.635  0.6260E+01  0.8949E+01
     -6.573  0.1348E+02  0.9781E+01
     -6.511  0.1566E+02  0.1075E+02
     -6.449  0.1243E+02  0.1152E+02
     -6.388  0.1067E+02  0.1217E+02
     -6.326  0.7979E+01  0.1267E+02
     -6.264  0.8902E+01  0.1322E+02
     -6.202  0.1823E+02  0.1434E+02
     -6.141  0.3154E+02  0.1629E+02
     -6.079  0.3690E+02  0.1857E+02
     -6.017  0.3082E+02  0.2047E+02
     -5.956  0.2907E+02  0.2226E+02
     -5.894  0.3205E+02  0.2424E+02
     -5.832  0.3623E+02  0.2648E+02
     -5.770  0.3187E+02  0.2845E+02
     -5.709  0.2569E+02  0.3003E+02
     -5.647  0.3144E+02  0.3197E+02
     -5.585  0.3951E+02  0.3441E+02
     -5.523  0.4242E+02  0.3703E+02
     -5.462  0.4959E+02  0.4009E+02
     -5.400  0.6159E+02  0.4389E+02
     -5.338  0.6306E+02  0.4779E+02
     -5.277  0.5625E+02  0.5126E+02
     -5.215  0.4895E+02  0.5428E+02
     -5.153  0.4345E+02  0.5696E+02
     -5.091  0.4714E+02  0.5987E+02
     -5.030  0.6623E+02  0.6396E+02
     -4.968  0.6460E+02  0.6795E+02
     -4.906  0.3633E+02  0.7019E+02
     -4.844  0.2392E+02  0.7167E+02
     -4.783  0.3745E+02  0.7398E+02
     -4.721  0.3976E+02  0.7644E+02
     -4.659  0.2279E+02  0.7784E+02
     -4.597  0.2230E+02  0.7922E+02
     -4.536  0.4125E+02  0.8177E+02
     -4.474  0.5878E+02  0.8539E+02
     -4.412  0.6244E+02  0.8925E+02
     -4.351  0.5517E+02  0.9265E+02
     -4.289  0.4742E+02  0.9558E+02
     -4.227  0.4461E+02  0.9833E+02
     -4.165  0.4580E+02  0.1012E+03
     -4.104  0.5491E+02  0.1046E+03
     -4.042  0.5805E+02  0.1081E+03
     -3.980  0.4845E+02  0.1111E+03
     -3.918  0.4322E+02  0.1138E+03
     -3.857  0.4003E+02  0.1163E+03
     -3.795  0.3644E+02  0.1185E+03
     -3.733  0.4066E+02  0.1210E+03
     -3.671  0.5708E+02  0.1245E+03
     -3.610  0.6431E+02  0.1285E+03
     -3.548  0.5817E+02  0.1321E+03
     -3.486  0.5653E+02  0.1356E+03
     -3.425  0.6753E+02  0.1398E+03
     -3.363  0.7732E+02  0.1445E+03
     -3.301  0.7406E+02  0.1491E+03
     -3.239  0.6794E+02  0.1533E+03
     -3.178  0.7149E+02  0.1577E+03
     -3.116  0.8598E+02  0.1630E+03
     -3.054  0.8536E+02  0.1683E+03
     -2.992  0.7565E+02  0.1730E+03
     -2.931  0.7752E+02  0.1778E+03
     -2.869  0.7669E+02  0.1825E+03
     -2.807  0.8257E+02  0.1876E+03
     -2.746  0.1004E+03  0.1938E+03
     -2.684  0.1060E+03  0.2003E+03
     -2.622  0.8598E+02  0.2056E+03
     -2.560  0.6230E+02  0.2095E+03
     -2.499  0.6316E+02  0.2134E+03
     -2.437  0.6115E+02  0.2172E+03
     -2.375  0.4473E+02  0.2199E+03
     -2.313  0.3139E+02  0.2218E+03
     -2.252  0.2438E+02  0.2234E+03
     -2.190  0.2767E+02  0.2251E+03
     -2.128  0.4252E+02  0.2277E+03
     -2.066  0.6349E+02  0.2316E+03
     -2.005  0.8631E+02  0.2369E+03
     -1.943  0.9293E+02  0.2427E+03
     -1.881  0.8173E+02  0.2477E+03
     -1.820  0.6310E+02  0.2516E+03
     -1.758  0.4536E+02  0.2544E+03
     -1.696  0.4107E+02  0.2569E+03
     -1.634  0.4711E+02  0.2599E+03
     -1.573  0.5820E+02  0.2634E+03
     -1.511  0.5931E+02  0.2671E+03
     -1.449  0.5348E+02  0.2704E+03
     -1.387  0.5828E+02  0.2740E+03
     -1.326  0.5956E+02  0.2777E+03
     -1.264  0.5130E+02  0.2809E+03
     -1.202  0.5509E+02  0.2843E+03
     -1.140  0.7342E+02  0.2888E+03
     -1.079  0.8420E+02  0.2940E+03
     -1.017  0.8554E+02  0.2993E+03
     -0.955  0.7164E+02  0.3037E+03
     -0.894  0.5723E+02  0.3072E+03
     -0.832  0.5833E+02  0.3108E+03
     -0.770  0.5268E+02  0.3141E+03
     -0.708  0.4195E+02  0.3167E+03
     -0.647  0.5041E+02  0.3198E+03
     -0.585  0.6274E+02  0.3236E+03
     -0.523  0.5955E+02  0.3273E+03
     -0.461  0.5886E+02  0.3310E+03
     -0.400  0.6782E+02  0.3351E+03
     -0.338  0.8591E+02  0.3404E+03
     -0.276  0.9537E+02  0.3463E+03
     -0.215  0.7448E+02  0.3509E+03
     -0.153  0.5592E+02  0.3544E+03
     -0.091  0.8232E+02  0.3595E+03
     -0.029  0.9825E+02  0.3655E+03
      0.032  0.6024E+02  0.3693E+03
      0.094  0.3187E+02  0.3712E+03
      0.156  0.4811E+02  0.3742E+03
      0.218  0.5803E+02  0.3778E+03
      0.279  0.4620E+02  0.3806E+03
      0.341  0.3862E+02  0.3830E+03
      0.403  0.2773E+02  0.3847E+03
      0.465  0.1389E+02  0.3856E+03
      0.526  0.5171E+01  0.3859E+03
      0.588  0.3066E+01  0.3861E+03
      0.650  0.3990E+01  0.3863E+03
      0.711  0.9796E+01  0.3869E+03
      0.773  0.1652E+02  0.3880E+03
      0.835  0.1275E+02  0.3887E+03
      0.897  0.7339E+01  0.3892E+03
      0.958  0.9860E+01  0.3898E+03
      1.020  0.9924E+01  0.3904E+03
      1.082  0.3396E+01  0.3906E+03
      1.144  0.2529E+01  0.3908E+03
      1.205  0.1020E+02  0.3914E+03
      1.267  0.1424E+02  0.3923E+03
      1.329  0.1271E+02  0.3931E+03
      1.391  0.1061E+02  0.3937E+03
      1.452  0.1325E+02  0.3945E+03
      1.514  0.2525E+02  0.3961E+03
      1.576  0.2735E+02  0.3978E+03
      1.637  0.1906E+02  0.3990E+03
      1.699  0.1559E+02  0.3999E+03
      1.761  0.1087E+02  0.4006E+03
      1.823  0.2756E+01  0.4008E+03
      1.884  0.1368E+01  0.4009E+03
      1.946  0.3927E+01  0.4011E+03
      2.008  0.6000E+01  0.4015E+03
      2.070  0.6628E+01  0.4019E+03
      2.131  0.4592E+01  0.4022E+03
      2.193  0.7724E+01  0.4026E+03
      2.255  0.1242E+02  0.4034E+03
      2.316  0.1118E+02  0.4041E+03
      2.378  0.1361E+02  0.4049E+03
      2.440  0.2093E+02  0.4062E+03
      2.502  0.2123E+02  0.4075E+03
      2.563  0.1246E+02  0.4083E+03
      2.625  0.6953E+01  0.4087E+03
      2.687  0.6269E+01  0.4091E+03
      2.749  0.9592E+01  0.4097E+03
      2.810  0.1831E+02  0.4108E+03
      2.872  0.1957E+02  0.4121E+03
      2.934  0.1332E+02  0.4129E+03
      2.996  0.8047E+01  0.4134E+03
      3.057  0.1007E+02  0.4140E+03
      3.119  0.1416E+02  0.4149E+03
      3.181  0.1210E+02  0.4156E+03
      3.242  0.1042E+02  0.4163E+03
      3.304  0.8802E+01  0.4168E+03
      3.366  0.3619E+01  0.4170E+03
      3.428 -0.1947E+00  0.4170E+03
      3.489  0.2238E+01  0.4172E+03
      3.551  0.1067E+02  0.4178E+03
      3.613  0.2066E+02  0.4191E+03
      3.675  0.2612E+02  0.4207E+03
      3.736  0.2212E+02  0.4221E+03
      3.798  0.1202E+02  0.4228E+03
      3.860  0.5026E+01  0.4231E+03
      3.922  0.3441E+01  0.4233E+03
      3.983  0.3650E+01  0.4236E+03
      4.045  0.4442E+01  0.4238E+03
      4.107  0.7101E+01  0.4243E+03
      4.168  0.8310E+01  0.4248E+03
      4.230  0.7135E+01  0.4252E+03
      4.292  0.5467E+01  0.4256E+03
      4.354  0.1101E+02  0.4262E+03
      4.415  0.2418E+02  0.4277E+03
      4.477  0.2237E+02  0.4291E+03
      4.539  0.8501E+01  0.4296E+03
      4.601  0.6111E+01  0.4300E+03
      4.662  0.1184E+02  0.4307E+03
      4.724  0.1575E+02  0.4317E+03
      4.786  0.1423E+02  0.4326E+03
      4.847  0.8693E+01  0.4331E+03
      4.909  0.5270E+01  0.4335E+03
      4.971  0.8362E+01  0.4340E+03
      5.033  0.1014E+02  0.4346E+03
      5.094  0.4734E+01  0.4349E+03
      5.156  0.4327E+01  0.4352E+03
      5.218  0.1140E+02  0.4359E+03
      5.280  0.1587E+02  0.4368E+03
      5.341  0.1239E+02  0.4376E+03
      5.403  0.5653E+01  0.4380E+03
      5.465  0.9788E+01  0.4386E+03
      5.527  0.2117E+02  0.4399E+03
      5.588  0.2589E+02  0.4415E+03
      5.650  0.2765E+02  0.4432E+03
      5.712  0.2748E+02  0.4449E+03
      5.773  0.2220E+02  0.4462E+03
      5.835  0.1819E+02  0.4474E+03
      5.897  0.1764E+02  0.4485E+03
      5.959  0.2217E+02  0.4498E+03
      6.020  0.3052E+02  0.4517E+03
      6.082  0.2677E+02  0.4534E+03
      6.144  0.1355E+02  0.4542E+03
      6.206  0.1174E+02  0.4549E+03
      6.267  0.2332E+02  0.4564E+03
      6.329  0.3421E+02  0.4585E+03
      6.391  0.2882E+02  0.4602E+03
      6.452  0.1369E+02  0.4611E+03
      6.514  0.1232E+02  0.4619E+03
      6.576  0.2466E+02  0.4634E+03
      6.638  0.3127E+02  0.4653E+03
      6.699  0.2742E+02  0.4670E+03
      6.761  0.2245E+02  0.4684E+03
      6.823  0.1652E+02  0.4694E+03
      6.885  0.1016E+02  0.4700E+03
      6.946  0.1308E+02  0.4708E+03
      7.008  0.1842E+02  0.4720E+03
      7.070  0.1728E+02  0.4730E+03
      7.132  0.2098E+02  0.4743E+03
      7.193  0.2566E+02  0.4759E+03
      7.255  0.2192E+02  0.4773E+03
      7.317  0.1342E+02  0.4781E+03
      7.378  0.5594E+01  0.4785E+03
      7.440  0.3649E+01  0.4787E+03
      7.502  0.6652E+01  0.4791E+03
      7.564  0.6980E+01  0.4795E+03
      7.625  0.5160E+01  0.4798E+03
      7.687  0.2646E+01  0.4800E+03
      7.749  0.2948E+00  0.4800E+03
      7.811 -0.2160E+00  0.4800E+03
      7.872 -0.6222E-01  0.4800E+03
      7.934 -0.5616E-02  0.4800E+03
      7.996 -0.2059E-03  0.4800E+03
      8.058 -0.3287E-05  0.4800E+03
      8.119 -0.2349E-07  0.4800E+03
      8.181 -0.7625E-10  0.4800E+03
      8.243 -0.1134E-12  0.4800E+03
      8.304  0.0000E+00  0.4800E+03
      8.366  0.0000E+00  0.4800E+03
      8.428  0.0000E+00  0.4800E+03
      8.490  0.0000E+00  0.4800E+03
      8.551  0.0000E+00  0.4800E+03
      8.613  0.0000E+00  0.4800E+03
