   37   37    1    1
  0.4190497E+02  0.8468310E-09  0.8468310E-09  0.2496566E-08  0.5000000E-15
  1.000000000000000E-004
  CAR 
 unknown system                          
    361     13    240
 
  0.1276756E-14  0.1276756E-14  0.1276756E-14  0.4000000E-01
      1         -8.906385   1.000000
      2         -7.844852   1.000000
      3         -7.132371   1.000000
      4         -6.503046   1.000000
      5         -6.474895   1.000000
      6         -6.453389   1.000000
      7         -6.451788   1.000000
      8         -6.444752   1.000000
      9         -6.440248   1.000000
     10         -6.426846   1.000000
     11         -6.168543   1.000000
     12         -5.924024   1.000000
     13         -5.918764   1.000000
     14         -5.899059   1.000000
     15         -5.897721   1.000000
     16         -5.892842   1.000000
     17         -5.841104   1.000000
     18         -5.466243   1.000000
     19         -5.461590   1.000000
     20         -5.459230   1.000000
     21         -5.450727   1.000000
     22         -5.450610   1.000000
     23         -5.331565   1.000000
     24         -5.228430   1.000000
     25         -5.225856   1.000000
     26         -5.222792   1.000000
     27         -5.219066   1.000000
     28         -5.215883   1.000000
     29         -5.135484   1.000000
     30         -5.033823   1.000000
     31         -5.027722   1.000000
     32         -5.024723   1.000000
     33         -5.020202   1.000000
     34         -5.017237   1.000000
     35         -4.966787   1.000000
     36         -4.961557   1.000000
     37         -4.957433   1.000000
     38         -4.949590   1.000000
     39         -4.917767   1.000000
     40         -4.912885   1.000000
     41         -4.502947   1.000000
     42         -4.379991   1.000000
     43         -4.373215   1.000000
     44         -4.353252   1.000000
     45         -4.342142   1.000000
     46         -4.321441   1.000000
     47         -4.318696   1.000000
     48         -4.299565   1.000000
     49         -4.282619   1.000000
     50         -4.281612   1.000000
     51         -4.174535   1.000000
     52         -4.136677   1.000000
     53         -4.135040   1.000000
     54         -4.035231   1.000000
     55         -4.030729   1.000000
     56         -3.585224   1.000000
     57         -3.578588   1.000000
     58         -3.564326   1.000000
     59         -3.562674   1.000000
     60         -3.555989   1.000000
     61         -3.496605   1.000000
     62         -3.466576   1.000000
     63         -3.386268   1.000000
     64         -3.381505   1.000000
     65         -3.375482   1.000000
     66         -3.374273   1.000000
     67         -3.366166   1.000000
     68         -3.364951   1.000000
     69         -3.348078   1.000000
     70         -3.318032   1.000000
     71         -3.313249   1.000000
     72         -3.298989   1.000000
     73         -3.298512   1.000000
     74         -3.293279   1.000000
     75         -3.270962   1.000000
     76         -3.261680   1.000000
     77         -3.260120   1.000000
     78         -3.161091   1.000000
     79         -3.153844   1.000000
     80         -3.138774   1.000000
     81         -3.135577   1.000000
     82         -3.134823   1.000000
     83         -3.104634   1.000000
     84         -2.941335   1.000000
     85         -2.937641   1.000000
     86         -2.935817   1.000000
     87         -2.928596   1.000000
     88         -2.921249   1.000000
     89         -2.900236   1.000000
     90         -2.888944   1.000000
     91         -2.885810   1.000000
     92         -2.839229   1.000000
     93         -2.829670   1.000000
     94         -2.791446   1.000000
     95         -2.786095   1.000000
     96         -2.745454   1.000000
     97         -2.740535   1.000000
     98         -2.700195   1.000000
     99         -2.692420   1.000000
    100         -2.690948   1.000000
    101         -2.601194   1.000000
    102         -2.534602   1.000000
    103         -2.521150   1.000000
    104         -2.516393   1.000000
    105         -2.508558   1.000000
    106         -2.503691   1.000000
    107         -2.495453   1.000000
    108         -2.279258   1.000000
    109         -2.022633   1.000000
    110         -2.000478   1.000000
    111         -2.000360   1.000000
    112         -1.989767   1.000000
    113         -1.986820   1.000000
    114         -1.978570   1.000000
    115         -1.973539   1.000000
    116         -1.972075   1.000000
    117         -1.962888   1.000000
    118         -1.956545   1.000000
    119         -1.951212   1.000000
    120         -1.871268   1.000000
    121         -1.864822   1.000000
    122         -1.819146   1.000000
    123         -1.742730   1.000000
    124         -1.726027   1.000000
    125         -1.722681   1.000000
    126         -1.721343   1.000000
    127         -1.709130   1.000000
    128         -1.617902   1.000000
    129         -1.597840   1.000000
    130         -1.538992   1.000000
    131         -1.538226   1.000000
    132         -1.520608   1.000000
    133         -1.497606   1.000000
    134         -1.293715   1.000000
    135         -1.284694   1.000000
    136         -1.268771   1.000000
    137         -1.258109   1.000000
    138         -1.253942   1.000000
    139         -1.251085   1.000000
    140         -1.188251   1.000000
    141         -1.179363   1.000000
    142         -1.052073   1.000000
    143         -1.044458   1.000000
    144         -1.038124   1.000000
    145         -1.032791   1.000000
    146         -1.026026   1.000000
    147         -1.022454   1.000000
    148         -0.873493   1.000000
    149         -0.860458   1.000000
    150         -0.859609   1.000000
    151         -0.845873   1.000000
    152         -0.836461   1.000000
    153         -0.825580   1.000000
    154         -0.821887   1.000000
    155         -0.820161   1.000000
    156         -0.814914   1.000000
    157         -0.808229   1.000000
    158         -0.804704   1.000000
    159         -0.800009   1.000000
    160         -0.725276   1.000000
    161         -0.717131   1.000000
    162         -0.698461   1.000000
    163         -0.693870   1.000000
    164         -0.677222   1.000000
    165         -0.656338   1.000000
    166         -0.649871   1.000000
    167         -0.643298   1.000000
    168         -0.604610   1.000000
    169         -0.598305   1.000000
    170         -0.587529   1.000000
    171         -0.566295   1.000000
    172         -0.550843   1.000000
    173         -0.546415   1.000000
    174         -0.543665   1.000000
    175         -0.538766   1.000000
    176         -0.462729   1.000000
    177         -0.457933   1.000000
    178         -0.446107   1.000001
    179         -0.440200   1.000002
    180         -0.431348   1.000003
    181         -0.430359   1.000003
    182         -0.385838   1.000053
    183         -0.346353   1.000444
    184         -0.341293   1.000568
    185         -0.325039   1.001207
    186         -0.321236   1.001427
    187         -0.311154   1.002187
    188         -0.310282   1.002267
    189         -0.115536   0.807569
    190         -0.106979   0.748982
    191         -0.016588   0.082794
    192         -0.013992   0.071323
    193         -0.007479   0.045517
    194          0.000367   0.019937
    195          0.004578   0.008573
    196          0.010657  -0.005106
    197          0.537494  -0.000000
    198          0.823559  -0.000000
    199          0.840930  -0.000000
    200          0.854853  -0.000000
    201          0.891355  -0.000000
    202          0.900229  -0.000000
    203          0.903111  -0.000000
    204          2.828205   0.000000
    205          3.134023   0.000000
    206          3.151100   0.000000
    207          3.201296   0.000000
    208          3.215047   0.000000
    209          3.216196   0.000000
    210          4.641645   0.000000
    211          4.717040   0.000000
    212          4.753304   0.000000
    213          4.815600   0.000000
    214          4.821714   0.000000
    215          4.822380   0.000000
    216          4.917565   0.000000
    217          5.112424   0.000000
    218          5.291367   0.000000
    219          5.431305   0.000000
    220          5.490534   0.000000
    221          5.789900   0.000000
    222          5.800651   0.000000
    223          5.848596   0.000000
    224          5.858245   0.000000
    225          5.866375   0.000000
    226          6.170016   0.000000
    227          6.333897   0.000000
    228          6.611279   0.000000
    229          6.615235   0.000000
    230          6.619707   0.000000
    231          6.855750   0.000000
    232          7.034298   0.000000
    233          7.132293   0.000000
    234          7.141405   0.000000
    235          7.160721   0.000000
    236          7.162804   0.000000
    237          7.166697   0.000000
    238          7.250189   0.000000
    239          7.260449   0.000000
    240          7.534363   0.000000
 
  0.2000000E+00  0.1278043E-14  0.1276756E-14  0.8000000E-01
      1         -8.758679   1.000000
      2         -7.730039   1.000000
      3         -7.081377   1.000000
      4         -6.928359   1.000000
      5         -6.559610   1.000000
      6         -6.552414   1.000000
      7         -6.361192   1.000000
      8         -6.262491   1.000000
      9         -6.223270   1.000000
     10         -6.213419   1.000000
     11         -6.132037   1.000000
     12         -6.005216   1.000000
     13         -5.970383   1.000000
     14         -5.849754   1.000000
     15         -5.829633   1.000000
     16         -5.823703   1.000000
     17         -5.756749   1.000000
     18         -5.537014   1.000000
     19         -5.424376   1.000000
     20         -5.416121   1.000000
     21         -5.404833   1.000000
     22         -5.386579   1.000000
     23         -5.336020   1.000000
     24         -5.300037   1.000000
     25         -5.276578   1.000000
     26         -5.236120   1.000000
     27         -5.219524   1.000000
     28         -5.211191   1.000000
     29         -5.149705   1.000000
     30         -5.116216   1.000000
     31         -5.107979   1.000000
     32         -5.037725   1.000000
     33         -5.020369   1.000000
     34         -5.010700   1.000000
     35         -5.007489   1.000000
     36         -4.870578   1.000000
     37         -4.813368   1.000000
     38         -4.781212   1.000000
     39         -4.771436   1.000000
     40         -4.752497   1.000000
     41         -4.547159   1.000000
     42         -4.497210   1.000000
     43         -4.490876   1.000000
     44         -4.456178   1.000000
     45         -4.413655   1.000000
     46         -4.392890   1.000000
     47         -4.385646   1.000000
     48         -4.316167   1.000000
     49         -4.210608   1.000000
     50         -4.174070   1.000000
     51         -4.123228   1.000000
     52         -4.109160   1.000000
     53         -4.063248   1.000000
     54         -4.047306   1.000000
     55         -4.027392   1.000000
     56         -3.832251   1.000000
     57         -3.736563   1.000000
     58         -3.732511   1.000000
     59         -3.681926   1.000000
     60         -3.660120   1.000000
     61         -3.620558   1.000000
     62         -3.583899   1.000000
     63         -3.563475   1.000000
     64         -3.553007   1.000000
     65         -3.533753   1.000000
     66         -3.525090   1.000000
     67         -3.469412   1.000000
     68         -3.450907   1.000000
     69         -3.406956   1.000000
     70         -3.372720   1.000000
     71         -3.362508   1.000000
     72         -3.335989   1.000000
     73         -3.271533   1.000000
     74         -3.263355   1.000000
     75         -3.241039   1.000000
     76         -3.181199   1.000000
     77         -3.174310   1.000000
     78         -3.161825   1.000000
     79         -3.130943   1.000000
     80         -3.102382   1.000000
     81         -3.085140   1.000000
     82         -3.070121   1.000000
     83         -3.030114   1.000000
     84         -3.006848   1.000000
     85         -2.962691   1.000000
     86         -2.957534   1.000000
     87         -2.941912   1.000000
     88         -2.931902   1.000000
     89         -2.912516   1.000000
     90         -2.900389   1.000000
     91         -2.870059   1.000000
     92         -2.833393   1.000000
     93         -2.803643   1.000000
     94         -2.786506   1.000000
     95         -2.774863   1.000000
     96         -2.758679   1.000000
     97         -2.733648   1.000000
     98         -2.727439   1.000000
     99         -2.700297   1.000000
    100         -2.681279   1.000000
    101         -2.617700   1.000000
    102         -2.568581   1.000000
    103         -2.553778   1.000000
    104         -2.520301   1.000000
    105         -2.511092   1.000000
    106         -2.502033   1.000000
    107         -2.497765   1.000000
    108         -2.492159   1.000000
    109         -2.447920   1.000000
    110         -2.437120   1.000000
    111         -2.429133   1.000000
    112         -2.420897   1.000000
    113         -2.189587   1.000000
    114         -2.075587   1.000000
    115         -2.031506   1.000000
    116         -2.008318   1.000000
    117         -2.003463   1.000000
    118         -1.990019   1.000000
    119         -1.983871   1.000000
    120         -1.953826   1.000000
    121         -1.938547   1.000000
    122         -1.868346   1.000000
    123         -1.803262   1.000000
    124         -1.780270   1.000000
    125         -1.710650   1.000000
    126         -1.656309   1.000000
    127         -1.650782   1.000000
    128         -1.610769   1.000000
    129         -1.591732   1.000000
    130         -1.578724   1.000000
    131         -1.550260   1.000000
    132         -1.540311   1.000000
    133         -1.526159   1.000000
    134         -1.442944   1.000000
    135         -1.413998   1.000000
    136         -1.397692   1.000000
    137         -1.387805   1.000000
    138         -1.377328   1.000000
    139         -1.248089   1.000000
    140         -1.202694   1.000000
    141         -1.177615   1.000000
    142         -1.163158   1.000000
    143         -1.153975   1.000000
    144         -1.144631   1.000000
    145         -1.124050   1.000000
    146         -1.057429   1.000000
    147         -1.038447   1.000000
    148         -1.004245   1.000000
    149         -0.994141   1.000000
    150         -0.987916   1.000000
    151         -0.933559   1.000000
    152         -0.927475   1.000000
    153         -0.907896   1.000000
    154         -0.895812   1.000000
    155         -0.813457   1.000000
    156         -0.796064   1.000000
    157         -0.776360   1.000000
    158         -0.764713   1.000000
    159         -0.726424   1.000000
    160         -0.663412   1.000000
    161         -0.649389   1.000000
    162         -0.629013   1.000000
    163         -0.606863   1.000000
    164         -0.591635   1.000000
    165         -0.562689   1.000000
    166         -0.546765   1.000000
    167         -0.486647   1.000000
    168         -0.477037   1.000000
    169         -0.414478   1.000009
    170         -0.407260   1.000015
    171         -0.399699   1.000023
    172         -0.386539   1.000051
    173         -0.362347   1.000196
    174         -0.355528   1.000280
    175         -0.349651   1.000377
    176         -0.339903   1.000608
    177         -0.330934   1.000925
    178         -0.273929   1.008534
    179         -0.268762   1.010019
    180         -0.128496   0.883674
    181         -0.120260   0.837163
    182         -0.103967   0.726977
    183         -0.089752   0.615444
    184         -0.073725   0.481033
    185         -0.068814   0.439639
    186         -0.035556   0.187011
    187         -0.024619   0.122591
    188         -0.007256   0.044710
    189          0.003344   0.011738
    190          0.064772  -0.031499
    191          0.102636  -0.014975
    192          0.130151  -0.006528
    193          0.198487  -0.000363
    194          0.291289  -0.000001
    195          0.295217  -0.000001
    196          0.311614  -0.000000
    197          0.354155  -0.000000
    198          0.689942  -0.000000
    199          0.746881  -0.000000
    200          1.249428  -0.000000
    201          1.459545  -0.000000
    202          1.482121  -0.000000
    203          1.596533  -0.000000
    204          2.393605  -0.000000
    205          2.809112   0.000000
    206          2.904783   0.000000
    207          3.563369   0.000000
    208          3.644284   0.000000
    209          3.653846   0.000000
    210          3.739205   0.000000
    211          3.976339   0.000000
    212          4.434798   0.000000
    213          4.603244   0.000000
    214          4.759235   0.000000
    215          4.957886   0.000000
    216          4.987995   0.000000
    217          5.012278   0.000000
    218          5.227082   0.000000
    219          5.304539   0.000000
    220          5.460706   0.000000
    221          5.662252   0.000000
    222          5.697200   0.000000
    223          5.763558   0.000000
    224          5.898462   0.000000
    225          6.133250   0.000000
    226          6.255856   0.000000
    227          6.289126   0.000000
    228          6.328695   0.000000
    229          6.345217   0.000000
    230          6.605402   0.000000
    231          6.683026   0.000000
    232          6.756833   0.000000
    233          6.792102   0.000000
    234          6.878613   0.000000
    235          6.945801   0.000000
    236          7.056562   0.000000
    237          7.289408   0.000000
    238          7.464757   0.000000
    239          7.492416   0.000000
    240          7.612667   0.000000
 
  0.2000000E+00  0.2000000E+00  0.1276756E-14  0.8000000E-01
      1         -8.759395   1.000000
      2         -7.736633   1.000000
      3         -7.098701   1.000000
      4         -6.910424   1.000000
      5         -6.560103   1.000000
      6         -6.552853   1.000000
      7         -6.361659   1.000000
      8         -6.268684   1.000000
      9         -6.215543   1.000000
     10         -6.213309   1.000000
     11         -6.148706   1.000000
     12         -6.002508   1.000000
     13         -5.933965   1.000000
     14         -5.854307   1.000000
     15         -5.828960   1.000000
     16         -5.823779   1.000000
     17         -5.780876   1.000000
     18         -5.533321   1.000000
     19         -5.422565   1.000000
     20         -5.414479   1.000000
     21         -5.408989   1.000000
     22         -5.370216   1.000000
     23         -5.334917   1.000000
     24         -5.294037   1.000000
     25         -5.275718   1.000000
     26         -5.253263   1.000000
     27         -5.218149   1.000000
     28         -5.215798   1.000000
     29         -5.136522   1.000000
     30         -5.111858   1.000000
     31         -5.104077   1.000000
     32         -5.039069   1.000000
     33         -5.018441   1.000000
     34         -5.009305   1.000000
     35         -5.006733   1.000000
     36         -4.858425   1.000000
     37         -4.812120   1.000000
     38         -4.778059   1.000000
     39         -4.776479   1.000000
     40         -4.755361   1.000000
     41         -4.535160   1.000000
     42         -4.495357   1.000000
     43         -4.484290   1.000000
     44         -4.456719   1.000000
     45         -4.417298   1.000000
     46         -4.395693   1.000000
     47         -4.385434   1.000000
     48         -4.329313   1.000000
     49         -4.209410   1.000000
     50         -4.175358   1.000000
     51         -4.124639   1.000000
     52         -4.110437   1.000000
     53         -4.061092   1.000000
     54         -4.046241   1.000000
     55         -4.021826   1.000000
     56         -3.827276   1.000000
     57         -3.735311   1.000000
     58         -3.733697   1.000000
     59         -3.676616   1.000000
     60         -3.657953   1.000000
     61         -3.618170   1.000000
     62         -3.579556   1.000000
     63         -3.574017   1.000000
     64         -3.550865   1.000000
     65         -3.528734   1.000000
     66         -3.528445   1.000000
     67         -3.485725   1.000000
     68         -3.446284   1.000000
     69         -3.397965   1.000000
     70         -3.367718   1.000000
     71         -3.361481   1.000000
     72         -3.343928   1.000000
     73         -3.283595   1.000000
     74         -3.268163   1.000000
     75         -3.255872   1.000000
     76         -3.182790   1.000000
     77         -3.167601   1.000000
     78         -3.159818   1.000000
     79         -3.130774   1.000000
     80         -3.094291   1.000000
     81         -3.070406   1.000000
     82         -3.068858   1.000000
     83         -3.039535   1.000000
     84         -3.005248   1.000000
     85         -2.963375   1.000000
     86         -2.962723   1.000000
     87         -2.934573   1.000000
     88         -2.932138   1.000000
     89         -2.909177   1.000000
     90         -2.906516   1.000000
     91         -2.869358   1.000000
     92         -2.835962   1.000000
     93         -2.795290   1.000000
     94         -2.793947   1.000000
     95         -2.774372   1.000000
     96         -2.759532   1.000000
     97         -2.730104   1.000000
     98         -2.728908   1.000000
     99         -2.707825   1.000000
    100         -2.688587   1.000000
    101         -2.617580   1.000000
    102         -2.566641   1.000000
    103         -2.554359   1.000000
    104         -2.527412   1.000000
    105         -2.516367   1.000000
    106         -2.506970   1.000000
    107         -2.498161   1.000000
    108         -2.496920   1.000000
    109         -2.449154   1.000000
    110         -2.436312   1.000000
    111         -2.433546   1.000000
    112         -2.423651   1.000000
    113         -2.171813   1.000000
    114         -2.075765   1.000000
    115         -2.036839   1.000000
    116         -2.021349   1.000000
    117         -1.999216   1.000000
    118         -1.995928   1.000000
    119         -1.981015   1.000000
    120         -1.947552   1.000000
    121         -1.937939   1.000000
    122         -1.890383   1.000000
    123         -1.814777   1.000000
    124         -1.785222   1.000000
    125         -1.710602   1.000000
    126         -1.656903   1.000000
    127         -1.653813   1.000000
    128         -1.607292   1.000000
    129         -1.600799   1.000000
    130         -1.580907   1.000000
    131         -1.556511   1.000000
    132         -1.538306   1.000000
    133         -1.533566   1.000000
    134         -1.442554   1.000000
    135         -1.403944   1.000000
    136         -1.397990   1.000000
    137         -1.383356   1.000000
    138         -1.378842   1.000000
    139         -1.212050   1.000000
    140         -1.211835   1.000000
    141         -1.179615   1.000000
    142         -1.169556   1.000000
    143         -1.153977   1.000000
    144         -1.149652   1.000000
    145         -1.118712   1.000000
    146         -1.051298   1.000000
    147         -1.045263   1.000000
    148         -1.014777   1.000000
    149         -0.992688   1.000000
    150         -0.986065   1.000000
    151         -0.933558   1.000000
    152         -0.919508   1.000000
    153         -0.911641   1.000000
    154         -0.902299   1.000000
    155         -0.808407   1.000000
    156         -0.800939   1.000000
    157         -0.769923   1.000000
    158         -0.764590   1.000000
    159         -0.717082   1.000000
    160         -0.666896   1.000000
    161         -0.666401   1.000000
    162         -0.617322   1.000000
    163         -0.615734   1.000000
    164         -0.603932   1.000000
    165         -0.565729   1.000000
    166         -0.546036   1.000000
    167         -0.483370   1.000000
    168         -0.481061   1.000000
    169         -0.411113   1.000011
    170         -0.410109   1.000012
    171         -0.390740   1.000040
    172         -0.384320   1.000058
    173         -0.361858   1.000201
    174         -0.353049   1.000317
    175         -0.351561   1.000342
    176         -0.339712   1.000613
    177         -0.328745   1.001022
    178         -0.275825   1.008031
    179         -0.274302   1.008433
    180         -0.130642   0.894689
    181         -0.124429   0.861537
    182         -0.102886   0.718917
    183         -0.084215   0.569541
    184         -0.066844   0.423154
    185         -0.066314   0.418731
    186         -0.032737   0.169321
    187         -0.018201   0.090265
    188          0.000839   0.018582
    189          0.006808   0.003190
    190          0.074706  -0.027351
    191          0.102351  -0.015086
    192          0.128208  -0.006970
    193          0.204845  -0.000262
    194          0.292303  -0.000001
    195          0.295855  -0.000001
    196          0.310497  -0.000000
    197          0.350405  -0.000000
    198          0.702856  -0.000000
    199          0.746364  -0.000000
    200          1.255872  -0.000000
    201          1.452243  -0.000000
    202          1.480049  -0.000000
    203          1.598178  -0.000000
    204          2.376098  -0.000000
    205          2.837792   0.000000
    206          2.905618   0.000000
    207          3.544030   0.000000
    208          3.649126   0.000000
    209          3.667885   0.000000
    210          3.735275   0.000000
    211          3.956554   0.000000
    212          4.426072   0.000000
    213          4.601844   0.000000
    214          4.746972   0.000000
    215          4.976924   0.000000
    216          4.988935   0.000000
    217          5.011633   0.000000
    218          5.235274   0.000000
    219          5.342682   0.000000
    220          5.455084   0.000000
    221          5.618924   0.000000
    222          5.701786   0.000000
    223          5.827694   0.000000
    224          5.894480   0.000000
    225          6.117939   0.000000
    226          6.266986   0.000000
    227          6.289778   0.000000
    228          6.334191   0.000000
    229          6.346882   0.000000
    230          6.626438   0.000000
    231          6.660651   0.000000
    232          6.753644   0.000000
    233          6.787863   0.000000
    234          6.834794   0.000000
    235          6.949949   0.000000
    236          7.052513   0.000000
    237          7.254447   0.000000
    238          7.471650   0.000000
    239          7.537652   0.000000
    240          7.612153   0.000000
 
  0.1276756E-14  0.2000000E+00  0.1276756E-14  0.8000000E-01
      1         -8.758670   1.000000
      2         -7.730025   1.000000
      3         -7.081284   1.000000
      4         -6.928157   1.000000
      5         -6.559821   1.000000
      6         -6.552591   1.000000
      7         -6.361174   1.000000
      8         -6.261968   1.000000
      9         -6.223307   1.000000
     10         -6.213925   1.000000
     11         -6.132113   1.000000
     12         -6.005258   1.000000
     13         -5.970391   1.000000
     14         -5.849515   1.000000
     15         -5.829595   1.000000
     16         -5.823526   1.000000
     17         -5.756717   1.000000
     18         -5.537244   1.000000
     19         -5.424392   1.000000
     20         -5.416056   1.000000
     21         -5.404661   1.000000
     22         -5.386513   1.000000
     23         -5.336128   1.000000
     24         -5.300071   1.000000
     25         -5.276675   1.000000
     26         -5.236097   1.000000
     27         -5.219157   1.000000
     28         -5.211325   1.000000
     29         -5.149635   1.000000
     30         -5.116414   1.000000
     31         -5.108177   1.000000
     32         -5.037242   1.000000
     33         -5.020468   1.000000
     34         -5.010698   1.000000
     35         -5.007573   1.000000
     36         -4.870580   1.000000
     37         -4.813402   1.000000
     38         -4.781006   1.000000
     39         -4.771667   1.000000
     40         -4.752893   1.000000
     41         -4.547243   1.000000
     42         -4.497317   1.000000
     43         -4.491058   1.000000
     44         -4.456199   1.000000
     45         -4.413462   1.000000
     46         -4.392900   1.000000
     47         -4.385513   1.000000
     48         -4.316253   1.000000
     49         -4.210732   1.000000
     50         -4.174203   1.000000
     51         -4.123071   1.000000
     52         -4.109243   1.000000
     53         -4.063332   1.000000
     54         -4.047277   1.000000
     55         -4.027237   1.000000
     56         -3.832818   1.000000
     57         -3.736466   1.000000
     58         -3.732476   1.000000
     59         -3.682511   1.000000
     60         -3.660666   1.000000
     61         -3.620744   1.000000
     62         -3.584581   1.000000
     63         -3.562781   1.000000
     64         -3.552680   1.000000
     65         -3.533660   1.000000
     66         -3.524710   1.000000
     67         -3.469326   1.000000
     68         -3.450883   1.000000
     69         -3.407170   1.000000
     70         -3.372662   1.000000
     71         -3.362861   1.000000
     72         -3.336130   1.000000
     73         -3.271125   1.000000
     74         -3.262297   1.000000
     75         -3.239583   1.000000
     76         -3.181344   1.000000
     77         -3.174588   1.000000
     78         -3.162229   1.000000