 vasp.6.4.2 20Jul23 (build Mar 01 2024 16:46:03) complex                        
  
 executed on             LinuxIFC date 2025.01.15  11:18:39
 running   48 mpi-ranks, on    1 nodes
 distrk:  each k-point on   48 cores,    1 groups
 distr:  one band on NCORE=   1 cores,   48 groups


--------------------------------------------------------------------------------------------------------


 INCAR:
   ENCUT = 680.290000
   SIGMA = 0.100000
   ZAB_VDW = -1.886700
   EDIFF = 1.00e-05
   ALGO = Fast
   GGA = BF
   IBRION = -1
   ISMEAR = 1
   ISPIN = 1
   ISYM = 0
   LUSE_VDW = .TRUE.
   LREAL = Auto

 POTCAR:    PAW_PBE Pt 04Feb2005                  
 POTCAR:    PAW_PBE H 15Jun2001                   
 -----------------------------------------------------------------------------
|                                                                             |
|           W    W    AA    RRRRR   N    N  II  N    N   GGGG   !!!           |
|           W    W   A  A   R    R  NN   N  II  NN   N  G    G  !!!           |
|           W    W  A    A  R    R  N N  N  II  N N  N  G       !!!           |
|           W WW W  AAAAAA  RRRRR   N  N N  II  N  N N  G  GGG   !            |
|           WW  WW  A    A  R   R   N   NN  II  N   NN  G    G                |
|           W    W  A    A  R    R  N    N  II  N    N   GGGG   !!!           |
|                                                                             |
|     For optimal performance we recommend to set                             |
|       NCORE = 2 up to number-of-cores-per-socket                            |
|     NCORE specifies how many cores store one orbital (NPAR=cpu/NCORE).      |
|     This setting can greatly improve the performance of VASP for DFT.       |
|     The default, NCORE=1 might be grossly inefficient on modern             |
|     multi-core architectures or massively parallel machines. Do your        |
|     own testing! More info at https://www.vasp.at/wiki/index.php/NCORE      |
|     Unfortunately you need to use the default for GW and RPA                |
|     calculations (for HF NCORE is supported but not extensively tested      |
|     yet).                                                                   |
|                                                                             |
 -----------------------------------------------------------------------------

 -----------------------------------------------------------------------------
|                                                                             |
|               ----> ADVICE to this user running VASP <----                  |
|                                                                             |
|     You have switched on vdW-DFT.                                           |
|     This routine was written and supplied by Jiri Klimes. We recommend      |
|     that you carefully read and cite the following publications:            |
|       J. Klimes, D.R. Bowler, A. Michelides                                 |
|          J. Phys.: Cond Matt. 22 022201 (2010)                              |
|       J. Klimes, D.R. Bowler, A. Michelides                                 |
|          Phys. Rev. B. 83, 195131 (2011)                                    |
|     and references therein.                                                 |
|                                                                             |
 -----------------------------------------------------------------------------

 POTCAR:    PAW_PBE Pt 04Feb2005                  
   SHA256 =  3ed90460adef76debcff1cfb73ee1349b515b1a3db03439735b44de3a8db7dc8 Pt/POTCAR             
   COPYR  = (c) Copyright 04Feb2005 Georg Kresse                                                    
   COPYR  = This file is part of the software VASP. Any use, copying, and all other rights are regul
   COPYR  = If you do not have a valid VASP license, you may not use, copy or distribute this file. 
   VRHFIN =Pt: s1d9                                                                                 
   LEXCH  = PE                                                                                      
   EATOM  =   729.1176 eV,   53.5886 Ry                                                             
                                                                                                    
   TITEL  = PAW_PBE Pt 04Feb2005                                                                    
   LULTRA =        F    use ultrasoft PP ?                                                          
   IUNSCR =        1    unscreen: 0-lin 1-nonlin 2-no                                               
   RPACOR =    2.330    partial core radius                                                         
   POMASS =  195.080; ZVAL   =   10.000    mass and valenz                                          
   RCORE  =    2.600    outmost cutoff radius                                                       
   RWIGS  =    2.750; RWIGS  =    1.455    wigner-seitz radius (au A)                               
   ENMAX  =  230.283; ENMIN  =  172.712 eV                                                          
   ICORE  =        3    local potential                                                             
   LCOR   =        T    correct aug charges                                                         
   LPAW   =        T    paw PP                                                                      
   EAUG   =  358.966                                                                                
   DEXC   =    0.000                                                                                
   RMAX   =    2.658    core radius for proj-oper                                                   
   RAUG   =    1.300    factor for augmentation sphere                                              
   RDEP   =    2.761    radius for radial grids                                                     
   RDEPT  =    2.203    core radius for aug-charge                                                  
                                                                                                    
   Atomic configuration                                                                             
   16 entries                                                                                       
     n  l   j            E        occ.                                                              
     1  0  0.50    -78401.1885   2.0000                                                             
     2  0  0.50    -13770.7750   2.0000                                                             
     2  1  1.50    -11931.0468   6.0000                                                             
     3  0  0.50     -3234.7234   2.0000                                                             
     3  1  1.50     -2699.2216   6.0000                                                             
     3  2  2.50     -2119.5714  10.0000                                                             
     4  0  0.50      -695.1528   2.0000                                                             
     4  1  1.50      -519.6034   6.0000                                                             
     4  2  2.50      -306.6786  10.0000                                                             
     4  3  3.50       -70.1041  14.0000                                                             
     5  0  0.50      -101.7747   2.0000                                                             
     5  1  1.50       -55.9873   6.0000                                                             
     5  2  2.50        -6.1423   9.0000                                                             
     6  0  0.50        -5.6573   1.0000                                                             
     6  1  1.50        -6.8029   0.0000                                                             
     5  3  2.50        -1.3606   0.0000                                                             
   Description                                                                                      
     l       E           TYP  RCUT    TYP  RCUT                                                     
     2     -6.1423404     23  2.500                                                                 
     2     -7.5029230     23  2.500                                                                 
     0     -5.6573207     23  2.500                                                                 
     0      0.7416693     23  2.500                                                                 
     1     -2.7211652     23  2.600                                                                 
     1     20.4087390     23  2.600                                                                 
     3     -1.3605826     23  2.500                                                                 
  local pseudopotential read in
  partial core-charges read in
  partial kinetic energy density read in
  atomic valenz-charges read in
  non local Contribution for L=           2  read in
    real space projection operators read in
  non local Contribution for L=           2  read in
    real space projection operators read in
  non local Contribution for L=           0  read in
    real space projection operators read in
  non local Contribution for L=           0  read in
    real space projection operators read in
  non local Contribution for L=           1  read in
    real space projection operators read in
  non local Contribution for L=           1  read in
    real space projection operators read in
    PAW grid and wavefunctions read in
 
   number of l-projection  operators is LMAX  =           6
   number of lm-projection operators is LMMAX =          18
 
 POTCAR:    PAW_PBE H 15Jun2001                   
   SHA256 =  030f79b5d3ab3cf0e668861823c8fb652ff669f3e15e46930bd03bfd63a607b6 H/POTCAR              
   COPYR  = (c) Copyright 15Jun2001 Georg Kresse                                                    
   COPYR  = This file is part of the software VASP. Any use, copying, and all other rights are regul
   COPYR  = If you do not have a valid VASP license, you may not use, copy or distribute this file. 
   VRHFIN =H: ultrasoft test                                                                        
   LEXCH  = PE                                                                                      
   EATOM  =    12.4884 eV,    0.9179 Ry                                                             
                                                                                                    
   TITEL  = PAW_PBE H 15Jun2001                                                                     
   LULTRA =        F    use ultrasoft PP ?                                                          
   IUNSCR =        0    unscreen: 0-lin 1-nonlin 2-no                                               
   RPACOR =    0.000    partial core radius                                                         
   POMASS =    1.000; ZVAL   =    1.000    mass and valenz                                          
   RCORE  =    1.100    outmost cutoff radius                                                       
   RWIGS  =    0.700; RWIGS  =    0.370    wigner-seitz radius (au A)                               
   ENMAX  =  250.000; ENMIN  =  200.000 eV                                                          
   RCLOC  =    0.701    cutoff for local pot                                                        
   LCOR   =        T    correct aug charges                                                         
   LPAW   =        T    paw PP                                                                      
   EAUG   =  400.000                                                                                
   RMAX   =    1.123    core radius for proj-oper                                                   
   RAUG   =    1.200    factor for augmentation sphere                                              
   RDEP   =    1.112    radius for radial grids                                                     
   RDEPT  =    0.926    core radius for aug-charge                                                  
                                                                                                    
   Atomic configuration                                                                             
    2 entries                                                                                       
     n  l   j            E        occ.                                                              
     1  0  0.50        -6.4927   1.0000                                                             
     2  1  0.50        -3.4015   0.0000                                                             
   Description                                                                                      
     l       E           TYP  RCUT    TYP  RCUT                                                     
     0     -6.4927494     23  1.100                                                                 
     0      6.8029130     23  1.100                                                                 
     1     -4.0817478     23  1.100                                                                 
  local pseudopotential read in
  atomic valenz-charges read in
  non local Contribution for L=           0  read in
    real space projection operators read in
  non local Contribution for L=           0  read in
    real space projection operators read in
  non local Contribution for L=           1  read in
    real space projection operators read in
    PAW grid and wavefunctions read in
 
   number of l-projection  operators is LMAX  =           3
   number of lm-projection operators is LMMAX =           5
 
 Optimization of the real space projectors (new method)

 maximal supplied QI-value         = 14.36
 optimisation between [QCUT,QGAM] = [ 13.36, 26.71] = [ 49.96,199.83] Ry 
 Optimized for a Real-space Cutoff    1.42 Angstroem

   l    n(q)    QCUT    max X(q) W(low)/X(q) W(high)/X(q)  e(spline) 
   2     11    13.357    66.195    0.16E-03    0.81E-04    0.36E-06
   2     11    13.357    64.643    0.16E-03    0.82E-04    0.36E-06
   0     11    13.357    95.520    0.60E-04    0.72E-05    0.55E-06
   0     11    13.357    63.403    0.58E-04    0.70E-05    0.53E-06
   1     11    13.357    19.961    0.21E-03    0.56E-03    0.21E-05
   1     11    13.357    13.289    0.17E-03    0.46E-03    0.17E-05
 Optimization of the real space projectors (new method)

 maximal supplied QI-value         = 34.20
 optimisation between [QCUT,QGAM] = [ 13.34, 26.68] = [ 49.83,199.32] Ry 
 Optimized for a Real-space Cutoff    0.91 Angstroem

   l    n(q)    QCUT    max X(q) W(low)/X(q) W(high)/X(q)  e(spline) 
   0      7    13.340    19.460    0.48E-03    0.16E-03    0.16E-06
   0      7    13.340    12.209    0.46E-03    0.14E-03    0.15E-06
   1      7    13.340     4.655    0.46E-03    0.87E-03    0.11E-06
 -----------------------------------------------------------------------------
|                                                                             |
|               ----> ADVICE to this user running VASP <----                  |
|                                                                             |
|     You enforced a specific xc type in the INCAR file but a different       |
|     type was found in the POTCAR file.                                      |
|     I HOPE YOU KNOW WHAT YOU ARE DOING!                                     |
|                                                                             |
 -----------------------------------------------------------------------------

  PAW_PBE Pt 04Feb2005                  :
 energy of atom  1       EATOM= -729.1176
 kinetic energy error for atom=    0.0010 (will be added to EATOM!!)
  PAW_PBE H 15Jun2001                   :
 energy of atom  2       EATOM=  -12.4884
 kinetic energy error for atom=    0.0002 (will be added to EATOM!!)
 
 
 POSCAR: Pt H
  positions in cartesian coordinates
  No initial velocities read in
 exchange correlation table for  LEXCH =       17
   RHO(1)=    0.500       N(1)  =     2000
   RHO(2)=  100.500       N(2)  =     4000
 


--------------------------------------------------------------------------------------------------------


 ion  position               nearest neighbor table
   1  0.000  0.000  0.340-   3 2.81   7 2.81   6 2.82   8 2.82  12 2.82  16 2.82   2 2.83   4 2.83
                            10 2.83
   2  0.334  0.000  0.340-   8 2.81   9 2.82  17 2.82   1 2.83   3 2.83   4 2.83   5 2.83  10 2.83
                            11 2.83
   3  0.668  0.000  0.340-   7 2.81   1 2.81   9 2.81  18 2.82   5 2.83   2 2.83   6 2.83  11 2.83
                            12 2.83
   4  0.000  0.334  0.340-   6 2.81   9 2.82  15 2.82   5 2.83   2 2.83   1 2.83   7 2.83  10 2.83
                            13 2.83
   5  0.334  0.334  0.340-   3 2.83   4 2.83   6 2.83   7 2.83   2 2.83   8 2.83  11 2.83  13 2.83
                            14 2.83
   6  0.668  0.334  0.340-   4 2.81   1 2.82   5 2.83   8 2.83   3 2.83   9 2.83  12 2.83  14 2.83
                            15 2.83
   7  0.000  0.668  0.340-   3 2.81   1 2.81   9 2.81  18 2.82   5 2.83   8 2.83   4 2.83  13 2.83
                            16 2.83
   8  0.334  0.668  0.340-   2 2.81   1 2.82   6 2.83   7 2.83   9 2.83   5 2.83  14 2.83  16 2.83
                            17 2.83
   9  0.668  0.668  0.340-   3 2.81   7 2.81   4 2.82   2 2.82   8 2.83   6 2.83  15 2.83  17 2.83
                            18 2.83
  10  0.111  0.111  0.433-  26 2.81  19 2.81  12 2.81  16 2.81  15 2.82  17 2.82  11 2.83  13 2.83
                             2 2.83   4 2.83   1 2.83  20 2.84
  11  0.445  0.111  0.433-  27 2.81  17 2.81  21 2.81  18 2.82  20 2.83  13 2.83  10 2.83  12 2.83
                            14 2.83   5 2.83   3 2.83   2 2.83
  12  0.779  0.111  0.433-  25 2.79  21 2.81  16 2.81  10 2.81  18 2.81   1 2.82  19 2.82  14 2.83
                            11 2.83  15 2.83   6 2.83   3 2.83
  13  0.111  0.445  0.433-  22 2.81  15 2.81  23 2.81  18 2.82  20 2.83  14 2.83  11 2.83  10 2.83
                            16 2.83   7 2.83   5 2.83   4 2.83
  14  0.445  0.445  0.433-  21 2.80  23 2.80  24 2.81  16 2.83  12 2.83  13 2.83  15 2.83  17 2.83
                            11 2.83   8 2.83   6 2.83   5 2.83
  15  0.779  0.445  0.433-  24 2.80  19 2.81  13 2.81  22 2.81  10 2.82   4 2.82  17 2.83  14 2.83
                            18 2.83  12 2.83   9 2.83   6 2.83
  16  0.111  0.779  0.433-  25 2.79  23 2.81  12 2.81  10 2.81  18 2.81   1 2.82  26 2.82  14 2.83
                            17 2.83  13 2.83   8 2.83   7 2.83
  17  0.445  0.779  0.433-  24 2.80  26 2.81  11 2.81  27 2.82  10 2.82   2 2.82  15 2.83  16 2.83
                            18 2.83  14 2.83   9 2.83   8 2.83
  18  0.779  0.779  0.433-  25 2.80  16 2.81  12 2.81  22 2.82  27 2.82  11 2.82  13 2.82   7 2.82
                             3 2.82  17 2.83  15 2.83   9 2.83
  19  0.891  0.224  0.525-  10 2.81  15 2.81  22 2.81  20 2.81  24 2.82  12 2.82  26 2.82  25 2.83
                            28 2.83  21 2.83  33 2.83  31 2.89
  20  0.223  0.224  0.526-  26 2.81  19 2.81  27 2.82  22 2.82  21 2.82  23 2.82  13 2.83  11 2.83
                            10 2.84  32 2.87  29 2.89  31 2.89
  21  0.556  0.224  0.525-  14 2.80  12 2.81  11 2.81  23 2.82  27 2.82  20 2.82  24 2.82  25 2.83
                            19 2.83  30 2.84  33 2.84  32 2.86
  22  0.891  0.556  0.525-  13 2.81  19 2.81  15 2.81  20 2.82  18 2.82  23 2.82  24 2.82  25 2.83
                            36 2.83  27 2.83  34 2.84  31 2.87
  23  0.224  0.557  0.525-  14 2.80  16 2.81  13 2.81  21 2.82  22 2.82  20 2.82  24 2.82  25 2.83
                            26 2.83  34 2.84  35 2.84  32 2.86
  24  0.557  0.557  0.524-  17 2.80  15 2.80  14 2.81  26 2.82  19 2.82  27 2.82  22 2.82  23 2.82
                            21 2.82  33 2.84  35 2.84  36 2.85
  25  0.890  0.890  0.524-  12 2.79  16 2.79  18 2.80  21 2.83  23 2.83  22 2.83  27 2.83  26 2.83
                            19 2.83  28 2.84  34 2.84  30 2.84
  26  0.224  0.891  0.525-  10 2.81  17 2.81  27 2.81  20 2.81  24 2.82  16 2.82  19 2.82  25 2.83
                            28 2.83  35 2.83  23 2.83  29 2.89
  27  0.556  0.891  0.525-  11 2.81  26 2.81  17 2.82  20 2.82  18 2.82  21 2.82  24 2.82  25 2.83
                            36 2.83  22 2.83  30 2.84  29 2.88
  28  0.001  0.001  0.617-  30 2.80  34 2.80  35 2.82  33 2.82  19 2.83  26 2.83  25 2.84  31 2.85
                            29 2.85
  29  0.338  0.998  0.621-  37 1.80  36 2.80  35 2.81  30 2.83  28 2.85  32 2.87  27 2.88  31 2.88
                            26 2.89  20 2.89
  30  0.670  0.001  0.618-  28 2.80  34 2.81  33 2.82  36 2.82  29 2.83  32 2.83  21 2.84  27 2.84
                            25 2.84
  31  0.998  0.338  0.621-  37 1.80  36 2.80  33 2.81  34 2.83  28 2.85  32 2.87  22 2.87  29 2.88
                            19 2.89  20 2.89
  32  0.337  0.338  0.619-  37 2.09  35 2.79  33 2.79  34 2.83  30 2.83  23 2.86  21 2.86  31 2.87
                            29 2.87  20 2.87
  33  0.668  0.335  0.618-  32 2.79  31 2.81  30 2.82  28 2.82  35 2.82  36 2.83  19 2.83  24 2.84
                            21 2.84
  34  0.001  0.670  0.618-  28 2.80  30 2.81  35 2.82  36 2.82  31 2.83  32 2.83  22 2.84  23 2.84
                            25 2.84
  35  0.335  0.669  0.618-  32 2.79  29 2.81  34 2.82  28 2.82  33 2.82  36 2.83  26 2.83  24 2.84
                            23 2.84
  36  0.669  0.669  0.618-  31 2.80  29 2.80  34 2.82  30 2.82  35 2.83  33 2.83  27 2.83  22 2.83
                            24 2.85
  37  0.210  0.210  0.656-  29 1.80  31 1.80  32 2.09
 

IMPORTANT INFORMATION: All symmetrisations will be switched off!
NOSYMM: (Re-)initialisation of all symmetry stuff for point group C_1.


----------------------------------------------------------------------------------------

                                     Primitive cell                                     

  volume of cell :    1550.4837

  direct lattice vectors                    reciprocal lattice vectors
     8.468310000  0.000000000  0.000000000     0.118087316 -0.068177744  0.000000000
     4.234155000  7.333771587  0.000000000     0.000000000  0.136355488  0.000000000
     0.000000000  0.000000000 24.965661990     0.000000000  0.000000000  0.040055016

  length of vectors
     8.468310000  8.468310000 24.965661990     0.136355488  0.136355488  0.040055016

  position of ions in fractional coordinates (direct lattice)
     0.000000000  0.000000000  0.340467639
     0.334001368  0.000000000  0.340467639
     0.668002736  0.000000000  0.340467639
     1.000000000  0.334001368  0.340467639
     0.334001368  0.334001368  0.340467639
     0.668002736  0.334001368  0.340467639
     1.000000000  0.668002736  0.340467639
     0.334001368  0.668002736  0.340467639
     0.668002736  0.668002736  0.340467639
     0.111333789  0.111333789  0.432970737
     0.445335157  0.111333789  0.432970737
     0.779336525  0.111333789  0.432970737
     0.111333789  0.445335157  0.432970737
     0.445335157  0.445335157  0.432970737
     0.779336525  0.445335157  0.432970737
     0.111333789  0.779336525  0.432970737
     0.445335157  0.779336525  0.432970737
     0.779336525  0.779336525  0.432970737
     0.890612427  0.224366318  0.524901785
     0.223392055  0.223568096  0.525615579
     0.556465286  0.223869928  0.524545651
     0.890724422  0.556220369  0.524892921
     0.223711787  0.556634500  0.524527937
     0.556883443  0.557120712  0.524324156
     0.890296106  0.890464276  0.524065930
     0.224155815  0.890858444  0.524909557
     0.556019979  0.890932874  0.524899116
     0.000509908  0.000804773  0.617380761
     0.337688501  0.998487829  0.620553927
     0.669816892  0.001447111  0.617585080
     0.998125662  0.337997212  0.620535304
     0.337365062  0.337799107  0.619243739
     0.668323687  0.335224747  0.617690151
     0.001126469  0.670119294  0.617573424
     0.334898793  0.668657714  0.617687441
     0.668528846  0.668863866  0.617726713
     0.209836384  0.210153622  0.656342622

  ion indices of the primitive-cell ions
   primitive index   ion index
                 1           1
                 2           2
                 3           3
                 4           4
                 5           5
                 6           6
                 7           7
                 8           8
                 9           9
                10          10
                11          11
                12          12
                13          13
                14          14
                15          15
                16          16
                17          17
                18          18
                19          19
                20          20
                21          21
                22          22
                23          23
                24          24
                25          25
                26          26
                27          27
                28          28
                29          29
                30          30
                31          31
                32          32
                33          33
                34          34
                35          35
                36          36
                37          37

----------------------------------------------------------------------------------------

 
 
 KPOINTS: KPOINTS created by Atomic Simulation Env

Automatic generation of k-mesh.
 Grid dimensions read from file:
 generate k-points for:    5    5    1

 Generating k-lattice:

  Cartesian coordinates                     Fractional coordinates (reciprocal lattice)
     0.023617463 -0.013635549  0.000000000     0.200000000 -0.000000000  0.000000000
     0.000000000  0.027271098  0.000000000     0.000000000  0.200000000  0.000000000
     0.000000000  0.000000000  0.040055016     0.000000000  0.000000000  1.000000000

  Length of vectors
     0.027271098  0.027271098  0.040055016

  Shift w.r.t. Gamma in fractional coordinates (k-lattice)
     0.000000000  0.000000000  0.000000000

 
 Subroutine IBZKPT returns following result:
 ===========================================
 
 Found     13 irreducible k-points:
 
 Following reciprocal coordinates:
            Coordinates               Weight
  0.000000  0.000000  0.000000      1.000000
  0.200000  0.000000  0.000000      2.000000
  0.200000  0.200000  0.000000      2.000000
  0.000000  0.200000  0.000000      2.000000
  0.400000  0.000000  0.000000      2.000000
  0.400000  0.400000  0.000000      2.000000
  0.000000  0.400000  0.000000      2.000000
  0.400000  0.200000  0.000000      2.000000
  0.200000  0.400000  0.000000      2.000000
 -0.200000  0.200000  0.000000      2.000000
 -0.400000  0.200000  0.000000      2.000000
  0.400000 -0.400000  0.000000      2.000000
 -0.200000  0.400000  0.000000      2.000000
 
 Following cartesian coordinates:
            Coordinates               Weight
  0.000000  0.000000  0.000000      1.000000
  0.023617 -0.013636  0.000000      2.000000
  0.023617  0.013636  0.000000      2.000000
  0.000000  0.027271  0.000000      2.000000
  0.047235 -0.027271  0.000000      2.000000
  0.047235  0.027271  0.000000      2.000000
  0.000000  0.054542  0.000000      2.000000
  0.047235  0.000000  0.000000      2.000000
  0.023617  0.040907  0.000000      2.000000
 -0.023617  0.040907  0.000000      2.000000
 -0.047235  0.054542  0.000000      2.000000
  0.047235 -0.081813  0.000000      2.000000
 -0.023617  0.068178  0.000000      2.000000
 


--------------------------------------------------------------------------------------------------------




 Dimension of arrays:
   k-points           NKPTS =     13   k-points in BZ     NKDIM =     13   number of bands    NBANDS=    240
   number of dos      NEDOS =    301   number of ions     NIONS =     37
   non local maximal  LDIM  =      6   non local SUM 2l+1 LMDIM =     18
   total plane-waves  NPLWV = 466560
   max r-space proj   IRMAX =   3679   max aug-charges    IRDMAX=  18423
   dimension x,y,z NGX =    54 NGY =   54 NGZ =  160
   dimension x,y,z NGXF=   108 NGYF=  108 NGZF=  320
   support grid    NGXF=   108 NGYF=  108 NGZF=  320
   ions per type =              36   1
   NGX,Y,Z   is equivalent  to a cutoff of  10.60, 10.60, 10.65 a.u.
   NGXF,Y,Z  is equivalent  to a cutoff of  21.20, 21.20, 21.31 a.u.

 SYSTEM =  unknown system                          
 POSCAR =  Pt H                                    

 Startparameter for this run:
   NWRITE =      2    write-flag & timer
   PREC   = normal    normal or accurate (medium, high low for compatibility)
   ISTART =      1    job   : 0-new  1-cont  2-samecut
   ICHARG =      0    charge: 1-file 2-atom 10-const
   ISPIN  =      1    spin polarized calculation?
   LNONCOLLINEAR =      F non collinear calculations
   LSORBIT =      F    spin-orbit coupling
   INIWAV =      1    electr: 0-lowe 1-rand  2-diag
   LASPH  =      F    aspherical Exc in radial PAW
 Electronic Relaxation 1
   ENCUT  =  680.3 eV  50.00 Ry    7.07 a.u.  18.01 18.01 53.09*2*pi/ulx,y,z
   ENINI  =  680.3     initial cutoff
   ENAUG  =  400.0 eV  augmentation charge cutoff
   NELM   =     60;   NELMIN=  2; NELMDL=  0     # of ELM steps 
   EDIFF  = 0.1E-04   stopping-criterion for ELM
   LREAL  =      T    real-space projection
   NLSPLINE    = F    spline interpolate recip. space projectors
   LCOMPAT=      F    compatible to vasp.4.4
   GGA_COMPAT  = T    GGA compatible to vasp.4.4-vasp.4.6
   LMAXPAW     = -100 max onsite density
   LMAXMIX     =    2 max onsite mixed and CHGCAR
   VOSKOWN=      0    Vosko Wilk Nusair interpolation
   ROPT   =   -0.00050  -0.00050
 Ionic relaxation
   EDIFFG = 0.1E-03   stopping-criterion for IOM
   NSW    =      0    number of steps for IOM
   NBLOCK =      1;   KBLOCK =      1    inner block; outer block 
   IBRION =     -1    ionic relax: 0-MD 1-quasi-New 2-CG
   NFREE  =      0    steps in history (QN), initial steepest desc. (CG)
   ISIF   =      2    stress and relaxation
   IWAVPR =     10    prediction:  0-non 1-charg 2-wave 3-comb
   ISYM   =      0    0-nonsym 1-usesym 2-fastsym
   LCORR  =      T    Harris-Foulkes like correction to forces

   POTIM  = 0.5000    time-step for ionic-motion
   TEIN   =    0.0    initial temperature
   TEBEG  =    0.0;   TEEND  =   0.0 temperature during run
   SMASS  =  -3.00    Nose mass-parameter (am)
   estimated Nose-frequenzy (Omega)   =  0.10E-29 period in steps = 0.13E+47 mass=  -0.164E-26a.u.
   SCALEE = 1.0000    scale energy and forces
   NPACO  =    256;   APACO  = 10.0  distance and # of slots for P.C.
   PSTRESS=    0.0 pullay stress

  Mass of Ions in am
   POMASS = 195.08  1.00
  Ionic Valenz
   ZVAL   =  10.00  1.00
  Atomic Wigner-Seitz radii
   RWIGS  =  -1.00 -1.00
  virtual crystal weights 
   VCA    =   1.00  1.00
   NELECT =     361.0000    total number of electrons
   NUPDOWN=      -1.0000    fix difference up-down

 DOS related values:
   EMIN   =  10.00;   EMAX   =-10.00  energy-range for DOS
   EFERMI =   0.00;   METHOD = LEGACY      
   ISMEAR =     1;   SIGMA  =   0.10  broadening in eV -4-tet -1-fermi 0-gaus

 Electronic relaxation 2 (details)
   IALGO  =     68    algorithm
   LDIAG  =      T    sub-space diagonalisation (order eigenvalues)
   LSUBROT=      F    optimize rotation matrix (better conditioning)
   TURBO    =      0    0=normal 1=particle mesh
   IRESTART =      0    0=no restart 2=restart with 2 vectors
   NREBOOT  =      0    no. of reboots
   NMIN     =      0    reboot dimension
   EREF     =   0.00    reference energy to select bands
   IMIX   =      4    mixing-type and parameters
     AMIX     =   0.40;   BMIX     =  1.00
     AMIX_MAG =   1.60;   BMIX_MAG =  1.00
     AMIN     =   0.10
     WC   =   100.;   INIMIX=   1;  MIXPRE=   1;  MAXMIX= -45

 Intra band minimization:
   WEIMIN = 0.0000     energy-eigenvalue tresh-hold
   EBREAK =  0.10E-07  absolut break condition
   DEPER  =   0.30     relativ break condition  

   TIME   =   0.40     timestep for ELM

  volume/ion in A,a.u.               =      41.90       282.79
  Fermi-wavevector in a.u.,A,eV,Ry     =   1.007136  1.903211 13.800704  1.014323
  Thomas-Fermi vector in A             =   2.139922
 
 Write flags
   LWAVE        =      T    write WAVECAR
   LDOWNSAMPLE  =      F    k-point downsampling of WAVECAR
   LCHARG       =      T    write CHGCAR
   LVTOT        =      F    write LOCPOT, total local potential
   LVHAR        =      F    write LOCPOT, Hartree potential only
   LELF         =      F    write electronic localiz. function (ELF)
   LORBIT       =      0    0 simple, 1 ext, 2 COOP (PROOUT), +10 PAW based schemes


 Dipole corrections
   LMONO  =      F    monopole corrections only (constant potential shift)
   LDIPOL =      F    correct potential (dipole corrections)
   IDIPOL =      0    1-x, 2-y, 3-z, 4-all directions 
   EPSILON=  1.0000000 bulk dielectric constant

 Exchange correlation treatment:
   GGA     =    BF    GGA type
   LEXCH   =    17    internal setting for exchange type
   LIBXC   =     F    Libxc                    
   VOSKOWN =     0    Vosko Wilk Nusair interpolation
   LHFCALC =     F    Hartree Fock is set to
   LHFONE  =     F    Hartree Fock one center treatment
   AEXX    =    0.0000 exact exchange contribution

 vdW DFT:
   LUSE_VDW   =     T    switch on vdW DFT
   IVDW_NL    =     1    kernel type
   LSPIN_VDW  =     F    use spin-polarized vdW DFT
   Zab_VDW    =******    correlation parameter
   PARAM1     =0.1234
   PARAM2     =1.0000
   PARAM3     =0.0000
   -- rVV10 --
   BPARAM     = 6.3000
   CPARAM     = 0.0093

 Linear response parameters
   LEPSILON=     F    determine dielectric tensor
   LRPA    =     F    only Hartree local field effects (RPA)
   LNABLA  =     F    use nabla operator in PAW spheres
   LVEL    =     F    velocity operator in full k-point grid
   CSHIFT  =0.1000    complex shift for real part using Kramers Kronig
   OMEGAMAX=  -1.0    maximum frequency
   DEG_THRESHOLD= 0.2000000E-02 threshold for treating states as degnerate
   RTIME   =   -0.100 relaxation time in fs
  (WPLASMAI=    0.000 imaginary part of plasma frequency in eV, 0.658/RTIME)
   DFIELD  = 0.0000000 0.0000000 0.0000000 field for delta impulse in time
 
  Optional k-point grid parameters
   LKPOINTS_OPT  =     F    use optional k-point grid
   KPOINTS_OPT_MODE=     1    mode for optional k-point grid
 
 Orbital magnetization related:
   ORBITALMAG=     F  switch on orbital magnetization
   LCHIMAG   =     F  perturbation theory with respect to B field
   DQ        =  0.001000  dq finite difference perturbation B field
   LLRAUG    =     F  two centre corrections for induced B field
   LBONE     =     F  B-component reconstruction in AE one-centre
   LVGVCALC  =     T  calculate vGv susceptibility
   LVGVAPPL  =     F  apply vGv susceptibility instead of pGv for G=0

 Random number generation:
   RANDOM_GENERATOR = DEFAULT
   PCG_SEED         = not used


--------------------------------------------------------------------------------------------------------


 Static calculation
 charge density and potential will be updated during run
 non-spin polarized calculation
 RMM-DIIS sequential band-by-band and
  variant of blocked Davidson during initial phase
 perform sub-space diagonalisation
    before iterative eigenvector-optimisation
 modified Broyden-mixing scheme, WC =      100.0
 initial mixing is a Kerker type mixing with AMIX =  0.4000 and BMIX =      1.0000
 Hartree-type preconditioning will be used
 using additional bands           59
 real space projection scheme for non local part
 use partial core corrections
 calculate Harris-corrections to forces 
   (improved forces if not selfconsistent)
 use gradient corrections 
 use of overlap-Matrix (Vanderbilt PP)
 Methfessel and Paxton  Order N= 1 SIGMA  =   0.10


--------------------------------------------------------------------------------------------------------


  energy-cutoff  :      680.29
  volume of cell :     1550.48
      direct lattice vectors                 reciprocal lattice vectors
     8.468310000  0.000000000  0.000000000     0.118087316 -0.068177744  0.000000000
     4.234155000  7.333771587  0.000000000     0.000000000  0.136355488  0.000000000
     0.000000000  0.000000000 24.965661990     0.000000000  0.000000000  0.040055016

  length of vectors
     8.468310000  8.468310000 24.965661990     0.136355488  0.136355488  0.040055016


 
 old parameters found on file WAVECAR:
  energy-cutoff  :      680.29
  volume of cell :     1550.48
      direct lattice vectors                 reciprocal lattice vectors
     8.468310000  0.000000000  0.000000000     0.118087316 -0.068177744  0.000000000
     4.234155000  7.333771587  0.000000000     0.000000000  0.136355488  0.000000000
     0.000000000  0.000000000 24.965661990     0.000000000  0.000000000  0.040055016

  length of vectors

 
 k-points in units of 2pi/SCALE and weight: KPOINTS created by Atomic Simulation Env
   0.00000000  0.00000000  0.00000000       0.040
   0.02361746 -0.01363555  0.00000000       0.080
   0.02361746  0.01363555  0.00000000       0.080
   0.00000000  0.02727110  0.00000000       0.080
   0.04723493 -0.02727110  0.00000000       0.080
   0.04723493  0.02727110  0.00000000       0.080
   0.00000000  0.05454220  0.00000000       0.080
   0.04723493  0.00000000  0.00000000       0.080
   0.02361746  0.04090665  0.00000000       0.080
  -0.02361746  0.04090665  0.00000000       0.080
  -0.04723493  0.05454220  0.00000000       0.080
   0.04723493 -0.08181329  0.00000000       0.080
  -0.02361746  0.06817774  0.00000000       0.080
 
 k-points in reciprocal lattice and weights: KPOINTS created by Atomic Simulation Env
   0.00000000  0.00000000  0.00000000       0.040
   0.20000000  0.00000000  0.00000000       0.080
   0.20000000  0.20000000  0.00000000       0.080
   0.00000000  0.20000000  0.00000000       0.080
   0.40000000  0.00000000  0.00000000       0.080
   0.40000000  0.40000000  0.00000000       0.080
   0.00000000  0.40000000  0.00000000       0.080
   0.40000000  0.20000000  0.00000000       0.080
   0.20000000  0.40000000  0.00000000       0.080
  -0.20000000  0.20000000  0.00000000       0.080
  -0.40000000  0.20000000  0.00000000       0.080
   0.40000000 -0.40000000  0.00000000       0.080
  -0.20000000  0.40000000  0.00000000       0.080
 
 position of ions in fractional coordinates (direct lattice) 
   0.00000000  0.00000000  0.34046764
   0.33400137  0.00000000  0.34046764
   0.66800274  0.00000000  0.34046764
   0.00000000  0.33400137  0.34046764
   0.33400137  0.33400137  0.34046764
   0.66800274  0.33400137  0.34046764
   0.00000000  0.66800274  0.34046764
   0.33400137  0.66800274  0.34046764
   0.66800274  0.66800274  0.34046764
   0.11133379  0.11133379  0.43297074
   0.44533516  0.11133379  0.43297074
   0.77933653  0.11133379  0.43297074
   0.11133379  0.44533516  0.43297074
   0.44533516  0.44533516  0.43297074
   0.77933653  0.44533516  0.43297074
   0.11133379  0.77933653  0.43297074
   0.44533516  0.77933653  0.43297074
   0.77933653  0.77933653  0.43297074
   0.89061243  0.22436632  0.52490179
   0.22339205  0.22356810  0.52561558
   0.55646529  0.22386993  0.52454565
   0.89072442  0.55622037  0.52489292
   0.22371179  0.55663450  0.52452794
   0.55688344  0.55712071  0.52432416
   0.89029611  0.89046428  0.52406593
   0.22415581  0.89085844  0.52490956
   0.55601998  0.89093287  0.52489912
   0.00050991  0.00080477  0.61738076
   0.33768850  0.99848783  0.62055393
   0.66981689  0.00144711  0.61758508
   0.99812566  0.33799721  0.62053530
   0.33736506  0.33779911  0.61924374
   0.66832369  0.33522475  0.61769015
   0.00112647  0.67011929  0.61757342
   0.33489879  0.66865771  0.61768744
   0.66852885  0.66886387  0.61772671
   0.20983638  0.21015362  0.65634262
 
 position of ions in cartesian coordinates  (Angst):
   0.00000000  0.00000000  8.50000000
   2.82842712  0.00000000  8.50000000
   5.65685425  0.00000000  8.50000000
   1.41421356  2.44948974  8.50000000
   4.24264069  2.44948974  8.50000000
   7.07106781  2.44948974  8.50000000
   2.82842712  4.89897949  8.50000000
   5.65685425  4.89897949  8.50000000
   8.48528137  4.89897949  8.50000000
   1.41421356  0.81649658 10.80940108
   4.24264069  0.81649658 10.80940108
   7.07106781  0.81649658 10.80940108
   2.82842712  3.26598632 10.80940108
   5.65685425  3.26598632 10.80940108
   8.48528137  3.26598632 10.80940108
   4.24264069  5.71547607 10.80940108
   7.07106781  5.71547607 10.80940108
   9.89949494  5.71547607 10.80940108
   8.49198389  1.64545133 13.10452055
   2.83837514  1.63959735 13.12234089
   5.66022052  1.64181091 13.09562942
   9.89805379  4.07919314 13.10429924
   4.25133751  4.08223028 13.09518718
   7.07479707  4.08579604 13.09009965
  11.30966719  6.53046161 13.08365287
   5.67025366  6.53335234 13.10471457
   8.48089743  6.53389820 13.10445392
   0.00772560  0.00590202 15.41331941
   7.08740314  7.32268167 15.49253959
   5.67834438  0.01061278 15.41842035
   9.88357011  2.47879435 15.49207466
   4.28720571  2.47734149 15.45982988
   7.07896570  2.45846173 15.42104352
   2.84692825  4.91450184 15.41812936
   5.66722720  4.90378295 15.42097586
   8.49338280  4.90529482 15.42195631
   2.66678256  1.54121866 16.38602806
 


--------------------------------------------------------------------------------------------------------


 k-point   1 :   0.0000 0.0000 0.0000  plane waves:   62399
 k-point   2 :   0.2000 0.0000 0.0000  plane waves:   62407
 k-point   3 :   0.2000 0.2000 0.0000  plane waves:   62407
 k-point   4 :   0.0000 0.2000 0.0000  plane waves:   62407
 k-point   5 :   0.4000 0.0000 0.0000  plane waves:   62451
 k-point   6 :   0.4000 0.4000 0.0000  plane waves:   62451
 k-point   7 :   0.0000 0.4000 0.0000  plane waves:   62451
 k-point   8 :   0.4000 0.2000 0.0000  plane waves:   62510
 k-point   9 :   0.2000 0.4000 0.0000  plane waves:   62510
 k-point  10 :  -0.2000 0.2000 0.0000  plane waves:   62510
 k-point  11 :  -0.4000 0.2000 0.0000  plane waves:   62498
 k-point  12 :   0.4000-0.4000 0.0000  plane waves:   62498
 k-point  13 :  -0.2000 0.4000 0.0000  plane waves:   62498

 maximum and minimum number of plane-waves per node :     62510    62399

 maximum number of plane-waves:     62510
 maximum index in each direction: 
   IXMAX=   18   IYMAX=   18   IZMAX=   53
   IXMIN=  -18   IYMIN=  -18   IZMIN=  -53


 serial   3D FFT for wavefunctions
 parallel 3D FFT for charge:
    minimum data exchange during FFTs selected (reduces bandwidth)


 total amount of memory used by VASP MPI-rank0   148541. kBytes
=======================================================================

   base      :      30000. kBytes
   nonlr-proj:      22468. kBytes
   fftplans  :       5213. kBytes
   grid      :      24541. kBytes
   one-center:        575. kBytes
   wavefun   :      65744. kBytes
 
     INWAV:  cpu time      7.6205: real time     12.0717
 Broyden mixing: mesh for mixing (old mesh)
   NGX = 37   NGY = 37   NGZ =107
  (NGX  =108   NGY  =108   NGZ  =320)
  gives a total of 146483 points

 charge density for first step will be calculated from the start-wavefunctions


--------------------------------------------------------------------------------------------------------


 Maximum index for non-local projection operator         3550
 Maximum index for augmentation-charges         1167 (set IRDMAX)


--------------------------------------------------------------------------------------------------------


 initial charge from wavefunction
 First call to EWALD:  gamma=   0.153
 Maximum number of real-space cells 4x 4x 2
 Maximum number of reciprocal cells 2x 2x 5

    FEWALD:  cpu time      0.0040: real time      0.0040


--------------------------------------- Ionic step        1  -------------------------------------------




--------------------------------------- Iteration      1(   1)  ---------------------------------------


vdW kernel read from vdw_kernel.bindat
  0.0000  0.2424  0.5071  0.7962  1.1119  1.4567  1.8333  2.2446  2.6937  3.1842
  3.7199  4.3049  4.9438  5.6415  6.4036  7.2358  8.1446  9.1372 10.2212 11.4050
 12.6979 14.1099 15.6519 17.3360 19.1751 21.1837 23.3773 25.7729 28.3892 31.2465
 34.3669 37.7748 41.4965 45.5611 50.0000
 
    POTLOK:  cpu time      2.6841: real time      2.8456
    SETDIJ:  cpu time      0.0055: real time      0.0055
     EDDAV:  cpu time     16.0443: real time     16.1708
       DOS:  cpu time      0.0010: real time      0.0010
    CHARGE:  cpu time      0.7592: real time      0.7651
    MIXING:  cpu time      0.0031: real time      0.0031
    --------------------------------------------
      LOOP:  cpu time     19.4971: real time     19.7910

 eigenvalue-minimisations  :  6816
 total energy-change (2. order) :-0.1045316E+03  (-0.1178118E-02)
 number of electron     360.9999949 magnetization 
 augmentation part      114.1895414 magnetization 

 Broyden mixing:
  rms(total) = 0.30226E-01    rms(broyden)= 0.30226E-01
  rms(prec ) = 0.36206E-01
  weight for this iteration     100.00

 Free energy of the ion-electron system (eV)
  ---------------------------------------------------
  alpha Z        PSCENC =       797.33612757
  Ewald energy   TEWEN  =    132187.36395909
  -Hartree energ DENC   =   -159584.54441076
  -exchange      EXHF   =         0.00000000
  -V(xc)+E(xc)   XCENC  =        89.65328473
  PAW double counting   =     32173.68607088   -31175.71413033
  entropy T*S    EENTRO =        -0.09623394
  eigenvalues    EBANDS =     -1089.01942435
  atomic energy  EATOM  =     26496.80315902
  Solvation  Ediel_sol  =         0.00000000
  ---------------------------------------------------
  free energy    TOTEN  =      -104.53159809 eV

  energy without entropy =     -104.43536416  energy(sigma->0) =     -104.49952012


--------------------------------------------------------------------------------------------------------




--------------------------------------- Iteration      1(   2)  ---------------------------------------


    POTLOK:  cpu time      2.5294: real time      2.5437
    SETDIJ:  cpu time      0.0056: real time      0.0056
    EDDIAG:  cpu time      6.6676: real time      7.0818
  RMM-DIIS:  cpu time      8.2411: real time      8.2999
    ORTHCH:  cpu time      0.4973: real time      0.5015
       DOS:  cpu time      0.0010: real time      0.0010
    CHARGE:  cpu time      0.7539: real time      0.7592
    MIXING:  cpu time      0.0028: real time      0.0028
    --------------------------------------------
      LOOP:  cpu time     18.6988: real time     19.1956

 eigenvalue-minimisations  :  6616
 total energy-change (2. order) :-0.2491689E-01  (-0.9700231E-03)
 number of electron     360.9999948 magnetization 
 augmentation part      114.1843600 magnetization 

 Broyden mixing:
  rms(total) = 0.18224E+00    rms(broyden)= 0.18224E+00
  rms(prec ) = 0.24633E+00
  weight for this iteration     100.00

 eigenvalues of (default mixing * dielectric matrix)
  average eigenvalue GAMMA=   0.1321
  0.1321

 Free energy of the ion-electron system (eV)
  ---------------------------------------------------
  alpha Z        PSCENC =       797.33612757
  Ewald energy   TEWEN  =    132187.36395909
  -Hartree energ DENC   =   -159586.38536937
  -exchange      EXHF   =         0.00000000
  -V(xc)+E(xc)   XCENC  =        89.65043722
  PAW double counting   =     32174.51997548   -31176.54509890
  entropy T*S    EENTRO =        -0.09465181
  eigenvalues    EBANDS =     -1087.20505327
  atomic energy  EATOM  =     26496.80315902
  Solvation  Ediel_sol  =         0.00000000
  ---------------------------------------------------
  free energy    TOTEN  =      -104.55651498 eV

  energy without entropy =     -104.46186317  energy(sigma->0) =     -104.52496438


--------------------------------------------------------------------------------------------------------




--------------------------------------- Iteration      1(   3)  ---------------------------------------


    POTLOK:  cpu time      2.4825: real time      2.5380
    SETDIJ:  cpu time      0.0045: real time      0.0045
    EDDIAG:  cpu time      2.8290: real time      2.8505
  RMM-DIIS:  cpu time      8.6912: real time      8.7509
    ORTHCH:  cpu time      0.7187: real time      0.7239
       DOS:  cpu time      0.0010: real time      0.0010
    CHARGE:  cpu time      1.9767: real time      2.0085
    MIXING:  cpu time      0.2331: real time      0.2346
    --------------------------------------------
      LOOP:  cpu time     16.9367: real time     17.1118

 eigenvalue-minimisations  :  6747
 total energy-change (2. order) : 0.2184217E-01  (-0.4657770E-03)
 number of electron     360.9999949 magnetization 
 augmentation part      114.1846660 magnetization 

 Broyden mixing:
  rms(total) = 0.66304E-01    rms(broyden)= 0.66304E-01
  rms(prec ) = 0.88506E-01
  weight for this iteration     100.00

 eigenvalues of (default mixing * dielectric matrix)
  average eigenvalue GAMMA=   0.1493
  0.2116  0.0871

 Free energy of the ion-electron system (eV)
  ---------------------------------------------------
  alpha Z        PSCENC =       797.33612757
  Ewald energy   TEWEN  =    132187.36395909
  -Hartree energ DENC   =   -159585.76447488
  -exchange      EXHF   =         0.00000000
  -V(xc)+E(xc)   XCENC  =        89.65239252
  PAW double counting   =     32174.37672706   -31176.40289784
  entropy T*S    EENTRO =        -0.09552435
  eigenvalues    EBANDS =     -1087.80414100
  atomic energy  EATOM  =     26496.80315902
  Solvation  Ediel_sol  =         0.00000000
  ---------------------------------------------------
  free energy    TOTEN  =      -104.53467281 eV

  energy without entropy =     -104.43914847  energy(sigma->0) =     -104.50283136


--------------------------------------------------------------------------------------------------------




--------------------------------------- Iteration      1(   4)  ---------------------------------------


    POTLOK:  cpu time      3.4610: real time      3.5684
    SETDIJ:  cpu time      0.0045: real time      0.0045
    EDDIAG:  cpu time      2.9097: real time      2.9334
  RMM-DIIS:  cpu time      7.9610: real time      8.0183
    ORTHCH:  cpu time      0.6282: real time      0.6333
       DOS:  cpu time      0.0010: real time      0.0010
    CHARGE:  cpu time      0.7624: real time      0.7677
    MIXING:  cpu time      0.0023: real time      0.0023
    --------------------------------------------
      LOOP:  cpu time     15.7301: real time     15.9290

 eigenvalue-minimisations  :  6479
 total energy-change (2. order) : 0.3746719E-02  (-0.1053135E-03)
 number of electron     360.9999949 magnetization 
 augmentation part      114.1867383 magnetization 

 Broyden mixing:
  rms(total) = 0.74388E-02    rms(broyden)= 0.74388E-02
  rms(prec ) = 0.81247E-02
  weight for this iteration     100.00

 eigenvalues of (default mixing * dielectric matrix)
  average eigenvalue GAMMA=   0.2087
  0.3021  0.2374  0.0867

 Free energy of the ion-electron system (eV)
  ---------------------------------------------------
  alpha Z        PSCENC =       797.33612757
  Ewald energy   TEWEN  =    132187.36395909
  -Hartree energ DENC   =   -159585.22840638
  -exchange      EXHF   =         0.00000000
  -V(xc)+E(xc)   XCENC  =        89.65402891
  PAW double counting   =     32174.22436568   -31176.25058914
  entropy T*S    EENTRO =        -0.09600984
  eigenvalues    EBANDS =     -1088.33756098
  atomic energy  EATOM  =     26496.80315902
  Solvation  Ediel_sol  =         0.00000000
  ---------------------------------------------------
  free energy    TOTEN  =      -104.53092609 eV

  energy without entropy =     -104.43491625  energy(sigma->0) =     -104.49892281


--------------------------------------------------------------------------------------------------------




--------------------------------------- Iteration      1(   5)  ---------------------------------------


    POTLOK:  cpu time      2.4426: real time      2.4992
    SETDIJ:  cpu time      0.0044: real time      0.0044
    EDDIAG:  cpu time      2.9443: real time      2.9716
  RMM-DIIS:  cpu time      8.1020: real time      8.3160
    ORTHCH:  cpu time      3.4418: real time      3.4627
       DOS:  cpu time      0.0010: real time      0.0010
    CHARGE:  cpu time      0.7573: real time      0.7633
    MIXING:  cpu time      0.0024: real time      0.0024
    --------------------------------------------
      LOOP:  cpu time     17.6957: real time     18.0204

 eigenvalue-minimisations  :  6646
 total energy-change (2. order) : 0.4792913E-04  (-0.1526377E-04)
 number of electron     360.9999949 magnetization 
 augmentation part      114.1864375 magnetization 

 Broyden mixing:
  rms(total) = 0.53935E-02    rms(broyden)= 0.53935E-02
  rms(prec ) = 0.59499E-02
  weight for this iteration     100.00

 eigenvalues of (default mixing * dielectric matrix)
  average eigenvalue GAMMA=   0.3814
  0.9506  0.0870  0.1971  0.2908

 Free energy of the ion-electron system (eV)
  ---------------------------------------------------
  alpha Z        PSCENC =       797.33612757
  Ewald energy   TEWEN  =    132187.36395909
  -Hartree energ DENC   =   -159585.32729613
  -exchange      EXHF   =         0.00000000
  -V(xc)+E(xc)   XCENC  =        89.65382934
  PAW double counting   =     32174.20961868   -31176.23607039
  entropy T*S    EENTRO =        -0.09601315
  eigenvalues    EBANDS =     -1088.23819219
  atomic energy  EATOM  =     26496.80315902
  Solvation  Ediel_sol  =         0.00000000
  ---------------------------------------------------
  free energy    TOTEN  =      -104.53087816 eV

  energy without entropy =     -104.43486502  energy(sigma->0) =     -104.49887378


--------------------------------------------------------------------------------------------------------




--------------------------------------- Iteration      1(   6)  ---------------------------------------


    POTLOK:  cpu time      2.5498: real time      2.5779
    SETDIJ:  cpu time      0.0053: real time      0.0053
    EDDIAG:  cpu time      2.8216: real time      2.8433
  RMM-DIIS:  cpu time      6.9303: real time      6.9723
    ORTHCH:  cpu time      0.6724: real time      0.6782
       DOS:  cpu time      0.0009: real time      0.0009
    CHARGE:  cpu time      0.7930: real time      0.7992
    MIXING:  cpu time      0.0044: real time      0.0044
    --------------------------------------------
      LOOP:  cpu time     13.7777: real time     13.8816

 eigenvalue-minimisations  :  5070
 total energy-change (2. order) : 0.1365268E-04  (-0.2832274E-05)
 number of electron     360.9999949 magnetization 
 augmentation part      114.1866986 magnetization 

 Broyden mixing:
  rms(total) = 0.26827E-02    rms(broyden)= 0.26827E-02
  rms(prec ) = 0.28887E-02
  weight for this iteration     100.00

 eigenvalues of (default mixing * dielectric matrix)
  average eigenvalue GAMMA=   0.5102
  1.4404  0.5552  0.0870  0.2666  0.2021

 Free energy of the ion-electron system (eV)
  ---------------------------------------------------
  alpha Z        PSCENC =       797.33612757
  Ewald energy   TEWEN  =    132187.36395909
  -Hartree energ DENC   =   -159585.32306893
  -exchange      EXHF   =         0.00000000
  -V(xc)+E(xc)   XCENC  =        89.65399860
  PAW double counting   =     32174.11445011   -31176.14209687
  entropy T*S    EENTRO =        -0.09602407
  eigenvalues    EBANDS =     -1088.24136902
  atomic energy  EATOM  =     26496.80315902
  Solvation  Ediel_sol  =         0.00000000
  ---------------------------------------------------
  free energy    TOTEN  =      -104.53086451 eV

  energy without entropy =     -104.43484044  energy(sigma->0) =     -104.49885649


--------------------------------------------------------------------------------------------------------




--------------------------------------- Iteration      1(   7)  ---------------------------------------


    POTLOK:  cpu time      2.5018: real time      2.5629
    SETDIJ:  cpu time      0.0045: real time      0.0045
    EDDIAG:  cpu time      2.6730: real time      2.6927
  RMM-DIIS:  cpu time      6.3295: real time      6.5849
    ORTHCH:  cpu time      3.1412: real time      3.1607
       DOS:  cpu time      0.0011: real time      0.0011
    --------------------------------------------
      LOOP:  cpu time     14.6510: real time     15.0067

 eigenvalue-minimisations  :  4301
 total energy-change (2. order) :-0.6679329E-08  (-0.1222269E-05)
 number of electron     360.9999949 magnetization 
 augmentation part      114.1866986 magnetization 

 Free energy of the ion-electron system (eV)
  ---------------------------------------------------
  alpha Z        PSCENC =       797.33612757
  Ewald energy   TEWEN  =    132187.36395909
  -Hartree energ DENC   =   -159585.29227069
  -exchange      EXHF   =         0.00000000
  -V(xc)+E(xc)   XCENC  =        89.65423738
  PAW double counting   =     32174.05134911   -31176.07937676
  entropy T*S    EENTRO =        -0.09603553
  eigenvalues    EBANDS =     -1088.27201370
  atomic energy  EATOM  =     26496.80315902
  Solvation  Ediel_sol  =         0.00000000
  ---------------------------------------------------
  free energy    TOTEN  =      -104.53086452 eV

  energy without entropy =     -104.43482898  energy(sigma->0) =     -104.49885267


--------------------------------------------------------------------------------------------------------




 average (electrostatic) potential at core
  the test charge radii are     1.2059  0.5201
  (the norm of the test charge is              1.0000)
       1 -73.5441       2 -73.5382       3 -73.5386       4 -73.5380       5 -73.5269
       6 -73.5348       7 -73.5384       8 -73.5348       9 -73.5435      10 -73.9755
      11 -73.9684      12 -73.9792      13 -73.9680      14 -73.9871      15 -73.9932
      16 -73.9790      17 -73.9934      18 -73.9667      19 -73.9495      20 -73.9005
      21 -73.9596      22 -73.9502      23 -73.9594      24 -73.9741      25 -73.9983
      26 -73.9494      27 -73.9506      28 -73.5356      29 -73.6224      30 -73.5406
      31 -73.6224      32 -73.5370      33 -73.5566      34 -73.5407      35 -73.5567
      36 -73.5574      37 -38.4921
 
 
 
 E-fermi :  -0.0760     XC(G=0):  -5.8681     alpha+bet : -5.8354

 Fermi energy:        -0.0759664795

 k-point     1 :       0.0000    0.0000    0.0000
  band No.  band energies     occupation 
      1      -8.9064      2.00000
      2      -7.8449      2.00000
      3      -7.1324      2.00000
      4      -6.5030      2.00000
      5      -6.4749      2.00000
      6      -6.4534      2.00000
      7      -6.4518      2.00000
      8      -6.4448      2.00000
      9      -6.4402      2.00000
     10      -6.4268      2.00000
     11      -6.1685      2.00000
     12      -5.9240      2.00000
     13      -5.9188      2.00000
     14      -5.8991      2.00000
     15      -5.8977      2.00000
     16      -5.8928      2.00000
     17      -5.8411      2.00000
     18      -5.4662      2.00000
     19      -5.4616      2.00000
     20      -5.4592      2.00000
     21      -5.4507      2.00000
     22      -5.4506      2.00000
     23      -5.3316      2.00000
     24      -5.2284      2.00000
     25      -5.2259      2.00000
     26      -5.2228      2.00000
     27      -5.2191      2.00000
     28      -5.2159      2.00000
     29      -5.1355      2.00000
     30      -5.0338      2.00000
     31      -5.0277      2.00000
     32      -5.0247      2.00000
     33      -5.0202      2.00000
     34      -5.0172      2.00000
     35      -4.9668      2.00000
     36      -4.9616      2.00000
     37      -4.9574      2.00000
     38      -4.9496      2.00000
     39      -4.9178      2.00000
     40      -4.9129      2.00000
     41      -4.5029      2.00000
     42      -4.3800      2.00000
     43      -4.3732      2.00000
     44      -4.3533      2.00000
     45      -4.3421      2.00000
     46      -4.3214      2.00000
     47      -4.3187      2.00000
     48      -4.2996      2.00000
     49      -4.2826      2.00000
     50      -4.2816      2.00000
     51      -4.1745      2.00000
     52      -4.1367      2.00000
     53      -4.1350      2.00000
     54      -4.0352      2.00000
     55      -4.0307      2.00000
     56      -3.5852      2.00000
     57      -3.5786      2.00000
     58      -3.5643      2.00000
     59      -3.5627      2.00000
     60      -3.5560      2.00000
     61      -3.4966      2.00000
     62      -3.4666      2.00000
     63      -3.3863      2.00000
     64      -3.3815      2.00000
     65      -3.3755      2.00000
     66      -3.3743      2.00000
     67      -3.3662      2.00000
     68      -3.3650      2.00000
     69      -3.3481      2.00000
     70      -3.3180      2.00000
     71      -3.3132      2.00000
     72      -3.2990      2.00000
     73      -3.2985      2.00000
     74      -3.2933      2.00000
     75      -3.2710      2.00000
     76      -3.2617      2.00000
     77      -3.2601      2.00000
     78      -3.1611      2.00000
     79      -3.1538      2.00000
     80      -3.1388      2.00000
     81      -3.1356      2.00000
     82      -3.1348      2.00000
     83      -3.1046      2.00000
     84      -2.9413      2.00000
     85      -2.9376      2.00000
     86      -2.9358      2.00000
     87      -2.9286      2.00000
     88      -2.9212      2.00000
     89      -2.9002      2.00000
     90      -2.8889      2.00000
     91      -2.8858      2.00000
     92      -2.8392      2.00000
     93      -2.8297      2.00000
     94      -2.7914      2.00000
     95      -2.7861      2.00000
     96      -2.7455      2.00000
     97      -2.7405      2.00000
     98      -2.7002      2.00000
     99      -2.6924      2.00000
    100      -2.6909      2.00000
    101      -2.6012      2.00000
    102      -2.5346      2.00000
    103      -2.5212      2.00000
    104      -2.5164      2.00000
    105      -2.5086      2.00000
    106      -2.5037      2.00000
    107      -2.4955      2.00000
    108      -2.2793      2.00000
    109      -2.0226      2.00000
    110      -2.0005      2.00000
    111      -2.0004      2.00000
    112      -1.9898      2.00000
    113      -1.9868      2.00000
    114      -1.9786      2.00000
    115      -1.9735      2.00000
    116      -1.9721      2.00000
    117      -1.9629      2.00000
    118      -1.9565      2.00000
    119      -1.9512      2.00000
    120      -1.8713      2.00000
    121      -1.8648      2.00000
    122      -1.8191      2.00000
    123      -1.7427      2.00000
    124      -1.7260      2.00000
    125      -1.7227      2.00000
    126      -1.7213      2.00000
    127      -1.7091      2.00000
    128      -1.6179      2.00000
    129      -1.5978      2.00000
    130      -1.5390      2.00000
    131      -1.5382      2.00000
    132      -1.5206      2.00000
    133      -1.4976      2.00000
    134      -1.2937      2.00000
    135      -1.2847      2.00000
    136      -1.2688      2.00000
    137      -1.2581      2.00000
    138      -1.2539      2.00000
    139      -1.2511      2.00000
    140      -1.1883      2.00000
    141      -1.1794      2.00000
    142      -1.0521      2.00000
    143      -1.0445      2.00000
    144      -1.0381      2.00000
    145      -1.0328      2.00000
    146      -1.0260      2.00000
    147      -1.0225      2.00000
    148      -0.8735      2.00000
    149      -0.8605      2.00000
    150      -0.8596      2.00000
    151      -0.8459      2.00000
    152      -0.8365      2.00000
    153      -0.8256      2.00000
    154      -0.8219      2.00000
    155      -0.8202      2.00000
    156      -0.8149      2.00000
    157      -0.8082      2.00000
    158      -0.8047      2.00000
    159      -0.8000      2.00000
    160      -0.7253      2.00000
    161      -0.7171      2.00000
    162      -0.6985      2.00000
    163      -0.6939      2.00000
    164      -0.6772      2.00000
    165      -0.6563      2.00000
    166      -0.6499      2.00000
    167      -0.6433      2.00000
    168      -0.6046      2.00000
    169      -0.5983      2.00000
    170      -0.5875      2.00000
    171      -0.5663      2.00000
    172      -0.5508      2.00000
    173      -0.5464      2.00000
    174      -0.5437      2.00000
    175      -0.5388      2.00000
    176      -0.4627      2.00000
    177      -0.4579      2.00000
    178      -0.4461      2.00000
    179      -0.4402      2.00000
    180      -0.4313      2.00001
    181      -0.4304      2.00001
    182      -0.3858      2.00011
    183      -0.3464      2.00089
    184      -0.3413      2.00114
    185      -0.3250      2.00241
    186      -0.3212      2.00285
    187      -0.3112      2.00437
    188      -0.3103      2.00453
    189      -0.1155      1.61514
    190      -0.1070      1.49796
    191      -0.0166      0.16559
    192      -0.0140      0.14265
    193      -0.0075      0.09103
    194       0.0004      0.03987
    195       0.0046      0.01715
    196       0.0107     -0.01021
    197       0.5375     -0.00000
    198       0.8236     -0.00000
    199       0.8409     -0.00000
    200       0.8549     -0.00000
    201       0.8914     -0.00000
    202       0.9002     -0.00000
    203       0.9031     -0.00000
    204       2.8282      0.00000
    205       3.1340      0.00000
    206       3.1511      0.00000
    207       3.2013      0.00000
    208       3.2150      0.00000
    209       3.2162      0.00000
    210       4.6416      0.00000
    211       4.7170      0.00000
    212       4.7533      0.00000
    213       4.8156      0.00000
    214       4.8217      0.00000
    215       4.8224      0.00000
    216       4.9176      0.00000
    217       5.1124      0.00000
    218       5.2914      0.00000
    219       5.4313      0.00000
    220       5.4905      0.00000
    221       5.7899      0.00000
    222       5.8007      0.00000
    223       5.8486      0.00000
    224       5.8582      0.00000
    225       5.8664      0.00000
    226       6.1700      0.00000
    227       6.3339      0.00000
    228       6.6113      0.00000
    229       6.6152      0.00000
    230       6.6197      0.00000
    231       6.8557      0.00000
    232       7.0343      0.00000
    233       7.1323      0.00000
    234       7.1414      0.00000
    235       7.1607      0.00000
    236       7.1628      0.00000
    237       7.1667      0.00000
    238       7.2502      0.00000
    239       7.2604      0.00000
    240       7.5344      0.00000

 k-point     2 :       0.2000    0.0000    0.0000
  band No.  band energies     occupation 
      1      -8.7587      2.00000
      2      -7.7300      2.00000
      3      -7.0814      2.00000
      4      -6.9284      2.00000
      5      -6.5596      2.00000
      6      -6.5524      2.00000
      7      -6.3612      2.00000
      8      -6.2625      2.00000
      9      -6.2233      2.00000
     10      -6.2134      2.00000
     11      -6.1320      2.00000
     12      -6.0052      2.00000
     13      -5.9704      2.00000
     14      -5.8498      2.00000
     15      -5.8296      2.00000
     16      -5.8237      2.00000
     17      -5.7567      2.00000
     18      -5.5370      2.00000
     19      -5.4244      2.00000
     20      -5.4161      2.00000
     21      -5.4048      2.00000
     22      -5.3866      2.00000
     23      -5.3360      2.00000
     24      -5.3000      2.00000
     25      -5.2766      2.00000
     26      -5.2361      2.00000
     27      -5.2195      2.00000
     28      -5.2112      2.00000
     29      -5.1497      2.00000
     30      -5.1162      2.00000
     31      -5.1080      2.00000
     32      -5.0377      2.00000
     33      -5.0204      2.00000
     34      -5.0107      2.00000
     35      -5.0075      2.00000
     36      -4.8706      2.00000
     37      -4.8134      2.00000
     38      -4.7812      2.00000
     39      -4.7714      2.00000
     40      -4.7525      2.00000
     41      -4.5472      2.00000
     42      -4.4972      2.00000
     43      -4.4909      2.00000
     44      -4.4562      2.00000
     45      -4.4137      2.00000
     46      -4.3929      2.00000
     47      -4.3856      2.00000
     48      -4.3162      2.00000
     49      -4.2106      2.00000
     50      -4.1741      2.00000
     51      -4.1232      2.00000
     52      -4.1092      2.00000
     53      -4.0632      2.00000
     54      -4.0473      2.00000
     55      -4.0274      2.00000
     56      -3.8323      2.00000
     57      -3.7366      2.00000
     58      -3.7325      2.00000
     59      -3.6819      2.00000
     60      -3.6601      2.00000
     61      -3.6206      2.00000
     62      -3.5839      2.00000
     63      -3.5635      2.00000
     64      -3.5530      2.00000
     65      -3.5338      2.00000
     66      -3.5251      2.00000
     67      -3.4694      2.00000
     68      -3.4509      2.00000
     69      -3.4070      2.00000
     70      -3.3727      2.00000
     71      -3.3625      2.00000
     72      -3.3360      2.00000
     73      -3.2715      2.00000
     74      -3.2634      2.00000
     75      -3.2410      2.00000
     76      -3.1812      2.00000
     77      -3.1743      2.00000
     78      -3.1618      2.00000
     79      -3.1309      2.00000
     80      -3.1024      2.00000
     81      -3.0851      2.00000
     82      -3.0701      2.00000
     83      -3.0301      2.00000
     84      -3.0068      2.00000
     85      -2.9627      2.00000
     86      -2.9575      2.00000
     87      -2.9419      2.00000
     88      -2.9319      2.00000
     89      -2.9125      2.00000
     90      -2.9004      2.00000
     91      -2.8701      2.00000
     92      -2.8334      2.00000
     93      -2.8036      2.00000
     94      -2.7865      2.00000
     95      -2.7749      2.00000
     96      -2.7587      2.00000
     97      -2.7336      2.00000
     98      -2.7274      2.00000
     99      -2.7003      2.00000
    100      -2.6813      2.00000
    101      -2.6177      2.00000
    102      -2.5686      2.00000
    103      -2.5538      2.00000
    104      -2.5203      2.00000
    105      -2.5111      2.00000
    106      -2.5020      2.00000
    107      -2.4978      2.00000
    108      -2.4922      2.00000
    109      -2.4479      2.00000
    110      -2.4371      2.00000
    111      -2.4291      2.00000
    112      -2.4209      2.00000
    113      -2.1896      2.00000
    114      -2.0756      2.00000
    115      -2.0315      2.00000
    116      -2.0083      2.00000
    117      -2.0035      2.00000
    118      -1.9900      2.00000
    119      -1.9839      2.00000
    120      -1.9538      2.00000
    121      -1.9385      2.00000
    122      -1.8683      2.00000
    123      -1.8033      2.00000
    124      -1.7803      2.00000
    125      -1.7106      2.00000
    126      -1.6563      2.00000
    127      -1.6508      2.00000
    128      -1.6108      2.00000
    129      -1.5917      2.00000
    130      -1.5787      2.00000
    131      -1.5503      2.00000
    132      -1.5403      2.00000
    133      -1.5262      2.00000
    134      -1.4429      2.00000
    135      -1.4140      2.00000
    136      -1.3977      2.00000
    137      -1.3878      2.00000
    138      -1.3773      2.00000
    139      -1.2481      2.00000
    140      -1.2027      2.00000
    141      -1.1776      2.00000
    142      -1.1632      2.00000
    143      -1.1540      2.00000
    144      -1.1446      2.00000
    145      -1.1240      2.00000
    146      -1.0574      2.00000
    147      -1.0384      2.00000
    148      -1.0042      2.00000
    149      -0.9941      2.00000
    150      -0.9879      2.00000
    151      -0.9336      2.00000
    152      -0.9275      2.00000
    153      -0.9079      2.00000
    154      -0.8958      2.00000
    155      -0.8135      2.00000
    156      -0.7961      2.00000
    157      -0.7764      2.00000
    158      -0.7647      2.00000
    159      -0.7264      2.00000
    160      -0.6634      2.00000
    161      -0.6494      2.00000
    162      -0.6290      2.00000
    163      -0.6069      2.00000
    164      -0.5916      2.00000
    165      -0.5627      2.00000
    166      -0.5468      2.00000
    167      -0.4866      2.00000
    168      -0.4770      2.00000
    169      -0.4145      2.00002
    170      -0.4073      2.00003
    171      -0.3997      2.00005
    172      -0.3865      2.00010
    173      -0.3623      2.00039
    174      -0.3555      2.00056
    175      -0.3497      2.00075
    176      -0.3399      2.00122
    177      -0.3309      2.00185
    178      -0.2739      2.01707
    179      -0.2688      2.02004
    180      -0.1285      1.76735
    181      -0.1203      1.67433
    182      -0.1040      1.45395
    183      -0.0898      1.23089
    184      -0.0737      0.96207
    185      -0.0688      0.87928
    186      -0.0356      0.37402
    187      -0.0246      0.24518
    188      -0.0073      0.08942
    189       0.0033      0.02348
    190       0.0648     -0.06300
    191       0.1026     -0.02995
    192       0.1302     -0.01306
    193       0.1985     -0.00073
    194       0.2913     -0.00000
    195       0.2952     -0.00000
    196       0.3116     -0.00000
    197       0.3542     -0.00000
    198       0.6899     -0.00000
    199       0.7469     -0.00000
    200       1.2494     -0.00000
    201       1.4595     -0.00000
    202       1.4821     -0.00000
    203       1.5965     -0.00000
    204       2.3936     -0.00000
    205       2.8091      0.00000
    206       2.9048      0.00000
    207       3.5634      0.00000
    208       3.6443      0.00000
    209       3.6538      0.00000
    210       3.7392      0.00000
    211       3.9763      0.00000
    212       4.4348      0.00000
    213       4.6032      0.00000
    214       4.7592      0.00000
    215       4.9579      0.00000
    216       4.9880      0.00000
    217       5.0123      0.00000
    218       5.2271      0.00000
    219       5.3045      0.00000
    220       5.4607      0.00000
    221       5.6623      0.00000
    222       5.6972      0.00000
    223       5.7636      0.00000
    224       5.8985      0.00000
    225       6.1333      0.00000
    226       6.2559      0.00000
    227       6.2891      0.00000
    228       6.3287      0.00000
    229       6.3452      0.00000
    230       6.6054      0.00000
    231       6.6830      0.00000
    232       6.7568      0.00000
    233       6.7921      0.00000
    234       6.8786      0.00000
    235       6.9458      0.00000
    236       7.0566      0.00000
    237       7.2894      0.00000
    238       7.4648      0.00000
    239       7.4924      0.00000
    240       7.6127      0.00000

 k-point     3 :       0.2000    0.2000    0.0000
  band No.  band energies     occupation 
      1      -8.7594      2.00000
      2      -7.7366      2.00000
      3      -7.0987      2.00000
      4      -6.9104      2.00000
      5      -6.5601      2.00000
      6      -6.5529      2.00000
      7      -6.3617      2.00000
      8      -6.2687      2.00000
      9      -6.2155      2.00000
     10      -6.2133      2.00000
     11      -6.1487      2.00000
     12      -6.0025      2.00000
     13      -5.9340      2.00000
     14      -5.8543      2.00000
     15      -5.8290      2.00000
     16      -5.8238      2.00000
     17      -5.7809      2.00000
     18      -5.5333      2.00000
     19      -5.4226      2.00000
     20      -5.4145      2.00000
     21      -5.4090      2.00000
     22      -5.3702      2.00000
     23      -5.3349      2.00000
     24      -5.2940      2.00000
     25      -5.2757      2.00000
     26      -5.2533      2.00000
     27      -5.2181      2.00000
     28      -5.2158      2.00000
     29      -5.1365      2.00000
     30      -5.1119      2.00000
     31      -5.1041      2.00000
     32      -5.0391      2.00000
     33      -5.0184      2.00000
     34      -5.0093      2.00000
     35      -5.0067      2.00000
     36      -4.8584      2.00000
     37      -4.8121      2.00000
     38      -4.7781      2.00000
     39      -4.7765      2.00000
     40      -4.7554      2.00000
     41      -4.5352      2.00000
     42      -4.4954      2.00000
     43      -4.4843      2.00000
     44      -4.4567      2.00000
     45      -4.4173      2.00000
     46      -4.3957      2.00000
     47      -4.3854      2.00000
     48      -4.3293      2.00000
     49      -4.2094      2.00000
     50      -4.1754      2.00000
     51      -4.1246      2.00000
     52      -4.1104      2.00000
     53      -4.0611      2.00000
     54      -4.0462      2.00000
     55      -4.0218      2.00000
     56      -3.8273      2.00000
     57      -3.7353      2.00000
     58      -3.7337      2.00000
     59      -3.6766      2.00000
     60      -3.6580      2.00000
     61      -3.6182      2.00000
     62      -3.5796      2.00000
     63      -3.5740      2.00000
     64      -3.5509      2.00000
     65      -3.5287      2.00000
     66      -3.5284      2.00000
     67      -3.4857      2.00000
     68      -3.4463      2.00000
     69      -3.3980      2.00000
     70      -3.3677      2.00000
     71      -3.3615      2.00000
     72      -3.3439      2.00000
     73      -3.2836      2.00000
     74      -3.2682      2.00000
     75      -3.2559      2.00000
     76      -3.1828      2.00000
     77      -3.1676      2.00000
     78      -3.1598      2.00000
     79      -3.1308      2.00000
     80      -3.0943      2.00000
     81      -3.0704      2.00000
     82      -3.0689      2.00000
     83      -3.0395      2.00000
     84      -3.0052      2.00000
     85      -2.9634      2.00000
     86      -2.9627      2.00000
     87      -2.9346      2.00000
     88      -2.9321      2.00000
     89      -2.9092      2.00000
     90      -2.9065      2.00000
     91      -2.8694      2.00000
     92      -2.8360      2.00000
     93      -2.7953      2.00000
     94      -2.7939      2.00000
     95      -2.7744      2.00000
     96      -2.7595      2.00000
     97      -2.7301      2.00000
     98      -2.7289      2.00000
     99      -2.7078      2.00000
    100      -2.6886      2.00000
    101      -2.6176      2.00000
    102      -2.5666      2.00000
    103      -2.5544      2.00000
    104      -2.5274      2.00000
    105      -2.5164      2.00000
    106      -2.5070      2.00000
    107      -2.4982      2.00000
    108      -2.4969      2.00000
    109      -2.4492      2.00000
    110      -2.4363      2.00000
    111      -2.4335      2.00000
    112      -2.4237      2.00000
    113      -2.1718      2.00000
    114      -2.0758      2.00000
    115      -2.0368      2.00000
    116      -2.0213      2.00000
    117      -1.9992      2.00000
    118      -1.9959      2.00000
    119      -1.9810      2.00000
    120      -1.9476      2.00000
    121      -1.9379      2.00000
    122      -1.8904      2.00000
    123      -1.8148      2.00000
    124      -1.7852      2.00000
    125      -1.7106      2.00000
    126      -1.6569      2.00000
    127      -1.6538      2.00000
    128      -1.6073      2.00000
    129      -1.6008      2.00000
    130      -1.5809      2.00000
    131      -1.5565      2.00000
    132      -1.5383      2.00000
[...]
    148      -1.1311      2.00000
    149      -1.1127      2.00000
    150      -1.0700      2.00000
    151      -1.0584      2.00000
    152      -1.0342      2.00000
    153      -1.0300      2.00000
    154      -0.8932      2.00000
    155      -0.8672      2.00000
    156      -0.8032      2.00000
    157      -0.7384      2.00000
    158      -0.7157      2.00000
    159      -0.6362      2.00000
    160      -0.6204      2.00000
    161      -0.5822      2.00000
    162      -0.5161      2.00000
    163      -0.5038      2.00000
    164      -0.4991      2.00000
    165      -0.4080      2.00003
    166      -0.3937      2.00007
    167      -0.3098      2.00463
    168      -0.2953      2.00814
    169      -0.2833      2.01253
    170      -0.2739      2.01707
    171      -0.2702      2.01920
    172      -0.2374      2.04477
    173      -0.2169      2.06284
    174      -0.1759      2.05010
    175      -0.1195      1.66497
    176      -0.1128      1.57875
    177      -0.0795      1.06033
    178      -0.0679      0.86426
    179      -0.0550      0.65379
    180      -0.0536      0.63146
    181      -0.0477      0.54150
    182       0.0237     -0.04965
    183       0.1106     -0.02409
    184       0.1538     -0.00545
    185       0.1593     -0.00436
    186       0.1686     -0.00294
    187       0.1752     -0.00220
    188       0.2242     -0.00019
    189       0.2681     -0.00001
    190       0.3545     -0.00000
    191       0.4523     -0.00000
    192       1.1710     -0.00000
    193       1.3301     -0.00000
    194       1.3504     -0.00000
    195       1.5086     -0.00000
    196       1.5688     -0.00000
    197       1.6448     -0.00000
    198       1.7031     -0.00000
    199       1.7102     -0.00000
    200       2.0558     -0.00000
    201       2.2899     -0.00000
    202       2.3426     -0.00000
    203       2.5321     -0.00000
    204       2.7765      0.00000
    205       2.8024      0.00000
    206       2.8891      0.00000
    207       2.9315      0.00000
    208       3.0850      0.00000
    209       3.1916      0.00000
    210       3.2565      0.00000
    211       3.2934      0.00000
    212       3.5693      0.00000
    213       3.7051      0.00000
    214       3.7509      0.00000
    215       4.1973      0.00000
    216       4.3897      0.00000
    217       4.4246      0.00000
    218       4.6874      0.00000
    219       4.7181      0.00000
    220       5.5214      0.00000
    221       5.5629      0.00000
    222       5.5662      0.00000
    223       5.6586      0.00000
    224       5.7271      0.00000
    225       5.7934      0.00000
    226       5.8815      0.00000
    227       5.9737      0.00000
    228       6.0020      0.00000
    229       6.0109      0.00000
    230       6.0320      0.00000
    231       6.2361      0.00000
    232       6.3988      0.00000
    233       6.5555      0.00000
    234       6.6600      0.00000
    235       6.7991      0.00000
    236       6.9715      0.00000
    237       6.9825      0.00000
    238       7.1448      0.00000
    239       7.2229      0.00000
    240       7.3302      0.00000


--------------------------------------------------------------------------------------------------------


 soft charge-density along one line, spin component           1
         0         1         2         3         4         5         6         7         8         9
 total charge-density along one line
 
 pseudopotential strength for first ion, spin component:           1
 -6.580   0.001   0.000  -0.009  -0.000  -6.674   0.001   0.000
  0.001  -6.465   0.001   0.000  -0.011   0.001  -6.563   0.001
  0.000   0.001  -6.454   0.001   0.000   0.000   0.001  -6.553
 -0.009   0.000   0.001  -6.465   0.001  -0.009   0.000   0.001
 -0.000  -0.011   0.000   0.001  -6.579  -0.000  -0.010   0.000
 -6.674   0.001   0.000  -0.009  -0.000  -6.753   0.001   0.000
  0.001  -6.563   0.001   0.000  -0.010   0.001  -6.645   0.001
  0.000   0.001  -6.553   0.001   0.000   0.000   0.001  -6.635
 -0.009   0.000   0.001  -6.563   0.001  -0.009   0.000   0.001
 -0.000  -0.010   0.000   0.001  -6.674  -0.000  -0.010   0.000
 -0.000  -0.000  -0.035  -0.001  -0.000  -0.000  -0.000  -0.034
 -0.000  -0.001  -0.052  -0.001  -0.000  -0.000  -0.001  -0.051
 -0.000  -0.005   0.000   0.000   0.000  -0.000  -0.004   0.000
  0.000  -0.000  -0.008  -0.000   0.000   0.000  -0.000  -0.008
  0.000   0.000   0.000  -0.005  -0.000   0.000   0.000   0.000
 -0.000  -0.004   0.000   0.000   0.001  -0.000  -0.003   0.000
  0.000  -0.000  -0.009  -0.000   0.000   0.000  -0.000  -0.008
  0.000   0.000   0.000  -0.004  -0.000   0.000   0.000   0.000
 total augmentation occupancy for first ion, spin component:           1
  3.233   0.005   0.010  -0.257  -0.020  -1.902  -0.002  -0.006   0.079   0.013   0.003  -0.000   0.006  -0.001  -0.041  -0.000
  0.005   4.234   0.009   0.008  -0.263  -0.002  -2.180  -0.005  -0.003   0.091   0.006  -0.003  -0.246   0.001   0.001   0.014
  0.010   0.009   4.374   0.014   0.006  -0.006  -0.005  -2.559  -0.008  -0.004   0.842  -0.184  -0.002  -0.280  -0.003   0.000
 -0.257   0.008   0.014   4.245   0.005   0.088  -0.003  -0.007  -2.184  -0.002   0.010  -0.004   0.001   0.002  -0.245  -0.000
 -0.020  -0.263   0.006   0.005   3.257   0.013   0.082  -0.003  -0.003  -1.917   0.002  -0.000  -0.048  -0.000   0.006   0.004
 -1.902  -0.002  -0.006   0.088   0.013   2.219   0.001   0.003   0.040  -0.008  -0.003   0.000  -0.007  -0.000   0.040   0.000
 -0.002  -2.180  -0.005  -0.003   0.082   0.001   1.976   0.002  -0.001   0.039  -0.004   0.001   0.237  -0.002  -0.001  -0.019
 -0.006  -0.005  -2.559  -0.007  -0.003   0.003   0.002   2.530   0.003   0.002  -0.708   0.127   0.002   0.337   0.004  -0.000
  0.079  -0.003  -0.008  -2.184  -0.003   0.040  -0.001   0.003   1.975   0.001  -0.007   0.002  -0.001  -0.003   0.235   0.000
  0.013   0.091  -0.004  -0.002  -1.917  -0.008   0.039   0.002   0.001   2.229  -0.002   0.000   0.048  -0.000  -0.007  -0.004
  0.003   0.006   0.842   0.010   0.002  -0.003  -0.004  -0.708  -0.007  -0.002   2.506  -0.575  -0.003   0.191  -0.005   0.000
 -0.000  -0.003  -0.184  -0.004  -0.000   0.000   0.001   0.127   0.002   0.000  -0.575   0.148   0.001  -0.068   0.001  -0.000
  0.006  -0.246  -0.002   0.001  -0.048  -0.007   0.237   0.002  -0.001   0.048  -0.003   0.001   0.254  -0.000  -0.000  -0.018
 -0.001   0.001  -0.280   0.002  -0.000  -0.000  -0.002   0.337  -0.003  -0.000   0.191  -0.068  -0.000   0.142  -0.000   0.000
 -0.041   0.001  -0.003  -0.245   0.006   0.040  -0.001   0.004   0.235  -0.007  -0.005   0.001  -0.000  -0.000   0.254   0.000
 -0.000   0.014   0.000  -0.000   0.004   0.000  -0.019  -0.000   0.000  -0.004   0.000  -0.000  -0.018   0.000   0.000   0.001
  0.000  -0.000   0.008  -0.000   0.000   0.000   0.000  -0.023   0.000   0.000  -0.021   0.007   0.000  -0.011   0.000  -0.000
  0.003  -0.000   0.000   0.014  -0.000  -0.003   0.000  -0.000  -0.019   0.000   0.000  -0.000   0.000   0.000  -0.018  -0.000


------------------------ aborting loop because EDIFF is reached ----------------------------------------


    CHARGE:  cpu time      0.7733: real time      0.7806
    FORLOC:  cpu time      0.0168: real time      0.0169
    FORNL :  cpu time      2.6084: real time      2.6332
    STRESS:  cpu time      7.7571: real time      7.8263
    FORCOR:  cpu time      2.3823: real time      2.3982
    FORHAR:  cpu time      0.0158: real time      0.0159
    MIXING:  cpu time      0.0051: real time      0.0052
    OFIELD:  cpu time      0.0000: real time      0.0000

  FORCE on cell =-STRESS in cart. coord.  units (eV):
  Direction    XX          YY          ZZ          XY          YZ          ZX
  --------------------------------------------------------------------------------------
  Alpha Z   797.33613   797.33613   797.33613
  Ewald  151912.17016151929.56899************   -14.26007    -0.99919    -0.96517
  Hartree157870.45183157875.42401************    -4.05224    -0.40117    -0.50934
  E(xc)   -1657.72482 -1657.52571 -1666.88456    -0.16354    -0.02247    -0.02839
  Local  ************************321273.40234    15.50194     0.92134     0.88406
  n-local   108.31649   108.81353    86.04487    -0.37101     0.01500     0.09543
  augment  1891.73378  1890.68784  1954.85239     0.82810     0.23708     0.30424
  Kinetic  5211.06694  5207.88337  5371.24210     2.59917     0.31959     0.34858
  Fock        0.00000     0.00000     0.00000     0.00000     0.00000     0.00000
  -------------------------------------------------------------------------------------
  Total     -33.07834   -33.17493     2.14958     0.08234     0.07017     0.12940
  in kB     -34.18118   -34.28099     2.22124     0.08509     0.07251     0.13371
  external pressure =      -22.08 kB  Pullay stress =        0.00 kB


 VOLUME and BASIS-vectors are now :
 -----------------------------------------------------------------------------
  energy-cutoff  :      680.29
  volume of cell :     1550.48
      direct lattice vectors                 reciprocal lattice vectors
     8.468310000  0.000000000  0.000000000     0.118087316 -0.068177744  0.000000000
     4.234155000  7.333771587  0.000000000     0.000000000  0.136355488  0.000000000
     0.000000000  0.000000000 24.965661990     0.000000000  0.000000000  0.040055016

  length of vectors
     8.468310000  8.468310000 24.965661990     0.136355488  0.136355488  0.040055016


 FORCES acting on ions
    electron-ion (+dipol)            ewald-force                    non-local-force                 convergence-correction
 -----------------------------------------------------------------------------------------------
   -.381E+01 -.220E+01 0.248E+04   0.379E+01 0.219E+01 -.248E+04   0.937E-01 0.546E-01 -.130E+01   -.178E-01 -.854E-02 -.662E-02
   -.445E+00 -.398E+01 0.248E+04   0.435E+00 0.391E+01 -.247E+04   0.216E-01 0.106E+00 -.128E+01   -.137E-03 0.165E-01 -.146E-01
   0.366E+01 -.578E+01 0.248E+04   -.370E+01 0.575E+01 -.247E+04   -.210E-01 0.106E+00 -.129E+01   0.181E-01 -.301E-02 0.891E-02
   -.367E+01 0.160E+01 0.248E+04   0.360E+01 -.158E+01 -.247E+04   0.102E+00 -.339E-01 -.128E+01   0.128E-01 0.132E-02 -.664E-02
   -.214E-01 -.186E-01 0.247E+04   0.341E-01 0.164E-01 -.247E+04   -.292E-02 -.132E-02 -.130E+01   -.102E-01 0.292E-02 0.649E-02
   0.348E+01 -.219E+01 0.247E+04   -.346E+01 0.219E+01 -.247E+04   -.703E-01 0.275E-01 -.130E+01   -.248E-02 -.250E-01 -.112E-01
   -.318E+01 0.607E+01 0.248E+04   0.313E+01 -.608E+01 -.247E+04   0.812E-01 -.706E-01 -.129E+01   0.487E-02 0.742E-02 0.167E-01
   -.148E+00 0.411E+01 0.247E+04   0.171E+00 -.409E+01 -.247E+04   -.116E-01 -.744E-01 -.130E+01   -.305E-01 0.418E-02 -.116E-01
   0.371E+01 0.215E+01 0.247E+04   -.370E+01 -.213E+01 -.247E+04   -.102E+00 -.589E-01 -.128E+01   0.259E-01 0.435E-02 -.898E-02
   -.576E+01 -.335E+01 0.833E+03   0.571E+01 0.331E+01 -.833E+03   0.130E+00 0.772E-01 -.263E+00   0.449E-02 0.148E-01 0.185E-01
   0.264E+01 -.498E+01 0.834E+03   -.264E+01 0.493E+01 -.834E+03   -.177E-01 0.105E+00 -.265E+00   0.198E-01 0.128E-01 0.463E-01
   0.233E+01 -.718E+01 0.835E+03   -.233E+01 0.716E+01 -.835E+03   -.425E-01 0.173E+00 -.315E+00   -.243E-01 -.392E-01 0.259E-01
   -.296E+01 0.477E+01 0.834E+03   0.292E+01 -.476E+01 -.834E+03   0.801E-01 -.655E-01 -.266E+00   0.103E-01 0.244E-01 0.524E-01
   0.111E+01 0.663E+00 0.838E+03   -.109E+01 -.660E+00 -.837E+03   0.213E-01 0.134E-01 -.367E+00   -.461E-01 -.193E-01 0.331E-01
   0.173E+01 -.826E+00 0.835E+03   -.173E+01 0.802E+00 -.835E+03   -.954E-01 0.370E-01 -.327E+00   0.366E-01 0.315E-02 0.281E-01
   -.505E+01 0.557E+01 0.835E+03   0.504E+01 -.554E+01 -.835E+03   0.127E+00 -.120E+00 -.315E+00   -.569E-01 -.151E-01 0.311E-01
   0.165E+00 0.189E+01 0.835E+03   -.178E+00 -.186E+01 -.835E+03   -.174E-01 -.979E-01 -.326E+00   0.145E-01 0.139E-01 0.274E-01
   0.522E+01 0.300E+01 0.833E+03   -.519E+01 -.296E+01 -.832E+03   -.163E+00 -.925E-01 -.274E+00   0.425E-01 0.456E-02 0.537E-01
   -.282E+01 -.790E+00 -.825E+03   0.292E+01 0.865E+00 0.824E+03   -.102E+00 -.729E-01 0.385E+00   0.147E-02 -.284E-02 0.733E-01
   0.177E+00 0.627E-01 -.839E+03   -.214E+00 -.104E+00 0.838E+03   0.422E-02 0.199E-02 0.694E+00   0.314E-01 0.374E-01 0.652E-01
   0.267E+01 -.538E+00 -.817E+03   -.270E+01 0.591E+00 0.816E+03   0.662E-01 -.269E-01 0.446E+00   -.332E-01 -.262E-01 0.677E-01
   -.630E+00 0.203E+01 -.824E+03   0.560E+00 -.219E+01 0.823E+03   0.202E-01 0.135E+00 0.365E+00   0.509E-01 0.286E-01 0.720E-01
   0.897E+00 0.255E+01 -.817E+03   -.850E+00 -.261E+01 0.816E+03   0.979E-02 0.698E-01 0.448E+00   -.565E-01 -.835E-02 0.665E-01
   -.168E+00 -.543E-01 -.814E+03   0.172E+00 0.587E-01 0.813E+03   -.707E-02 -.577E-02 0.552E+00   0.462E-02 0.448E-03 0.889E-01
   0.619E+00 0.364E+00 -.811E+03   -.584E+00 -.328E+00 0.810E+03   -.189E-02 -.118E-02 0.541E+00   -.337E-01 -.362E-01 0.617E-01
   -.206E+01 -.201E+01 -.825E+03   0.220E+01 0.207E+01 0.824E+03   -.114E+00 -.553E-01 0.385E+00   -.181E-01 -.385E-02 0.773E-01
   0.141E+01 -.153E+01 -.824E+03   -.159E+01 0.156E+01 0.823E+03   0.128E+00 -.518E-01 0.365E+00   0.525E-01 0.120E-01 0.767E-01
   -.111E+01 -.653E+00 -.245E+04   0.862E+00 0.517E+00 0.245E+04   0.272E+00 0.156E+00 0.130E+01   -.262E-01 -.202E-01 0.497E-01
   -.965E+00 0.211E+02 -.246E+04   0.102E+01 -.211E+02 0.246E+04   -.757E-01 -.425E-02 0.867E-01   0.220E-01 0.596E-03 0.409E-01
   -.416E+00 -.327E+00 -.245E+04   0.536E+00 0.290E+00 0.245E+04   -.122E+00 0.556E-01 0.121E+01   0.119E-02 -.202E-01 0.280E-01
   0.178E+02 -.114E+02 -.246E+04   -.178E+02 0.114E+02 0.246E+04   -.360E-01 -.672E-01 0.888E-01   0.159E-01 0.298E-01 0.349E-01
   -.872E+01 -.493E+01 -.246E+04   0.972E+01 0.550E+01 0.245E+04   -.989E+00 -.576E+00 0.112E+01   -.828E-02 0.897E-02 0.262E-01
   -.534E+00 -.523E+00 -.245E+04   0.562E+00 0.503E+00 0.245E+04   -.131E-01 0.219E-01 0.116E+01   -.119E-01 -.165E-02 0.563E-01
   -.456E+00 -.222E+00 -.245E+04   0.480E+00 0.357E+00 0.245E+04   -.105E-01 -.134E+00 0.121E+01   -.125E-01 -.407E-03 0.193E-01
   -.745E+00 -.210E+00 -.245E+04   0.753E+00 0.247E+00 0.245E+04   0.141E-01 -.255E-01 0.116E+01   -.197E-01 -.112E-01 0.544E-01
   0.126E+01 0.765E+00 -.245E+04   -.125E+01 -.748E+00 0.245E+04   -.395E-01 -.269E-01 0.119E+01   0.300E-01 0.856E-02 0.432E-01
   -.392E+01 -.228E+01 -.309E+03   0.433E+01 0.252E+01 0.310E+03   -.397E+00 -.231E+00 -.145E+01   0.130E-02 0.159E-02 0.142E-02
 -----------------------------------------------------------------------------------------------
   0.127E+01 0.737E+00 0.184E+01   0.586E-13 0.279E-12 0.995E-11   -.128E+01 -.755E+00 -.307E+01   -.742E-02 -.319E-02 0.129E+01
 
 
 POSITION                                       TOTAL-FORCE (eV/Angst)
 -----------------------------------------------------------------------------------
      0.00000      0.00000      8.50000         0.055573      0.031647     -0.134037
      2.82843      0.00000      8.50000         0.011965      0.051536     -0.083714
      5.65685      0.00000      8.50000        -0.040531      0.072690     -0.139828
      1.41421      2.44949      8.50000         0.051048     -0.015660     -0.083316
      4.24264      2.44949      8.50000         0.000060     -0.000088     -0.062340
      7.07107      2.44949      8.50000        -0.048266      0.006271     -0.083092
      2.82843      4.89898      8.50000         0.042897     -0.071969     -0.139993
      5.65685      4.89898      8.50000        -0.018665     -0.045122     -0.083565
      8.48528      4.89898      8.50000        -0.060607     -0.035337     -0.092777
      1.41421      0.81650     10.80940         0.083484      0.049550      0.166560
      4.24264      0.81650     10.80940        -0.002085      0.065008      0.135609
      7.07107      0.81650     10.80940        -0.060723      0.108999      0.041797
      2.82843      3.26599     10.80940         0.053744     -0.032908      0.134782
      5.65685      3.26599     10.80940        -0.004613     -0.002292      0.068120
      8.48528      3.26599     10.80940        -0.058385      0.017214      0.134642
      4.24264      5.71548     10.80940         0.063400     -0.104927      0.041297
      7.07107      5.71548     10.80940        -0.015625     -0.056673      0.134802
      9.89949      5.71548     10.80940        -0.084753     -0.047722      0.058043
      8.49198      1.64545     13.10452         0.001084     -0.000382      0.000279
      2.83838      1.63960     13.12234        -0.000613     -0.000920     -0.000117
      5.66022      1.64181     13.09563         0.000820     -0.000060      0.001025
      9.89805      4.07919     13.10430         0.001020      0.000189     -0.000352
      4.25134      4.08223     13.09519         0.000552     -0.000860      0.001825
      7.07480      4.08580     13.09010         0.001630     -0.000336      0.001222
     11.30967      6.53046     13.08365         0.000015     -0.000001     -0.000282
      5.67025      6.53335     13.10471         0.000006     -0.000004      0.000565
      8.48090      6.53390     13.10445         0.000280     -0.000311      0.000143
      0.00773      0.00590     15.41332         0.001035      0.000033     -0.001203
      7.08740      7.32268     15.49254         0.001106     -0.000271     -0.000761
      5.67834      0.01061     15.41842        -0.000002     -0.000524     -0.000565
      9.88357      2.47879     15.49207         0.000746      0.000721     -0.000862
      4.28721      2.47734     15.45983         0.002129      0.001518     -0.000213
      7.07897      2.45846     15.42104         0.003128      0.000951     -0.001762
      2.84693      4.91450     15.41813         0.000966      0.001063     -0.001126
      5.66723      4.90378     15.42098         0.002715      0.000646     -0.002909
      8.49338      4.90529     15.42196         0.000548     -0.000707     -0.001092
      2.66678      1.54122     16.38603         0.014915      0.009039     -0.006806
 -----------------------------------------------------------------------------------
    total drift:                               -0.018333     -0.021183      0.060442


--------------------------------------------------------------------------------------------------------



  FREE ENERGIE OF THE ION-ELECTRON SYSTEM (eV)
  ---------------------------------------------------
  free  energy   TOTEN  =      -104.53086452 eV

  energy  without entropy=     -104.43482898  energy(sigma->0) =     -104.49885267
 


--------------------------------------------------------------------------------------------------------


    POTLOK:  cpu time      2.3959: real time      2.4265


--------------------------------------------------------------------------------------------------------


 writing wavefunctions
     LOOP+:  cpu time    148.2562: real time    151.6644
    4ORBIT:  cpu time      0.0000: real time      0.0000

 total amount of memory used by VASP MPI-rank0   148541. kBytes
=======================================================================

   base      :      30000. kBytes
   nonlr-proj:      22468. kBytes
   fftplans  :       5213. kBytes
   grid      :      24541. kBytes
   one-center:        575. kBytes
   wavefun   :      65744. kBytes
 
  
  
 General timing and accounting informations for this job:
 ========================================================
  
                  Total CPU time used (sec):      164.240
                            User time (sec):      160.954
                          System time (sec):        3.286
                         Elapsed time (sec):      172.958
  
                   Maximum memory used (kb):      629916.
                   Average memory used (kb):          N/A
  
                          Minor page faults:       245900
                          Major page faults:          694
                 Voluntary context switches:         6208
