unknown system                          
           1
     8.468310    0.000000    0.000000
     4.234155    7.333772    0.000000
     0.000000    0.000000   24.965662
   Pt   H 
    36     1
Direct configuration=     1
   0.00000000  0.00000000  0.34046764
   0.33400137  0.00000000  0.34046764
   0.66800274  0.00000000  0.34046764
   0.00000000  0.33400137  0.34046764
   0.33400137  0.33400137  0.34046764
   0.66800274  0.33400137  0.34046764
   0.00000000  0.66800274  0.34046764
   0.33400137  0.66800274  0.34046764
   0.66800274  0.66800274  0.34046764
   0.11133379  0.11133379  0.43297074
   0.44533516  0.11133379  0.43297074
   0.77933653  0.11133379  0.43297074
   0.11133379  0.44533516  0.43297074
   0.44533516  0.44533516  0.43297074
   0.77933653  0.44533516  0.43297074
   0.11133379  0.77933653  0.43297074
   0.44533516  0.77933653  0.43297074
   0.77933653  0.77933653  0.43297074
   0.89061243  0.22436632  0.52490179
   0.22339205  0.22356810  0.52561558
   0.55646529  0.22386993  0.52454565
   0.89072442  0.55622037  0.52489292
   0.22371179  0.55663450  0.52452794
   0.55688344  0.55712071  0.52432416
   0.89029611  0.89046428  0.52406593
   0.22415581  0.89085844  0.52490956
   0.55601998  0.89093287  0.52489912
   0.00050991  0.00080477  0.61738076
   0.33768850  0.99848783  0.62055393
   0.66981689  0.00144711  0.61758508
   0.99812566  0.33799721  0.62053530
   0.33736506  0.33779911  0.61924374
   0.66832369  0.33522475  0.61769015
   0.00112647  0.67011929  0.61757342
   0.33489879  0.66865771  0.61768744
   0.66852885  0.66886387  0.61772671
   0.20983638  0.21015362  0.65634262
